Membrane in water
40167
    1TCq1    O1    1   2.394   0.795  11.233  0.3316  0.4738 -0.6520
    1TCq1    C1    2   2.356   0.672  11.276 -0.7167  0.0432 -0.2624
    1TCq1    O2    3   2.324   0.573  11.210 -0.1640 -0.1740 -0.0025
    1TCq1    C2    4   2.327   0.674  11.419  0.3539  0.1464 -0.8518
    1TCq1    C3    5   2.365   0.786  11.488  0.0675  0.3561 -0.3223
    1TCq1    C4    6   2.311   0.808  11.610  0.3631  0.2993  0.2776
    1TCq1    C5    7   2.244   0.707  11.678  0.0219  0.6938 -0.5895
    1TCq1    C6    8   2.202   0.598  11.602  0.8711 -0.1965  0.4839
    1TCq1    C7    9   2.238   0.584  11.467  0.2675 -0.3138 -0.6806
    1TCq1    C8   10   2.082   0.525  11.644 -0.6461 -0.7934  0.4650
    1TCq1    O4   11   2.001   0.578  11.715  0.0485 -0.0996  0.5099
    1TCq1    C9   12   2.352   0.922  11.686  0.3819  0.3363  0.0949
    1TCq1    O5   13   2.334   0.920  11.805  0.3670 -0.4433 -0.6108
    1TCq1    O6   14   2.378   1.019  11.617 -0.1555 -0.1347 -1.0412
    1TCq1    H1   15   2.384   0.859  11.307  0.3422 -1.3898  0.9706
    1TCq1    H2   16   2.453   0.845  11.465  0.7243 -0.9079 -1.0247
    1TCq1    H3   17   2.189   0.725  11.770  0.5313  2.1615 -0.5691
    1TCq1    H4   18   2.194   0.507  11.404  3.3842 -1.0366 -1.9460
    2MPD2     C   19   1.774   0.119  11.550  0.1737  0.0245  0.2520
    2MPD2    C1   20   1.742   0.239  11.611 -0.2394 -0.6291 -0.1171
    2MPD2    C2   21   1.843   0.332  11.631  0.0328  0.3793 -0.8107
    2MPD2    C3   22   1.970   0.308  11.588  0.0833 -0.4380  0.1052
    2MPD2    C4   23   2.004   0.187  11.528 -0.1857  0.6070 -0.1305
    2MPD2    C5   24   1.903   0.097  11.508 -0.2366  0.1002 -0.8515
    2MPD2     H   25   1.821   0.422  11.688 -0.5114 -0.6395  0.5747
    2MPD2    H1   26   2.107   0.164  11.500 -0.3748 -1.0912  0.5593
    2MPD2    H2   27   1.699   0.042  11.540 -1.1839  1.4518 -0.6960
    2MPD2    H3   28   1.931   4.724  11.477  1.2703  1.4408 -3.8257
    2MPD2     N   29   2.078   0.397  11.597 -0.0313  0.2196  0.1964
    2MPD2    H5   30   2.171   0.371  11.564 -0.0456  0.3465  0.0562
    2MPD2    N1   31   1.623   0.272  11.681  0.0331  0.4729 -0.7353
    2MPD2    H7   32   1.621   0.367  11.717 -3.9491  0.7041 -1.5118
    3TCq1    O1   33   1.088   0.538  10.292  0.1498 -0.6075  0.0998
    3TCq1    C1   34   0.992   0.582  10.367 -0.9453  0.3072 -0.5206
    3TCq1    O2   35   0.877   0.536  10.359 -0.2923  0.3403 -0.0994
    3TCq1    C2   36   1.026   0.706  10.427  0.2245  1.0573 -0.3130
    3TCq1    C3   37   1.119   0.796  10.375 -0.4086  0.2631  0.0733
    3TCq1    C4   38   1.132   0.922  10.436 -0.8621 -0.7301 -0.0135
    3TCq1    C5   39   1.062   0.960  10.545  0.0478 -0.2999 -0.0211
    3TCq1    C6   40   0.963   0.870  10.590 -0.4053 -0.4288 -0.0414
    3TCq1    C7   41   0.948   0.745  10.535 -0.8944  0.0752  0.7736
    3TCq1    C8   42   0.882   0.887  10.712  0.9539 -0.0390  0.7630
    3TCq1    O4   43   0.810   0.799  10.750 -0.0253  0.4784 -0.1821
    3TCq1    C9   44   1.222   1.014  10.368  0.5068  1.4711 -0.2941
    3TCq1    O5   45   1.280   0.957  10.271  0.2152  0.1499 -0.2315
    3TCq1    O6   46   1.209   1.138  10.395  0.5109 -0.2174  0.1523
    3TCq1    H1   47   1.180   0.564  10.311  1.0910 -2.8389 -1.4136
    3TCq1    H2   48   1.164   0.775  10.279 -0.9554 -3.0835  0.5170
    3TCq1    H3   49   1.071   1.058  10.591  3.3578 -0.6330 -0.0076
    3TCq1    H4   50   0.876   0.673  10.572 -3.7394  2.1267 -0.7577
    4MPD2     C   51   0.688   1.186  11.073  0.3275  0.9422 -0.5258
    4MPD2    C1   52   0.733   1.281  10.980 -0.4599  0.3878 -0.2418
    4MPD2    C2   53   0.802   1.223  10.870  0.2756 -0.5068 -0.7163
    4MPD2    C3   54   0.808   1.083  10.851 -0.4780  0.5109  0.4526
    4MPD2    C4   55   0.767   0.994  10.952 -0.0189  0.1228 -0.7614
    4MPD2    C5   56   0.708   1.050  11.065  0.0798  0.7946  0.4569
    4MPD2     H   57   0.832   1.285  10.786 -2.1610 -1.0405 -1.9925
    4MPD2    H1   58   0.768   0.886  10.946 -0.7056  0.0771 -0.0669
    4MPD2    H2   59   0.652   1.223  11.168  1.5428 -0.0636  0.3286
    4MPD2    H3   60   0.684   0.988  11.150 -0.4223  0.4291  0.0468
    4MPD2     N   61   0.869   1.025  10.737  0.5077 -0.3695  0.0318
    4MPD2    H5   62   0.917   1.086  10.672 -1.5385  0.9302 -0.2385
    4MPD2    N1   63   0.709   1.416  10.989  0.1856  0.1525  0.3401
    4MPD2    H7   64   0.734   1.475  10.911 -0.6899  1.5537  1.1235
    5TCq1    O1   65   1.464   2.885  12.035 -0.1232 -0.6748  0.3077
    5TCq1    C1   66   1.492   2.950  11.917  0.0411  0.0270  0.2825
    5TCq1    O2   67   1.611   2.953  11.877  0.5934 -0.0169  0.3745
    5TCq1    C2   68   1.374   2.931  11.830  0.6374  0.9413 -0.9946
    5TCq1    C3   69   1.250   2.950  11.889  0.3627 -0.3552 -0.2085
    5TCq1    C4   70   1.146   2.910  11.807 -0.4653  0.3226  0.3015
    5TCq1    C5   71   1.167   2.865  11.679  0.0926  0.1987 -0.1179
    5TCq1    C6   72   1.293   2.850  11.631 -1.0235 -0.2506  0.6683
    5TCq1    C7   73   1.402   2.874  11.711  0.1025  0.0307 -0.1507
    5TCq1    C8   74   1.325   2.807  11.504  0.0282  0.9852 -0.1710
    5TCq1    O4   75   1.426   2.741  11.498  0.4544 -0.0960  0.0115
    5TCq1    C9   76   1.016   2.938  11.853 -0.1253 -0.0665 -0.4125
    5TCq1    O5   77   0.999   3.046  11.912  0.2382  0.8160 -0.1281
    5TCq1    O6   78   0.934   2.865  11.801 -0.3564  0.0124 -0.5604
    5TCq1    H1   79   1.375   2.845  12.044 -0.9737  1.1381 -0.0968
    5TCq1    H2   80   1.226   2.992  11.986 -1.0140 -1.2825 -0.1534
    5TCq1    H3   81   1.076   2.847  11.624 -0.4921 -1.5021  1.3887
    5TCq1    H4   82   1.506   2.863  11.681  0.9107  3.4067  1.4089
    6MPD2     C   83   1.135   2.853  11.190  0.2965 -0.3350 -0.2935
    6MPD2    C1   84   1.229   2.804  11.276 -0.5999 -0.0421  0.0499
    6MPD2    C2   85   1.314   2.709  11.222 -0.1798 -0.7049  0.2212
    6MPD2    C3   86   1.303   2.658  11.095  0.9320 -0.2606  0.0690
    6MPD2    C4   87   1.200   2.709  11.014 -0.1096  0.1827 -0.1637
    6MPD2    C5   88   1.130   2.820  11.059 -0.1605  0.6686  0.5053
    6MPD2     H   89   1.397   2.661  11.274  1.3339  0.7748 -0.8442
    6MPD2    H1   90   1.179   2.666  10.917  0.3205  1.9592 -1.0432
    6MPD2    H2   91   1.073   2.937  11.219 -0.0220 -0.0536 -1.7782
    6MPD2    H3   92   1.055   2.862  10.993 -0.0172  0.0893 -0.0308
    6MPD2     N   93   1.396   2.557  11.060  0.5391 -0.3148 -1.0026
    6MPD2    H5   94   1.470   2.534  11.126 -0.6106 -1.7081 -0.1957
    6MPD2    N1   95   1.235   2.850  11.407 -0.2650  0.2472  0.1714
    6MPD2    H7   96   1.182   2.935  11.425 -1.2691 -0.1795 -0.8212
    7TCq1    O1   97   3.055   2.474  12.527  0.5445 -0.1202  0.1230
    7TCq1    C1   98   3.155   2.422  12.602  0.3706  0.1164  0.8965
    7TCq1    O2   99   3.275   2.448  12.594  0.2686  0.5544  0.7245
    7TCq1    C2  100   3.102   2.378  12.735 -0.8362  0.7077 -0.2871
    7TCq1    C3  101   2.992   2.434  12.801  0.8969  0.2350 -0.0076
    7TCq1    C4  102   2.985   2.423  12.941  0.7237  0.3698 -0.0849
    7TCq1    C5  103   3.075   2.353  13.015 -0.1855  0.1038 -0.1355
    7TCq1    C6  104   3.181   2.297  12.945  0.2642 -0.0182 -0.4825
    7TCq1    C7  105   3.194   2.308  12.810 -0.5545  0.8593  0.5546
    7TCq1    C8  106   3.269   2.202  13.016 -0.4677 -0.7597 -0.5787
    7TCq1    O4  107   3.242   2.178  13.130 -0.3146  0.7167 -0.1829
    7TCq1    C9  108   2.862   2.471  13.009  1.0470  0.0868 -0.5122
    7TCq1    O5  109   2.868   2.504  13.131  0.1854  0.0653  0.2356
    7TCq1    O6  110   2.771   2.502  12.931  0.4839  0.4171 -0.1804
    7TCq1    H1  111   2.963   2.445  12.547  0.1222 -1.0580 -3.1542
    7TCq1    H2  112   2.923   2.503  12.754  3.0434  1.0310 -1.9950
    7TCq1    H3  113   3.064   2.340  13.122  2.0272 -0.9602 -0.0437
    7TCq1    H4  114   3.275   2.266  12.751  1.1769  0.9681  2.8745
    8MPD2     C  115   3.678   1.920  13.048  0.1053 -0.4555  0.3024
    8MPD2    C1  116   3.552   1.884  13.097 -0.4290  0.1400  0.1465
    8MPD2    C2  117   3.457   1.983  13.075  0.3311 -0.1856 -0.2003
    8MPD2    C3  118   3.485   2.089  12.987  1.1612 -0.0909  0.8476
    8MPD2    C4  119   3.612   2.118  12.937 -0.0616  0.1200 -0.3739
    8MPD2    C5  120   3.709   2.028  12.972 -0.0664 -0.4824 -0.2162
    8MPD2     H  121   3.358   1.967  13.117  0.9075  1.1667  1.6191
    8MPD2    H1  122   3.621   2.203  12.871 -0.9292  0.5461  0.0659
    8MPD2    H2  123   3.761   1.852  13.067  0.7905 -0.0280 -1.2017
    8MPD2    H3  124   3.810   2.025  12.934  0.0808 -0.1388  0.1456
    8MPD2     N  125   3.391   2.188  12.954 -0.0219  0.2833  1.3725
    8MPD2    H5  126   3.414   2.262  12.888 -1.7213 -1.0379 -0.7295
    8MPD2    N1  127   3.544   1.774  13.190  0.2061 -0.2868 -0.6135
    8MPD2    H7  128   3.622   1.709  13.190  1.5925  1.3948  3.9123
    9TCq1    O1  129   1.109   0.726  10.857  0.4942  0.2966 -0.1822
    9TCq1    C1  130   1.134   0.611  10.795 -0.4751 -0.5242  0.4878
    9TCq1    O2  131   1.044   0.529  10.769 -0.8668 -0.2175 -0.3999
    9TCq1    C2  132   1.265   0.624  10.739  0.4394  0.0661  0.1850
    9TCq1    C3  133   1.294   0.577  10.613  0.4328 -0.7802 -0.4360
    9TCq1    C4  134   1.410   0.619  10.552  0.9740  0.2512 -0.1421
    9TCq1    C5  135   1.502   0.692  10.619  0.1121 -0.5590  0.1773
    9TCq1    C6  136   1.483   0.718  10.755 -0.1369  0.6836 -0.1979
    9TCq1    C7  137   1.358   0.698  10.812 -0.3156 -0.8860  0.4570
    9TCq1    C8  138   1.591   0.792  10.824 -0.6217  0.4318  0.3557
    9TCq1    O4  139   1.704   0.798  10.778  0.0088  0.1309  0.2459
    9TCq1    C9  140   1.430   0.599  10.409 -0.2889 -0.3523 -0.9947
    9TCq1    O5  141   1.538   0.636  10.358 -0.6418 -0.3318 -0.0702
    9TCq1    O6  142   1.322   0.582  10.337 -0.1990  0.5524  0.1572
    9TCq1    H1  143   1.177   0.797  10.855  0.4771  0.3064 -0.4995
    9TCq1    H2  144   1.214   0.525  10.561  2.5707 -2.7841 -1.6857
    9TCq1    H3  145   1.587   0.738  10.570  0.2828 -0.9465  0.1089
    9TCq1    H4  146   1.336   0.705  10.918 -0.1083 -0.5254  0.4800
   10MPD2     C  147   1.747   0.971  11.008  0.6272  0.1921 -0.4399
   10MPD2    C1  148   1.614   0.937  11.023 -0.4708  0.8743  0.6567
   10MPD2    C2  149   1.539   0.986  11.129  0.0690 -0.1644  1.0803
   10MPD2    C3  150   1.594   1.067  11.223  0.0704 -0.0280 -0.5891
   10MPD2    C4  151   1.732   1.099  11.210 -0.3365 -0.2658  0.3515
   10MPD2    C5  152   1.801   1.054  11.102 -0.4748 -0.4311  0.6117
   10MPD2     H  153   1.434   0.963  11.113 -0.1925  2.4473 -1.0677
   10MPD2    H1  154   1.775   1.160  11.288  0.0208 -1.8974  1.4278
   10MPD2    H2  155   1.814   0.925  10.937  2.4773  2.0092  0.1098
   10MPD2    H3  156   1.904   1.084  11.089 -0.8168  1.2973  1.9137
   10MPD2     N  157   1.523   1.115  11.337  0.2168 -0.3662  0.1794
   10MPD2    H5  158   1.573   1.185  11.391  0.6871 -0.1773 -0.4999
   10MPD2    N1  159   1.545   0.846  10.940  0.0273 -0.7144 -0.0927
   10MPD2    H7  160   1.449   0.829  10.968  0.1359  0.7344  1.1305
   11TCq1    O1  161   2.602   0.982  14.036 -0.5253  0.2398  0.0309
   11TCq1    C1  162   2.508   0.900  14.102  0.3459 -0.0226  0.2270
   11TCq1    O2  163   2.471   0.789  14.057  0.0163 -0.1559 -0.4720
   11TCq1    C2  164   2.442   0.982  14.194 -0.4248 -0.0481 -0.0547
   11TCq1    C3  165   2.514   1.069  14.265  0.2000  0.2867 -1.0922
   11TCq1    C4  166   2.443   1.162  14.331 -0.1496  0.0032  0.1572
   11TCq1    C5  167   2.309   1.164  14.334 -0.1089 -0.5062 -0.0378
   11TCq1    C6  168   2.246   1.063  14.263  0.2943 -0.9621 -0.3343
   11TCq1    C7  169   2.307   0.971  14.183  0.0657 -0.6469  0.9418
   11TCq1    C8  170   2.098   1.072  14.260 -0.0898 -0.0774 -0.0843
   11TCq1    O4  171   2.043   1.166  14.316 -0.0667 -0.0107  0.0001
   11TCq1    C9  172   2.516   1.257  14.415  0.1043 -0.6086  0.1035
   11TCq1    O5  173   2.631   1.293  14.375 -0.2808  0.3039  0.0475
   11TCq1    O6  174   2.451   1.320  14.501  0.5214 -0.0867 -0.3325
   11TCq1    H1  175   2.621   1.070  14.075 -1.7996  2.0746 -3.4983
   11TCq1    H2  176   2.622   1.079  14.269  0.3189 -0.6737 -2.1065
   11TCq1    H3  177   2.252   1.232  14.398  0.4968  0.7110 -0.7881
   11TCq1    H4  178   2.256   0.900  14.119  0.3239  0.4216 -0.4331
   12MPD2     C  179   1.810   1.046  14.178  0.2267 -0.7333  0.4945
   12MPD2    C1  180   1.912   0.951  14.155  0.2683 -0.3277 -0.6150
   12MPD2    C2  181   1.878   0.838  14.074 -0.1411 -0.6594 -0.5988
   12MPD2    C3  182   1.756   0.809  14.029  0.4734 -0.5646  0.0987
   12MPD2    C4  183   1.656   0.900  14.056  0.9323 -0.3550 -0.1957
   12MPD2    C5  184   1.688   1.010  14.133 -0.6509 -0.7131 -0.3549
   12MPD2     H  185   1.954   0.768  14.041  1.2570  0.1848  0.8242
   12MPD2    H1  186   1.553   0.898  14.022 -0.2735 -0.3109  3.3870
   12MPD2    H2  187   1.821   1.147  14.216 -1.8641 -0.6174  0.7950
   12MPD2    H3  188   1.607   1.078  14.158 -0.4250 -1.0567  1.3396
   12MPD2     N  189   1.735   0.697  13.942  0.3419  0.9651  0.2577
   12MPD2    H5  190   1.817   0.644  13.916  1.2225  2.4701 -0.0256
   12MPD2    N1  191   2.048   0.963  14.197  0.0624  0.1622 -0.2066
   12MPD2    H7  192   2.099   0.878  14.177  1.7669  0.3984  3.1596
   13TCq1    O1  193   1.962   0.785  11.431 -0.1877 -0.1002  0.5388
   13TCq1    C1  194   1.988   0.828  11.305 -0.6695 -0.2400 -0.3716
   13TCq1    O2  195   2.096   0.877  11.273 -0.0774 -0.4783  0.2499
   13TCq1    C2  196   1.923   0.734  11.212 -0.4241 -0.1045 -0.0372
   13TCq1    C3  197   2.003   0.670  11.114 -0.6472 -0.1454 -0.6767
   13TCq1    C4  198   1.947   0.574  11.031 -0.3529 -0.2808 -0.5126
   13TCq1    C5  199   1.817   0.542  11.034  0.7209  0.3173  0.0634
   13TCq1    C6  200   1.742   0.603  11.138  0.8005 -0.4219  0.7393
   13TCq1    C7  201   1.793   0.696  11.228 -0.2804 -0.3850  0.1012
   13TCq1    C8  202   1.596   0.568  11.142 -0.1803 -0.5557 -0.3131
   13TCq1    O4  203   1.537   0.610  11.244  0.0151 -0.5390  0.3098
   13TCq1    C9  204   2.038   0.513  10.938 -0.1288 -0.1776 -0.7525
   13TCq1    O5  205   2.000   0.441  10.843 -0.2895 -0.0755  0.1994
   13TCq1    O6  206   2.157   0.564  10.936  0.2198 -0.6650  0.1942
   13TCq1    H1  207   1.882   0.728  11.439 -0.0785 -0.5878 -1.9879
   13TCq1    H2  208   2.109   0.688  11.121 -0.6715  0.4535 -1.8550
   13TCq1    H3  209   1.787   0.479  10.951  1.1490 -3.0002  2.4079
   13TCq1    H4  210   1.730   0.744  11.302  0.8116  1.3536 -0.1054
   14MPD2     C  211   1.388   0.339  10.936  0.5693  0.2425 -0.5666
   14MPD2    C1  212   1.419   0.433  11.029 -0.6235 -0.5690 -0.0902
   14MPD2    C2  213   1.325   0.454  11.128  0.0266 -0.9077  0.8185
   14MPD2    C3  214   1.201   0.404  11.113  0.4180 -0.0183 -0.5917
   14MPD2    C4  215   1.168   0.320  11.012  0.4315  0.4443 -0.0856
   14MPD2    C5  216   1.264   0.286  10.927 -0.0866 -0.1929 -0.9438
   14MPD2     H  217   1.344   0.524  11.208 -0.2467 -0.2558  0.3203
   14MPD2    H1  218   1.067   0.283  11.017  0.8063 -0.5499  0.0340
   14MPD2    H2  219   1.458   0.316  10.857  1.2557  1.9683 -0.4525
   14MPD2    H3  220   1.245   0.209  10.853  3.0270 -0.7513 -1.1662
   14MPD2     N  221   1.106   0.460  11.204 -0.1245  0.0201  0.1968
   14MPD2    H5  222   1.139   0.542  11.255 -2.0914  0.8573  0.1313
   14MPD2    N1  223   1.551   0.489  11.034  0.1913  0.3677 -0.5688
   14MPD2    H7  224   1.621   0.459  10.966 -0.8216 -0.7096 -1.1360
   15TCq1    O1  225   3.777   0.854   2.142  0.0345  0.1225 -0.1837
   15TCq1    C1  226   3.811   0.774   2.040 -0.2352 -0.1153 -0.2912
   15TCq1    O2  227   3.930   0.767   2.004  0.5192  0.2283 -0.7712
   15TCq1    C2  228   3.712   0.668   2.020 -0.7586  0.5744  0.1285
   15TCq1    C3  229   3.611   0.640   2.113  0.1746 -0.0608  0.6225
   15TCq1    C4  230   3.536   0.526   2.091 -0.4843  0.0417  0.4081
   15TCq1    C5  231   3.558   0.442   1.984 -0.0981  0.5650 -0.7459
   15TCq1    C6  232   3.659   0.475   1.898  0.1109  0.6959 -0.7988
   15TCq1    C7  233   3.738   0.585   1.912 -0.0608  0.1769  0.3310
   15TCq1    C8  234   3.691   0.378   1.795 -0.1064 -0.5885 -0.0652
   15TCq1    O4  235   3.808   0.375   1.759 -0.4096 -0.6687 -0.2388
   15TCq1    C9  236   3.443   0.491   2.195  0.5546 -0.4192 -0.4049
   15TCq1    O5  237   3.379   0.382   2.186 -0.0980 -0.2561  0.0507
   15TCq1    O6  238   3.436   0.573   2.291  0.0006  0.0741  0.2936
   15TCq1    H1  239   3.680   0.864   2.155 -0.1740 -0.2114 -1.4831
   15TCq1    H2  240   3.595   0.711   2.194 -0.7481 -0.3864  0.7203
   15TCq1    H3  241   3.498   0.352   1.971  1.4952 -0.2838 -2.2820
   15TCq1    H4  242   3.825   0.600   1.850 -0.9108 -0.7745 -1.1045
   16MPD2     C  243   3.465   0.144   1.625 -0.8813  0.3469 -0.8631
   16MPD2    C1  244   3.586   0.204   1.661  0.5027  0.0721  1.4389
   16MPD2    C2  245   3.697   0.160   1.590 -0.3010  0.1963 -0.0634
   16MPD2    C3  246   3.697   0.052   1.503  0.1891 -0.2463 -0.0930
   16MPD2    C4  247   3.575   4.723   1.473  0.4169  0.2847 -0.3435
   16MPD2    C5  248   3.461   0.041   1.534  0.1490 -0.4334  0.1840
   16MPD2     H  249   3.792   0.209   1.612 -0.4826 -0.1701  1.5597
   16MPD2    H1  250   3.563   4.640   1.405 -0.5563 -0.6767  1.0155
   16MPD2    H2  251   3.368   0.171   1.665 -1.1348  1.0830 -1.9814
   16MPD2    H3  252   3.365   4.724   1.510 -0.5841 -0.2245  2.7569
   16MPD2     N  253   3.824   0.017   1.442  0.2732 -0.5011 -0.4605
   16MPD2    H5  254   3.912   0.056   1.473 -0.7723  1.1532  0.4452
   16MPD2    N1  255   3.584   0.302   1.757 -0.5990 -0.3434 -0.1485
   16MPD2    H7  256   3.494   0.322   1.799 -0.1139 -0.1955  0.8200
   17TCq1    O1  257   0.979   0.135  11.613 -0.1121 -0.4794 -0.0093
   17TCq1    C1  258   1.058   0.207  11.533 -0.8988 -0.2265  0.5121
   17TCq1    O2  259   1.075   0.329  11.534 -0.1707  0.0156 -0.0980
   17TCq1    C2  260   1.130   0.126  11.449 -0.5238  0.2476  0.3106
   17TCq1    C3  261   1.067   0.026  11.379 -0.2107 -0.4466 -0.3349
   17TCq1    C4  262   1.133   4.705  11.269 -0.2592  0.3125  0.1166
   17TCq1    C5  263   1.250   0.034  11.220 -0.4005 -0.5820 -1.0769
   17TCq1    C6  264   1.307   0.133  11.292 -0.2159 -0.1204 -0.1785
   17TCq1    C7  265   1.248   0.189  11.404 -0.9004  0.2794 -0.1741
   17TCq1    C8  266   1.451   0.161  11.290  0.0155 -0.1400  0.3320
   17TCq1    O4  267   1.492   0.254  11.358  0.5274 -0.7586 -0.4935
   17TCq1    C9  268   1.078   4.593  11.198 -0.2864 -0.7955  0.4885
   17TCq1    O5  269   1.129   4.567  11.086 -0.7756  0.3492 -0.0086
   17TCq1    O6  270   0.993   4.524  11.257 -0.1273 -0.0639  0.6610
   17TCq1    H1  271   1.027   0.049  11.608  1.2806  0.1924  2.0007
   17TCq1    H2  272   0.965   4.724  11.403  0.1394  0.4235  2.1391
   17TCq1    H3  273   1.291   4.726  11.126  2.3059  0.1764 -0.1771
   17TCq1    H4  274   1.289   0.276  11.454  0.5849 -1.2146  1.2605
   18MPD2     C  275   1.742   0.213  11.221 -0.1001 -0.0428  0.3786
   18MPD2    C1  276   1.660   0.123  11.156  0.2462 -0.6801 -0.2684
   18MPD2    C2  277   1.701   0.071  11.033  0.0568 -0.8059  0.0471
   18MPD2    C3  278   1.827   0.106  10.979 -0.2569 -0.1677  0.2470
   18MPD2    C4  279   1.907   0.190  11.049 -0.1930 -0.0036  0.0424
   18MPD2    C5  280   1.868   0.236  11.168 -0.1250 -0.0676  0.4534
   18MPD2     H  281   1.633   0.011  10.973 -0.2050  0.1400 -0.5958
   18MPD2    H1  282   2.011   0.201  11.022 -0.0189 -2.5925 -0.4069
   18MPD2    H2  283   1.711   0.258  11.315 -1.0221 -1.9515  0.9765
   18MPD2    H3  284   1.934   0.300  11.225 -1.1034  0.0977  1.4032
   18MPD2     N  285   1.876   0.058  10.854  0.3203  0.6295  0.8961
   18MPD2    H5  286   1.949   0.109  10.805 -0.6118 -0.0966 -1.2837
   18MPD2    N1  287   1.525   0.101  11.186 -0.0047  0.1889 -0.1781
   18MPD2    H7  288   1.462   0.060  11.117 -0.4812 -1.3269  1.1659
   19TMC2    C1  289   2.987   0.760  13.917  0.7254 -0.3814  0.5652
   19TMC2    C2  290   2.964   0.843  14.027  0.4713 -0.3429  0.1784
   19TMC2    C3  291   2.863   0.813  14.110 -0.8611 -0.4625  0.2277
   19TMC2    C4  292   2.921   0.639  13.897  0.4345  0.0506  0.0926
   19TMC2    C5  293   2.824   0.612  13.989  1.0936  0.5673  0.1705
   19TMC2    C6  294   2.798   0.692  14.094  0.2298  0.1159 -0.5884
   19TMC2     C  295   3.116   0.772  13.852 -0.4086 -0.7115 -0.1527
   19TMC2     O  296   3.146   0.884  13.808 -0.5330 -0.5060 -0.5548
   19TMC2     H  297   3.034   0.924  14.044  0.4535  0.0417 -1.5661
   19TMC2    H1  298   2.949   0.574  13.815  1.3360  0.5257  0.0161
   19TMC2    H2  299   2.716   0.665  14.160  0.6918  0.8886  0.2986
   19TMC2    C7  300   2.744   0.491  13.981  0.2534  0.1676  0.5232
   19TMC2    C8  301   2.856   0.879  14.238 -0.3167  0.2000 -0.5791
   19TMC2    O1  302   2.804   0.391  13.947 -0.1668 -1.0734 -0.2376
   19TMC2    O2  303   2.782   0.841  14.327 -0.2185  0.2991  0.2432
   19TMC2    O5  304   2.884   1.009  14.214  0.6653  0.0760  0.1253
   19TMC2    H5  305   2.896   1.033  14.120 -0.6112 -1.9086 -0.5513
   20MPD2     C  306   3.350   0.715  13.693  0.7741  0.3478  0.3183
   20MPD2    C1  307   3.305   0.634  13.787 -0.2917  0.1433 -0.2863
   20MPD2    C2  308   3.387   0.534  13.829 -0.0559  0.6831  0.3230
   20MPD2    C3  309   3.503   0.506  13.758 -0.0229 -0.2269 -0.2878
   20MPD2    C4  310   3.546   0.590  13.657 -0.4502  0.0078 -0.2547
   20MPD2    C5  311   3.473   0.700  13.629 -0.1441 -0.7618 -0.2120
   20MPD2     H  312   3.347   0.477  13.912  0.3758  0.3149  0.2807
   20MPD2    H1  313   3.641   0.571  13.608 -0.4379 -0.3331 -0.0927
   20MPD2    H2  314   3.296   0.800  13.656 -1.1968 -1.7262 -1.5552
   20MPD2    H3  315   3.506   0.765  13.549 -0.9414  0.4319  0.4270
   20MPD2     N  316   3.585   0.393  13.788 -0.7310  0.5413  0.6075
   20MPD2    H5  317   3.663   0.372  13.727 -2.3328 -1.8731 -0.6112
   20MPD2    N1  318   3.185   0.653  13.851 -0.6099  0.6383 -0.4352
   20MPD2    H7  319   3.154   0.577  13.910 -0.8710  0.2948 -1.0076
   21MPD2     C  320   0.540   1.018  14.078  0.9787  0.1592  0.0839
   21MPD2    C1  321   0.649   0.996  14.161  0.4290  0.4523  0.4156
   21MPD2    C2  322   0.637   1.023  14.295  0.3742 -0.1588 -0.0611
   21MPD2    C3  323   0.521   1.083  14.349 -0.0694 -0.2249 -0.1757
   21MPD2    C4  324   0.414   1.112  14.265 -0.1560  0.0736  0.5724
   21MPD2    C5  325   0.428   1.086  14.133  0.0802  0.5318 -0.2887
   21MPD2     H  326   0.721   1.007  14.362  1.0282 -0.4499 -0.9475
   21MPD2    H1  327   0.317   1.146  14.300  1.0845  1.2021  2.9251
   21MPD2    H2  328   0.549   1.014  13.970 -0.0875  1.1449 -0.0419
   21MPD2    H3  329   0.355   1.133  14.068  1.0317 -0.3276 -2.0019
   21MPD2     N  330   0.497   1.074  14.490 -0.1717  0.2449  0.0905
   21MPD2    H5  331   0.412   1.120  14.522 -1.7793 -1.6028 -1.4971
   21MPD2    N1  332   0.768   0.938  14.108  0.0518 -0.3133 -0.0378
   21MPD2    H7  333   0.845   0.945  14.174  0.3275 -3.6261 -0.0083
   22TCq2    C1  334   0.575   1.008  14.579 -0.0554  0.5573 -0.1396
   22TCq2    O2  335   0.664   0.923  14.573 -0.2449 -0.3131  0.0939
   22TCq2    C2  336   0.522   1.028  14.717  0.0220 -0.4037 -0.2525
   22TCq2    C3  337   0.537   0.929  14.808 -0.1386 -0.2929 -0.2710
   22TCq2    C4  338   0.476   0.942  14.932 -0.0932  1.1325  0.0478
   22TCq2    C5  339   0.384   1.038  14.963  0.4617 -0.4017  0.0689
   22TCq2    C6  340   0.372   1.136  14.872  0.2863  0.2691 -0.3611
   22TCq2    C7  341   0.433   1.129  14.750  0.8128 -0.7131 -0.0127
   22TCq2    C8  342   0.282   1.234  14.914  0.5227 -0.8668  0.3120
   22TCq2    O4  343   0.293   1.277  15.025  0.3943  0.0551 -0.4694
   22TCq2    C9  344   0.511   0.851  15.032 -0.2672  0.4615 -0.9504
   22TCq2    O5  345   0.559   0.743  14.992 -0.4182 -0.1061  0.1491
   22TCq2    O6  346   0.511   0.888  15.151 -0.1613 -0.3833  0.2097
   22TCq2    H2  347   0.605   0.845  14.793 -0.6338 -0.9749  1.3434
   22TCq2    H3  348   0.332   1.046  15.058 -0.0259  0.2289 -0.2631
   22TCq2    H4  349   0.424   1.215  14.685 -1.1469 -1.6744 -0.9991
   23MPD2     C  350   2.505   2.205  15.195 -0.3144 -0.3702 -0.1977
   23MPD2    C1  351   2.425   2.102  15.158 -0.3228  0.5437 -0.8353
   23MPD2    C2  352   2.322   2.120  15.061 -0.1444 -0.2721 -0.0996
   23MPD2    C3  353   2.307   2.245  15.005  0.0483 -0.2368 -0.1118
   23MPD2    C4  354   2.393   2.347  15.040  0.3802 -0.0334  0.6919
   23MPD2    C5  355   2.494   2.322  15.130 -0.0292 -0.0981  0.1911
   23MPD2     H  356   2.259   2.033  15.046 -1.2656  0.7375 -1.2255
   23MPD2    H1  357   2.379   2.450  15.012 -3.0730 -0.7565 -0.2612
   23MPD2    H2  358   2.566   2.204  15.284 -0.0809 -1.3607 -0.3619
   23MPD2    H3  359   2.552   2.405  15.168 -0.3441 -0.8458  2.3259
   23MPD2     N  360   2.208   2.281  14.915  0.1905 -0.4149  0.6648
   23MPD2    H5  361   2.204   2.380  14.891  0.2414 -0.5320  0.1704
   23MPD2    N1  362   2.452   1.983  15.229 -0.2279 -0.1104 -0.1191
   23MPD2    H7  363   2.529   1.990  15.295 -0.0902 -1.9959 -0.0820
   24TCq2    C1  364   2.117   2.193  14.862  0.6032 -0.0179  0.1503
   24TCq2    O2  365   2.102   2.074  14.876  0.1511 -0.4602  0.0928
   24TCq2    C2  366   2.026   2.249  14.761 -0.1969  0.2660 -0.3938
   24TCq2    C3  367   2.079   2.338  14.675  0.2131  0.6105 -0.3421
   24TCq2    C4  368   2.005   2.390  14.572 -0.4645 -1.0646  0.3341
   24TCq2    C5  369   1.884   2.337  14.539 -0.8252  0.1460 -0.1447
   24TCq2    C6  370   1.834   2.239  14.626  0.3292  0.6624  0.0169
   24TCq2    C7  371   1.900   2.192  14.736  0.2236 -0.0367 -0.2010
   24TCq2    C8  372   1.694   2.187  14.611  0.1485 -0.1491  0.0249
   24TCq2    O4  373   1.640   2.120  14.700 -0.1233 -0.1887  0.4979
   24TCq2    C9  374   2.058   2.494  14.483  0.1541 -0.1409  0.3028
   24TCq2    O5  375   2.157   2.553  14.525 -0.3399 -0.2992  0.2751
   24TCq2    O6  376   2.000   2.512  14.374  0.1244 -0.4996 -0.9571
   24TCq2    H2  377   2.177   2.381  14.693  0.5942 -0.9077  1.1485
   24TCq2    H3  378   1.828   2.383  14.459 -0.8720  0.5287  0.1050
   24TCq2    H4  379   1.870   2.105  14.793 -2.7798 -0.4061 -2.3889
   25TMC2    C1  380   0.411   4.379  11.414 -0.5530 -0.3703 -0.2475
   25TMC2    C2  381   0.322   4.392  11.310 -0.3452  0.4674  1.0432
   25TMC2    C3  382   0.267   4.516  11.295  0.2479  0.4296  0.5219
   25TMC2    C4  383   0.428   4.474  11.517 -0.1219 -0.4260  0.2895
   25TMC2    C5  384   0.365   4.592  11.499 -0.5166  0.0649  0.1445
   25TMC2    C6  385   0.293   4.612  11.384  0.1114  0.7239 -0.0530
   25TMC2     C  386   0.531   4.304  11.391 -0.0467 -0.1864  0.2139
   25TMC2     O  387   0.634   4.345  11.439 -0.3086  0.6275 -0.0095
   25TMC2     H  388   0.299   4.319  11.233 -2.6922  2.2964 -0.0069
   25TMC2    H1  389   0.492   4.451  11.601  0.8753 -1.8699 -0.8505
   25TMC2    H2  390   0.239   4.705  11.379 -3.4187 -1.2743  0.6497
   25TMC2    C7  391   0.349   4.687  11.609 -0.1513 -0.2745  0.5624
   25TMC2    C8  392   0.170   4.531  11.190 -0.0322  0.0801 -0.3042
   25TMC2    O1  393   0.301   0.067  11.582 -0.0234  0.2123 -0.7820
   25TMC2    O2  394   0.098   4.443  11.145  0.1456 -0.4558  0.1672
   25TMC2    O5  395   0.206   4.643  11.118 -0.9551  0.3635  0.1442
   25TMC2    H5  396   0.278   4.702  11.150 -0.3633 -0.5489  0.4821
   26MPD2     C  397   0.810   3.949  11.165  0.2486 -0.0210 -0.0996
   26MPD2    C1  398   0.677   3.926  11.123  0.0159  0.2621  0.3288
   26MPD2    C2  399   0.584   4.018  11.166  0.1200 -0.2524 -0.3414
   26MPD2    C3  400   0.619   4.114  11.258 -0.5488  0.4772  0.2036
   26MPD2    C4  401   0.752   4.132  11.294 -0.1012  0.6787  0.2699
   26MPD2    C5  402   0.850   4.051  11.243 -0.8213  0.4707  0.0763
   26MPD2     H  403   0.479   4.004  11.142  0.4067 -0.9338 -1.1864
   26MPD2    H1  404   0.787   4.209  11.362  0.2098 -0.3279  1.2472
   26MPD2    H2  405   0.877   3.873  11.126 -2.0887 -1.6999 -0.8804
   26MPD2    H3  406   0.955   4.059  11.269 -0.3754 -1.5686 -1.1308
   26MPD2     N  407   0.515   4.198  11.303 -0.5008 -0.0955  0.3032
   26MPD2    H5  408   0.425   4.174  11.263 -0.0318 -0.3782 -0.5775
   26MPD2    N1  409   0.653   3.808  11.044 -0.4108 -0.0510 -0.6934
   26MPD2    H7  410   0.727   3.740  11.032  0.9413  1.4914 -1.1907
   27TMC2    C1  411   4.521   1.338  11.887  0.7995  0.1939 -0.7559
   27TMC2    C2  412   4.433   1.401  11.799 -0.6254  0.2013 -0.7588
   27TMC2    C3  413   4.419   1.536  11.809 -0.4717  0.1724  0.7168
   27TMC2    C4  414   4.608   1.404  11.961 -0.5316  0.5964  0.5249
   27TMC2    C5  415   4.610   1.544  11.953  0.8870 -0.7593 -0.7172
   27TMC2    C6  416   4.509   1.611  11.877  0.1426 -0.3878  0.3406
   27TMC2     C  417   4.451   1.234  11.960 -0.1463  0.0077 -0.3702
   27TMC2     O  418   4.374   1.156  11.904 -0.4321 -0.6757 -0.0456
   27TMC2     H  419   4.344   1.351  11.761  0.9272 -3.6445  0.6636
   27TMC2    H1  420   4.687   1.351  12.013 -0.3027  1.2405  0.8298
   27TMC2    H2  421   4.492   1.717  11.897 -0.4839 -0.3764 -0.2560
   27TMC2    C7  422   4.621   1.591  12.089 -0.0314  0.7673  0.4301
   27TMC2    C8  423   4.289   1.591  11.797 -0.2273 -0.4007 -0.1198
   27TMC2    O1  424   4.605   1.504  12.171  0.3849 -0.3436  0.0152
   27TMC2    O2  425   4.207   1.563  11.884 -0.2241  0.1139  1.0956
   27TMC2    O5  426   4.316   1.716  11.758  0.5905 -0.7077 -0.0119
   27TMC2    H5  427   4.374   1.720  11.679  1.8897  0.8182  1.0235
   28MPD2     C  428   4.216   1.069  12.366  0.0653  0.6720  0.2578
   28MPD2    C1  429   4.248   1.204  12.394  0.4301 -0.7180 -1.2625
   28MPD2    C2  430   4.327   1.267  12.295 -0.3259 -0.2219 -0.6980
   28MPD2    C3  431   4.379   1.200  12.187  0.6410  0.3895 -0.5901
   28MPD2    C4  432   4.359   1.065  12.172 -0.4327  0.3034 -0.3524
   28MPD2    C5  433   4.275   1.005  12.260  0.0419  0.4516 -0.1068
   28MPD2     H  434   4.351   1.372  12.296  1.9136 -0.7357 -0.2016
   28MPD2    H1  435   4.384   1.008  12.083  0.0033 -1.0599  0.6502
   28MPD2    H2  436   4.160   1.009  12.438 -1.0527  1.9873  0.5043
   28MPD2    H3  437   4.250   0.900  12.250  1.0688  0.1819  0.0591
   28MPD2     N  438   4.448   1.272  12.089  0.1828  0.4257 -0.1263
   28MPD2    H5  439   4.497   1.356  12.115 -0.8129  0.7487  0.7127
   28MPD2    N1  440   4.179   1.277  12.492  1.0353 -0.1138  0.3496
   28MPD2    H7  441   4.123   1.224  12.558 -0.7226  2.2123  0.7039
   29MPD2     C  442   3.917   3.776  14.138  0.5000  0.4318  0.5764
   29MPD2    C1  443   4.033   3.719  14.199  0.3923 -0.6862 -0.1888
   29MPD2    C2  444   4.117   3.796  14.279  0.2482 -0.2268  0.3214
   29MPD2    C3  445   4.075   3.930  14.299 -0.1303  0.5553  0.3576
   29MPD2    C4  446   3.961   3.988  14.245  0.2781 -0.0688 -0.0817
   29MPD2    C5  447   3.883   3.909  14.160  0.1039 -0.0129 -0.5929
   29MPD2     H  448   4.201   3.748  14.327 -1.2532  0.9674  4.1168
   29MPD2    H1  449   3.934   4.088  14.276  1.3518 -0.3996  1.9104
   29MPD2    H2  450   3.862   3.724  14.061 -0.0665  1.1432  0.5057
   29MPD2    H3  451   3.791   3.951  14.121 -0.7537  0.4828  1.9642
   29MPD2     N  452   4.155   4.011  14.378 -0.5091  0.0675  0.3357
   29MPD2    H5  453   4.119   4.103  14.400  1.1277 -0.0131  3.3014
   29MPD2    N1  454   4.070   3.586  14.181 -0.1452 -0.6973  0.8689
   29MPD2    H7  455   4.152   3.549  14.227  0.0833 -3.6998 -1.9844
   30TCq2    C1  456   4.285   3.997  14.409  0.0281  0.0551  0.1813
   30TCq2    O2  457   4.363   3.915  14.355  0.4459  0.3493 -0.0370
   30TCq2    C2  458   4.329   4.119  14.471 -0.8867  0.0574  0.5640
   30TCq2    C3  459   4.227   4.195  14.527  0.8047  0.0732 -0.0071
   30TCq2    C4  460   4.233   4.330  14.518  0.1796 -0.6226 -0.2988
   30TCq2    C5  461   4.339   4.392  14.464 -0.4226  0.5649 -0.3427
   30TCq2    C6  462   4.439   4.320  14.410  0.0581  0.2892  0.2197
   30TCq2    C7  463   4.435   4.182  14.404  0.2596 -0.6966  0.1697
   30TCq2    C8  464   4.552   4.390  14.349  0.1194 -0.1616 -0.0324
   30TCq2    O4  465   4.623   4.329  14.273  0.2618  0.0549 -0.1739
   30TCq2    C9  466   4.126   4.408  14.580 -0.1236  0.1118 -0.0500
   30TCq2    O5  467   4.149   4.533  14.599  0.3410 -0.1209 -0.0307
   30TCq2    O6  468   4.026   4.341  14.620 -0.4352 -0.1842 -0.8334
   30TCq2    H2  469   4.156   4.147  14.593 -0.9805  0.6507 -1.5230
   30TCq2    H3  470   4.336   4.499  14.451  2.9649  0.9581  1.9843
   30TCq2    H4  471   4.508   4.113  14.363  0.7079  0.0059 -0.2150
   31MPD2     C  472   2.191   3.082  14.894  0.0289  0.1051  0.3923
   31MPD2    C1  473   2.057   3.085  14.878 -0.0187  0.5039  0.0885
   31MPD2    C2  474   1.979   2.994  14.954 -0.1337  0.7840 -0.0615
   31MPD2    C3  475   2.032   2.892  15.033  0.6290 -0.3590  0.1629
   31MPD2    C4  476   2.166   2.899  15.051  0.7581 -0.0567  0.5306
   31MPD2    C5  477   2.244   2.993  14.983  0.1823 -0.2570 -0.1649
   31MPD2     H  478   1.872   2.986  14.939 -0.3237  3.2578 -0.0228
   31MPD2    H1  479   2.217   2.834  15.120 -0.9714 -2.5570 -0.5203
   31MPD2    H2  480   2.266   3.145  14.848  0.9903  0.4765  2.4491
   31MPD2    H3  481   2.352   2.995  14.995 -0.0087  0.4395  1.5304
   31MPD2     N  482   1.961   2.796  15.112  0.2562 -0.5282 -0.1325
   31MPD2    H5  483   2.011   2.725  15.164 -0.0259 -0.5714  0.0797
   31MPD2    N1  484   1.996   3.171  14.783  0.7480  0.0575 -0.1643
   31MPD2    H7  485   2.062   3.242  14.752 -1.0059  1.8423  0.1991
   32TCq2    C1  486   1.827   2.793  15.111  0.0750 -0.7680  0.0562
   32TCq2    O2  487   1.749   2.837  15.031 -1.0129 -0.3398 -0.5309
   32TCq2    C2  488   1.768   2.690  15.202  0.2479  0.0635  0.3620
   32TCq2    C3  489   1.637   2.663  15.190 -0.0453  0.7473 -0.6066
   32TCq2    C4  490   1.588   2.565  15.277  0.3843 -0.0621  0.3076
   32TCq2    C5  491   1.665   2.500  15.369  0.6675 -0.0207  1.1056
   32TCq2    C6  492   1.793   2.534  15.381 -0.0299  0.0621 -0.3386
   32TCq2    C7  493   1.849   2.629  15.297 -0.7112  0.0508  0.3636
   32TCq2    C8  494   1.873   2.488  15.488 -1.2728 -0.4276 -0.8295
   32TCq2    O4  495   1.849   2.372  15.518 -0.4070  0.2781 -0.1468
   32TCq2    C9  496   1.450   2.520  15.262 -0.0258 -0.3055  0.2963
   32TCq2    O5  497   1.373   2.584  15.189 -0.9731  0.1465 -0.4485
   32TCq2    O6  498   1.414   2.417  15.327 -0.2638  0.3759  0.1560
   32TCq2    H2  499   1.588   2.706  15.104  2.7978  2.3343 -1.4004
   32TCq2    H3  500   1.626   2.421  15.432  3.0315 -1.4767  0.7561
   32TCq2    H4  501   1.952   2.659  15.312 -0.0557 -2.3909  0.8082
   33MPD2     C  502   2.340   0.343  10.272  0.1828 -0.0827 -0.3170
   33MPD2    C1  503   2.204   0.319  10.286 -0.3460 -0.7721 -0.3588
   33MPD2    C2  504   2.110   0.406  10.227 -0.0124  0.2262 -0.5771
   33MPD2    C3  505   2.154   0.520  10.160  0.3000 -0.1755 -0.1348
   33MPD2    C4  506   2.287   0.549  10.155  0.2829 -0.5657 -0.5386
   33MPD2    C5  507   2.378   0.462  10.212 -0.6601  0.2133  0.2378
   33MPD2     H  508   2.006   0.376  10.229 -1.3022  4.5636 -0.9248
   33MPD2    H1  509   2.320   0.647  10.125 -1.5866  0.4613  0.7404
   33MPD2    H2  510   2.419   0.288  10.322  0.6670  1.9061  1.1241
   33MPD2    H3  511   2.481   0.494  10.222 -0.4482 -0.1222 -0.8317
   33MPD2     N  512   2.062   0.603  10.088  0.5754  0.1711  0.0446
   33MPD2    H5  513   2.105   0.664  10.019  0.5077 -1.8905 -1.8037
   33MPD2    N1  514   2.162   0.201  10.360 -0.3856  0.0426  0.3741
   33MPD2    H7  515   2.237   0.135  10.378 -0.6053 -0.1084  0.7579
   34TCq2    C1  516   1.928   0.613  10.112 -0.0089  0.1960 -0.4945
   34TCq2    O2  517   1.865   0.572  10.210 -0.5889  0.5471 -0.4752
   34TCq2    C2  518   1.857   0.684  10.005 -0.0191  0.3699  0.4758
   34TCq2    C3  519   1.733   0.747  10.034 -0.0945  0.2100 -0.3553
   34TCq2    C4  520   1.663   0.795   9.928  0.1827 -0.0566 -0.3967
   34TCq2    C5  521   1.706   0.773   9.799  0.2868 -0.2086  0.9190
   34TCq2    C6  522   1.826   0.703   9.778 -0.4101 -0.2053  0.6548
   34TCq2    C7  523   1.901   0.658   9.879  0.4538 -0.4030  0.4657
   34TCq2    C8  524   1.911   0.745   9.667  0.1285 -0.6454  0.2329
   34TCq2    O4  525   2.031   0.748   9.686 -0.3169  0.2947  0.3120
   34TCq2    C9  526   1.546   0.882   9.953  0.9212  0.6697  0.3266
   34TCq2    O5  527   1.468   0.901   9.855  0.0315  0.3894  0.4856
   34TCq2    O6  528   1.507   0.897  10.073 -0.2015 -0.0608 -0.6088
   34TCq2    H2  529   1.713   0.771  10.137  0.6274 -1.5562  0.1940
   34TCq2    H3  530   1.640   0.814   9.724  1.8731  1.0737  0.2263
   34TCq2    H4  531   1.984   0.592   9.855 -1.3734 -1.4214 -3.0520
   35MPD2     C  532   3.566   2.280  11.587  0.7340 -0.1019  0.4376
   35MPD2    C1  533   3.577   2.143  11.597 -0.4423  0.2179 -0.0025
   35MPD2    C2  534   3.546   2.072  11.482 -0.4084  0.1411 -0.3105
   35MPD2    C3  535   3.508   2.138  11.363 -0.5668  0.6053 -0.1515
   35MPD2    C4  536   3.501   2.275  11.359 -0.4415 -0.1699  0.1785
   35MPD2    C5  537   3.534   2.337  11.471 -0.0814 -0.3348 -1.0597
   35MPD2     H  538   3.537   1.964  11.483 -1.4816  0.2473  1.3116
   35MPD2    H1  539   3.483   2.339  11.274  1.6027 -1.0720 -0.9288
   35MPD2    H2  540   3.596   2.340  11.673  0.2512 -1.2262  1.3956
   35MPD2    H3  541   3.533   2.444  11.459  1.3680 -0.0782  1.1362
   35MPD2     N  542   3.470   2.059  11.253  0.0351  0.3641 -0.2262
   35MPD2    H5  543   3.484   1.959  11.266  0.0148  0.2808 -0.8280
   35MPD2    N1  544   3.591   2.087  11.731 -0.1347  0.1189 -0.3367
   35MPD2    H7  545   3.593   2.151  11.810  4.2523 -0.1048 -0.2615
   36TCq2    C1  546   3.407   2.096  11.137  0.6445  0.1587  0.3203
   36TCq2    O2  547   3.367   2.206  11.092 -0.1333 -0.1495  0.3891
   36TCq2    C2  548   3.377   1.978  11.053  0.7631 -0.5251 -0.1534
   36TCq2    C3  549   3.343   2.013  10.922  0.4108 -0.2288 -0.7151
   36TCq2    C4  550   3.258   1.937  10.851 -0.0725  0.0626  0.0980
   36TCq2    C5  551   3.196   1.826  10.902  0.0323 -0.2277 -0.0264
   36TCq2    C6  552   3.235   1.790  11.029 -0.1241  0.0909 -0.5395
   36TCq2    C7  553   3.319   1.867  11.108  0.2768 -0.6548  0.8816
   36TCq2    C8  554   3.206   1.658  11.079 -0.6670 -0.2370 -0.0280
   36TCq2    O4  555   3.104   1.607  11.039 -0.1103  0.0989 -0.1843
   36TCq2    C9  556   3.223   1.973  10.711 -0.5938  0.0526 -0.6432
   36TCq2    O5  557   3.149   1.900  10.639  0.1525 -0.1221  0.2790
   36TCq2    O6  558   3.252   2.096  10.679  0.1766  0.1270 -0.1853
   36TCq2    H2  559   3.390   2.097  10.872  2.1228  0.3418  1.8577
   36TCq2    H3  560   3.125   1.768  10.845  0.5937 -0.3883 -0.5673
   36TCq2    H4  561   3.332   1.841  11.213 -1.0701  1.4974  1.5761
   37TMC2    C1  562   0.360   2.080  11.713  1.1582 -0.3161  0.2349
   37TMC2    C2  563   0.312   2.019  11.601  0.0133 -0.5339 -0.3992
   37TMC2    C3  564   0.384   2.022  11.485  0.0377  0.5594  0.5526
   37TMC2    C4  565   0.480   2.159  11.710 -0.2979  0.4914 -0.3251
   37TMC2    C5  566   0.542   2.169  11.588  0.0358  0.0391 -1.3638
   37TMC2    C6  567   0.503   2.097  11.480 -0.3880  0.9453  0.3655
   37TMC2     C  568   0.298   2.044  11.838 -0.9532  0.6027  0.3579
   37TMC2     O  569   0.178   2.019  11.828 -0.3184 -0.0437  0.3433
   37TMC2     H  570   0.219   1.964  11.595 -0.5841  0.6024 -1.5278
   37TMC2    H1  571   0.511   2.222  11.793 -1.3400 -2.1988  2.1045
   37TMC2    H2  572   0.558   2.092  11.386 -2.1464  2.1986 -0.7285
   37TMC2    C7  573   0.669   2.235  11.588  0.5415 -0.7689 -0.0311
   37TMC2    C8  574   0.360   1.923  11.387 -0.0968  0.4753 -0.2243
   37TMC2    O1  575   0.724   2.242  11.695 -0.7410 -0.1002 -0.1913
   37TMC2    O2  576   0.253   1.866  11.368  0.0078  0.3394 -0.0938
   37TMC2    O5  577   0.482   1.866  11.373  0.7499 -0.1429  0.5559
   37TMC2    H5  578   0.546   1.900  11.439 -0.4411 -1.1403  2.2121
   38MPD2     C  579   0.307   1.969  12.352 -0.0269  0.6370  0.0746
   38MPD2    C1  580   0.437   1.989  12.309  0.4285  0.1682  0.0707
   38MPD2    C2  581   0.456   2.010  12.173  0.6781  0.5277 -0.1259
   38MPD2    C3  582   0.348   2.019  12.083  0.5254  0.5696  0.0430
   38MPD2    C4  583   0.225   1.997  12.130 -0.2584 -0.3409 -0.4550
   38MPD2    C5  584   0.204   1.976  12.258  0.3301  0.1334  0.4748
   38MPD2     H  585   0.558   2.018  12.137  0.9302 -2.3784 -0.1060
   38MPD2    H1  586   0.136   1.995  12.069 -0.7772 -0.3187  0.3077
   38MPD2    H2  587   0.282   1.963  12.458  0.4004  0.7351  0.1805
   38MPD2    H3  588   0.105   1.949  12.293  0.4208  2.8227  2.7623
   38MPD2     N  589   0.382   2.046  11.945  0.3705  0.4854 -0.1025
   38MPD2    H5  590   0.482   2.057  11.929  0.2891  1.0797 -0.1991
   38MPD2    N1  591   0.546   1.958  12.387  0.2285 -0.3197 -0.4750
   38MPD2    H7  592   0.637   1.973  12.345  1.1365  0.1609  1.6453
   39MPD2     C  593   4.268   4.247   1.387 -0.3594 -0.2217  0.0670
   39MPD2    C1  594   4.163   4.259   1.476  0.2001  0.3892  0.3931
   39MPD2    C2  595   4.035   4.251   1.412  0.2866  0.1659  1.1319
   39MPD2    C3  596   4.018   4.205   1.283  0.3813  0.0499  0.3455
   39MPD2    C4  597   4.132   4.172   1.211  0.9561  0.1642 -0.4671
   39MPD2    C5  598   4.251   4.205   1.261  0.2585 -0.4066  0.8189
   39MPD2     H  599   3.951   4.273   1.477 -1.3100 -0.4672 -0.6985
   39MPD2    H1  600   4.124   4.143   1.107 -2.7855 -0.0959 -0.0918
   39MPD2    H2  601   4.366   4.282   1.419  0.2968 -0.1080 -2.0368
   39MPD2    H3  602   4.337   4.162   1.210 -0.4521 -2.7402  1.5885
   39MPD2     N  603   3.890   4.194   1.224  0.4814  0.2413  0.1226
   39MPD2    H5  604   3.879   4.156   1.131 -1.7682 -1.2002  0.9750
   39MPD2    N1  605   4.206   4.286   1.609  0.4391 -0.2876 -0.0089
   39MPD2    H7  606   4.303   4.271   1.633  0.3452 -1.1800 -0.1663
   40TCq2    C1  607   4.115   4.313   1.714 -0.0828 -0.3030  0.1341
   40TCq2    O2  608   3.993   4.325   1.706  0.0694 -0.3185  0.3988
   40TCq2    C2  609   4.168   4.315   1.842  0.5608  0.3901  0.3136
   40TCq2    C3  610   4.097   4.245   1.933  0.0725 -0.5409 -0.2699
   40TCq2    C4  611   4.164   4.194   2.039 -1.1220 -0.5649 -0.9970
   40TCq2    C5  612   4.295   4.192   2.056  0.3532 -0.1678  0.1396
   40TCq2    C6  613   4.365   4.255   1.964 -0.0352 -0.1558  0.4515
   40TCq2    C7  614   4.305   4.319   1.853 -0.4157  0.3121  0.5510
   40TCq2    C8  615   4.513   4.254   1.977  0.3560  0.4448  0.2429
   40TCq2    O4  616   4.570   4.345   1.918 -0.0776 -0.0453  0.3236
   40TCq2    C9  617   4.088   4.111   2.128 -0.0291  0.7741 -0.0218
   40TCq2    O5  618   3.981   4.056   2.085  0.0700  0.0479 -0.2214
   40TCq2    O6  619   4.139   4.077   2.237  0.0590 -0.4494  0.6793
   40TCq2    H2  620   3.990   4.232   1.930  0.1917 -1.1333 -1.9680
   40TCq2    H3  621   4.342   4.135   2.134 -1.4505 -0.2043  1.2101
   40TCq2    H4  622   4.371   4.358   1.776 -0.0210  2.0939  1.7820
   41TMC2    C1  623   3.401   1.943  13.523  0.1537  0.9037  0.4264
   41TMC2    C2  624   3.474   2.057  13.481  0.8310  0.5267  0.6845
   41TMC2    C3  625   3.404   2.160  13.429  0.1805 -0.2764 -0.2199
   41TMC2    C4  626   3.266   1.940  13.525 -0.5678  0.9000 -0.8232
   41TMC2    C5  627   3.198   2.054  13.491 -0.1189 -0.2316 -0.2382
   41TMC2    C6  628   3.268   2.165  13.441  0.0668 -0.8375 -0.9809
   41TMC2     C  629   3.471   1.848  13.610  0.7173 -0.1314 -0.1968
   41TMC2     O  630   3.591   1.846  13.597 -0.1115  0.2712  0.1650
   41TMC2     H  631   3.581   2.066  13.489  1.0514 -1.4667  0.1903
   41TMC2    H1  632   3.205   1.856  13.556  0.6969 -0.2290 -1.4366
   41TMC2    H2  633   3.212   2.256  13.420  1.3115  0.6020  1.9981
   41TMC2    C7  634   3.082   2.039  13.407  0.7472 -0.1917  0.3626
   41TMC2    C8  635   3.472   2.277  13.385  0.6161 -0.4967  0.1665
   41TMC2    O1  636   3.002   2.138  13.409  0.2357  0.0899 -0.1657
   41TMC2    O2  637   3.588   2.307  13.412 -0.4972  0.6777 -0.1639
   41TMC2    O5  638   3.402   2.325  13.287 -0.7892 -0.4269 -0.2464
   41TMC2    H5  639   3.337   2.258  13.258 -2.0015 -0.2551  2.0873
   42MPD2     C  640   3.547   1.638  13.804 -0.7810 -1.0776 -0.3005
   42MPD2    C1  641   3.424   1.702  13.800 -0.3040  0.2602  0.7107
   42MPD2    C2  642   3.335   1.678  13.912 -0.2838  0.1203 -0.7073
   42MPD2    C3  643   3.378   1.619  14.028 -0.1963 -0.1666  0.1431
   42MPD2    C4  644   3.509   1.565  14.024  0.2351 -0.3200  0.1503
   42MPD2    C5  645   3.584   1.564  13.911  0.2147  0.3448 -0.5156
   42MPD2     H  646   3.244   1.735  13.896  0.4012  0.8613 -1.9959
   42MPD2    H1  647   3.547   1.526  14.118  2.0669 -1.2335 -0.9768
   42MPD2    H2  648   3.621   1.653  13.726 -0.8722 -0.4414 -0.2614
   42MPD2    H3  649   3.677   1.510  13.893  0.9172  0.9914  1.1276
   42MPD2     N  650   3.307   1.624  14.142  0.6020  0.4084  0.4928
   42MPD2    H5  651   3.362   1.599  14.223  0.9999  1.2928  0.4981
   42MPD2    N1  652   3.383   1.791  13.697  0.3162 -0.0048 -0.2306
   42MPD2    H7  653   3.296   1.841  13.716 -0.2025 -1.2108  0.5116
   43MPD2     C  654   4.328   0.159   0.311  0.3937  0.0043 -0.9604
   43MPD2    C1  655   4.391   0.121   0.431 -0.6942 -0.1872  0.4286
   43MPD2    C2  656   4.348   0.164   0.552 -0.1099  0.4965  0.7489
   43MPD2    C3  657   4.240   0.253   0.557 -0.0483  0.4939 -0.1986
   43MPD2    C4  658   4.168   0.283   0.441 -0.4099  0.9048  0.5547
   43MPD2    C5  659   4.209   0.229   0.319 -0.1450 -0.0072 -0.2029
   43MPD2     H  660   4.394   0.130   0.644 -0.7984 -1.5516  0.3443
   43MPD2    H1  661   4.079   0.345   0.439 -1.0669 -0.0868 -0.3571
   43MPD2    H2  662   4.338   0.116   0.212  1.3907  1.7700 -1.6507
   43MPD2    H3  663   4.159   0.242   0.224  1.7116  2.5229 -0.8333
   43MPD2     N  664   4.199   0.321   0.671  0.5439  0.1996 -0.3681
   43MPD2    H5  665   4.110   0.370   0.666  0.5373  0.0725 -1.4113
   43MPD2    N1  666   4.498   0.030   0.422 -0.5492 -0.2714  0.5357
   43MPD2    H7  667   4.547   0.008   0.508 -0.9310 -0.9029  0.5883
   44TCq2    C1  668   4.308   0.679   1.080  0.4566 -0.0216 -0.6636
   44TCq2    O2  669   4.415   0.680   1.022 -0.2922  0.0968 -0.5652
   44TCq2    C2  670   4.221   0.570   1.045 -0.3531 -1.0931 -1.3753
   44TCq2    C3  671   4.088   0.602   1.027 -0.3310 -0.1173  0.0148
   44TCq2    C4  672   4.010   0.524   0.952  0.3660  0.2596 -0.3987
   44TCq2    C5  673   4.063   0.422   0.880 -0.5066 -0.6036 -0.6892
   44TCq2    C6  674   4.194   0.402   0.884 -0.2351 -0.0403 -0.3001
   44TCq2    C7  675   4.276   0.473   0.970  0.0570  0.1064  0.7342
   44TCq2    C8  676   4.266   0.316   0.791  0.5757  0.2736 -0.4622
   44TCq2    O4  677   4.382   0.287   0.809  0.1088  0.3556  0.0756
   44TCq2    C9  678   3.866   0.535   0.956  1.0039 -0.4126 -0.2553
   44TCq2    O5  679   3.824   0.635   1.014 -0.0343 -0.0517 -0.0850
   44TCq2    O6  680   3.792   0.459   0.887  0.2632  0.2904 -0.8957
   44TCq2    H2  681   4.046   0.683   1.085  0.2053  0.0171  0.2137
   44TCq2    H3  682   3.999   0.355   0.824 -0.4520 -2.6585  1.6632
   44TCq2    H4  683   4.381   0.454   0.950  0.2167  1.2145  0.4897
   45TMC2    C1  684   0.424   1.474   9.865  0.3246 -0.8652 -0.1746
   45TMC2    C2  685   0.524   1.381   9.895 -0.9380  0.0153  0.3100
   45TMC2    C3  686   0.630   1.425   9.972  0.1350  0.4959 -0.0227
   45TMC2    C4  687   0.440   1.610   9.895  0.4709  0.1486  0.0471
   45TMC2    C5  688   0.550   1.646   9.972 -1.3922 -0.2258 -0.2180
   45TMC2    C6  689   0.649   1.557  10.006  0.2704 -0.3247 -0.3592
   45TMC2     C  690   0.300   1.426   9.816 -1.3035 -0.2276 -0.3745
   45TMC2     O  691   0.301   1.305   9.793  0.1513 -0.0429 -0.2445
   45TMC2     H  692   0.500   1.280   9.864 -1.4622 -0.0630  0.9773
   45TMC2    H1  693   0.361   1.682   9.878 -1.3033 -2.2750 -1.9817
   45TMC2    H2  694   0.741   1.592  10.052 -1.3736  4.0958 -0.4342
   45TMC2    C7  695   0.570   1.786  10.008  0.1859 -0.1948  0.8169
   45TMC2    C8  696   0.754   1.351   9.974 -0.1916  0.4632  0.0589
   45TMC2    O1  697   0.483   1.834  10.078  0.4625 -0.1428  0.5844
   45TMC2    O2  698   0.860   1.402  10.004  0.1081  0.2283 -0.2376
   45TMC2    O5  699   0.738   1.245   9.895  0.1957 -0.0673  0.0243
   45TMC2    H5  700   0.646   1.225   9.866 -0.3154  2.3288  0.0174
   46MPD2     C  701   0.040   1.377   9.667  0.6683 -0.7057 -0.5620
   46MPD2    C1  702   0.087   1.504   9.693 -0.1156 -0.7326  0.8434
   46MPD2    C2  703   0.001   1.609   9.681  0.2277  0.4398 -0.2547
   46MPD2    C3  704   4.604   1.593   9.618  0.7827 -0.0594  0.0979
   46MPD2    C4  705   4.568   1.466   9.573  0.0896 -0.2441  0.0125
   46MPD2    C5  706   4.645   1.361   9.604 -0.3946 -0.1443 -0.0849
   46MPD2     H  707   0.033   1.698   9.734 -2.0835  0.0640  1.7649
   46MPD2    H1  708   4.495   1.453   9.494 -1.0544  0.8091  0.8870
   46MPD2    H2  709   0.096   1.286   9.688 -0.5766 -1.1685  0.8136
   46MPD2    H3  710   4.617   1.261   9.571  1.7252 -0.7430 -0.1011
   46MPD2     N  711   4.520   1.694   9.588  0.2196 -0.8852 -0.1144
   46MPD2    H5  712   4.543   1.786   9.623 -0.0793 -0.3218 -1.3848
   46MPD2    N1  713   0.209   1.518   9.772  0.0993  0.3867  0.0080
   46MPD2    H7  714   0.227   1.616   9.790  0.2805 -0.0043  1.9371
   47TMC2    C1  715   1.390   2.047   9.642 -0.4138 -0.0040 -0.3182
   47TMC2    C2  716   1.482   1.945   9.630 -0.0703  0.1951  0.6329
   47TMC2    C3  717   1.428   1.824   9.607  0.6024 -0.2052  0.0691
   47TMC2    C4  718   1.251   2.032   9.637  0.0474  0.0858  0.6793
   47TMC2    C5  719   1.209   1.901   9.620  0.0199 -0.6679 -0.2789
   47TMC2    C6  720   1.295   1.796   9.608 -0.3527  0.0510  0.4469
   47TMC2     C  721   1.433   2.187   9.656 -0.1349  0.5020 -0.9399
   47TMC2     O  722   1.354   2.271   9.700  0.5192 -0.0703 -0.6749
   47TMC2     H  723   1.583   1.965   9.664  0.0128 -0.5766  0.8434
   47TMC2    H1  724   1.188   2.120   9.643  1.0309  1.0453 -2.6248
   47TMC2    H2  725   1.267   1.694   9.585  1.7286 -0.4624  0.1191
   47TMC2    C7  726   1.063   1.881   9.618  0.6764 -0.7394  0.7933
   47TMC2    C8  727   1.521   1.714   9.591 -0.6615 -0.4974  0.1754
   47TMC2    O1  728   0.998   1.980   9.594  0.0248  0.3457 -0.4331
   47TMC2    O2  729   1.493   1.602   9.623 -0.2015  0.4529 -0.0807
   47TMC2    O5  730   1.626   1.755   9.514 -0.3709 -0.7221  0.4833
   47TMC2    H5  731   1.629   1.847   9.479  2.8150 -0.9024  0.3337
   48MPD2     C  732   1.604   2.416   9.697 -0.4506 -0.2143  0.0263
   48MPD2    C1  733   1.633   2.322   9.605  0.0175  0.3200 -0.2462
   48MPD2    C2  734   1.736   2.340   9.520 -0.5373 -0.2928 -0.1165
   48MPD2    C3  735   1.809   2.451   9.519  0.3271  0.6880 -0.6182
   48MPD2    C4  736   1.781   2.550   9.615  0.4844  0.0435 -0.4040
   48MPD2    C5  737   1.677   2.533   9.700  0.1277 -0.3364  0.3569
   48MPD2     H  738   1.767   2.269   9.444  2.1079 -0.5730  1.1994
   48MPD2    H1  739   1.831   2.647   9.615 -0.1636  0.3739  0.2550
   48MPD2    H2  740   1.530   2.389   9.771 -0.0682  3.1847  1.6589
   48MPD2    H3  741   1.661   2.602   9.782 -0.8510  0.1003 -0.1879
   48MPD2     N  742   1.923   2.445   9.434 -0.2215  0.0599  0.3321
   48MPD2    H5  743   1.934   2.365   9.372 -0.0438 -0.1751  0.6667
   48MPD2    N1  744   1.558   2.204   9.600  0.1445  0.2021 -0.6512
   48MPD2    H7  745   1.600   2.124   9.552 -0.0247 -0.3003  0.0337
   49MPD2     C  746   4.528   0.347  10.141  1.0201  0.0148  0.6474
   49MPD2    C1  747   4.453   0.231  10.136  0.2667 -0.0242  0.7258
   49MPD2    C2  748   4.465   0.140  10.239  0.2172  0.5543  0.1613
   49MPD2    C3  749   4.550   0.161  10.343  0.2557  0.7881  0.0211
   49MPD2    C4  750   4.637   0.269  10.332  0.1920 -0.3514 -1.1097
   49MPD2    C5  751   4.620   0.365  10.239 -0.5030  0.1598 -0.0760
   49MPD2     H  752   4.401   0.053  10.234 -2.1376  2.5251 -3.6925
   49MPD2    H1  753   4.718   0.286  10.402 -0.7054 -0.4397 -0.0518
   49MPD2    H2  754   4.522   0.424  10.065  0.2517  0.4611  1.1600
   49MPD2    H3  755   4.690   0.447  10.232  0.9535 -1.1140 -0.5646
   49MPD2     N  756   4.567   0.078  10.458  0.8745  0.0318  0.5499
   49MPD2    H5  757   4.648   0.102  10.514  2.0947  1.7221 -1.8910
   49MPD2    N1  758   4.355   0.206  10.039  0.6982 -1.0532  0.4522
   49MPD2    H7  759   4.305   0.121  10.062  0.3958 -0.5047  1.8505
   50TCq2    C1  760   4.309   0.302   9.954 -0.5169  0.4273 -0.3364
   50TCq2    O2  761   4.305   0.424   9.970 -0.2990 -0.4057 -0.3351
   50TCq2    C2  762   4.207   0.256   9.872  0.7833  0.0924 -0.2548
   50TCq2    C3  763   4.105   0.335   9.835 -0.1617  0.2700  0.2958
   50TCq2    C4  764   4.003   0.277   9.763 -0.2317 -0.2253 -0.0429
   50TCq2    C5  765   4.006   0.142   9.736  0.0072 -0.9229  0.6349
   50TCq2    C6  766   4.115   0.067   9.778 -0.0775  0.4630  0.8324
   50TCq2    C7  767   4.214   0.121   9.851  0.2698  0.4918  0.2054
   50TCq2    C8  768   4.156   4.675   9.707 -0.0744  0.4513 -0.3614
   50TCq2    O4  769   4.256   4.612   9.744  0.1642 -0.4856  0.2165
   50TCq2    C9  770   3.883   0.343   9.723  0.3747 -0.0849 -0.2095
   50TCq2    O5  771   3.877   0.464   9.767  0.0194 -0.4934 -0.0683
   50TCq2    O6  772   3.807   0.290   9.636  0.0540  0.9803  0.3332
   50TCq2    H2  773   4.100   0.441   9.856  0.9303  0.4438 -0.2900
   50TCq2    H3  774   3.928   0.088   9.684  0.8614 -0.5183 -1.0853
   50TCq2    H4  775   4.304   0.063   9.868  0.6483  0.5166 -1.7403
   51MPD2     C  776   1.286   3.638   1.422 -0.0796  0.4572  0.3727
   51MPD2    C1  777   1.298   3.520   1.494  0.5074  0.3264  0.4216
   51MPD2    C2  778   1.272   3.525   1.627 -0.5459  0.3845 -0.6895
   51MPD2    C3  779   1.206   3.630   1.682  0.0918 -0.2754 -0.6236
   51MPD2    C4  780   1.172   3.738   1.600 -0.4122 -0.6819  0.2994
   51MPD2    C5  781   1.217   3.740   1.475  0.3066 -0.1843  0.3890
   51MPD2     H  782   1.298   3.437   1.685  0.6485  0.3473 -1.2957
   51MPD2    H1  783   1.135   3.831   1.642  2.0241  0.9895 -1.2252
   51MPD2    H2  784   1.325   3.646   1.322 -1.8583  0.6998 -0.2941
   51MPD2    H3  785   1.209   3.825   1.408 -0.8183  0.4617  1.3655
   51MPD2     N  786   1.179   3.635   1.824  0.1783 -0.0138  0.0436
   51MPD2    H5  787   1.134   3.718   1.862  0.1094 -0.1663  0.2970
   51MPD2    N1  788   1.353   3.398   1.446 -0.2005 -0.4927  0.0786
   51MPD2    H7  789   1.393   3.335   1.514  1.8374 -0.4784 -1.0996
   52TCq2    C1  790   1.208   3.538   1.916  0.3088 -0.7408  0.1990
   52TCq2    O2  791   1.236   3.420   1.899  0.4694  0.0578  0.0220
   52TCq2    C2  792   1.184   3.592   2.051 -0.5705  0.2146  0.2215
   52TCq2    C3  793   1.203   3.492   2.149  0.6567  0.5515 -0.1468
   52TCq2    C4  794   1.202   3.529   2.283 -0.3190  0.2350  0.2855
   52TCq2    C5  795   1.204   3.661   2.319  0.5007 -0.8093 -0.0515
   52TCq2    C6  796   1.214   3.758   2.218 -0.4594  0.7232 -0.4983
   52TCq2    C7  797   1.208   3.724   2.083 -0.0659 -0.5322  0.9212
   52TCq2    C8  798   1.316   3.858   2.243 -0.3945 -0.0223 -0.0132
   52TCq2    O4  799   1.373   3.894   2.141 -0.0098  0.1625 -0.1541
   52TCq2    C9  800   1.235   3.439   2.389  0.1282 -0.3993 -0.1389
   52TCq2    O5  801   1.288   3.322   2.359 -0.4952 -0.3082  0.1498
   52TCq2    O6  802   1.215   3.480   2.506 -0.3571  0.7878  0.7228
   52TCq2    H2  803   1.209   3.387   2.123  2.4044  1.0059 -1.6236
   52TCq2    H3  804   1.213   3.689   2.424  1.5519 -1.0826 -0.0659
   52TCq2    H4  805   1.232   3.800   2.009  1.1599  0.6200  2.5006
   53TMC2    C1  806   1.336   2.482  11.686  0.3988 -0.4366  0.1482
   53TMC2    C2  807   1.442   2.400  11.705 -0.2888 -0.6632 -0.0039
   53TMC2    C3  808   1.461   2.343  11.823 -0.6919  0.0698 -0.2649
   53TMC2    C4  809   1.250   2.510  11.789 -0.6193  0.7652  0.5472
   53TMC2    C5  810   1.262   2.443  11.909  0.4939 -0.0445  0.1726
   53TMC2    C6  811   1.368   2.356  11.931 -0.1648  0.8131  0.4233
   53TMC2     C  812   1.276   2.467  11.554  0.5032  0.0065  0.3535
   53TMC2     O  813   1.344   2.471  11.451  1.0730 -0.1910  0.2813
   53TMC2     H  814   1.512   2.375  11.625 -3.1692 -1.3861 -2.2913
   53TMC2    H1  815   1.167   2.579  11.788 -1.8010 -0.6463 -0.8051
   53TMC2    H2  816   1.389   2.288  12.013 -1.3754 -0.3089 -0.1953
   53TMC2    C7  817   1.136   2.418  11.978 -0.3121  0.1889 -1.3115
   53TMC2    C8  818   1.574   2.255  11.851  0.0701  0.1977 -0.4165
   53TMC2    O1  819   1.033   2.423  11.909 -0.3447  0.3698 -0.0954
   53TMC2    O2  820   1.603   2.214  11.956  0.7543 -0.0710  0.2882
   53TMC2    O5  821   1.594   2.179  11.748  0.1882  0.0725  0.5607
   53TMC2    H5  822   1.564   2.202  11.658 -0.0548 -2.7923 -0.0742
   54MPD2     C  823   1.061   2.441  11.335  0.6320 -0.2457 -0.0280
   54MPD2    C1  824   1.045   2.413  11.473  0.1358 -0.0835 -0.4038
   54MPD2    C2  825   0.923   2.368  11.521  0.3515  0.8898 -0.4263
   54MPD2    C3  826   0.822   2.336  11.426 -0.5187  0.3773  0.2585
   54MPD2    C4  827   0.846   2.361  11.295  0.3918 -0.2598 -0.4765
   54MPD2    C5  828   0.959   2.421  11.252 -0.8968 -0.9936 -0.7013
   54MPD2     H  829   0.910   2.357  11.628  2.3225  2.2017 -0.0491
   54MPD2    H1  830   0.767   2.341  11.224  0.0834 -2.5135  0.5079
   54MPD2    H2  831   1.152   2.479  11.290  0.4318  0.3461  0.0749
   54MPD2    H3  832   0.965   2.452  11.148 -0.9957  1.4049 -0.0029
   54MPD2     N  833   0.701   2.278  11.463  0.0618 -0.4146 -0.4126
   54MPD2    H5  834   0.632   2.277  11.388 -0.7476  1.3364  0.3214
   54MPD2    N1  835   1.144   2.441  11.569  0.2427 -0.0973  0.0281
   54MPD2    H7  836   1.122   2.410  11.663 -4.3098  0.2011 -0.9269
   55MPD2     C  837   2.341   4.296  17.480 -0.4037  0.1816 -0.4152
   55MPD2    C1  838   2.333   4.269  17.609 -0.1035 -0.4925  0.3841
   55MPD2    C2  839   2.236   4.347  17.684 -0.0627  0.5295 -0.1120
   55MPD2    C3  840   2.151   4.443  17.631  0.4742 -0.0731  0.1138
   55MPD2    C4  841   2.159   4.462  17.495 -0.4476  0.1610  0.1807
   55MPD2    C5  842   2.258   4.398  17.425 -0.3282  0.2604 -0.5908
   55MPD2     H  843   2.235   4.339   0.082  0.0541  0.9889 -0.0785
   55MPD2    H1  844   2.102   4.532  17.434  0.1829  2.5636  2.3548
   55MPD2    H2  845   2.425   4.256  17.425 -1.0601 -1.8852  0.1048
   55MPD2    H3  846   2.269   4.435  17.324  0.5131  2.5379  0.3391
   55MPD2     N  847   2.074   4.517   0.013  0.0915 -0.0886 -0.5816
   55MPD2    H5  848   2.063   4.479   0.106  0.7626 -0.2212 -0.5541
   55MPD2    N1  849   2.436   4.192  17.657  0.5275 -0.0694 -0.0036
   55MPD2    H7  850   2.492   4.148  17.585  1.4926  1.8064 -0.3817
   56TCq2    C1  851   2.451   4.165   0.077 -1.0758 -0.9057  0.3768
   56TCq2    O2  852   2.380   4.202   0.170  0.0484 -0.4848 -0.5948
   56TCq2    C2  853   2.548   4.068   0.107 -0.4108  0.3447 -0.0177
   56TCq2    C3  854   2.602   3.988   0.014 -0.2816  1.3629 -0.4979
   56TCq2    C4  855   2.692   3.891   0.049  0.2813 -0.1270 -0.0354
   56TCq2    C5  856   2.722   3.855   0.180  0.2830  0.2311  0.3459
   56TCq2    C6  857   2.661   3.939   0.266 -0.5710 -0.2790 -0.4763
   56TCq2    C7  858   2.585   4.049   0.239  0.2500  0.3609 -0.0547
   56TCq2    C8  859   2.712   3.933   0.406  0.0778  0.2321 -0.3855
   56TCq2    O4  860   2.824   3.970   0.432 -0.4855  0.0231  0.3318
   56TCq2    C9  861   2.751   3.820  17.652  0.7546 -0.2292 -0.0799
   56TCq2    O5  862   2.747   3.698  17.671  0.4441 -0.0936  0.2886
   56TCq2    O6  863   2.742   3.867  17.536 -0.2673 -0.3278 -0.5196
   56TCq2    H2  864   2.575   3.992  17.619 -0.4504 -2.3521 -0.5811
   56TCq2    H3  865   2.797   3.780   0.199 -0.5159 -0.3086  1.3522
   56TCq2    H4  866   2.550   4.120   0.313 -1.6508  0.4778 -1.0563
   57TMC2    C1  867   1.569   1.134  13.853  0.0872  0.3685 -0.1997
   57TMC2    C2  868   1.654   1.229  13.904 -0.0136 -0.7149  0.2611
   57TMC2    C3  869   1.788   1.216  13.880  0.3296  0.2262  0.0913
   57TMC2    C4  870   1.615   1.030  13.784 -0.6900  0.4003  0.5792
   57TMC2    C5  871   1.750   1.019  13.761  0.2062 -0.7702  0.0108
   57TMC2    C6  872   1.844   1.109  13.812  0.3814  0.6541 -0.5811
   57TMC2     C  873   1.422   1.155  13.876  0.1630  0.1845  0.0403
   57TMC2     O  874   1.388   1.217  13.978 -0.3511 -0.8961 -0.1182
   57TMC2     H  875   1.618   1.318  13.953  2.1785 -0.9394  2.2454
   57TMC2    H1  876   1.546   0.952  13.751 -1.0235  0.6708  0.6374
   57TMC2    H2  877   1.949   1.087  13.798  0.2748 -0.5355  0.4368
   57TMC2    C7  878   1.806   0.904  13.692  0.2080 -0.3546 -0.2382
   57TMC2    C8  879   1.871   1.301  13.968  0.2246 -0.3976 -0.2883
   57TMC2    O1  880   1.920   0.864  13.717  0.1417 -0.1735 -0.4799
   57TMC2    O2  881   1.969   1.258  14.029 -0.1688 -0.0526 -0.2328
   57TMC2    O5  882   1.820   1.421  13.985  0.2944  0.1778 -0.3747
   57TMC2    H5  883   1.763   1.451  13.911  2.4103  0.8162 -1.7582
   58MPD2     C  884   0.949   1.158  13.693  0.4979 -0.4172 -0.0053
   58MPD2    C1  885   1.000   1.199  13.815  0.5354 -0.5236 -0.3459
   58MPD2    C2  886   1.132   1.173  13.839 -0.3635  0.0357  0.3655
   58MPD2    C3  887   1.220   1.125  13.745  0.1166 -0.6927  0.5727
   58MPD2    C4  888   1.172   1.087  13.621  0.1452 -0.3511  1.0095
   58MPD2    C5  889   1.036   1.095  13.596  0.0259  0.0086  0.2735
   58MPD2     H  890   1.176   1.192  13.937 -0.2137 -3.2908  0.9408
   58MPD2    H1  891   1.229   1.022  13.556 -2.5778 -2.9270  1.1807
   58MPD2    H2  892   0.848   1.174  13.658 -0.0151 -1.6796  0.8690
   58MPD2    H3  893   0.993   1.041  13.512  0.4747  0.6219 -0.3454
   58MPD2     N  894   1.356   1.100  13.766  0.3222  0.4766  0.4853
   58MPD2    H5  895   1.415   1.060  13.694  0.6827 -1.0477  1.6133
   58MPD2    N1  896   0.922   1.267  13.914 -0.2156  0.0672  0.3724
   58MPD2    H7  897   0.987   1.304  13.982 -2.5002 -0.2291  2.6953
   59MPD2     C  898   3.792   0.811  13.153  0.0698  0.7459 -0.2053
   59MPD2    C1  899   3.864   0.894  13.068  0.0164  0.1570  0.0583
   59MPD2    C2  900   3.981   0.956  13.118 -0.0148 -0.6890 -0.4185
   59MPD2    C3  901   4.022   0.936  13.253 -0.4330  0.1496 -0.2685
   59MPD2    C4  902   3.935   0.859  13.332 -0.5745 -0.0978 -1.3492
   59MPD2    C5  903   3.819   0.798  13.287  0.1070 -0.6172 -0.4116
   59MPD2     H  904   4.040   1.021  13.055  1.0381 -0.2483  1.0171
   59MPD2    H1  905   3.947   0.821  13.433 -0.8495  0.7388 -1.0022
   59MPD2    H2  906   3.706   0.759  13.114 -0.4423  0.7121  0.9518
   59MPD2    H3  907   3.762   0.728  13.346  0.1927 -0.2439  0.1131
   59MPD2     N  908   4.138   0.970  13.320  0.4130 -0.9225 -0.3512
   59MPD2    H5  909   4.147   0.939  13.416  0.7883 -4.1288 -1.4015
   59MPD2    N1  910   3.813   0.936  12.942 -0.4186 -0.3674  0.0228
   59MPD2    H7  911   3.867   0.992  12.877  0.9631 -1.4257  0.2815
   60TCq2    C1  912   3.686   0.909  12.891 -0.8618 -0.2664  0.4431
   60TCq2    O2  913   3.587   0.847  12.944  0.1807  0.0441 -0.1247
   60TCq2    C2  914   3.646   0.973  12.761 -0.2818  0.1786 -0.3427
   60TCq2    C3  915   3.510   1.003  12.741 -0.4643  0.2591 -0.2641
   60TCq2    C4  916   3.467   1.089  12.647  0.0834 -0.0597 -0.1440
   60TCq2    C5  917   3.559   1.130  12.551  0.1407  0.1356  0.0333
   60TCq2    C6  918   3.691   1.098  12.566  0.6532 -0.5193  0.0028
   60TCq2    C7  919   3.740   1.030  12.678 -0.6579  0.6444 -0.2440
   60TCq2    C8  920   3.789   1.141  12.471  0.3513  0.0406  0.3513
   60TCq2    O4  921   3.901   1.094  12.472 -0.2696  0.4871  0.6686
   60TCq2    C9  922   3.330   1.112  12.626 -0.2898 -0.4288 -0.0148
   60TCq2    O5  923   3.255   1.057  12.712  0.0884  0.1151  0.2685
   60TCq2    O6  924   3.290   1.170  12.521  0.2896  0.1657 -0.3422
   60TCq2    H2  925   3.438   0.965  12.811 -2.3269  1.6615 -1.4161
   60TCq2    H3  926   3.504   1.168  12.465 -3.3171 -2.2200  1.2094
   60TCq2    H4  927   3.843   0.994  12.685 -1.2779 -1.5047 -2.1065
   61MPD2     C  928   3.772   2.087  15.017  0.5117 -0.3544 -0.7254
   61MPD2    C1  929   3.766   2.202  14.946  0.0125  0.3959 -1.0297
   61MPD2    C2  930   3.877   2.245  14.874  0.1256  0.2105 -0.0091
   61MPD2    C3  931   3.994   2.173  14.873 -0.4135 -0.0381 -0.4961
   61MPD2    C4  932   4.003   2.055  14.948 -0.4020 -0.5936 -0.2521
   61MPD2    C5  933   3.889   2.011  15.017  0.8738 -0.5100  0.0544
   61MPD2     H  934   3.879   2.347  14.838  0.2836  0.2978  0.2470
   61MPD2    H1  935   4.092   1.994  14.950  0.7247  1.1435  2.7911
   61MPD2    H2  936   3.684   2.047  15.066  0.2502  1.9054  0.6244
   61MPD2    H3  937   3.891   1.911  15.060 -0.4415 -1.3766 -1.8882
   61MPD2     N  938   4.106   2.202  14.790 -0.4017 -0.2271  0.5889
   61MPD2    H5  939   4.180   2.134  14.802 -2.0868 -2.1901 -0.1101
   61MPD2    N1  940   3.638   2.266  14.936 -0.1408 -0.1663 -0.0341
   61MPD2    H7  941   3.560   2.217  14.980  0.3818 -1.1646 -0.2048
   62TCq2    C1  942   3.611   2.371  14.853  0.4325  0.1532  0.5818
   62TCq2    O2  943   3.686   2.450  14.802 -0.2015  0.2591 -0.4106
   62TCq2    C2  944   3.469   2.387  14.839 -0.2719  0.6909  0.4362
   62TCq2    C3  945   3.395   2.274  14.834 -0.2639 -0.0540 -0.0458
   62TCq2    C4  946   3.266   2.282  14.795 -0.4134  0.3169 -0.4220
   62TCq2    C5  947   3.202   2.406  14.787  0.0094  0.8506  0.3208
   62TCq2    C6  948   3.286   2.516  14.768 -0.5592 -0.2936  0.0134
   62TCq2    C7  949   3.420   2.505  14.796  0.0394 -0.0223 -0.2688
   62TCq2    C8  950   3.238   2.653  14.798  0.0900  0.4315 -0.8350
   62TCq2    O4  951   3.316   2.734  14.846 -0.6796  0.0289 -0.1146
   62TCq2    C9  952   3.191   2.162  14.806 -0.1693 -0.4399 -1.0471
   62TCq2    O5  953   3.070   2.179  14.833 -0.1804 -0.1272  0.3934
   62TCq2    O6  954   3.252   2.060  14.852 -0.0193  0.1039 -0.4997
   62TCq2    H2  955   3.441   2.176  14.837  0.6250  0.4195  1.5810
   62TCq2    H3  956   3.094   2.416  14.786 -0.2437 -1.8248  0.9718
   62TCq2    H4  957   3.488   2.589  14.792  0.8610 -0.7609 -2.2218
   63TMC2    C1  958   2.344   2.273  10.986 -0.6980  0.4557  0.1945
   63TMC2    C2  959   2.339   2.335  11.114 -0.1325  0.2168  0.3775
   63TMC2    C3  960   2.291   2.468  11.105  0.2105 -0.6265  0.3432
   63TMC2    C4  961   2.327   2.335  10.866  0.2010  0.1022  0.3745
   63TMC2    C5  962   2.287   2.464  10.871 -0.0609  0.1315 -0.3448
   63TMC2    C6  963   2.260   2.528  10.990  0.9736  0.4499  0.2492
   63TMC2     C  964   2.357   2.129  11.004 -0.0018  0.3648  0.9035
   63TMC2     O  965   2.385   2.088  11.114 -0.2174 -0.3186  0.2402
   63TMC2     H  966   2.359   2.289  11.210 -0.2269 -0.4253  0.0883
   63TMC2    H1  967   2.345   2.284  10.772  1.5834  0.6967  0.3186
   63TMC2    H2  968   2.230   2.632  10.992 -1.7246 -0.2767 -1.0768
   63TMC2    C7  969   2.287   2.533  10.749  0.3934  0.5871  0.5981
   63TMC2    C8  970   2.264   2.533  11.232 -0.5034  0.1675  0.2430
   63TMC2    O1  971   2.363   2.506  10.660 -0.5494 -0.5753 -0.5470
   63TMC2    O2  972   2.326   2.510  11.333 -0.5082 -0.3871  0.0007
   63TMC2    O5  973   2.170   2.629  11.221  0.0839 -0.1508  0.0733
   63TMC2    H5  974   2.145   2.667  11.308  0.6965 -0.2789  0.3041
   64MPD2     C  975   2.333   1.633  10.870 -0.2317  0.0252  0.2660
   64MPD2    C1  976   2.346   1.704  10.750  0.1946 -0.4557 -0.0692
   64MPD2    C2  977   2.349   1.839  10.759  0.4757  0.6232  0.2408
   64MPD2    C3  978   2.353   1.910  10.886  0.2512 -0.0105 -0.1345
   64MPD2    C4  979   2.364   1.829  11.000  0.5892 -0.1293 -0.5944
   64MPD2    C5  980   2.352   1.694  10.986  0.1494  0.7733  0.5845
   64MPD2     H  981   2.335   1.901  10.671 -0.7147  0.5549  0.3871
   64MPD2    H1  982   2.381   1.868  11.100 -0.3416 -0.3100 -0.3721
   64MPD2    H2  983   2.318   1.527  10.885 -0.2993  0.0675  0.4986
   64MPD2    H3  984   2.340   1.635  11.076 -2.8360  1.8105  0.8461
   64MPD2     N  985   2.337   2.049  10.894 -0.0793 -0.0815  0.1634
   64MPD2    H5  986   2.330   2.095  10.804  0.6618  0.9987  0.6625
   64MPD2    N1  987   2.340   1.645  10.623  0.3521 -0.6608 -0.5968
   64MPD2    H7  988   2.351   1.706  10.542  1.1961  0.6386  0.5009
   65MPD2     C  989   3.176   1.911  15.919  0.6446  0.7737  0.1756
   65MPD2    C1  990   3.213   1.897  15.784  0.5689  0.0530 -0.8043
   65MPD2    C2  991   3.275   1.778  15.751 -0.2615 -0.1595 -0.2693
   65MPD2    C3  992   3.306   1.683  15.848  0.5515 -0.9101 -0.0581
   65MPD2    C4  993   3.276   1.706  15.977  0.8506 -0.4175 -0.0041
   65MPD2    C5  994   3.219   1.822  16.016 -0.7722 -0.7909  0.6758
   65MPD2     H  995   3.303   1.762  15.648  1.0959 -0.1895  0.1066
   65MPD2    H1  996   3.297   1.632  16.054 -2.0739 -0.5691  0.6454
   65MPD2    H2  997   3.123   2.000  15.952  0.1396  1.5489 -2.7783
   65MPD2    H3  998   3.195   1.840  16.120 -1.2114 -0.4074  0.5101
   65MPD2     N  999   3.376   1.561  15.812  0.1910  0.3427  0.7795
   65MPD2    H5 1000   3.378   1.492  15.887  0.4207  1.6194  1.9352
   65MPD2    N1 1001   3.180   1.984  15.675 -0.3870 -0.3962  0.0589
   65MPD2    H7 1002   3.209   1.956  15.582  1.9022 -1.4729  1.0944
   66TCq2    C1 1003   3.133   2.112  15.692  0.4702  0.0065  0.0323
   66TCq2    O2 1004   3.129   2.176  15.799 -0.6546  0.0472  0.2606
   66TCq2    C2 1005   3.135   2.189  15.574  0.3959 -0.4272  0.1382
   66TCq2    C3 1006   3.116   2.114  15.463 -0.0938  0.4067  0.2001
   66TCq2    C4 1007   3.164   2.160  15.345 -0.1561 -0.2776 -0.0330
   66TCq2    C5 1008   3.238   2.279  15.345  0.3353  0.8771 -0.0224
   66TCq2    C6 1009   3.257   2.353  15.464 -0.4734  0.6601  0.2207
   66TCq2    C7 1010   3.207   2.308  15.579  0.0891 -0.4003 -0.3455
   66TCq2    C8 1011   3.277   2.491  15.446 -0.3292  0.6251  0.3263
   66TCq2    O4 1012   3.295   2.525  15.330 -0.0472 -0.2903 -0.5182
   66TCq2    C9 1013   3.146   2.083  15.225  0.3939 -0.5476  0.2172
   66TCq2    O5 1014   3.098   1.968  15.234 -0.2112 -0.1185 -0.3181
   66TCq2    O6 1015   3.143   2.143  15.113 -0.3208 -0.5862 -0.2125
   66TCq2    H2 1016   3.052   2.026  15.467  0.2036  0.2196  0.8526
   66TCq2    H3 1017   3.301   2.299  15.259  0.9368  1.3472  0.5245
   66TCq2    H4 1018   3.246   2.342  15.674 -0.4710  1.1167 -0.6672
   67MPD2     C 1019   3.951   1.072  14.080  0.4200  0.2874 -0.7672
   67MPD2    C1 1020   3.902   1.188  14.151 -0.7923  0.1060 -0.5786
   67MPD2    C2 1021   3.765   1.228  14.133 -0.4684  0.2690  0.1107
   67MPD2    C3 1022   3.687   1.149  14.056 -0.1432  0.1907  0.1397
   67MPD2    C4 1023   3.737   1.036  13.990  0.2997 -0.2213 -0.2209
   67MPD2    C5 1024   3.870   1.003  13.997 -0.5774  0.1859  0.1964
   67MPD2     H 1025   3.734   1.325  14.172 -0.4303  0.4289 -0.2582
   67MPD2    H1 1026   3.677   0.983  13.918  0.2401 -0.2596 -0.1432
   67MPD2    H2 1027   4.052   1.035  14.092  0.4129  1.2203  2.3153
   67MPD2    H3 1028   3.901   0.911  13.949  0.7995  0.2673  0.9488
   67MPD2     N 1029   3.552   1.190  14.028  0.1042  0.2988  0.0364
   67MPD2    H5 1030   3.509   1.133  13.956  3.4591 -1.3759 -0.6232
   67MPD2    N1 1031   3.983   1.262  14.244 -0.6677  0.0840  0.3452
   67MPD2    H7 1032   3.950   1.349  14.284 -0.8554 -0.2067  0.8183
   68TCq2    C1 1033   4.097   1.209  14.300  0.1128 -0.8210 -0.3116
   68TCq2    O2 1034   4.141   1.096  14.280  0.3630 -0.4235 -0.5428
   68TCq2    C2 1035   4.141   1.284  14.412  0.4296  0.1208 -0.5651
   68TCq2    C3 1036   4.117   1.419  14.417  0.0731  0.4447 -0.0636
   68TCq2    C4 1037   4.176   1.491  14.515 -0.6216 -1.0299  0.0997
   68TCq2    C5 1038   4.239   1.433  14.619  0.3961  0.2061  0.1553
   68TCq2    C6 1039   4.250   1.297  14.615 -0.4239  0.2922 -0.2764
   68TCq2    C7 1040   4.204   1.221  14.513 -0.2844  0.9652  0.1132
   68TCq2    C8 1041   4.310   1.241  14.729 -0.4167 -0.5233 -0.6502
   68TCq2    O4 1042   4.354   1.128  14.710 -0.3451 -0.2008 -0.1293
   68TCq2    C9 1043   4.181   1.638  14.505 -0.2239 -0.1076  0.4248
   68TCq2    O5 1044   4.134   1.687  14.393  0.1102  0.0632  0.1489
   68TCq2    O6 1045   4.257   1.698  14.587  0.0337  0.0310 -0.3684
   68TCq2    H2 1046   4.067   1.467  14.335  0.0064  0.0538 -0.2486
   68TCq2    H3 1047   4.296   1.497  14.685  0.7563 -1.5206  1.5379
   68TCq2    H4 1048   4.229   1.116  14.505  0.6880  1.1852  0.2315
   69TMC2    C1 1049   0.797   2.700  12.299  0.3109 -0.0291 -0.0389
   69TMC2    C2 1050   0.732   2.710  12.180  0.2122  0.6458  0.1702
   69TMC2    C3 1051   0.820   2.702  12.075 -0.1551 -0.4582  0.0232
   69TMC2    C4 1052   0.930   2.705  12.315  0.1078 -0.0431 -0.2472
   69TMC2    C5 1053   1.014   2.707  12.207  0.5105  0.1703 -0.4851
   69TMC2    C6 1054   0.957   2.700  12.085  0.0761  1.1527 -0.1339
   69TMC2     C 1055   0.726   2.682  12.417 -0.2932 -0.5313 -1.2165
   69TMC2     O 1056   0.632   2.600  12.419  0.4031  0.1990 -0.0332
   69TMC2     H 1057   0.623   2.706  12.178  0.2315 -0.8947  2.2037
   69TMC2    H1 1058   0.972   2.686  12.413  0.7737 -2.6022 -1.0367
   69TMC2    H2 1059   1.015   2.688  11.994  1.7829  2.6597  0.7505
   69TMC2    C7 1060   1.161   2.712  12.209 -0.5019  0.8414 -0.6442
   69TMC2    C8 1061   0.766   2.621  11.970  0.0907  1.4035 -0.9129
   69TMC2    O1 1062   1.227   2.712  12.104  0.1326 -0.6795  0.0256
   69TMC2    O2 1063   0.675   2.545  11.985  0.1718 -0.2380  0.5190
   69TMC2    O5 1064   0.835   2.636  11.852  0.7566  0.1292 -0.0736
   69TMC2    H5 1065   0.872   2.727  11.848  1.0947 -0.0179 -0.1976
   70MPD2     C 1066   0.774   2.867  12.739  0.5846 -1.0156 -0.3209
   70MPD2    C1 1067   0.719   2.773  12.649 -0.4565 -0.3295  0.1526
   70MPD2    C2 1068   0.624   2.683  12.696  0.4169  0.1041 -0.0275
   70MPD2    C3 1069   0.590   2.685  12.833 -0.5594  0.3543 -0.5287
   70MPD2    C4 1070   0.640   2.783  12.915  0.3124  0.4530  1.0150
   70MPD2    C5 1071   0.740   2.870  12.872 -0.3900  0.5688 -1.0270
   70MPD2     H 1072   0.583   2.602  12.636  1.7440 -0.4707 -0.1680
   70MPD2    H1 1073   0.618   2.785  13.021 -0.9584  1.1773  0.7321
   70MPD2    H2 1074   0.855   2.924  12.697  1.8073 -0.5148  2.6612
   70MPD2    H3 1075   0.792   2.938  12.939  0.5494  2.3966 -3.5771
   70MPD2     N 1076   0.496   2.599  12.901 -0.2483 -0.5150 -0.5667
   70MPD2    H5 1077   0.486   2.598  13.002  0.7928  1.3711 -0.4297
   70MPD2    N1 1078   0.766   2.774  12.512  0.1628 -0.7243  0.2057
   70MPD2    H7 1079   0.845   2.833  12.488  0.4535 -2.0563 -2.0596
   71TMC2    C1 1080   3.729   3.893   1.914  0.2308 -0.4648  0.4044
   71TMC2    C2 1081   3.725   4.028   1.938 -0.3675 -0.1339  0.0887
   71TMC2    C3 1082   3.610   4.071   1.997  0.3299 -0.0027 -1.0333
   71TMC2    C4 1083   3.611   3.818   1.920  0.0200 -0.0409 -0.1674
   71TMC2    C5 1084   3.492   3.870   1.963 -0.4328 -0.3123  0.5386
   71TMC2    C6 1085   3.498   3.990   2.007 -0.1650  0.0883 -0.6431
   71TMC2     C 1086   3.826   3.846   1.812 -0.6592  0.0186  0.3847
   71TMC2     O 1087   3.788   3.761   1.737 -0.3658  0.2209 -0.5949
   71TMC2     H 1088   3.806   4.095   1.912 -0.6212 -0.2534 -1.0388
   71TMC2    H1 1089   3.616   3.717   1.881  0.6833 -0.6835  1.5830
   71TMC2    H2 1090   3.406   4.025   2.052  0.5341 -2.4393  2.7401
   71TMC2    C7 1091   3.388   3.772   1.998  0.3628 -0.4140 -0.9735
   71TMC2    C8 1092   3.629   4.141   2.130 -0.0475  0.4748 -0.2332
   71TMC2    O1 1093   3.359   3.774   2.121  0.0771  0.4531  0.2815
   71TMC2    O2 1094   3.536   4.206   2.173 -0.4229 -0.0103 -0.4008
   71TMC2    O5 1095   3.759   4.169   2.145  0.1764 -0.2280  0.8894
   71TMC2    H5 1096   3.831   4.110   2.114  0.1904  0.9083 -1.2358
   72MPD2     C 1097   4.265   3.912   1.564 -0.3249 -0.0387 -0.2436
   72MPD2    C1 1098   4.146   3.861   1.513 -0.3293 -0.2196 -0.0430
   72MPD2    C2 1099   4.044   3.854   1.605  0.3325 -0.2202  0.5834
   72MPD2    C3 1100   4.056   3.891   1.739  0.8358  1.2995 -0.4540
   72MPD2    C4 1101   4.180   3.929   1.781  0.0313 -0.2892  0.1074
   72MPD2    C5 1102   4.287   3.941   1.694  0.5636  1.6984  0.3303
   72MPD2     H 1103   3.955   3.813   1.558 -0.3055  1.7222  0.0858
   72MPD2    H1 1104   4.204   3.952   1.884 -2.4871 -1.5018  0.9559
   72MPD2    H2 1105   4.350   3.927   1.498  0.0806 -0.9781  0.0726
   72MPD2    H3 1106   4.386   3.977   1.720  0.3779  2.9183 -0.6313
   72MPD2     N 1107   3.951   3.904   1.827  0.3992 -0.2119 -0.0346
   72MPD2    H5 1108   3.975   3.965   1.904  1.7436 -0.4455 -0.2581
   72MPD2    N1 1109   4.124   3.842   1.377  0.0824 -0.5033 -0.1018
   72MPD2    H7 1110   4.027   3.818   1.358 -0.1086  0.3637 -0.2048
   73TMC2    C1 1111   2.563   0.021  13.603 -0.6463 -0.7972  0.4572
   73TMC2    C2 1112   2.499   0.012  13.481 -0.3037  0.5991  0.4675
   73TMC2    C3 1113   2.491   4.617  13.418 -0.3416 -1.0348  0.3910
   73TMC2    C4 1114   2.622   4.639  13.656 -0.0346  0.1503  0.0795
   73TMC2    C5 1115   2.614   4.521  13.591 -0.5009  0.5729 -0.1029
   73TMC2    C6 1116   2.543   4.505  13.477  0.0850  0.1987 -0.2963
   73TMC2     C 1117   2.662   0.120  13.602 -0.2101  0.2184 -0.8787
   73TMC2     O 1118   2.771   0.070  13.617 -0.3460  0.3780 -0.1823
   73TMC2     H 1119   2.444   0.091  13.432 -2.0040 -0.5576  0.5250
   73TMC2    H1 1120   2.669   4.645  13.754 -0.1561  1.3262  0.0624
   73TMC2    H2 1121   2.549   4.413  13.420  1.1992 -2.0003  3.3844
   73TMC2    C7 1122   2.738   4.448  13.585 -1.1309  0.3199  0.0024
   73TMC2    C8 1123   2.383   4.601  13.319  0.2737 -0.9894 -0.4155
   73TMC2    O1 1124   2.734   4.328  13.557  0.5663  0.0551  0.2432
   73TMC2    O2 1125   2.285   4.674  13.309 -0.1486  0.2944  0.8400
   73TMC2    O5 1126   2.441   4.537  13.213  0.1104 -0.4207  0.3832
   73TMC2    H5 1127   2.532   4.515  13.241  0.0558 -1.0980  0.0208
   74MPD2     C 1128   2.882   0.584  13.537  0.1477 -0.2354 -0.9513
   74MPD2    C1 1129   2.933   0.455  13.548  0.4999 -1.0679  0.1092
   74MPD2    C2 1130   2.845   0.342  13.565  0.3564  0.4931  0.7435
   74MPD2    C3 1131   2.708   0.363  13.558 -0.0574  0.3497 -0.4548
   74MPD2    C4 1132   2.654   0.493  13.542 -0.2206  0.2565  0.0320
   74MPD2    C5 1133   2.741   0.599  13.534  0.9091  0.4250  0.6417
   74MPD2     H 1134   2.891   0.244  13.566 -0.7894 -0.0448 -1.6947
   74MPD2    H1 1135   2.549   0.510  13.524 -0.3752 -0.8990 -0.1727
   74MPD2    H2 1136   2.943   0.673  13.533  0.5890 -0.3924  2.1644
   74MPD2    H3 1137   2.690   0.694  13.525  1.3027  0.3415 -2.3846
   74MPD2     N 1138   2.618   0.250  13.577 -0.6849 -0.2128  0.2194
   74MPD2    H5 1139   2.518   0.267  13.581 -0.7135  0.0149 -1.3327
   74MPD2    N1 1140   3.070   0.440  13.561 -0.2522  0.5144 -0.6433
   74MPD2    H7 1141   3.131   0.510  13.521  1.1812 -0.7012 -0.5714
   75TCq2    C1 1142   3.473   1.261  14.115 -0.0270 -0.0816  0.1592
   75TCq2    O2 1143   3.500   1.278  14.235 -0.1217 -0.3426  0.0740
   75TCq2    C2 1144   3.329   1.265  14.069  0.0800 -0.5168  0.1022
   75TCq2    C3 1145   3.244   1.259  14.170  0.2488  0.3054 -0.9860
   75TCq2    C4 1146   3.108   1.282  14.143 -0.5606  0.5091  0.2756
   75TCq2    C5 1147   3.072   1.331  14.014 -0.6056  0.2551 -0.4903
   75TCq2    C6 1148   3.162   1.318  13.911  0.3427  1.1165 -0.1070
   75TCq2    C7 1149   3.289   1.287  13.937 -0.4374  0.5317  0.0523
   75TCq2    C8 1150   3.143   1.372  13.780 -0.4194 -0.4523  0.7224
   75TCq2    O4 1151   3.203   1.318  13.686 -0.4691 -0.2789  0.1263
   75TCq2    C9 1152   3.010   1.278  14.249  0.6196 -0.3966 -0.1597
   75TCq2    O5 1153   2.890   1.306  14.228 -0.3013  0.2599  0.0226
   75TCq2    O6 1154   3.056   1.245  14.359 -0.2909  0.2099 -0.2748
   75TCq2    H2 1155   3.272   1.230  14.270  1.4836 -0.3241 -1.5201
   75TCq2    H3 1156   2.973   1.370  13.995 -0.9258 -0.0718  0.4884
   75TCq2    H4 1157   3.362   1.288  13.857 -1.6390 -0.7642 -1.0630
   76MPD2     C 1158   2.363   2.333  12.214 -0.0064 -0.7248 -0.0934
   76MPD2    C1 1159   2.260   2.277  12.137  0.6571  0.5175 -0.5149
   76MPD2    C2 1160   2.264   2.146  12.101 -0.1422 -0.3611 -0.0344
   76MPD2    C3 1161   2.366   2.061  12.140 -0.2764 -0.0690 -0.1764
   76MPD2    C4 1162   2.474   2.116  12.210  0.0093 -0.7404 -0.1387
   76MPD2    C5 1163   2.464   2.246  12.258 -0.0084  0.4586  0.2380
   76MPD2     H 1164   2.181   2.115  12.039 -0.9767 -0.3563  1.0706
   76MPD2    H1 1165   2.557   2.056  12.246  1.8080  1.3324 -0.7893
   76MPD2    H2 1166   2.357   2.436  12.249  0.5177 -1.3114  1.7216
   76MPD2    H3 1167   2.533   2.295  12.326  0.7562  1.7133 -1.4379
   76MPD2     N 1168   2.371   1.927  12.090 -0.4989 -0.1911  0.6478
   76MPD2    H5 1169   2.456   1.875  12.109 -1.2785 -1.9049 -0.5478
   76MPD2    N1 1170   2.147   2.359  12.091  0.2838 -0.1492  0.4354
   76MPD2    H7 1171   2.091   2.309  12.023  0.3490 -2.4989  2.0678
   77TCq2    C1 1172   2.278   1.855  12.011 -0.5802 -0.0050  0.9475
   77TCq2    O2 1173   2.165   1.892  11.977 -0.2332 -0.1748  0.1612
   77TCq2    C2 1174   2.339   1.735  11.962  0.0910 -0.3908 -0.1129
   77TCq2    C3 1175   2.254   1.664  11.884  0.5195 -0.0262 -0.3547
   77TCq2    C4 1176   2.303   1.581  11.792 -0.8207  0.3580 -0.5311
   77TCq2    C5 1177   2.438   1.566  11.773 -0.5965 -0.4011  0.1214
   77TCq2    C6 1178   2.525   1.640  11.857  0.3465 -0.0046 -0.1283
   77TCq2    C7 1179   2.473   1.735  11.942 -0.0929  0.3065  0.5611
   77TCq2    C8 1180   2.660   1.584  11.865 -0.8295  0.5421 -0.3547
   77TCq2    O4 1181   2.692   1.505  11.777 -0.1995  0.1925 -0.5926
   77TCq2    C9 1182   2.203   1.517  11.709  0.0158 -0.3314 -0.3850
   77TCq2    O5 1183   2.242   1.416  11.643 -0.5535  0.1588  0.2045
   77TCq2    O6 1184   2.086   1.562  11.714 -0.3112  0.0133  0.1933
   77TCq2    H2 1185   2.148   1.670  11.908  0.4957  0.1773 -0.5159
   77TCq2    H3 1186   2.473   1.498  11.697  0.0731 -0.6643  0.6707
   77TCq2    H4 1187   2.552   1.788  11.996 -0.0979 -0.6033  1.4578
   78MPD1     C 1188   0.095   1.502   1.626  0.3899  0.0244 -0.7072
   78MPD1    C1 1189   0.124   1.424   1.518  0.5974 -0.1043  0.1914
   78MPD1    C2 1190   0.257   1.398   1.487 -0.2158  0.6494  0.3804
   78MPD1    C3 1191   0.359   1.466   1.549  0.1523 -0.3772  0.1276
   78MPD1    C4 1192   0.325   1.564   1.639  0.0869 -0.4169 -0.7211
   78MPD1    C5 1193   0.196   1.575   1.681  0.4229 -0.8650 -0.3273
   78MPD1     H 1194   0.282   1.324   1.411 -0.4905 -1.5266  2.4186
   78MPD1    H1 1195   0.405   1.613   1.693 -0.5924  0.4525 -0.4974
   78MPD1    H2 1196   4.723   1.515   1.666  0.8174  1.5679 -0.1358
   78MPD1    H3 1197   0.168   1.640   1.763  0.0651 -0.0951 -1.0571
   78MPD1     N 1198   0.493   1.461   1.513 -0.0802 -0.4829 -0.1313
   78MPD1    H5 1199   0.554   1.518   1.570  0.4910 -0.8905 -0.3252
   78MPD1    N1 1200   0.020   1.355   1.453 -0.1313 -0.0309 -0.2665
   78MPD1    H6 1201   0.049   1.319   1.362  0.1145 -0.0598 -0.1777
   78MPD1    H7 1202   4.661   1.408   1.456  0.0131  0.1569  0.5890
   79TCq2    C1 1203   0.554   1.380   1.418  0.1878  0.3500  0.9971
   79TCq2    O2 1204   0.501   1.292   1.354 -0.0018 -0.2707 -0.1648
   79TCq2    C2 1205   0.690   1.413   1.380  0.5883  0.7458 -0.1517
   79TCq2    C3 1206   0.766   1.329   1.311  0.6220  0.0981 -0.2977
   79TCq2    C4 1207   0.888   1.370   1.263  0.6446 -0.5720 -0.4261
   79TCq2    C5 1208   0.947   1.486   1.303 -0.7087  0.5174  0.0736
   79TCq2    C6 1209   0.869   1.563   1.383 -0.5283 -0.4038 -0.3872
   79TCq2    C7 1210   0.739   1.533   1.408  0.6977  0.6549  0.0113
   79TCq2    C8 1211   0.915   1.689   1.426 -0.5442 -0.1318 -0.0032
   79TCq2    O4 1212   0.833   1.769   1.460 -0.0732 -0.0336  0.0604
   79TCq2    C9 1213   0.961   1.284   1.181 -0.2834 -0.4457 -0.6418
   79TCq2    O5 1214   0.917   1.169   1.159 -0.1739 -0.2334  0.2579
   79TCq2    O6 1215   1.075   1.321   1.141  0.2954  0.5899 -0.3246
   79TCq2    H2 1216   0.721   1.231   1.298 -3.0993  1.6956  0.2816
   79TCq2    H3 1217   1.047   1.519   1.277 -1.9020  4.3822  0.4399
   79TCq2    H4 1218   0.676   1.614   1.441  1.3869  1.4239 -0.5743
   80MPD2     C 1219   1.360   1.994  12.014  0.3033  0.2148 -0.5968
   80MPD2    C1 1220   1.220   1.999  11.993  0.2467 -0.1533  0.3263
   80MPD2    C2 1221   1.139   1.974  12.100  0.3804  0.8281  1.1705
   80MPD2    C3 1222   1.183   1.937  12.226 -0.0868  0.0673  0.5916
   80MPD2    C4 1223   1.322   1.918  12.240 -0.2062 -0.4079 -0.0236
   80MPD2    C5 1224   1.410   1.951  12.135  0.2153  0.6893 -0.9168
   80MPD2     H 1225   1.034   1.993  12.079  0.0971  0.3617  2.1531
   80MPD2    H1 1226   1.360   1.881  12.335 -1.3985  2.3081  1.5138
   80MPD2    H2 1227   1.424   2.011  11.929 -0.0585  0.4212 -0.8257
   80MPD2    H3 1228   1.517   1.949  12.153 -0.0528  1.3965  0.7776
   80MPD2     N 1229   1.099   1.911  12.340  0.4139 -0.4949 -0.3909
   80MPD2    H5 1230   1.142   1.891  12.430 -0.4108 -1.0029 -0.0961
   80MPD2    N1 1231   1.157   2.029  11.876 -0.0643 -0.2654  0.3753
   80MPD2    H7 1232   1.057   2.045  11.875 -0.3279 -2.0344 -2.0158
   81TCq2    C1 1233   1.211   2.019  11.748  0.2757 -0.9633  0.6678
   81TCq2    O2 1234   1.330   2.010  11.711 -0.5181 -0.2209 -0.0235
   81TCq2    C2 1235   1.108   2.013  11.647  0.4044  0.1775  0.0580
   81TCq2    C3 1236   1.145   2.037  11.516  0.0765  0.1452  0.4301
   81TCq2    C4 1237   1.047   2.010  11.420  0.2180 -0.2886  0.0133
   81TCq2    C5 1238   0.918   1.969  11.448 -0.4793 -0.2517  0.1789
   81TCq2    C6 1239   0.893   1.944  11.581  0.3114  0.1739  0.0223
   81TCq2    C7 1240   0.984   1.960  11.680 -0.3116  0.2069 -0.5648
   81TCq2    C8 1241   0.771   1.861  11.605  0.3450  0.5612 -0.2168
   81TCq2    O4 1242   0.699   1.850  11.509  0.3393  0.1196  0.5805
   81TCq2    C9 1243   1.073   2.030  11.279 -0.1416 -0.9004 -0.0403
   81TCq2    O5 1244   0.980   2.002  11.203  0.3292 -0.8973  0.5032
   81TCq2    O6 1245   1.196   2.047  11.240  0.1290  0.2997  0.2657
   81TCq2    H2 1246   1.243   2.076  11.492 -0.6037  1.8146  0.3839
   81TCq2    H3 1247   0.852   1.932  11.371  0.8796  0.4203 -1.3191
   81TCq2    H4 1248   0.958   1.947  11.784  2.7805 -2.5653 -0.1403
   82MPD2     C 1249   4.419   1.336  10.675  0.3824 -0.0467 -0.2980
   82MPD2    C1 1250   4.320   1.268  10.732  0.1947  0.1331  0.4034
   82MPD2    C2 1251   4.357   1.191  10.844 -0.2218  0.7061 -0.4534
   82MPD2    C3 1252   4.484   1.199  10.894  0.4374 -1.6699  0.3122
   82MPD2    C4 1253   4.580   1.275  10.833 -0.6983  0.5269 -0.6018
   82MPD2    C5 1254   4.548   1.340  10.718 -0.5935 -0.2156  0.0502
   82MPD2     H 1255   4.280   1.135  10.895  1.1296 -1.8134 -1.1261
   82MPD2    H1 1256   4.674   1.301  10.879 -0.8469 -1.1251  0.6195
   82MPD2    H2 1257   4.392   1.388  10.584  0.3209 -0.2296 -0.3836
   82MPD2    H3 1258   4.626   1.396  10.667  0.2171 -1.2908  0.1243
   82MPD2     N 1259   4.529   1.134  11.006  0.4187 -0.3127  0.0883
   82MPD2    H5 1260   4.625   1.142  11.039  0.7060 -2.6686 -0.1803
   82MPD2    N1 1261   4.195   1.271  10.669  0.1789  0.9248 -0.1550
   82MPD2    H7 1262   4.182   1.334  10.591 -0.0220  1.7400  0.5282
   83TCq2    C1 1263   4.448   1.037  11.063 -0.2762 -0.6627 -0.0364
   83TCq2    O2 1264   4.332   1.005  11.045 -0.0009  0.3100  0.1011
   83TCq2    C2 1265   4.517   0.964  11.175 -0.2630  0.0074  0.8275
   83TCq2    C3 1266   4.656   0.952  11.199 -0.6741 -0.5970 -0.0183
   83TCq2    C4 1267   4.703   0.869  11.300  0.1466 -1.3421 -0.0522
   83TCq2    C5 1268   4.613   0.806  11.380  0.4963 -0.1806  0.0315
   83TCq2    C6 1269   4.478   0.818  11.351  0.0209 -0.0574 -0.5453
   83TCq2    C7 1270   4.432   0.895  11.250 -0.0164 -0.0875 -0.5937
   83TCq2    C8 1271   4.384   0.728  11.416 -0.0492 -0.2289  0.6596
   83TCq2    O4 1272   4.425   0.656  11.504  0.3926 -0.2087 -0.0026
   83TCq2    C9 1273   0.117   0.854  11.315  0.4673  0.1431  0.1625
   83TCq2    O5 1274   0.159   0.781  11.409  0.2597  0.2997 -0.0194
   83TCq2    O6 1275   0.182   0.946  11.262  0.5188 -0.3670  0.0642
   83TCq2    H2 1276   0.001   0.990  11.128  0.8646 -3.5488 -0.0357
   83TCq2    H3 1277   4.639   0.739  11.461 -1.2255  0.9348  1.4901
   83TCq2    H4 1278   4.326   0.902  11.232  0.1590  3.1489 -0.3774
   84TCq2    C1 1279   4.497   4.693  10.483  0.3131  0.3280 -0.0082
   84TCq2    O2 1280   4.452   4.615  10.400  0.0130 -0.3660 -0.1512
   84TCq2    C2 1281   4.549   4.634  10.605 -0.3038  0.4753  0.9878
   84TCq2    C3 1282   4.544   4.499  10.612 -0.3295  0.7005  0.4894
   84TCq2    C4 1283   4.592   4.433  10.725  0.2913  0.2018  0.8953
   84TCq2    C5 1284   4.614   4.514  10.831  0.0384  0.5184 -0.0684
   84TCq2    C6 1285   4.601   4.650  10.833 -0.3933  0.5515 -0.4553
   84TCq2    C7 1286   4.564   4.710  10.715 -0.0021 -0.0051  0.5493
   84TCq2    C8 1287   4.585   4.711  10.966  0.2019  0.3597  0.1165
   84TCq2    O4 1288   4.618   0.101  10.975  0.6792 -0.6793  0.7436
   84TCq2    C9 1289   4.607   4.290  10.732  0.0211 -0.3032 -0.2834
   84TCq2    O5 1290   4.648   4.244  10.843  0.7165 -0.6401  0.0540
   84TCq2    O6 1291   4.586   4.226  10.625 -0.1493 -0.9144  0.1066
   84TCq2    H2 1292   4.531   4.442  10.521  0.1067  3.6595 -1.4205
   84TCq2    H3 1293   4.645   4.464  10.922 -0.0928 -2.4217 -1.6514
   84TCq2    H4 1294   4.547   0.090  10.710  2.7543  0.3342 -2.1994
   85MPD2     C 1295   0.754   2.838  16.417 -0.7720  0.8229  1.0308
   85MPD2    C1 1296   0.836   2.795  16.310  0.8495 -0.7232  0.0060
   85MPD2    C2 1297   0.938   2.879  16.259 -0.4750 -0.6376  0.1689
   85MPD2    C3 1298   0.944   3.010  16.306 -0.0135  0.5149  0.9389
   85MPD2    C4 1299   0.860   3.048  16.410 -0.2177 -0.2979 -0.0188
   85MPD2    C5 1300   0.773   2.959  16.469 -0.6931 -0.4452 -0.3787
   85MPD2     H 1301   0.999   2.847  16.175  0.2814  0.3653  0.3499
   85MPD2    H1 1302   0.863   3.145  16.460  0.5519 -0.3719  0.0863
   85MPD2    H2 1303   0.682   2.773  16.466 -1.5849  1.1183  0.2220
   85MPD2    H3 1304   0.713   2.995  16.551  1.0133  1.1482  0.1553
   85MPD2     N 1305   1.056   3.092  16.257  0.3029  0.0878 -0.8721
   85MPD2    H5 1306   1.107   3.038  16.187  0.5285 -1.2212  0.2990
   85MPD2    N1 1307   0.817   2.666  16.245  1.1093 -0.2646  0.0235
   85MPD2    H7 1308   0.879   2.655  16.166 -1.2794 -0.0087 -1.8930
   86TCq2    C1 1309   1.096   3.215  16.308 -0.4394 -0.1755  0.2336
   86TCq2    O2 1310   1.040   3.298  16.379 -0.6695 -0.4224  0.0515
   86TCq2    C2 1311   1.215   3.274  16.241 -0.2885 -0.3185  0.1702
   86TCq2    C3 1312   1.234   3.404  16.259  0.7213 -0.2637 -0.3114
   86TCq2    C4 1313   1.359   3.461  16.254  0.0829 -0.0071  0.2098
   86TCq2    C5 1314   1.467   3.377  16.227  0.3927  0.1714 -0.1752
   86TCq2    C6 1315   1.445   3.249  16.206  0.4624 -0.0226 -0.2522
   86TCq2    C7 1316   1.320   3.194  16.211  0.2079 -0.2417 -0.5258
   86TCq2    C8 1317   1.542   3.175  16.137 -0.4832  0.8806  0.1931
   86TCq2    O4 1318   1.562   3.059  16.177  0.5641  0.0590  0.5534
   86TCq2    C9 1319   1.377   3.605  16.258  0.2577 -0.2899  0.0457
   86TCq2    O5 1320   1.496   3.644  16.241 -0.1772  0.1265  0.4428
   86TCq2    O6 1321   1.281   3.677  16.297  0.7340 -0.0930 -0.0207
   86TCq2    H2 1322   1.151   3.470  16.278  2.0600  1.1601  0.6111
   86TCq2    H3 1323   1.568   3.416  16.222  0.6826 -0.5451 -0.0143
   86TCq2    H4 1324   1.311   3.092  16.177 -2.7353 -1.0287  2.5555
   87MPD2     C 1325   3.152   1.927   1.546  0.0772 -0.3254 -0.3667
   87MPD2    C1 1326   3.238   2.013   1.488 -0.2351  0.6023  0.3714
   87MPD2    C2 1327   3.190   2.111   1.404 -0.3699 -0.0975  0.2690
   87MPD2    C3 1328   3.053   2.139   1.390  0.1214 -0.0280  0.2191
   87MPD2    C4 1329   2.969   2.058   1.464 -0.4589  0.3799 -0.6124
   87MPD2    C5 1330   3.018   1.945   1.529  0.0200  0.4591  0.7230
   87MPD2     H 1331   3.259   2.183   1.365  0.6267 -0.2929  1.6650
   87MPD2    H1 1332   2.864   2.084   1.462 -0.5399  0.0826 -0.2576
   87MPD2    H2 1333   3.190   1.847   1.610  1.5735  0.8945  0.2639
   87MPD2    H3 1334   2.948   1.886   1.586 -1.4991  1.4117 -0.1629
   87MPD2     N 1335   2.985   2.226   1.301  0.4554  0.1807 -0.0758
   87MPD2    H5 1336   2.884   2.230   1.299  0.5635  1.6633 -2.4580
   87MPD2    N1 1337   3.371   1.986   1.500 -0.1957  0.3702  0.8735
   87MPD2    H7 1338   3.389   1.894   1.540  2.2726  0.5472  0.1622
   88TCq2    C1 1339   3.477   2.071   1.473  0.3640 -0.3497  0.5095
   88TCq2    O2 1340   3.458   2.190   1.441  0.0151  0.0367  0.1239
   88TCq2    C2 1341   3.599   1.998   1.454 -0.2234 -0.0903  0.3282
   88TCq2    C3 1342   3.715   2.063   1.435 -0.3064  0.1316 -0.1485
   88TCq2    C4 1343   3.832   1.996   1.420  0.0106 -0.2531  0.5901
   88TCq2    C5 1344   3.835   1.858   1.407 -0.7731 -0.1912  0.0661
   88TCq2    C6 1345   3.715   1.792   1.416  0.6262  0.3699  0.9078
   88TCq2    C7 1346   3.596   1.861   1.443  0.0435  0.7961 -0.6925
   88TCq2    C8 1347   3.696   1.662   1.357 -0.5747 -0.2772  1.0447
   88TCq2    O4 1348   3.600   1.591   1.380 -0.1192 -0.1050  0.1032
   88TCq2    C9 1349   3.954   2.067   1.410  0.8501  0.0685 -0.7587
   88TCq2    O5 1350   3.944   2.186   1.453  0.0544 -0.0845  0.5608
   88TCq2    O6 1351   4.051   2.011   1.345  0.0224  0.9536  0.4976
   88TCq2    H2 1352   3.726   2.170   1.445 -0.4453  0.2591 -1.3427
   88TCq2    H3 1353   3.928   1.816   1.372 -1.1607 -0.6577 -0.3973
   88TCq2    H4 1354   3.506   1.802   1.451  0.4027  0.3050 -0.2874
   89MPD2     C 1355   0.019   4.023   2.138  0.4848 -0.1951 -0.1143
   89MPD2    C1 1356   4.706   4.139   2.079 -0.2842  0.0260  0.3148
   89MPD2    C2 1357   0.067   4.235   2.053  0.1170 -0.1819 -0.4775
   89MPD2    C3 1358   0.201   4.208   2.067 -0.3819 -0.3496  0.1109
   89MPD2    C4 1359   0.246   4.097   2.129  0.3242  0.0686  0.4294
   89MPD2    C5 1360   0.150   4.009   2.182 -0.1207 -0.1278  0.1657
   89MPD2     H 1361   0.033   4.316   1.989  0.6978  1.4722  1.3365
   89MPD2    H1 1362   0.351   4.075   2.145  0.3340 -1.5466 -1.9171
   89MPD2    H2 1363   4.671   3.952   2.170 -2.9720  1.8632 -3.6101
   89MPD2    H3 1364   0.171   3.920   2.239  0.2073  0.8334  1.5355
   89MPD2     N 1365   0.293   4.307   2.025  0.2409 -0.0358  0.3898
   89MPD2    H5 1366   0.251   4.395   1.998  0.3840  0.1077  0.6320
   89MPD2    N1 1367   4.568   4.146   2.045  0.3373  0.8757  0.0567
   89MPD2    H7 1368   4.515   4.070   2.086  0.3811  0.1408 -1.2322
   90TCq2    C1 1369   0.427   4.302   2.016  0.1932  0.4578 -0.2390
   90TCq2    O2 1370   0.511   4.225   2.059  0.0363 -0.4585 -0.4621
   90TCq2    C2 1371   0.485   4.424   1.980 -0.0017  0.3815 -0.1326
   90TCq2    C3 1372   0.618   4.449   1.981  0.0290 -0.5249 -0.4832
   90TCq2    C4 1373   0.666   4.547   1.903  0.7406 -0.1973 -0.7492
   90TCq2    C5 1374   0.592   4.621   1.820  0.0940  0.2679  0.0841
   90TCq2    C6 1375   0.458   4.603   1.822  0.4027  0.3646 -0.0738
   90TCq2    C7 1376   0.406   4.504   1.899  0.4657 -0.4401 -0.6574
   90TCq2    C8 1377   0.360   4.657   1.729  0.1514 -0.1173  0.6047
   90TCq2    O4 1378   0.251   4.679   1.774  0.0380  0.4467 -0.8887
   90TCq2    C9 1379   0.801   4.597   1.919 -0.4560 -0.4373 -0.6775
   90TCq2    O5 1380   0.858   4.551   2.021  0.5436  0.5026  0.5147
   90TCq2    O6 1381   0.832   4.703   1.864 -0.3975  0.2226  0.5193
   90TCq2    H2 1382   0.674   4.396   2.057 -0.6993  0.5336  0.7967
   90TCq2    H3 1383   0.638   4.703   1.767 -0.1265  0.7947  0.7170
   90TCq2    H4 1384   0.310   4.466   1.864 -0.1498  1.3132 -0.8682
   91TMC2    C1 1385   1.306   4.219  16.822 -0.3828  0.7184 -0.4952
   91TMC2    C2 1386   1.369   4.317  16.750 -0.2687  0.0561 -0.0916
   91TMC2    C3 1387   1.283   4.409  16.690 -0.9043  0.6296 -0.2226
   91TMC2    C4 1388   1.169   4.224  16.848 -0.0699  0.0261 -0.1240
   91TMC2    C5 1389   1.095   4.317  16.788 -0.5835 -0.8711 -0.5975
   91TMC2    C6 1390   1.148   4.403  16.699  0.4148 -0.1615 -0.3057
   91TMC2     C 1391   1.395   4.152  16.913 -0.0374 -0.1607  0.3397
   91TMC2     O 1392   1.344   4.090  17.004 -0.4013  0.1738 -0.2865
   91TMC2     H 1393   1.472   4.351  16.753  0.2473 -1.4260 -1.1249
   91TMC2    H1 1394   1.120   4.149  16.909  0.4612 -0.8732 -0.8038
   91TMC2    H2 1395   1.085   4.475  16.647 -0.8602  0.6704  2.3609
   91TMC2    C7 1396   0.959   4.282  16.755  0.5521  0.0145  0.4140
   91TMC2    C8 1397   1.345   4.528  16.638  0.3508 -0.6364 -0.4077
   91TMC2    O1 1398   0.873   4.292  16.839 -0.0333 -0.1821 -0.3017
   91TMC2    O2 1399   1.459   4.538  16.601  0.1128 -0.3374  0.0199
   91TMC2    O5 1400   1.254   4.627  16.645 -0.1485 -0.2952  0.1210
   91TMC2    H5 1401   1.175   4.606  16.698 -1.9279 -0.1101 -2.4342
   92MPD2     C 1402   1.628   4.068  17.069  0.3963 -0.1808 -0.1385
   92MPD2    C1 1403   1.626   4.097  16.936  0.2653 -0.1451  0.8936
   92MPD2    C2 1404   1.729   4.077  16.854 -0.2802  0.3360  0.8067
   92MPD2    C3 1405   1.852   4.028  16.904 -0.3429  0.9065  0.2128
   92MPD2    C4 1406   1.849   3.989  17.031  1.3743  0.4351  0.5448
   92MPD2    C5 1407   1.738   4.005  17.114  1.3578 -0.5514 -0.6140
   92MPD2     H 1408   1.710   4.118  16.755  0.5709  0.1863  0.5796
   92MPD2    H1 1409   1.942   3.955  17.075  0.9446 -1.9339 -0.3423
   92MPD2    H2 1410   1.552   4.089  17.143 -0.1742 -0.6220 -0.6011
   92MPD2    H3 1411   1.740   3.967  17.216 -0.3245 -2.6393 -1.3769
   92MPD2     N 1412   1.966   4.022  16.819 -0.3368  0.1908  0.5305
   92MPD2    H5 1413   1.949   4.056  16.725 -0.2671 -2.1028 -0.2971
   92MPD2    N1 1414   1.520   4.160  16.876 -0.8454 -0.4641  0.5936
   92MPD2    H7 1415   1.534   4.181  16.777 -1.1440 -0.0545  0.6370
   93MPD2     C 1416   2.518   4.156  13.979  0.2054  0.1495  0.4342
   93MPD2    C1 1417   2.545   4.193  13.847  0.0739 -0.1269 -0.1413
   93MPD2    C2 1418   2.442   4.234  13.763  0.4356 -0.7577 -0.0875
   93MPD2    C3 1419   2.314   4.234  13.801 -0.1461  0.2787 -0.6007
   93MPD2    C4 1420   2.287   4.176  13.926  0.4756  0.5018  0.3185
   93MPD2    C5 1421   2.387   4.148  14.007  0.0695  0.2735  0.3107
   93MPD2     H 1422   2.465   4.269  13.662 -1.4692  0.2691 -0.1703
   93MPD2    H1 1423   2.188   4.160  13.967  0.0230  3.8994  0.5881
   93MPD2    H2 1424   2.597   4.127  14.047  2.4359 -0.0550 -2.2390
   93MPD2    H3 1425   2.366   4.101  14.103  1.2637  3.0183  1.8973
   93MPD2     N 1426   2.213   4.247  13.706 -0.6714 -0.0929 -0.3105
   93MPD2    H5 1427   2.119   4.215  13.728 -0.4768 -0.3176  0.1918
   93MPD2    N1 1428   2.675   4.182  13.792 -0.0324 -0.4680 -0.4006
   93MPD2    H7 1429   2.675   4.195  13.692 -0.6294 -0.3887 -0.3893
   94TCq2    C1 1430   2.794   4.145  13.851  0.3512 -0.2755 -0.4439
   94TCq2    O2 1431   2.821   4.154  13.970 -0.6959  0.1753  0.1834
   94TCq2    C2 1432   2.893   4.105  13.755  0.0520  0.1160 -0.4300
   94TCq2    C3 1433   2.847   4.016  13.655  0.3159 -0.8632  0.1378
   94TCq2    C4 1434   2.948   3.962  13.581 -0.2168  0.1042 -0.8737
   94TCq2    C5 1435   3.082   3.982  13.617 -0.3224  0.2279 -0.0588
   94TCq2    C6 1436   3.122   4.059  13.720 -1.3522 -0.0528  0.5229
   94TCq2    C7 1437   3.028   4.123  13.789 -0.6686 -0.9870 -0.2565
   94TCq2    C8 1438   3.266   4.066  13.757 -0.4971  0.0669 -0.2685
   94TCq2    O4 1439   3.343   4.032  13.667  0.1636  0.3974 -0.0448
   94TCq2    C9 1440   2.901   3.863  13.488 -0.1634  0.0440  0.0060
   94TCq2    O5 1441   2.993   3.822  13.414 -0.3602 -0.0450  0.3867
   94TCq2    O6 1442   2.786   3.809  13.509  0.3273  0.2408 -0.0442
   94TCq2    H2 1443   2.742   3.992  13.649  0.1062  0.0034  0.3159
   94TCq2    H3 1444   3.154   3.927  13.558  2.5529  3.4683  0.4330
   94TCq2    H4 1445   3.044   4.166  13.888 -0.5646 -1.1100 -0.2213
   95TMC2    C1 1446   2.967   0.878  16.357  0.3563 -0.3443 -0.0008
   95TMC2    C2 1447   2.956   0.978  16.448  0.2043  0.1694  0.6982
   95TMC2    C3 1448   2.920   0.945  16.580 -0.9599 -0.7436  0.0851
   95TMC2    C4 1449   2.932   0.749  16.386  0.2796  0.1504 -1.1500
   95TMC2    C5 1450   2.884   0.721  16.516 -0.5080 -0.4012 -0.7100
   95TMC2    C6 1451   2.887   0.813  16.619 -0.2350  0.3132 -0.3139
   95TMC2     C 1452   3.006   0.918  16.221  0.1714 -0.1512  0.4587
   95TMC2     O 1453   3.080   1.016  16.203  0.0357  0.6893 -0.0932
   95TMC2     H 1454   3.010   1.069  16.427  0.1802 -0.2411 -1.0903
   95TMC2    H1 1455   2.931   0.669  16.312  1.9337  0.5532 -1.5949
   95TMC2    H2 1456   2.885   0.785  16.724 -0.0454  2.0180  0.1468
   95TMC2    C7 1457   2.874   0.581  16.560 -0.6477 -0.5398  0.3608
   95TMC2    C8 1458   2.998   1.003  16.677 -0.4113 -0.3453 -0.0677
   95TMC2    O1 1459   2.845   0.552  16.676  0.0924 -0.1027 -0.3290
   95TMC2    O2 1460   3.047   0.936  16.764  0.1404  0.3776 -0.3301
   95TMC2    O5 1461   3.009   1.141  16.660 -0.2951 -0.4784 -0.0154
   95TMC2    H5 1462   2.946   1.173  16.593  1.1463 -1.6919 -1.9368
   96MPD2     C 1463   3.066   0.798  15.727 -0.0321 -0.4096 -0.0897
   96MPD2    C1 1464   3.135   0.893  15.803 -0.6634 -0.2419  0.1887
   96MPD2    C2 1465   3.082   0.917  15.929  0.3398 -0.9035 -0.0680
   96MPD2    C3 1466   3.002   0.825  15.993 -0.3834  0.9855  0.5066
   96MPD2    C4 1467   2.935   0.740  15.909  0.1604 -0.4637  0.0416
   96MPD2    C5 1468   2.961   0.728  15.774 -0.5213 -0.1288  0.2082
   96MPD2     H 1469   3.125   0.999  15.985 -1.5346 -0.7240  1.1044
   96MPD2    H1 1470   2.845   0.694  15.947  0.7973  0.6118  2.8596
   96MPD2    H2 1471   3.099   0.784  15.625  0.5365 -1.3961  0.2235
   96MPD2    H3 1472   2.910   0.643  15.731  1.7237  0.4284 -3.5394
   96MPD2     N 1473   2.964   0.822  16.128  0.6089  0.2861 -0.1135
   96MPD2    H5 1474   2.911   0.746  16.171 -0.1759  0.8583 -0.0810
   96MPD2    N1 1475   3.220   0.982  15.730  0.0740  0.3800 -0.2697
   96MPD2    H7 1476   3.244   0.955  15.635  1.2212 -0.8765  0.3870
   97MPD2     C 1477   1.151   2.957   1.567 -0.8377  0.5271 -1.1484
   97MPD2    C1 1478   1.102   3.046   1.472  0.0170  0.0851 -0.2300
   97MPD2    C2 1479   1.122   3.015   1.336  0.2314 -0.0178  0.2304
   97MPD2    C3 1480   1.184   2.895   1.301  1.3352  0.0901 -0.2650
   97MPD2    C4 1481   1.224   2.808   1.402  0.2551  0.5302  0.0071
   97MPD2    C5 1482   1.209   2.837   1.532 -0.0336  0.3772 -0.8045
   97MPD2     H 1483   1.092   3.086   1.259 -1.2740 -0.9133 -0.0247
   97MPD2    H1 1484   1.274   2.716   1.373  0.6963  1.8481 -3.3624
   97MPD2    H2 1485   1.151   2.985   1.672  0.6113  0.0734 -1.0392
   97MPD2    H3 1486   1.236   2.767   1.610  2.5293  0.7234 -1.3586
   97MPD2     N 1487   1.218   2.844   1.177  0.5673 -0.2304  0.5063
   97MPD2    H5 1488   1.274   2.760   1.173 -1.8398 -1.8090 -0.5042
   97MPD2    N1 1489   1.042   3.170   1.511  0.6916  0.5720 -0.5935
   97MPD2    H7 1490   1.041   3.189   1.611 -1.6347  0.4085 -0.6076
   98TCq2    C1 1491   1.201   2.922   1.061 -0.4941  0.2179  0.0803
   98TCq2    O2 1492   1.178   3.039   1.046 -0.2409  0.5923  0.3826
   98TCq2    C2 1493   1.232   2.839   0.945  0.0578  0.4253 -0.2068
   98TCq2    C3 1494   1.228   2.706   0.943  0.2301  0.0661  0.5674
   98TCq2    C4 1495   1.241   2.641   0.823 -0.0457 -0.7423  0.1663
   98TCq2    C5 1496   1.239   2.710   0.705  0.1485  0.2363  0.2751
   98TCq2    C6 1497   1.243   2.845   0.708  0.2730 -0.2071  0.0391
   98TCq2    C7 1498   1.257   2.906   0.827  1.1249 -0.2182  0.0635
   98TCq2    C8 1499   1.263   2.919   0.585  0.7395 -0.1648  0.0936
   98TCq2    O4 1500   1.369   2.980   0.575  0.4594  0.2185 -0.0419
   98TCq2    C9 1501   1.222   2.498   0.816 -0.2225 -0.3009  0.5350
   98TCq2    O5 1502   1.205   2.445   0.701 -0.0961  0.1629  0.4762
   98TCq2    O6 1503   1.224   2.443   0.928 -0.2229 -0.4639 -0.1299
   98TCq2    H2 1504   1.210   2.642   1.029  0.9783 -0.7330  0.1295
   98TCq2    H3 1505   1.221   2.652   0.615 -1.5515 -2.2276  2.1840
   98TCq2    H4 1506   1.276   3.013   0.816  0.5036  0.1056  2.0865
   99MPD2     C 1507   4.479   1.091   1.353 -0.5566 -0.2463 -0.0398
   99MPD2    C1 1508   4.375   1.030   1.421 -0.8009  0.0963 -0.1793
   99MPD2    C2 1509   4.319   0.920   1.364  0.0316  0.3360 -0.2935
   99MPD2    C3 1510   4.351   0.870   1.234 -0.2729 -0.1650 -0.0646
   99MPD2    C4 1511   4.454   0.935   1.167  0.2335  0.4514 -0.3042
   99MPD2    C5 1512   4.511   1.040   1.231  0.8040  0.1324  0.0534
   99MPD2     H 1513   4.243   0.865   1.417  1.0644  0.8384  1.7147
   99MPD2    H1 1514   4.488   0.908   1.068  0.3978 -1.3035  0.2260
   99MPD2    H2 1515   4.527   1.184   1.381 -0.1443 -0.5443  0.2366
   99MPD2    H3 1516   4.584   1.095   1.173  0.2295 -0.1330 -0.9226
   99MPD2     N 1517   4.277   0.750   1.193 -0.5007  0.8702 -0.0300
   99MPD2    H5 1518   4.210   0.712   1.259 -0.9467  0.4345 -0.7374
   99MPD2    N1 1519   4.316   1.077   1.538  0.4944  0.2639 -0.1415
   99MPD2    H7 1520   4.240   1.022   1.577  0.6763  0.3597  0.3359
  100TCq2    C1 1521   4.374   1.173   1.615  0.4721  0.2595 -0.4897
  100TCq2    O2 1522   4.474   1.244   1.592 -0.3039 -0.1917 -0.0938
  100TCq2    C2 1523   4.311   1.195   1.746 -0.1561 -0.2841  0.0053
  100TCq2    C3 1524   4.389   1.252   1.844 -0.2001  0.0545 -0.4555
  100TCq2    C4 1525   4.339   1.270   1.969 -0.7944 -0.6437 -0.2030
  100TCq2    C5 1526   4.211   1.222   1.997 -1.0305 -0.4790 -0.0070
  100TCq2    C6 1527   4.131   1.169   1.897  0.5746 -0.2879 -0.5929
  100TCq2    C7 1528   4.179   1.149   1.770 -0.9562  0.2117  0.1200
  100TCq2    C8 1529   3.987   1.161   1.915  0.1007  0.4945 -0.2693
  100TCq2    O4 1530   3.946   1.221   2.013  0.4137  0.2739 -0.1977
  100TCq2    C9 1531   4.424   1.339   2.060 -0.0798 -0.4293  0.5084
  100TCq2    O5 1532   4.528   1.400   2.009  0.0919 -0.0256  0.2463
  100TCq2    O6 1533   4.423   1.321   2.185  0.5759  0.5135 -0.1774
  100TCq2    H2 1534   4.488   1.290   1.823 -0.1573 -0.3953 -1.0720
  100TCq2    H3 1535   4.173   1.252   2.094  0.9489  2.1866 -0.0572
  100TCq2    H4 1536   4.114   1.126   1.687 -0.4487 -1.3402  0.1440
  101MPD2     C 1537   0.059   1.679  13.038  0.2468  0.4419  0.0066
  101MPD2    C1 1538   4.681   1.703  13.118  0.8208  0.4870  0.3402
  101MPD2    C2 1539   4.638   1.605  13.208 -0.0152  0.1726 -0.4086
  101MPD2    C3 1540   4.696   1.481  13.208 -0.0601  0.3088 -0.1755
  101MPD2    C4 1541   0.089   1.464  13.141  0.7682  0.0109  0.0364
  101MPD2    C5 1542   0.130   1.570  13.062 -0.0013  0.0229  0.6144
  101MPD2     H 1543   4.552   1.630  13.269 -0.8926 -0.2554 -1.4643
  101MPD2    H1 1544   0.148   1.373  13.138  0.2542 -0.3374  0.6293
  101MPD2    H2 1545   0.113   1.762  12.993 -2.6244  2.1003 -0.3806
  101MPD2    H3 1546   0.228   1.572  13.015 -0.3997  3.0645 -0.0927
  101MPD2     N 1547   4.637   1.385  13.294 -0.0926 -0.9632  0.0467
  101MPD2    H5 1548   4.549   1.416  13.334  1.0218 -1.9089  3.3053
  101MPD2    N1 1549   4.621   1.829  13.102  0.1207  0.1004  0.5069
  101MPD2    H7 1550   4.652   1.886  13.024 -0.8492 -1.8619 -1.3000
  102TCq2    C1 1551   4.528   2.216  12.846  0.4838  0.2471 -0.4689
  102TCq2    O2 1552   4.647   2.243  12.852 -0.2295  0.4479  0.0373
  102TCq2    C2 1553   4.468   2.163  12.964 -0.1538 -1.1541 -0.5170
  102TCq2    C3 1554   4.335   2.193  12.995  0.5669 -0.2956 -0.0890
  102TCq2    C4 1555   4.288   2.148  13.116 -0.6138  0.6023  0.2899
  102TCq2    C5 1556   4.359   2.053  13.184  0.3331 -0.1593  0.3710
  102TCq2    C6 1557   4.481   2.018  13.142  0.5094 -0.6456  0.2382
  102TCq2    C7 1558   4.544   2.082  13.039 -0.6552 -0.2255  0.0716
  102TCq2    C8 1559   4.516   1.880  13.173  0.2520  0.2687 -0.7453
  102TCq2    O4 1560   4.472   1.828  13.274  0.3954  0.2647 -0.1759
  102TCq2    C9 1561   4.166   2.195  13.170 -0.1927 -0.2405 -0.5246
  102TCq2    O5 1562   4.132   2.164  13.286 -1.1253 -0.9456 -0.4503
  102TCq2    O6 1563   4.104   2.275  13.095 -0.2036  0.4520  0.1440
  102TCq2    H2 1564   4.280   2.277  12.954 -1.3043 -1.9103 -0.8837
  102TCq2    H3 1565   4.303   2.002  13.261 -2.6315  0.4294 -1.3964
  102TCq2    H4 1566   4.648   2.062  13.016 -0.6042 -0.0760  0.1702
  103TMC2    C1 1567   3.182   1.670  12.478 -0.4578  0.0699  0.2000
  103TMC2    C2 1568   3.313   1.651  12.455 -0.5621  0.0527 -0.4999
  103TMC2    C3 1569   3.394   1.653  12.564  0.0003  0.4418 -0.8639
  103TMC2    C4 1570   3.130   1.684  12.602 -0.3598 -0.0603 -0.4974
  103TMC2    C5 1571   3.219   1.705  12.707 -0.9158 -0.6547 -0.1003
  103TMC2    C6 1572   3.358   1.700  12.685 -0.9545 -0.3128  0.4249
  103TMC2     C 1573   3.082   1.672  12.365  0.5307 -0.3348 -0.0275
  103TMC2     O 1574   2.988   1.744  12.376  0.2246  0.2220 -0.0462
  103TMC2     H 1575   3.365   1.647  12.360 -1.5197 -0.9276 -0.9833
  103TMC2    H1 1576   3.026   1.707  12.619  0.0189  1.0014  0.3483
  103TMC2    H2 1577   3.423   1.702  12.771 -0.5715  2.6168  0.0517
  103TMC2    C7 1578   3.174   1.728  12.844  0.6634  0.7356 -0.2245
  103TMC2    C8 1579   3.517   1.585  12.562  0.3904 -0.0486 -0.0219
  103TMC2    O1 1580   3.241   1.674  12.925 -0.2939  0.0409  0.4823
  103TMC2    O2 1581   3.605   1.607  12.643 -0.0666 -0.0672 -0.3605
  103TMC2    O5 1582   3.495   1.463  12.515  0.0398  0.2830  0.3486
  103TMC2    H5 1583   3.407   1.456  12.471  0.6741  1.0829 -1.0380
  104MPD2     C 1584   3.139   1.554  12.028  0.8555 -1.0792  0.1312
  104MPD2    C1 1585   3.059   1.601  12.130 -1.2009  0.3415  0.2630
  104MPD2    C2 1586   2.923   1.624  12.119  0.2346  0.2682  0.8000
  104MPD2    C3 1587   2.861   1.591  12.000  0.4107 -0.4733 -0.4522
  104MPD2    C4 1588   2.940   1.539  11.896 -0.0914  0.4054  0.4951
  104MPD2    C5 1589   3.077   1.529  11.911 -0.1791 -0.0836  0.4002
  104MPD2     H 1590   2.859   1.657  12.201  0.1106 -0.4351  0.9838
  104MPD2    H1 1591   2.898   1.503  11.803  1.2455  0.1658 -0.0138
  104MPD2    H2 1592   3.247   1.544  12.028  1.1772  2.2386  1.9130
  104MPD2    H3 1593   3.130   1.502  11.821  2.1598  1.2278  1.3924
  104MPD2     N 1594   2.730   1.621  11.980 -0.3875 -0.5691 -0.5449
  104MPD2    H5 1595   2.682   1.668  12.056  0.3931 -0.5861 -0.0313
  104MPD2    N1 1596   3.137   1.621  12.249 -0.1305  0.2901 -0.7889
  104MPD2    H7 1597   3.234   1.589  12.251 -0.3774 -0.3974  0.1992
  105MPD2     C 1598   4.470   0.955   0.013 -0.1081  0.8341 -0.0223
  105MPD2    C1 1599   4.471   1.097  17.707 -0.2824 -0.4385 -0.5188
  105MPD2    C2 1600   4.438   1.171   0.104  0.0548  0.0820  0.0801
  105MPD2    C3 1601   4.407   1.121   0.227 -0.1558 -0.9763 -0.1990
  105MPD2    C4 1602   4.404   0.982   0.247 -0.2050 -1.1835 -0.4836
  105MPD2    C5 1603   4.439   0.902   0.134 -0.1586  0.3738  0.3389
  105MPD2     H 1604   4.436   1.278   0.086 -0.9423  0.1962  0.8404
  105MPD2    H1 1605   4.368   0.928   0.334 -2.9543 -0.2318 -1.0593
  105MPD2    H2 1606   4.488   0.891  17.637  2.5462 -1.7115  2.4458
  105MPD2    H3 1607   4.420   0.795   0.141  2.0425  0.0528  1.2588
  105MPD2     N 1608   4.369   1.218   0.325 -0.2289 -0.5085  0.7997
  105MPD2    H5 1609   4.379   1.315   0.296  1.4405 -0.7017  0.6938
  105MPD2    N1 1610   4.479   1.163  17.580 -0.6582 -0.2546 -0.1854
  105MPD2    H7 1611   4.458   1.262  17.571  3.4119  0.4964 -1.2740
  106TCq2    C1 1612   4.330   1.190   0.454 -0.9939  0.0062 -0.1051
  106TCq2    O2 1613   4.347   1.088   0.519  0.0925  0.1614 -0.5706
  106TCq2    C2 1614   4.264   1.303   0.522 -0.5077  0.0553 -0.5967
  106TCq2    C3 1615   4.256   1.422   0.453  0.6163 -0.5049 -0.5679
  106TCq2    C4 1616   4.206   1.526   0.524 -0.4319  0.4639  0.1723
  106TCq2    C5 1617   4.152   1.512   0.644 -0.1915  0.7128  0.2814
  106TCq2    C6 1618   4.179   1.402   0.719  0.7563 -0.0669 -0.1747
  106TCq2    C7 1619   4.235   1.289   0.654 -0.0842 -0.2696 -0.3112
  106TCq2    C8 1620   4.077   1.358   0.806 -0.0700  0.1244  0.2377
  106TCq2    O4 1621   4.029   1.249   0.780  0.1490  0.4208 -0.0636
  106TCq2    C9 1622   4.192   1.654   0.464 -0.0719 -0.2512 -0.7039
  106TCq2    O5 1623   4.277   1.688   0.371  0.5132  0.4936 -0.2797
  106TCq2    O6 1624   4.089   1.724   0.503 -0.7084 -0.1314 -0.1464
  106TCq2    H2 1625   4.304   1.450   0.360 -1.0469  1.1109 -0.9263
  106TCq2    H3 1626   4.112   1.599   0.695 -0.3797 -0.2062  1.7174
  106TCq2    H4 1627   4.240   1.190   0.697  0.5301  0.3748  1.0742
  107TMC2    C1 1628   0.103   0.486  11.724  0.1914 -0.3923 -0.3397
  107TMC2    C2 1629   0.179   0.536  11.624  0.6598  0.3583  0.7546
  107TMC2    C3 1630   0.196   0.463  11.509  0.0995 -0.6415 -0.5642
  107TMC2    C4 1631   0.047   0.367  11.716 -0.4607 -1.0828  0.6674
  107TMC2    C5 1632   0.078   0.289  11.611 -0.0964  0.1741  0.2493
  107TMC2    C6 1633   0.153   0.334  11.505  0.4666  0.4148 -0.3021
  107TMC2     C 1634   0.064   0.563  11.845  0.1522  0.4340 -0.6840
  107TMC2     O 1635   0.008   0.510  11.942  0.2835  0.0477  0.1460
  107TMC2     H 1636   0.237   0.627  11.634 -0.6403  1.5536 -2.3626
  107TMC2    H1 1637   4.698   0.342  11.789  0.7521 -1.3016  1.8601
  107TMC2    H2 1638   0.178   0.280  11.415 -1.1933  2.3729 -1.9378
  107TMC2    C7 1639   4.708   0.182  11.580 -0.0792  0.2706 -0.0042
  107TMC2    C8 1640   0.326   0.486  11.440 -0.4304  0.0748 -0.1612
  107TMC2    O1 1641   4.639   0.148  11.677 -0.1515 -0.1879  0.3127
  107TMC2    O2 1642   0.385   0.391  11.394  0.0744 -0.7021 -0.4326
  107TMC2    O5 1643   0.327   0.607  11.378 -0.7404 -0.0050 -0.2065
  107TMC2    H5 1644   0.248   0.662  11.399  0.4712  1.8600 -0.5714
  108MPD2     C 1645   0.034   0.922  11.877 -0.2077 -0.0718 -0.6678
  108MPD2    C1 1646   0.046   0.796  11.925 -0.2457 -0.1867  0.3670
  108MPD2    C2 1647   0.007   0.768  12.055  0.3181 -0.0535  0.1255
  108MPD2    C3 1648   4.693   0.873  12.139 -0.7237 -0.3785  0.1870
  108MPD2    C4 1649   4.673   1.002  12.082 -0.1846 -0.5190 -0.0093
  108MPD2    C5 1650   4.717   1.030  11.956  0.7053 -0.2592  0.1722
  108MPD2     H 1651   0.007   0.667  12.093  0.8336  0.2026  0.8117
  108MPD2    H1 1652   4.636   1.086  12.140 -1.6358 -1.2067  0.0523
  108MPD2    H2 1653   0.043   0.945  11.772  1.7370  1.6827 -0.1169
  108MPD2    H3 1654   4.712   1.130  11.914  1.9734 -0.1099  0.3672
  108MPD2     N 1655   4.657   0.857  12.275  0.1577 -0.3409  0.9249
  108MPD2    H5 1656   4.620   0.939  12.323 -0.6253 -0.8723  1.2143
  108MPD2    N1 1657   0.084   0.696  11.829 -0.2378  0.3925  0.2626
  108MPD2    H7 1658   0.130   0.731  11.746  0.4686  0.9299  0.8817
  109MPD2     C 1659   0.846   2.387   2.123  0.0394 -0.2748  0.1420
  109MPD2    C1 1660   0.903   2.490   2.053 -0.5731  0.3272 -0.2652
  109MPD2    C2 1661   0.907   2.612   2.119 -0.0375  0.6774 -0.5002
  109MPD2    C3 1662   0.856   2.629   2.249 -0.2112  0.2369  0.0678
  109MPD2    C4 1663   0.804   2.523   2.310 -0.8413  0.0804 -0.5536
  109MPD2    C5 1664   0.801   2.400   2.250 -0.3734  0.2541  0.1989
  109MPD2     H 1665   0.978   2.687   2.087 -0.6908  0.2261 -2.9460
  109MPD2    H1 1666   0.761   2.526   2.410  0.0430  2.4433 -0.2398
  109MPD2    H2 1667   0.840   2.286   2.084 -3.5533  0.2186 -0.6528
  109MPD2    H3 1668   0.753   2.319   2.305 -0.1670 -1.2591 -1.8540
  109MPD2     N 1669   0.870   2.754   2.317  0.5590  0.2459 -0.7559
  109MPD2    H5 1670   0.917   2.826   2.262 -1.6782  3.0023  0.8985
  109MPD2    N1 1671   0.958   2.473   1.923 -0.4307 -0.5167 -0.0121
  109MPD2    H7 1672   0.941   2.383   1.878 -2.6032 -0.0188 -0.1601
  110TCq2    C1 1673   0.807   2.794   2.434  0.4785 -0.1081  1.0355
  110TCq2    O2 1674   0.755   2.717   2.523 -0.3707 -0.7724 -0.6076
  110TCq2    C2 1675   0.836   2.926   2.470  0.2762 -0.8536  0.2086
  110TCq2    C3 1676   0.824   2.949   2.609  0.2605  0.4032  0.2744
  110TCq2    C4 1677   0.846   3.076   2.651  0.3027  1.0204  0.1164
  110TCq2    C5 1678   0.869   3.178   2.560  0.2742  0.6226 -0.2990
  110TCq2    C6 1679   0.880   3.148   2.422  0.3265 -0.2710  0.2819
  110TCq2    C7 1680   0.869   3.014   2.376 -0.1267 -0.1976 -1.1234
  110TCq2    C8 1681   0.888   3.245   2.319 -0.2502 -0.6051 -0.2122
  110TCq2    O4 1682   0.917   3.203   2.208 -0.6034  0.0200 -0.1684
  110TCq2    C9 1683   0.823   3.105   2.797 -0.5189 -0.5528 -0.0454
  110TCq2    O5 1684   0.837   3.225   2.826 -0.2725 -0.5207 -0.1623
  110TCq2    O6 1685   0.796   3.008   2.873  0.3205 -0.1398 -0.5808
  110TCq2    H2 1686   0.786   2.873   2.676  1.9259  0.3480  1.1587
  110TCq2    H3 1687   0.884   3.279   2.595 -0.0830  0.5353  0.0974
  110TCq2    H4 1688   0.863   2.993   2.269 -0.1587 -1.3836 -0.8949
  111TMC2    C1 1689   4.607   2.523  11.147  0.5924 -0.4002 -0.3495
  111TMC2    C2 1690   4.485   2.459  11.166 -0.5468  0.7923  0.8969
  111TMC2    C3 1691   4.472   2.383  11.277 -0.6798  0.0295 -0.4313
  111TMC2    C4 1692   4.723   2.504  11.221  0.8127  0.4246  0.0830
  111TMC2    C5 1693   4.707   2.420  11.330 -0.5005 -0.2954  0.6316
  111TMC2    C6 1694   4.581   2.360  11.357  0.2908  0.2726  0.0643
  111TMC2     C 1695   4.604   2.626  11.044 -0.3042  0.2985 -0.5930
  111TMC2     O 1696   4.544   2.600  10.938  0.2496 -1.0428  0.2501
  111TMC2     H 1697   4.405   2.464  11.092 -0.1336  0.3385  0.4147
  111TMC2    H1 1698   0.090   2.552  11.201  0.9207  0.0721 -0.2611
  111TMC2    H2 1699   4.581   2.290  11.440  1.4245 -1.2154 -1.1949
  111TMC2    C7 1700   0.084   2.397  11.431  0.1707  0.8701 -0.3228
  111TMC2    C8 1701   4.343   2.322  11.309  0.2422 -0.5780  0.3845
  111TMC2    O1 1702   0.055   2.323  11.523 -0.4960  1.1108  0.7301
  111TMC2    O2 1703   4.251   2.321  11.231  0.1187  0.0100 -0.4782
  111TMC2    O5 1704   4.344   2.255  11.424 -0.2214 -0.3491 -0.3046
  111TMC2    H5 1705   4.392   2.296  11.499 -1.3139  0.3803 -0.0008
  112MPD2     C 1706   4.615   3.132  10.943 -0.3203  0.5038 -0.7716
  112MPD2    C1 1707   4.585   3.024  10.866 -0.2843  0.4393 -0.3701
  112MPD2    C2 1708   4.605   2.893  10.912 -0.4050 -0.2656  0.2762
  112MPD2    C3 1709   4.641   2.872  11.046  0.6101  0.2036 -0.2615
  112MPD2    C4 1710   4.668   2.977  11.130 -0.3147  0.6501 -0.3509
  112MPD2    C5 1711   4.651   3.104  11.075  0.2538 -0.2395 -0.4868
  112MPD2     H 1712   4.580   2.809  10.848  0.1434  0.7233 -1.2353
  112MPD2    H1 1713   4.693   2.972  11.235  0.7241 -0.2914 -0.6456
  112MPD2    H2 1714   4.606   3.235  10.910  1.3308  0.0117 -2.7442
  112MPD2    H3 1715   4.657   3.191  11.140 -2.0836  0.8749 -1.7658
  112MPD2     N 1716   4.654   2.742  11.105 -0.3467  0.8129 -0.1542
  112MPD2    H5 1717   4.690   2.728  11.198 -0.7189  0.8122 -0.0089
  112MPD2    N1 1718   4.542   3.041  10.729  0.3058  0.1715 -0.4069
  112MPD2    H7 1719   4.532   2.951  10.682 -0.3521 -0.2204  0.4756
  113MPD2     C 1720   3.500   0.659   1.127 -1.0923  0.1951 -0.7533
  113MPD2    C1 1721   3.411   0.764   1.117  0.0897 -0.0618  0.3349
  113MPD2    C2 1722   3.311   0.753   1.028 -0.0385 -0.1170  0.2892
  113MPD2    C3 1723   3.298   0.643   0.941  0.0517 -0.8882  0.2132
  113MPD2    C4 1724   3.390   0.545   0.945 -0.1515  0.9039 -0.2554
  113MPD2    C5 1725   3.493   0.556   1.037 -0.0667  0.4977 -0.5525
  113MPD2     H 1726   3.239   0.834   1.018  0.2926 -0.0460 -1.4950
  113MPD2    H1 1727   3.391   0.453   0.888 -1.7612  0.0433  1.0875
  113MPD2    H2 1728   3.585   0.653   1.194 -0.4014  0.2184 -1.6426
  113MPD2    H3 1729   3.566   0.477   1.050 -0.8402 -0.2633 -0.8880
  113MPD2     N 1730   3.190   0.643   0.843 -0.4545  0.1059 -0.4314
  113MPD2    H5 1731   3.129   0.724   0.846 -1.1612 -0.5175  2.2134
  113MPD2    N1 1732   3.417   0.884   1.194 -0.3929 -0.4191 -0.0998
  113MPD2    H7 1733   3.352   0.959   1.171 -2.9722 -1.9018  2.3730
  114TCq2    C1 1734   3.151   0.539   0.759 -0.0556  0.0016  0.4497
  114TCq2    O2 1735   3.175   0.421   0.757  0.2667  0.5904  0.1016
  114TCq2    C2 1736   3.035   0.568   0.677 -0.3034 -0.0467  0.2338
  114TCq2    C3 1737   3.004   0.694   0.638 -0.4804  0.1553  0.4095
  114TCq2    C4 1738   2.892   0.724   0.566  0.6624 -0.2526  0.4210
  114TCq2    C5 1739   2.830   0.618   0.517 -0.5337 -0.7782  0.2386
  114TCq2    C6 1740   2.849   0.496   0.570 -0.0238 -0.4867 -0.6360
  114TCq2    C7 1741   2.951   0.469   0.655 -0.0111  0.0237  0.7628
  114TCq2    C8 1742   2.744   0.399   0.549 -0.4489 -0.3232 -0.1055
  114TCq2    O4 1743   2.692   0.409   0.439  0.2277  0.0368  0.3879
  114TCq2    C9 1744   2.863   0.857   0.522  0.1330  0.8348  0.0779
  114TCq2    O5 1745   2.761   0.865   0.449  0.2217  0.1420 -0.4659
  114TCq2    O6 1746   2.912   0.948   0.597  0.3176  0.2022  0.3019
  114TCq2    H2 1747   3.071   0.779   0.648 -0.5704  0.6377 -2.8161
  114TCq2    H3 1748   2.735   0.638   0.468  0.9653 -1.1834 -2.8456
  114TCq2    H4 1749   2.968   0.367   0.688 -0.7544 -0.9426 -1.8299
  115TMC2    C1 1750   3.856   2.522  17.587 -0.5892 -0.1503 -0.4110
  115TMC2    C2 1751   3.958   2.479  17.507 -0.8445 -0.2157 -0.3306
  115TMC2    C3 1752   4.054   2.565  17.470 -0.4423  0.2798 -0.2692
  115TMC2    C4 1753   3.840   2.653  17.613  0.5141  0.5303 -0.4692
  115TMC2    C5 1754   3.930   2.741  17.558  0.1614 -0.0899  0.1523
  115TMC2    C6 1755   4.034   2.699  17.481 -0.0299 -0.1360  0.4171
  115TMC2     C 1756   3.747   2.432  17.628  0.2260  0.0225 -0.4766
  115TMC2     O 1757   3.743   2.322  17.572 -0.1192 -0.0105 -0.4637
  115TMC2     H 1758   3.961   2.373  17.485 -1.5271 -0.3819  0.4098
  115TMC2    H1 1759   3.760   2.692  17.675 -0.7731 -0.1424 -1.7198
  115TMC2    H2 1760   4.115   2.767  17.455  0.1375 -0.0426  1.2055
  115TMC2    C7 1761   3.938   2.882  17.606 -0.1199 -0.1448  0.1572
  115TMC2    C8 1762   4.189   2.531  17.441 -0.0653 -0.4333 -0.6437
  115TMC2    O1 1763   3.894   2.903   0.009 -0.6537 -0.1173  0.1473
  115TMC2    O2 1764   4.268   2.603  17.379 -0.0474  0.3720 -0.2771
  115TMC2    O5 1765   4.195   2.393  17.466  0.6984 -0.0895 -0.0655
  115TMC2    H5 1766   4.142   2.374  17.547 -1.5337 -0.6633 -1.6458
  116MPD2     C 1767   3.237   2.383  17.677 -0.1682 -0.7891 -0.0181
  116MPD2    C1 1768   3.317   2.318  17.584 -0.1271  0.2498 -0.0712
  116MPD2    C2 1769   3.452   2.353  17.591 -0.3516  0.0856  0.6602
  116MPD2    C3 1770   3.501   2.445  17.683  0.4098 -0.5328 -0.1392
  116MPD2    C4 1771   3.412   2.500   0.068 -0.4025  0.3979  0.2575
  116MPD2    C5 1772   3.285   2.472   0.055  0.3602 -0.1015 -0.2913
  116MPD2     H 1773   3.524   2.314  17.520 -0.4257 -2.7443  2.1670
  116MPD2    H1 1774   3.453   2.566   0.144  0.5322  0.5174 -0.3536
  116MPD2    H2 1775   3.129   2.374  17.676 -0.4645  2.8432 -0.5236
  116MPD2    H3 1776   3.213   2.520   0.121  1.2735  0.6983  0.1220
  116MPD2     N 1777   3.637   2.489  17.688  0.3592  0.2577 -0.1723
  116MPD2    H5 1778   3.659   2.577   0.023 -0.5137  0.7670 -0.7364
  116MPD2    N1 1779   3.260   2.235  17.490 -0.3883  0.4167  0.0125
  116MPD2    H7 1780   3.159   2.231  17.482 -0.4167  0.1726  0.5211
  117TMC2    C1 1781   2.274   4.509  13.991  0.0140  0.1441  0.0318
  117TMC2    C2 1782   2.263   4.448  14.113  0.3500  0.0130 -0.3882
  117TMC2    C3 1783   2.375   4.467  14.194  0.0336 -0.6910  0.3537
  117TMC2    C4 1784   2.394   4.551  13.941  0.1276  0.8552 -0.1425
  117TMC2    C5 1785   2.499   4.575  14.026 -0.0737 -0.1815 -0.1746
  117TMC2    C6 1786   2.484   4.541  14.160 -0.2224 -0.4500  0.1760
  117TMC2     C 1787   2.162   4.558  13.921 -0.3261  0.0170  0.0600
  117TMC2     O 1788   2.183   4.642  13.839 -0.3372  0.2729 -0.4585
  117TMC2     H 1789   2.188   4.377  14.146  0.4949  0.5307  1.0648
  117TMC2    H1 1790   2.398   4.570  13.834 -1.6422  0.7650 -0.2369
  117TMC2    H2 1791   2.561   4.569  14.231 -0.1114 -0.3421  0.0124
  117TMC2    C7 1792   2.548   4.711  14.010 -0.0789 -0.6040  0.7165
  117TMC2    C8 1793   2.406   4.369  14.294  0.1464 -0.2501 -0.1542
  117TMC2    O1 1794   2.643   0.030  14.072 -0.0749  0.2101 -0.4911
  117TMC2    O2 1795   2.319   4.307  14.354  0.2444 -0.4585 -0.1883
  117TMC2    O5 1796   2.535   4.338  14.275  0.2276 -0.7495 -1.1553
  117TMC2    H5 1797   2.584   4.380  14.201 -0.7211 -0.4764 -1.6352
  118MPD2     C 1798   2.309   0.237  13.890 -0.0873  0.0924 -0.8005
  118MPD2    C1 1799   2.439   0.195  13.926  0.4535 -0.7192 -0.1004
  118MPD2    C2 1800   2.537   0.280  13.955 -0.1200  0.2528 -0.4110
  118MPD2    C3 1801   2.512   0.417  13.951  0.3500  0.1415 -0.8560
  118MPD2    C4 1802   2.390   0.462  13.908  0.4176 -0.4160 -0.0491
  118MPD2    C5 1803   2.293   0.371  13.875  0.2801 -0.5573  0.5151
  118MPD2     H 1804   2.636   0.238  13.972  1.0805  3.6860  1.0381
  118MPD2    H1 1805   2.376   0.567  13.884 -1.0295 -0.3092  1.3222
  118MPD2    H2 1806   2.238   0.171  13.843 -1.8312  0.3072  1.5640
  118MPD2    H3 1807   2.198   0.411  13.843  0.2112 -1.2125 -0.1142
  118MPD2     N 1808   2.611   0.519  13.962  0.2402  0.1933 -0.6085
  118MPD2    H5 1809   2.577   0.615  13.961  1.4460  0.6289  0.5184
  118MPD2    N1 1810   2.453   0.058  13.934  0.3264 -0.4640 -0.0119
  118MPD2    H7 1811   2.369   0.006  13.908 -0.3449  0.5761  0.0708
  119MPD2     C 1812   1.018   1.643  13.763 -0.5261 -0.0073 -1.2359
  119MPD2    C1 1813   0.903   1.653  13.844 -0.0246 -0.4306 -0.5659
  119MPD2    C2 1814   0.783   1.608  13.789  0.3958 -0.1731  0.4663
  119MPD2    C3 1815   0.766   1.565  13.660 -0.2662  0.1820  0.2246
  119MPD2    C4 1816   0.881   1.556  13.582  0.5441  0.5246  0.1687
  119MPD2    C5 1817   1.012   1.593  13.632 -0.1369  0.1752  0.2680
  119MPD2     H 1818   0.691   1.624  13.846  0.1584  1.4865 -0.3666
  119MPD2    H1 1819   0.868   1.520  13.481  2.7466 -0.6169  0.3088
  119MPD2    H2 1820   1.117   1.672  13.797 -0.5263  0.0184 -1.2569
  119MPD2    H3 1821   1.092   1.603  13.559 -0.5258  0.2589 -0.1496
  119MPD2     N 1822   0.644   1.536  13.601 -0.6403 -0.6650 -0.4043
  119MPD2    H5 1823   0.643   1.512  13.502 -2.2869 -1.9313 -0.0838
  119MPD2    N1 1824   0.918   1.710  13.975 -0.7301  0.0396 -0.2685
  119MPD2    H7 1825   0.991   1.780  13.982 -0.3481 -0.6065  2.6927
  120TCq2    C1 1826   0.525   1.551  13.662 -0.8258  0.3741 -0.1645
  120TCq2    O2 1827   0.494   1.557  13.778  0.0590  0.2381  0.0896
  120TCq2    C2 1828   0.429   1.518  13.560  0.0847 -0.3553  0.7103
  120TCq2    C3 1829   0.456   1.541  13.423 -0.2790 -0.0163 -0.2444
  120TCq2    C4 1830   0.399   1.456  13.327 -0.2302  0.2920 -0.1842
  120TCq2    C5 1831   0.314   1.352  13.369  0.2554 -0.4143 -0.4263
  120TCq2    C6 1832   0.294   1.332  13.508 -0.3659  0.0214  0.2629
  120TCq2    C7 1833   0.354   1.412  13.605 -1.1946 -0.3939 -0.3626
  120TCq2    C8 1834   0.204   1.221  13.547 -0.6752 -0.2792 -0.2576
  120TCq2    O4 1835   0.141   1.150  13.471 -0.0864 -0.5271  0.3749
  120TCq2    C9 1836   0.447   1.466  13.182  0.0428 -0.4050 -0.2294
  120TCq2    O5 1837   0.537   1.558  13.168 -0.0345  0.0210 -0.2577
  120TCq2    O6 1838   0.402   1.384  13.100  0.1348 -0.0039 -0.3287
  120TCq2    H2 1839   0.524   1.618  13.387 -0.4465  1.7583  3.2668
  120TCq2    H3 1840   0.269   1.287  13.295  1.4574 -2.0686  0.3190
  120TCq2    H4 1841   0.330   1.409  13.710  1.3778  2.3276  0.3025
  121TMC2    C1 1842   2.278   2.812  13.976 -0.3284  0.2910 -0.3109
  121TMC2    C2 1843   2.381   2.725  13.975 -0.4016 -0.1416 -0.6626
  121TMC2    C3 1844   2.353   2.600  13.938  0.0761  0.0507 -0.5953
  121TMC2    C4 1845   2.147   2.783  13.949  0.6452 -0.0313 -0.0065
  121TMC2    C5 1846   2.123   2.656  13.910 -0.3069  0.0192 -0.2844
  121TMC2    C6 1847   2.223   2.562  13.905 -0.2868  0.3455 -0.5203
  121TMC2     C 1848   2.324   2.954  13.986  0.8643 -1.1724 -0.8492
  121TMC2     O 1849   2.424   2.968  14.055  0.2648 -0.1438  0.2720
  121TMC2     H 1850   2.484   2.753  13.990 -0.6912  0.1261  0.9151
  121TMC2    H1 1851   2.067   2.849  13.981  1.9301  1.0591  0.9437
  121TMC2    H2 1852   2.204   2.456  13.890  1.5244 -0.0203 -0.1727
  121TMC2    C7 1853   1.991   2.601  13.908 -0.0226  1.3864  0.7019
  121TMC2    C8 1854   2.447   2.497  13.977  0.5524  1.0673 -0.5649
  121TMC2    O1 1855   1.983   2.492  13.967 -0.3200 -0.1959  0.1756
  121TMC2    O2 1856   2.398   2.424  14.063 -0.1895  0.4427  0.9926
  121TMC2    O5 1857   2.571   2.554  13.976 -0.2937 -0.8325 -0.6500
  121TMC2    H5 1858   2.583   2.614  13.899 -0.4477  1.1255  0.8591
  122MPD2     C 1859   2.399   3.219  13.887 -0.4578 -0.1099  0.1412
  122MPD2    C1 1860   2.278   3.163  13.854  0.3986  0.7251  0.2356
  122MPD2    C2 1861   2.204   3.233  13.763  0.8929  0.2086  0.4442
  122MPD2    C3 1862   2.238   3.361  13.716 -0.1334  0.7939 -0.1473
  122MPD2    C4 1863   2.346   3.419  13.767  0.3106 -0.6596  0.1536
  122MPD2    C5 1864   2.438   3.343  13.840 -0.4546 -0.2424 -0.0722
  122MPD2     H 1865   2.119   3.178  13.724  1.6749  0.7781 -2.0928
  122MPD2    H1 1866   2.388   3.508  13.722 -1.5971 -0.1100 -0.5365
  122MPD2    H2 1867   2.466   3.169  13.957 -0.8563 -1.1060 -0.1907
  122MPD2    H3 1868   2.538   3.377  13.862 -0.8609  1.0369 -0.2049
  122MPD2     N 1869   2.176   3.430  13.608 -0.1891 -0.6297 -1.2147
  122MPD2    H5 1870   2.227   3.512  13.577 -0.4242  0.4299  1.2286
  122MPD2    N1 1871   2.246   3.032  13.899  0.4081  0.8279 -0.6978
  122MPD2    H7 1872   2.168   2.984  13.856 -1.8750  2.4044  1.6642
  123MPD2     C 1873   0.413   0.086   9.529 -0.6199  0.7848 -0.2489
  123MPD2    C1 1874   0.399   0.168   9.641  0.0470  0.3186  0.5029
  123MPD2    C2 1875   0.512   0.195   9.719 -0.1968  0.3350  0.0145
  123MPD2    C3 1876   0.633   0.148   9.675 -0.3295  0.5569  0.7177
  123MPD2    C4 1877   0.646   0.062   9.572 -0.1914 -0.1495 -0.2543
  123MPD2    C5 1878   0.532   0.033   9.496 -0.0412  0.1609  0.8025
  123MPD2     H 1879   0.520   0.261   9.805  0.6362  1.8049 -1.1938
  123MPD2    H1 1880   0.740   0.014   9.551 -0.1559 -0.5905  0.8870
  123MPD2    H2 1881   0.334   0.050   9.464 -2.3324  1.8355  1.2342
  123MPD2    H3 1882   0.548   4.682   9.422  1.5436 -0.1690  1.4929
  123MPD2     N 1883   0.737   0.184   9.756 -0.3297 -0.1190  0.1577
  123MPD2    H5 1884   0.717   0.249   9.832 -0.8500  1.3670 -1.2473
  123MPD2    N1 1885   0.273   0.226   9.660 -0.2732  0.4225 -0.2308
  123MPD2    H7 1886   0.205   0.190   9.594 -1.6958 -0.3370  1.6542
  124TCq2    C1 1887   0.868   0.163   9.734  0.2486  0.3365 -0.5565
  124TCq2    O2 1888   0.925   0.089   9.649  0.7702 -0.4758  0.2436
  124TCq2    C2 1889   0.948   0.265   9.798  0.6979 -0.3421 -0.0915
  124TCq2    C3 1890   1.074   0.238   9.816 -0.3338 -0.3919  0.1388
  124TCq2    C4 1891   1.152   0.335   9.882 -0.5189 -0.3613 -0.1822
  124TCq2    C5 1892   1.102   0.443   9.944 -0.5027 -0.1935 -0.3979
  124TCq2    C6 1893   0.969   0.465   9.923  0.0463 -0.2664  0.3310
  124TCq2    C7 1894   0.892   0.375   9.853 -0.5126 -0.4491  0.2414
  124TCq2    C8 1895   0.899   0.584   9.970  0.0137  0.5304  0.3149
  124TCq2    O4 1896   0.775   0.569   9.960 -0.3583  0.1535  0.6812
  124TCq2    C9 1897   1.293   0.312   9.894  0.0903  0.3259  0.0988
  124TCq2    O5 1898   1.363   0.410   9.946  0.5201 -0.1280 -0.2767
  124TCq2    O6 1899   1.326   0.189   9.892 -0.0292  0.3647 -0.6476
  124TCq2    H2 1900   1.121   0.150   9.773 -1.0276 -0.7715  0.1508
  124TCq2    H3 1901   1.170   0.512   9.993  1.2061 -1.3969 -1.0827
  124TCq2    H4 1902   0.788   0.395   9.830  0.3508  1.5278 -1.8865
  125TMC2    C1 1903   0.290   2.106   9.444 -0.2269  0.9407 -0.2750
  125TMC2    C2 1904   0.169   2.116   9.508  0.1159 -0.4305 -0.4751
  125TMC2    C3 1905   0.132   2.016   9.590  0.0243  0.1413 -0.2470
  125TMC2    C4 1906   0.379   2.003   9.466  0.2522  0.0327 -0.2524
  125TMC2    C5 1907   0.344   1.921   9.567 -0.0198  0.3928  1.1659
  125TMC2    C6 1908   0.221   1.920   9.626 -0.0314 -0.1188 -0.6325
  125TMC2     C 1909   0.313   2.194   9.330 -0.2878  0.5850 -0.3142
  125TMC2     O 1910   0.223   2.244   9.266 -0.2796 -0.5196  0.4050
  125TMC2     H 1911   0.097   2.191   9.476  0.0274  0.1100  0.9778
  125TMC2    H1 1912   0.463   1.992   9.399  0.2660  1.3130 -0.4511
  125TMC2    H2 1913   0.194   1.836   9.688 -1.1117  0.4068 -0.3902
  125TMC2    C7 1914   0.420   1.796   9.584  0.1071 -0.0612  0.7825
  125TMC2    C8 1915   0.007   2.020   9.668 -0.0977 -0.6051 -0.5948
  125TMC2    O1 1916   0.353   1.701   9.618  0.2633  0.4283 -0.2378
  125TMC2    O2 1917   4.655   1.927   9.701  0.0032 -0.3329 -0.3714
  125TMC2    O5 1918   4.713   2.151   9.702  0.6269 -0.0985 -0.1837
  125TMC2    H5 1919   0.050   2.204   9.649  0.9722 -0.2597  0.0734
  126MPD1     C 1920   0.634   2.367   8.965 -0.1480 -0.3389  0.8313
  126MPD1    C1 1921   0.709   2.308   9.062 -0.5655 -0.6960  0.5335
  126MPD1    C2 1922   0.645   2.252   9.168  0.3955 -0.3633 -1.0028
  126MPD1    C3 1923   0.510   2.268   9.188  0.1670 -0.0153 -0.0275
  126MPD1    C4 1924   0.437   2.332   9.087  0.5932  0.1915 -0.0167
  126MPD1    C5 1925   0.495   2.375   8.968 -0.4278 -0.1591 -0.4449
  126MPD1     H 1926   0.698   2.191   9.240  1.5354  0.1075 -1.4428
  126MPD1    H1 1927   0.329   2.328   9.084  0.5961  0.9006 -1.0708
  126MPD1    H2 1928   0.686   2.411   8.880 -0.2929 -1.7494  0.0089
  126MPD1    H3 1929   0.429   2.425   8.897  0.1638  2.7057  1.0528
  126MPD1     N 1930   0.450   2.211   9.307  0.8640  0.3501 -0.2078
  126MPD1    H5 1931   0.510   2.170   9.378  0.3275  2.2663  1.3422
  126MPD1    N1 1932   0.838   2.268   9.015 -0.3787  0.2758  0.6699
  126MPD1    H6 1933   0.883   2.340   8.959 -1.1642 -0.5348 -0.9767
  126MPD1    H7 1934   0.912   2.247   9.082 -0.0978  0.5020  0.4314
  127MPD2     C 1935   2.263   1.709   9.033  0.0389  0.2138 -0.5813
  127MPD2    C1 1936   2.324   1.715   9.154 -0.4366 -0.1934  0.4365
  127MPD2    C2 1937   2.342   1.835   9.222  0.4750  0.3510 -0.4405
  127MPD2    C3 1938   2.276   1.947   9.170 -0.4859  0.5579 -0.1025
  127MPD2    C4 1939   2.197   1.938   9.057 -0.0100  0.2162  0.5322
  127MPD2    C5 1940   2.200   1.821   8.981 -0.0579  0.6889 -0.4626
  127MPD2     H 1941   2.399   1.842   9.314 -1.1494  0.0813  0.5908
  127MPD2    H1 1942   2.113   2.002   9.033 -0.3955 -0.3260  0.4374
  127MPD2    H2 1943   2.268   1.611   8.986 -0.2690 -1.1828  2.2804
  127MPD2    H3 1944   2.135   1.806   8.895  0.8469 -2.6106 -0.5499
  127MPD2     N 1945   2.287   2.067   9.246 -0.1294  0.1351 -0.1955
  127MPD2    H5 1946   2.342   2.062   9.331 -0.3781  0.6405 -0.0054
  127MPD2    N1 1947   2.386   1.598   9.197  0.5557  0.0970 -0.4578
  127MPD2    H7 1948   2.378   1.510   9.148 -1.9654 -0.4336  0.8821
  128TCq2    C1 1949   2.449   1.576   9.313  0.2116 -0.3013  0.1856
  128TCq2    O2 1950   2.481   1.654   9.401 -0.2888 -0.2328 -0.0277
  128TCq2    C2 1951   2.472   1.439   9.345 -1.1565  0.0090  0.4001
  128TCq2    C3 1952   2.505   1.419   9.479  0.5733  0.0692  0.1503
  128TCq2    C4 1953   2.454   1.320   9.548  0.2105 -0.0582  0.0871
  128TCq2    C5 1954   2.376   1.225   9.487 -0.3446 -0.1799  0.4127
  128TCq2    C6 1955   2.353   1.232   9.351 -0.3056  0.3294 -0.3468
  128TCq2    C7 1956   2.393   1.346   9.277 -0.4448  0.6323  0.6768
  128TCq2    C8 1957   2.244   1.158   9.290  0.0957 -0.0859  1.0220
  128TCq2    O4 1958   2.215   1.198   9.176  0.1063 -0.7278 -0.2191
  128TCq2    C9 1959   2.491   1.303   9.688 -0.0255  0.5250 -0.3537
  128TCq2    O5 1960   2.465   1.188   9.739 -1.1903  0.4887  0.5715
  128TCq2    O6 1961   2.498   1.414   9.745  0.2793 -0.4952  0.1827
  128TCq2    H2 1962   2.583   1.476   9.527 -0.9966  2.6724 -0.3945
  128TCq2    H3 1963   2.359   1.131   9.540 -0.2095  0.6506  1.9395
  128TCq2    H4 1964   2.368   1.347   9.172 -2.1142 -0.8325  1.0668
  129MPD2     C 1965   1.707   2.516   1.744  0.1119 -0.1279 -0.2239
  129MPD2    C1 1966   1.665   2.483   1.620 -0.3250 -0.3080  0.6217
  129MPD2    C2 1967   1.615   2.582   1.544 -0.2426 -0.2068 -0.4572
  129MPD2    C3 1968   1.608   2.717   1.582  0.3386  0.4807  0.0818
  129MPD2    C4 1969   1.645   2.750   1.703  0.7947 -0.2327 -0.4924
  129MPD2    C5 1970   1.699   2.650   1.784  0.0382 -0.3393  0.2288
  129MPD2     H 1971   1.600   2.563   1.438 -0.8216 -0.6942 -0.2834
  129MPD2    H1 1972   1.649   2.855   1.731 -2.0038  0.0735 -1.2180
  129MPD2    H2 1973   1.740   2.444   1.817 -1.8914  2.2105  3.0255
  129MPD2    H3 1974   1.731   2.666   1.886  1.2694 -0.0578 -0.2036
  129MPD2     N 1975   1.563   2.813   1.493  0.0471 -0.5914  0.3694
  129MPD2    H5 1976   1.543   2.775   1.401  0.1713  0.9605 -0.2878
  129MPD2    N1 1977   1.665   2.351   1.561 -0.2979  0.1273  0.2819
  129MPD2    H7 1978   1.642   2.344   1.463 -1.8121 -1.9687  0.7809
  130TCq2    C1 1979   1.702   2.234   1.616 -0.3829  0.0270 -0.1683
  130TCq2    O2 1980   1.742   2.220   1.730  0.2099  0.3729 -0.0018
  130TCq2    C2 1981   1.697   2.124   1.530 -0.1555 -0.6107 -0.5921
  130TCq2    C3 1982   1.742   2.005   1.584  0.6699  0.2516  0.8352
  130TCq2    C4 1983   1.694   1.884   1.539  0.4608  0.9800  0.0098
  130TCq2    C5 1984   1.603   1.890   1.435 -0.1096  0.1722 -0.6427
  130TCq2    C6 1985   1.558   2.004   1.383  0.1846 -0.6671 -0.1792
  130TCq2    C7 1986   1.611   2.124   1.422  0.0128 -0.4496 -0.1873
  130TCq2    C8 1987   1.425   2.005   1.316 -0.3127  0.0562  1.0633
  130TCq2    O4 1988   1.361   2.109   1.324  0.6208  0.1060  0.4938
  130TCq2    C9 1989   1.731   1.766   1.615 -0.6394 -0.5981 -0.3871
  130TCq2    O5 1990   1.653   1.673   1.611  0.2002 -0.1387 -0.0570
  130TCq2    O6 1991   1.816   1.776   1.707  0.1667  0.8675  0.6004
  130TCq2    H2 1992   1.792   2.010   1.680  3.3202 -1.6589 -0.4424
  130TCq2    H3 1993   1.554   1.795   1.420  0.4315 -0.5664  2.2158
  130TCq2    H4 1994   1.559   2.211   1.383  0.8828 -0.2580 -0.9271
  131MPD2     C 1995   4.611   1.108   9.837  0.3159 -0.4415 -0.2036
  131MPD2    C1 1996   4.701   1.045   9.920 -0.2298 -0.3926  0.1780
  131MPD2    C2 1997   4.708   0.911   9.941 -1.3502  0.3256 -0.4856
  131MPD2    C3 1998   4.637   0.834   9.855 -0.5531 -0.3510  0.1036
  131MPD2    C4 1999   4.546   0.895   9.767 -0.2168  0.9657  0.0370
  131MPD2    C5 2000   4.527   1.027   9.765 -0.2841 -0.4347 -0.0068
  131MPD2     H 2001   0.052   0.865  10.008 -2.5203 -2.0053 -0.8111
  131MPD2    H1 2002   4.468   0.841   9.714 -0.5124 -1.1862  2.6298
  131MPD2    H2 2003   4.600   1.215   9.835 -0.2592 -0.4844  0.4285
  131MPD2    H3 2004   4.451   1.074   9.705  2.1456  1.2876 -1.7093
  131MPD2     N 2005   4.653   0.695   9.862  0.3348 -0.3563 -0.6800
  131MPD2    H5 2006   4.719   0.670   9.936 -1.8842 -4.4243 -0.0320
  131MPD2    N1 2007   0.058   1.130   9.993  0.2491  0.3077  0.0215
  131MPD2    H7 2008   0.037   1.229   9.983 -1.5382 -0.0575  0.2417
  132TCq2    C1 2009   0.507   1.316  10.305  0.0139 -0.4086  0.0223
  132TCq2    O2 2010   0.564   1.209  10.302 -0.1023 -1.0325 -0.2242
  132TCq2    C2 2011   0.384   1.321  10.237 -0.6520 -0.1128 -0.0510
  132TCq2    C3 2012   0.308   1.429  10.271  0.3583 -0.4383 -0.0543
  132TCq2    C4 2013   0.185   1.431  10.211  0.2301  0.5274  0.6651
  132TCq2    C5 2014   0.131   1.324  10.148 -0.2176 -0.0833  0.0468
  132TCq2    C6 2015   0.211   1.213  10.131  0.2441 -0.1186  0.0390
  132TCq2    C7 2016   0.340   1.217  10.165 -0.0146 -0.2979 -0.4660
  132TCq2    C8 2017   0.161   1.096  10.068 -0.1239 -0.6931  0.0623
  132TCq2    O4 2018   0.230   1.001  10.066 -0.1666  0.7697 -0.5490
  132TCq2    C9 2019   0.102   1.548  10.235 -0.4009 -0.3151 -0.2175
  132TCq2    O5 2020   4.710   1.545  10.188  0.0189  0.1607  0.1100
  132TCq2    O6 2021   0.146   1.640  10.310 -0.0620  0.0776  0.1406
  132TCq2    H2 2022   0.337   1.500  10.348  0.8458 -0.3064 -0.3564
  132TCq2    H3 2023   0.028   1.338  10.118  0.0137 -0.5577 -0.9736
  132TCq2    H4 2024   0.401   1.131  10.143  0.4202 -0.1825  0.2838
  133MPD2     C 2025   4.543   2.672   9.515 -0.1692 -0.1935  0.1083
  133MPD2    C1 2026   4.627   2.562   9.501 -0.1112 -0.0387  1.2258
  133MPD2    C2 2027   4.573   2.432   9.510  0.1896 -0.5327  0.5932
  133MPD2    C3 2028   4.436   2.415   9.532 -0.2584 -0.4890  0.2943
  133MPD2    C4 2029   4.359   2.524   9.541 -0.2030  0.4770 -0.0940
  133MPD2    C5 2030   4.408   2.654   9.534  0.0104  0.1268 -1.0232
  133MPD2     H 2031   4.643   2.351   9.496  0.3914 -0.6109  1.9742
  133MPD2    H1 2032   4.254   2.513   9.569 -0.0691 -1.5036 -0.3874
  133MPD2    H2 2033   4.571   2.777   9.512  1.4733 -0.5597  2.7508
  133MPD2    H3 2034   4.337   2.736   9.537  0.2010  0.2278  1.2029
  133MPD2     N 2035   4.373   2.291   9.546 -0.0966 -0.9835 -0.0305
  133MPD2    H5 2036   4.273   2.287   9.562  0.1077 -3.2156  0.6012
  133MPD2    N1 2037   0.033   2.592   9.495 -0.3831 -0.1174 -0.4869
  133MPD2    H7 2038   0.058   2.686   9.467 -4.2366  0.3026 -2.5355
  134TCq2    C1 2039   0.133   2.494   9.514  0.8922 -0.7290 -0.1466
  134TCq2    O2 2040   0.118   2.388   9.570 -0.3006  0.0471  0.6677
  134TCq2    C2 2041   0.262   2.531   9.458 -0.3372  0.6620 -0.1688
  134TCq2    C3 2042   0.271   2.631   9.374  0.1949  0.1727  0.2167
  134TCq2    C4 2043   0.386   2.677   9.313 -0.1641 -0.5366 -0.2200
  134TCq2    C5 2044   0.497   2.610   9.359  1.1979 -0.3653 -0.3041
  134TCq2    C6 2045   0.492   2.520   9.460  0.4182 -0.9180  0.2930
  134TCq2    C7 2046   0.372   2.473   9.510 -0.2584 -0.3088 -0.2613
  134TCq2    C8 2047   0.599   2.449   9.519  0.5216 -0.4597  0.2439
  134TCq2    O4 2048   0.594   2.328   9.546 -0.0484 -0.0512  0.1396
  134TCq2    C9 2049   0.386   2.752   9.192  0.1553 -0.0471 -0.4344
  134TCq2    O5 2050   0.274   2.784   9.141  0.4177 -0.3592  0.2061
  134TCq2    O6 2051   0.502   2.765   9.140 -0.1631 -0.0578  0.5164
  134TCq2    H2 2052   0.182   2.665   9.323 -0.4770 -1.0443  0.5715
  134TCq2    H3 2053   0.598   2.618   9.319  0.9837 -0.2993 -0.8287
  134TCq2    H4 2054   0.356   2.397   9.586 -0.5828  0.1925  0.1755
  135MPD2     C 2055   1.748   3.534   9.352  0.9010 -0.4225 -0.1819
  135MPD2    C1 2056   1.781   3.421   9.428 -0.3069  0.1927 -0.0688
  135MPD2    C2 2057   1.816   3.306   9.356  0.2256 -0.4675  0.8878
  135MPD2    C3 2058   1.832   3.306   9.217  0.3068  0.8644 -0.0615
  135MPD2    C4 2059   1.814   3.421   9.145  0.3971 -0.2478 -0.1960
  135MPD2    C5 2060   1.767   3.532   9.214  0.2538  0.0593  0.1510
  135MPD2     H 2061   1.831   3.220   9.421 -2.2231  0.9925  3.3965
  135MPD2    H1 2062   1.839   3.433   9.040  0.9511 -0.3438 -0.0748
  135MPD2    H2 2063   1.702   3.624   9.389 -0.4679 -0.9713 -0.5335
  135MPD2    H3 2064   1.750   3.629   9.169  1.8636  1.3862  2.4122
  135MPD2     N 2065   1.866   3.177   9.165 -0.0418 -0.3226 -0.0353
  135MPD2    H5 2066   1.900   3.104   9.228  1.2313  1.7491  1.6959
  135MPD2    N1 2067   1.750   3.409   9.564 -0.3458 -0.1345  0.1341
  135MPD2    H7 2068   1.791   3.326   9.606  0.0618 -1.3933 -2.6838
  136TCq2    C1 2069   1.699   3.509   9.641 -0.7483 -0.7608 -0.1438
  136TCq2    O2 2070   1.632   3.604   9.610  0.6135  0.0346 -0.5045
  136TCq2    C2 2071   1.700   3.480   9.784  0.0676  0.0729  0.3509
  136TCq2    C3 2072   1.779   3.376   9.835 -0.6013  0.1609  0.3134
  136TCq2    C4 2073   1.760   3.337   9.960 -0.5368  0.0915  0.4882
  136TCq2    C5 2074   1.675   3.406  10.045  0.2811  0.2367  0.6435
  136TCq2    C6 2075   1.600   3.513   9.992  0.1072 -0.0718 -0.2248
  136TCq2    C7 2076   1.614   3.550   9.865  0.1232  0.2442  0.0060
  136TCq2    C8 2077   1.492   3.568  10.075 -0.5874 -0.6696  0.0163
  136TCq2    O4 2078   1.450   3.682  10.055 -0.1698  0.8724  0.2892
  136TCq2    C9 2079   1.835   3.235  10.011  0.5397  0.4126 -0.4224
  136TCq2    O5 2080   1.840   3.223  10.142  0.1907 -0.3118  0.7250
  136TCq2    O6 2081   1.877   3.151   9.927  0.5136 -0.3337  0.1423
  136TCq2    H2 2082   1.855   3.327   9.774 -0.0952  2.0399 -0.5669
  136TCq2    H3 2083   1.675   3.368  10.147  0.8391  1.2192  1.0043
  136TCq2    H4 2084   1.531   3.606   9.822 -0.5914  0.7283  1.9786
  137MPD2     C 2085   1.918   1.386  10.572  1.0534  0.3741  0.2164
  137MPD2    C1 2086   1.962   1.456  10.456 -0.5141 -0.7518 -1.0476
  137MPD2    C2 2087   1.980   1.592  10.468  0.0427  0.1074  0.8114
  137MPD2    C3 2088   1.967   1.660  10.587 -0.1788  0.3684 -0.4349
  137MPD2    C4 2089   1.928   1.581  10.687 -0.4567 -0.1310 -0.2364
  137MPD2    C5 2090   1.903   1.446  10.685  0.0374  0.5341  1.3497
  137MPD2     H 2091   2.001   1.650  10.379  1.7435 -2.7271 -0.6553
  137MPD2    H1 2092   1.898   1.626  10.781 -0.1874  0.0961 -0.2595
  137MPD2    H2 2093   1.891   1.281  10.563  1.9077  0.1437  0.3192
  137MPD2    H3 2094   1.869   1.391  10.771 -1.4317 -1.7277 -0.6673
  137MPD2     N 2095   1.978   1.802  10.594 -0.0978 -0.8170 -0.0034
  137MPD2    H5 2096   2.005   1.855  10.511 -2.8383  0.6479  0.0272
  137MPD2    N1 2097   1.949   1.391  10.335 -0.2422  0.0755  0.7843
  137MPD2    H7 2098   1.879   1.319  10.323  1.4343 -1.6106  1.2109
  138TCq2    C1 2099   2.009   1.438  10.223  0.0541  0.1640  0.3729
  138TCq2    O2 2100   2.106   1.511  10.207 -0.0767  0.7932 -0.0183
  138TCq2    C2 2101   1.936   1.414  10.100 -0.3221 -0.2593  0.7292
  138TCq2    C3 2102   1.818   1.341  10.104 -0.3315  1.0316  0.2157
  138TCq2    C4 2103   1.727   1.348   9.997 -0.4422 -0.4985  0.3414
  138TCq2    C5 2104   1.750   1.446   9.898 -0.5365  0.7012  0.3589
  138TCq2    C6 2105   1.858   1.519   9.898 -0.1539 -0.1144 -0.0131
  138TCq2    C7 2106   1.953   1.499   9.993 -0.5050  0.1050 -0.2728
  138TCq2    C8 2107   1.842   1.655   9.862 -0.0120 -0.3502 -0.3221
  138TCq2    O4 2108   1.942   1.724   9.875 -0.1934  0.3948 -0.2642
  138TCq2    C9 2109   1.617   1.261  10.003 -0.1652  0.6267 -0.5452
  138TCq2    O5 2110   1.546   1.260   9.896 -0.3399 -0.4095 -0.3015
  138TCq2    O6 2111   1.588   1.204  10.111  0.1774 -0.0185  0.0214
  138TCq2    H2 2112   1.800   1.266  10.181 -0.8934  1.4402  0.4872
  138TCq2    H3 2113   1.677   1.449   9.818 -0.4857 -1.0289  0.2448
  138TCq2    H4 2114   2.040   1.564  10.000 -1.7451  1.5442  1.7634
  139TMC2    C1 2115   2.266   1.006  13.281  0.0001  0.3212  0.5765
  139TMC2    C2 2116   2.386   1.043  13.233  0.3523 -0.1906 -0.2588
  139TMC2    C3 2117   2.474   1.104  13.313 -0.2048  0.4782 -0.1835
  139TMC2    C4 2118   2.228   1.040  13.403 -0.2234  0.0583  0.0078
  139TMC2    C5 2119   2.311   1.123  13.479 -1.1710 -0.1108 -0.1001
  139TMC2    C6 2120   2.436   1.147  13.434 -0.2725 -0.1947  0.3236
  139TMC2     C 2121   2.213   0.889  13.217  0.8930 -0.3196  0.5098
  139TMC2     O 2122   2.215   0.898  13.093  0.6362 -0.4155  1.0098
  139TMC2     H 2123   2.414   1.018  13.131  2.5235  0.6166  0.1485
  139TMC2    H1 2124   2.131   1.015  13.444  0.4636 -0.4400  1.3527
  139TMC2    H2 2125   2.506   1.209  13.488 -0.5455 -0.7540  1.3154
  139TMC2    C7 2126   2.257   1.197  13.591  0.7272  0.3621  0.4637
  139TMC2    C8 2127   2.611   1.145  13.261  0.7916  0.1444 -0.4293
  139TMC2    O1 2128   2.138   1.215  13.597 -0.2443 -0.4083 -0.2592
  139TMC2    O2 2129   2.702   1.183  13.336  0.2809  0.0941  0.5404
  139TMC2    O5 2130   2.613   1.165  13.130 -0.2013  0.2725  0.1749
  139TMC2    H5 2131   2.527   1.137  13.091 -1.6651  2.4967  1.8277
  140MPD2     C 2132   2.165   0.561  13.371  0.1652  0.0751 -0.1729
  140MPD2    C1 2133   2.208   0.652  13.276 -0.5127  1.0556  0.4563
  140MPD2    C2 2134   2.242   0.605  13.150 -0.0488  0.1674 -0.7694
  140MPD2    C3 2135   2.258   0.470  13.121 -0.1414 -0.7835  0.1332
  140MPD2    C4 2136   2.204   0.385  13.214  0.3237 -0.2976  0.0888
  140MPD2    C5 2137   2.165   0.431  13.334 -0.1913 -0.0669  0.2547
  140MPD2     H 2138   2.276   0.674  13.073  0.6112  0.8329  0.1261
  140MPD2    H1 2139   2.206   0.278  13.198 -0.2401 -0.3743  0.5091
  140MPD2    H2 2140   2.150   0.589  13.474 -0.2316 -0.0510 -0.1952
  140MPD2    H3 2141   2.133   0.364  13.413 -0.5539  2.1228  1.9550
  140MPD2     N 2142   2.308   0.425  12.997  0.4352  0.0333 -0.2424
  140MPD2    H5 2143   2.321   0.491  12.921 -0.0122  1.1674  0.6706
  140MPD2    N1 2144   2.196   0.787  13.307 -0.1160  0.7214  0.1366
  140MPD2    H7 2145   2.188   0.811  13.406 -0.1169 -0.4232  0.4054
  141TCq2    C1 2146   3.176   1.639  14.151  0.2515  0.2657  0.2145
  141TCq2    O2 2147   3.086   1.625  14.070 -0.3202  0.1255  0.3550
  141TCq2    C2 2148   3.143   1.668  14.290 -0.2264 -0.2932  0.8702
  141TCq2    C3 2149   3.025   1.621  14.331  0.3781 -0.1570  0.3484
  141TCq2    C4 2150   2.988   1.647  14.463  0.6825 -0.0154 -0.1303
  141TCq2    C5 2151   3.053   1.728  14.547  0.2584  0.8673 -0.0246
  141TCq2    C6 2152   3.171   1.779  14.494  0.0427 -0.0266 -0.0532
  141TCq2    C7 2153   3.222   1.744  14.371  0.2469 -1.0339 -0.0679
  141TCq2    C8 2154   3.195   1.913  14.534  0.3090 -0.3688  0.0843
  141TCq2    O4 2155   3.100   1.970  14.583  0.4810  0.4870 -0.1006
  141TCq2    C9 2156   2.863   1.586  14.508 -0.4276 -0.0244 -0.7363
  141TCq2    O5 2157   2.809   1.637  14.609 -0.0176  0.1521 -0.1787
  141TCq2    O6 2158   2.807   1.506  14.428  0.2148 -0.9250  0.1069
  141TCq2    H2 2159   2.966   1.562  14.262  3.1919  0.2722 -2.3968
  141TCq2    H3 2160   3.025   1.746  14.650 -2.7542 -0.1207 -0.6916
  141TCq2    H4 2161   3.316   1.784  14.333  0.2142  1.1632  2.1664
  142MPD2     C 2162   4.568   0.384  10.731  0.5122 -0.6559  0.0802
  142MPD2    C1 2163   4.544   0.449  10.614  0.3279  0.1948 -0.4120
  142MPD2    C2 2164   4.644   0.529  10.554  0.2420 -1.0200 -0.2059
  142MPD2    C3 2165   0.043   0.538  10.607  0.5470 -0.0673  0.1324
  142MPD2    C4 2166   0.064   0.472  10.727  1.1131 -0.1527  0.2129
  142MPD2    C5 2167   4.688   0.404  10.788  0.1883  0.4214  0.0619
  142MPD2     H 2168   4.625   0.576  10.458  1.0802 -0.6221 -0.1659
  142MPD2    H1 2169   0.153   0.494  10.784  0.4885 -1.1823  1.5961
  142MPD2    H2 2170   4.494   0.322  10.782  0.0330 -2.2630 -2.5620
  142MPD2    H3 2171   4.697   0.360  10.886  0.8988 -0.5140 -0.4274
  142MPD2     N 2172   0.142   0.623  10.563  0.2711 -0.1032  0.4821
  142MPD2    H5 2173   0.226   0.622  10.620 -0.3779 -3.1869  1.3453
  142MPD2    N1 2174   4.410   0.439  10.567  0.1630  0.6190 -0.5196
  142MPD2    H7 2175   4.348   0.385  10.626  0.6848 -1.5717 -1.9713
  143TCq2    C1 2176   0.144   0.713  10.458 -0.6315  0.0048 -0.2778
  143TCq2    O2 2177   0.077   0.731  10.360  0.4122  0.7633  0.5098
  143TCq2    C2 2178   0.269   0.789  10.457 -0.3539 -0.5395  0.5778
  143TCq2    C3 2179   0.332   0.816  10.578 -0.2177 -0.5440  0.0681
  143TCq2    C4 2180   0.422   0.916  10.579  0.6362 -0.4204 -0.1248
  143TCq2    C5 2181   0.488   0.959  10.463 -0.7316  0.2028  0.2880
  143TCq2    C6 2182   0.438   0.899  10.349  0.4624  0.2001 -0.7638
  143TCq2    C7 2183   0.328   0.816  10.345 -0.3353  0.4326 -0.1273
  143TCq2    C8 2184   0.537   0.861  10.252  0.8667 -0.0803 -0.1010
  143TCq2    O4 2185   0.531   0.744  10.213  0.1963 -0.1335 -0.0137
  143TCq2    C9 2186   0.451   0.976  10.709  0.0959 -0.2525 -0.4818
  143TCq2    O5 2187   0.508   1.086  10.708  0.0063 -0.6098 -0.1607
  143TCq2    O6 2188   0.384   0.936  10.807  0.1356  0.1770  1.0181
  143TCq2    H2 2189   0.287   0.789  10.673 -1.2912  1.9325  0.2532
  143TCq2    H3 2190   0.564   1.037  10.469 -0.9808  0.3965  0.9390
  143TCq2    H4 2191   0.299   0.789  10.244  2.5227 -1.1367 -0.5493
  144MPD2     C 2192   2.982   4.516   0.924 -0.0340 -0.5818  0.5916
  144MPD2    C1 2193   3.024   4.446   0.813 -0.4027  0.8251  0.3041
  144MPD2    C2 2194   3.158   4.432   0.792 -0.2318  0.3056 -0.3473
  144MPD2    C3 2195   3.246   4.500   0.880 -0.5297  0.2190 -0.0478
  144MPD2    C4 2196   3.199   4.569   0.983 -0.0306 -0.1020 -0.5038
  144MPD2    C5 2197   3.065   4.578   1.011 -0.0771 -0.7007  0.7518
  144MPD2     H 2198   3.189   4.365   0.713  0.4648 -1.0890  1.0840
  144MPD2    H1 2199   3.274   4.617   1.045 -1.0549  0.5313  0.2365
  144MPD2    H2 2200   2.878   4.535   0.949 -0.0679 -1.3157  0.9916
  144MPD2    H3 2201   3.021   4.633   1.095  2.7400  0.7704  1.2502
  144MPD2     N 2202   3.384   4.503   0.857 -0.0955 -0.4570  0.5164
  144MPD2    H5 2203   3.441   4.542   0.932  1.0946 -2.0429  0.4381
  144MPD2    N1 2204   2.936   4.389   0.717 -0.3619  0.1549 -0.1566
  144MPD2    H7 2205   2.979   4.336   0.642  0.1461 -0.1831  0.3751
  145TCq2    C1 2206   3.449   4.426   0.756 -0.4464 -0.3042  0.1906
  145TCq2    O2 2207   3.405   4.343   0.678  0.2925 -0.0727  0.5971
  145TCq2    C2 2208   3.592   4.455   0.747 -0.7309  0.6795  0.0722
  145TCq2    C3 2209   3.670   4.379   0.657  0.1403 -0.3633  0.2348
  145TCq2    C4 2210   3.800   4.411   0.642 -0.1411 -0.1954 -0.4212
  145TCq2    C5 2211   3.847   4.517   0.705 -0.1844  0.1247  0.3203
  145TCq2    C6 2212   3.775   4.593   0.787 -0.3148  0.1566  0.5091
  145TCq2    C7 2213   3.644   4.558   0.812  0.1113  0.1110  0.6771
  145TCq2    C8 2214   3.850   4.685   0.872 -0.2824  0.0228 -0.0334
  145TCq2    O4 2215   3.966   4.704   0.842 -0.0122 -0.7067  0.1930
  145TCq2    C9 2216   3.878   4.336   0.543 -0.4405 -0.5711 -0.3530
  145TCq2    O5 2217   3.809   4.266   0.464 -0.0053  0.1536  0.2129
  145TCq2    O6 2218   3.995   4.372   0.520 -0.0358  0.0025 -0.1573
  145TCq2    H2 2219   3.636   4.303   0.588 -0.9627  0.8705 -0.5947
  145TCq2    H3 2220   3.950   4.540   0.681 -0.5094 -0.2261 -1.4133
  145TCq2    H4 2221   3.588   4.619   0.881  0.7388  0.1541  1.1471
  146TMC2    C1 2222   3.713   3.603  12.925  0.1687  0.5763 -0.1686
  146TMC2    C2 2223   3.615   3.685  12.886 -0.6208 -0.4258  0.5505
  146TMC2    C3 2224   3.569   3.669  12.761 -0.6648  0.3897 -0.4236
  146TMC2    C4 2225   3.758   3.499  12.848 -0.5930  0.7791 -0.2793
  146TMC2    C5 2226   3.722   3.499  12.717 -0.1491  0.4035  0.3204
  146TMC2    C6 2227   3.624   3.583  12.675 -0.1145 -0.4409  0.3868
  146TMC2     C 2228   3.786   3.642  13.042  0.3174  0.1213 -0.0218
  146TMC2     O 2229   3.775   3.763  13.060 -0.3073 -0.5263 -0.6046
  146TMC2     H 2230   3.579   3.768  12.947  0.6334 -0.5374  1.4301
  146TMC2    H1 2231   3.840   3.437  12.885 -1.7913 -0.6443 -0.0198
  146TMC2    H2 2232   3.579   3.567  12.578  2.1613 -1.7385 -0.4542
  146TMC2    C7 2233   3.794   3.421  12.620 -0.2968  0.0853 -0.1028
  146TMC2    C8 2234   3.450   3.748  12.722 -0.3332 -0.7915 -0.1652
  146TMC2    O1 2235   3.766   3.456  12.504  0.0092  0.2689  0.0861
  146TMC2    O2 2236   3.388   3.797  12.815 -0.1695  0.6515  0.5835
  146TMC2    O5 2237   3.471   3.809  12.601 -0.5178  0.1538 -0.2965
  146TMC2    H5 2238   3.523   3.765  12.531  1.0174  1.6944 -0.1093
  147MPD2     C 2239   4.068   3.029  12.440 -0.2786  0.0450  0.2302
  147MPD2    C1 2240   4.129   3.078  12.554  0.1378 -0.4090 -0.0669
  147MPD2    C2 2241   4.062   3.174  12.629 -0.0453  0.6291  0.5840
  147MPD2    C3 2242   3.950   3.237  12.578  0.4115  0.4166  0.5397
  147MPD2    C4 2243   3.908   3.204  12.452  0.0518  1.2385  0.1928
  147MPD2    C5 2244   3.962   3.107  12.382 -0.1728 -0.5122  0.1340
  147MPD2     H 2245   4.096   3.209  12.726 -0.2438 -2.4655  1.7493
  147MPD2    H1 2246   3.825   3.250  12.400 -0.0863 -0.0172 -0.6933
  147MPD2    H2 2247   4.107   2.940  12.393  0.2391  1.1529 -1.4424
  147MPD2    H3 2248   3.928   3.074  12.284 -0.1338 -1.1363  0.3287
  147MPD2     N 2249   3.891   3.334  12.666 -0.0735 -0.6873  0.2997
  147MPD2    H5 2250   3.897   3.324  12.767  4.1016  1.0831  0.2298
  147MPD2    N1 2251   4.243   3.004  12.597 -0.0494  0.0802  0.1199
  147MPD2    H7 2252   4.280   2.931  12.537  0.0967  0.7419 -0.6097
  148MPD2     C 2253   4.459   2.293  10.405  0.0568  0.4402 -0.3367
  148MPD2    C1 2254   4.504   2.162  10.431  0.7693  0.2440  0.1730
  148MPD2    C2 2255   4.426   2.057  10.394  0.5963  0.2633 -0.0237
  148MPD2    C3 2256   4.315   2.066  10.313 -0.3494 -0.7934  0.7387
  148MPD2    C4 2257   4.265   2.196  10.297  0.0651  0.3486 -0.2546
  148MPD2    C5 2258   4.343   2.304  10.332 -0.2615  0.6206 -0.5183
  148MPD2     H 2259   4.472   1.960  10.409  3.2609  2.0772  3.3846
  148MPD2    H1 2260   4.182   2.213  10.229 -0.1528 -0.1907 -0.1257
  148MPD2    H2 2261   4.514   2.384  10.428 -0.0521  0.4680 -0.1885
  148MPD2    H3 2262   4.315   2.404  10.299  1.6044  0.9677 -1.0399
  148MPD2     N 2263   4.248   1.956  10.252 -0.0721  0.1834 -0.6826
  148MPD2    H5 2264   4.186   1.984  10.176 -0.1221 -0.9515 -1.0539
  148MPD2    N1 2265   4.625   2.127  10.502  1.1642 -0.1527  0.1966
  148MPD2    H7 2266   4.645   2.028  10.504 -0.6181 -0.5571 -1.6690
  149TCq2    C1 2267   4.710   2.215  10.569 -0.3754 -0.2962  0.8463
  149TCq2    O2 2268   4.686   2.333  10.595 -0.1129 -0.5313  0.0335
  149TCq2    C2 2269   0.120   2.158  10.595 -0.6014 -0.3850 -0.3263
  149TCq2    C3 2270   0.221   2.243  10.603 -0.5708  0.2106 -0.4858
  149TCq2    C4 2271   0.350   2.188  10.601 -0.0520  0.3000 -0.2850
  149TCq2    C5 2272   0.365   2.055  10.613  0.2163 -0.4685  0.4476
  149TCq2    C6 2273   0.266   1.967  10.600  0.0481 -0.3825  0.1904
  149TCq2    C7 2274   0.143   2.027  10.589  0.4551  0.0664 -0.1382
  149TCq2    C8 2275   0.284   1.821  10.615  0.2550  0.1742  0.1273
  149TCq2    O4 2276   0.193   1.761  10.570 -0.0358 -0.4279 -0.1508
  149TCq2    C9 2277   0.462   2.275  10.616  0.5789 -0.2411  0.5171
  149TCq2    O5 2278   0.576   2.227  10.616 -0.1499  0.4294  0.1771
  149TCq2    O6 2279   0.435   2.398  10.621  0.0921  0.1026 -0.0457
  149TCq2    H2 2280   0.211   2.351  10.595  0.2102  0.4590  1.7948
  149TCq2    H3 2281   0.468   2.022  10.613  0.4227  0.1937  0.4931
  149TCq2    H4 2282   0.065   1.953  10.574  0.9647 -0.6544  0.6780
  150MPD2     C 2283   1.374   1.561  12.042  0.4179  0.0937  0.3622
  150MPD2    C1 2284   1.452   1.515  11.937 -0.7825 -0.2764 -0.0906
  150MPD2    C2 2285   1.587   1.503  11.941 -0.5152 -0.8982 -0.3485
  150MPD2    C3 2286   1.652   1.518  12.063 -0.0651 -0.5737 -0.4522
  150MPD2    C4 2287   1.575   1.556  12.168 -0.0619 -0.2165 -0.2687
  150MPD2    C5 2288   1.440   1.575  12.158  0.5131  0.0574 -0.1634
  150MPD2     H 2289   1.650   1.473  11.858 -1.1255 -0.6709 -0.8939
  150MPD2    H1 2290   1.621   1.553  12.266 -1.0136  0.3231  0.1884
  150MPD2    H2 2291   1.266   1.574  12.036  0.3761  0.0581  1.0164
  150MPD2    H3 2292   1.370   1.600  12.237  0.0056  0.6961 -0.8101
  150MPD2     N 2293   1.794   1.503  12.072 -0.1276 -0.5210 -0.5162
  150MPD2    H5 2294   1.840   1.501  11.982 -0.6721 -1.5217 -0.7730
  150MPD2    N1 2295   1.378   1.474  11.821  0.5965  0.5067 -0.1535
  150MPD2    H7 2296   1.279   1.495  11.820  0.0726 -1.7708  1.2205
  151TCq2    C1 2297   1.870   1.495  12.183 -0.3601  0.1584  0.0372
  151TCq2    O2 2298   1.842   1.517  12.300  0.1321 -0.0484  0.5423
  151TCq2    C2 2299   2.006   1.449  12.143 -0.0598 -0.2203  0.1263
  151TCq2    C3 2300   2.019   1.366  12.036  0.5828  0.2944 -0.3191
  151TCq2    C4 2301   2.146   1.322  12.004 -0.3389  0.3011 -0.6609
  151TCq2    C5 2302   2.253   1.375  12.075 -0.1931 -0.5067 -0.2995
  151TCq2    C6 2303   2.232   1.467  12.177  0.6861  0.1983 -0.1349
  151TCq2    C7 2304   2.107   1.495  12.221  0.4331 -0.1157  0.3144
  151TCq2    C8 2305   2.344   1.507  12.266  0.6827 -0.5731 -0.1881
  151TCq2    O4 2306   2.361   1.618  12.309 -0.2164 -0.1785 -0.3912
  151TCq2    C9 2307   2.174   1.233  11.898  0.3932 -0.0518  0.0224
  151TCq2    O5 2308   2.079   1.170  11.856  0.2869 -0.2002 -0.4361
  151TCq2    O6 2309   2.295   1.198  11.880 -0.2933  0.0758 -0.2511
  151TCq2    H2 2310   1.933   1.315  11.993 -0.7860  1.9599  0.4524
  151TCq2    H3 2311   2.355   1.356  12.041  0.4209  2.3163 -0.0583
  151TCq2    H4 2312   2.089   1.570  12.298 -0.7069 -0.5967  0.5146
  152MPD2     C 2313   1.611   0.833  12.122  0.2702  0.9191  0.6245
  152MPD2    C1 2314   1.599   0.963  12.177 -0.0316  0.2335 -0.6317
  152MPD2    C2 2315   1.476   1.024  12.179  0.1988  0.6494  0.8882
  152MPD2    C3 2316   1.362   0.948  12.137 -0.1076 -0.0853 -0.0685
  152MPD2    C4 2317   1.373   0.816  12.088 -0.6466  0.1948 -0.3708
  152MPD2    C5 2318   1.501   0.765  12.077  0.0648  0.1541  0.3261
  152MPD2     H 2319   1.461   1.124  12.218  2.1074  1.8945 -1.5024
  152MPD2    H1 2320   1.286   0.761  12.055 -1.5693  1.2623  0.2772
  152MPD2    H2 2321   1.706   0.781  12.115 -0.4485 -0.2062 -0.7407
  152MPD2    H3 2322   1.522   0.671  12.028 -2.5952 -1.1332  1.6448
  152MPD2     N 2323   1.235   1.012  12.146  0.0733 -0.5880 -0.4676
  152MPD2    H5 2324   1.230   1.109  12.175  0.4442 -0.7685  0.2173
  152MPD2    N1 2325   1.722   1.026  12.215 -0.2307 -0.2800  0.6753
  152MPD2    H7 2326   1.805   0.972  12.195  0.3783 -0.3777  3.5715
  153TCq2    C1 2327   1.734   1.129  12.304 -0.0673  0.2158  0.0935
  153TCq2    O2 2328   1.645   1.188  12.369 -0.2061 -0.4661 -0.2516
  153TCq2    C2 2329   1.878   1.152  12.333 -0.2789 -0.2391  0.0133
  153TCq2    C3 2330   1.976   1.094  12.247  0.5727 -0.1342 -0.1196
  153TCq2    C4 2331   2.109   1.113  12.287 -0.1604  1.1740  0.3315
  153TCq2    C5 2332   2.139   1.201  12.393 -0.6644  0.4920  0.6632
  153TCq2    C6 2333   2.044   1.242  12.484  0.0123  0.1962  0.4072
  153TCq2    C7 2334   1.910   1.226  12.445 -0.1403  0.6352 -0.4295
  153TCq2    C8 2335   2.074   1.362  12.565 -0.8509 -0.1817  0.2876
  153TCq2    O4 2336   1.993   1.454  12.571  0.3737 -0.8635 -0.5376
  153TCq2    C9 2337   2.217   1.066  12.207  0.1562  0.1418 -0.1267
  153TCq2    O5 2338   2.337   1.093  12.240 -0.1190  0.2086 -0.3845
  153TCq2    O6 2339   2.188   1.011  12.099 -0.4760 -0.3331  0.3425
  153TCq2    H2 2340   1.955   1.048  12.151  2.2432  0.6987 -0.8918
  153TCq2    H3 2341   2.242   1.204  12.427 -0.5645 -0.6568  0.4564
  153TCq2    H4 2342   1.829   1.247  12.513 -2.3388 -1.5047 -2.3417
  154MPD2     C 2343   3.293   1.124   0.225 -0.2922  0.7556  0.1414
  154MPD2    C1 2344   3.258   1.035   0.331  1.2432  0.2763  0.9210
  154MPD2    C2 2345   3.145   1.066   0.406 -0.0711 -0.0514 -0.1409
  154MPD2    C3 2346   3.070   1.176   0.377 -0.3854  0.2033 -0.1368
  154MPD2    C4 2347   3.107   1.258   0.267 -0.0798  0.1639  0.3030
  154MPD2    C5 2348   3.224   1.239   0.199  0.6554 -0.1585 -0.5855
  154MPD2     H 2349   3.125   1.012   0.497 -3.9850  0.4440 -0.7269
  154MPD2    H1 2350   3.058   1.351   0.240 -1.1881 -0.6084 -0.3593
  154MPD2    H2 2351   3.374   1.094   0.158 -0.6895  2.2161 -0.9941
  154MPD2    H3 2352   3.260   1.300   0.116 -0.4376 -0.1549 -1.0520
  154MPD2     N 2353   2.973   1.193   0.473  0.4479 -0.3196 -0.3754
  154MPD2    H5 2354   2.968   1.120   0.543  0.1359 -0.4402 -0.5247
  154MPD2    N1 2355   3.336   0.918   0.345 -0.1055  0.0475 -0.0678
  154MPD2    H7 2356   3.396   0.897   0.267  1.7209  2.8168  0.6026
  155TCq2    C1 2357   3.333   0.827   0.449 -0.4604  0.3678  0.1773
  155TCq2    O2 2358   3.287   0.839   0.560 -0.2853  0.2460 -0.0406
  155TCq2    C2 2359   3.422   0.715   0.427 -0.1084  0.6387 -0.7391
  155TCq2    C3 2360   3.450   0.633   0.527 -0.0132  0.6551  0.5683
  155TCq2    C4 2361   3.532   0.525   0.509 -0.4236  0.2129  0.1314
  155TCq2    C5 2362   3.590   0.500   0.392  0.4302  0.4942  0.2682
  155TCq2    C6 2363   3.568   0.587   0.292 -0.1494 -0.0265  0.3371
  155TCq2    C7 2364   3.487   0.704   0.304 -0.3672  0.1939 -0.6238
  155TCq2    C8 2365   3.636   0.560   0.163 -0.2280  0.2020  0.2103
  155TCq2    O4 2366   3.671   0.444   0.133  0.0346  0.3223  0.2051
  155TCq2    C9 2367   3.555   0.432   0.611  0.3885 -0.2205 -0.5575
  155TCq2    O5 2368   3.564   0.476   0.723  0.6938 -0.0352  0.1634
  155TCq2    O6 2369   3.609   0.324   0.576 -0.2496  0.6184  0.6962
  155TCq2    H2 2370   3.405   0.644   0.625  2.9042 -0.4392  2.0277
  155TCq2    H3 2371   3.670   0.427   0.395 -0.2235 -0.1224  2.3394
  155TCq2    H4 2372   3.476   0.764   0.215  1.9712 -0.7446 -1.5720
  156MPD2     C 2373   1.987   2.986  12.294  0.0797  0.1249  1.2565
  156MPD2    C1 2374   1.901   2.995  12.189 -0.1737  0.2248 -0.2135
  156MPD2    C2 2375   1.780   3.055  12.212  0.4901  0.1960 -0.6682
  156MPD2    C3 2376   1.729   3.079  12.338 -0.0759  0.0267  0.5068
  156MPD2    C4 2377   1.818   3.065  12.445 -0.8989 -0.4922  0.1325
  156MPD2    C5 2378   1.949   3.018  12.426 -0.7418  0.4783  0.4036
  156MPD2     H 2379   1.708   3.066  12.132 -1.4240  1.3139  1.2247
  156MPD2    H1 2380   1.794   3.091  12.548 -1.7837  1.0398 -0.4612
  156MPD2    H2 2381   2.086   2.952  12.264  0.0708 -1.3825  2.9800
  156MPD2    H3 2382   2.015   2.999  12.510 -1.2004  2.3302  1.1820
  156MPD2     N 2383   1.602   3.141  12.343  0.4475 -0.2228  0.0219
  156MPD2    H5 2384   1.550   3.165  12.259  0.4770  0.5309  0.2204
  156MPD2    N1 2385   1.917   2.949  12.055 -0.0391  0.1714  0.3676
  156MPD2    H7 2386   1.835   2.967  11.999  1.2087 -0.4943 -1.6915
  157TCq2    C1 2387   2.030   2.906  11.997 -0.0844 -0.0744  0.4156
  157TCq2    O2 2388   2.134   2.863  12.050  0.3378  0.0197  0.1243
  157TCq2    C2 2389   2.006   2.884  11.854  1.0738  0.4166  0.1758
  157TCq2    C3 2390   2.093   2.808  11.786  0.1796  0.4852  0.5959
  157TCq2    C4 2391   2.059   2.772  11.658 -0.3399  0.3198  0.5685
  157TCq2    C5 2392   1.958   2.840  11.593  0.3771  0.5852 -0.8847
  157TCq2    C6 2393   1.888   2.939  11.656  0.5459  0.4378  0.1952
  157TCq2    C7 2394   1.904   2.954  11.788  0.2798 -0.6253 -0.1911
  157TCq2    C8 2395   1.801   3.034  11.591 -0.1712  0.7087  0.2635
  157TCq2    O4 2396   1.764   3.134  11.651  0.2790  0.2264  0.1323
  157TCq2    C9 2397   2.145   2.699  11.580  0.1443 -0.2480  0.5540
  157TCq2    O5 2398   2.161   2.729  11.460 -0.3141 -0.3289  0.0856
  157TCq2    O6 2399   2.235   2.631  11.638  0.0009 -0.2547 -0.4956
  157TCq2    H2 2400   2.174   2.759  11.840  0.0935 -1.0829 -0.6945
  157TCq2    H3 2401   1.943   2.815  11.489 -0.4543  1.8446 -1.0657
  157TCq2    H4 2402   1.853   3.040  11.828 -0.8843 -0.4878 -1.9670
  158TMC2    C1 2403   2.794   2.264  13.744 -0.0439  0.8000  0.0861
  158TMC2    C2 2404   2.882   2.326  13.661  0.9067  0.3989  0.1381
  158TMC2    C3 2405   2.831   2.417  13.572  0.5678  0.6578 -0.0953
  158TMC2    C4 2406   2.659   2.276  13.732  0.6707 -0.6574 -0.1036
  158TMC2    C5 2407   2.617   2.371  13.643 -0.3594 -0.0349 -0.6867
  158TMC2    C6 2408   2.703   2.446  13.571 -0.4583 -0.3388 -0.4957
  158TMC2     C 2409   2.852   2.167  13.839  0.1309  0.2894  0.4091
  158TMC2     O 2410   2.967   2.125  13.817 -0.5974 -0.4737 -0.3510
  158TMC2     H 2411   2.989   2.316  13.670  0.6927 -1.4009  0.5875
  158TMC2    H1 2412   2.586   2.230  13.797  0.2728 -2.5230 -1.8901
  158TMC2    H2 2413   2.665   2.509  13.491 -0.1094 -0.5079 -0.7933
  158TMC2    C7 2414   2.478   2.406  13.624 -0.8067  1.2513 -0.2891
  158TMC2    C8 2415   2.918   2.489  13.478 -0.5731 -0.4573 -0.4655
  158TMC2    O1 2416   2.454   2.518  13.581 -0.4742  0.0064 -0.4050
  158TMC2    O2 2417   2.897   2.605  13.442 -0.4584 -0.6060 -0.1408
  158TMC2    O5 2418   3.014   2.393  13.442 -0.0284  0.0359  0.3415
  158TMC2    H5 2419   2.986   2.299  13.454 -0.8558  0.2242 -0.0593
  159MPD2     C 2420   2.840   1.946  14.293 -0.2489  0.3181 -0.0605
  159MPD2    C1 2421   2.714   2.002  14.269  0.3211 -0.2761 -0.0549
  159MPD2    C2 2422   2.693   2.082  14.160 -0.7571 -0.3088  1.0857
  159MPD2    C3 2423   2.783   2.073  14.052 -0.6013 -0.5244 -0.2108
  159MPD2    C4 2424   2.891   1.983  14.066  0.4922  0.2454  0.4292
  159MPD2    C5 2425   2.917   1.924  14.186 -0.8693 -0.6995 -0.3275
  159MPD2     H 2426   2.604   2.140  14.138 -0.5942 -0.1121  0.9455
  159MPD2    H1 2427   2.961   1.958  13.986 -1.0152 -1.3881 -0.3886
  159MPD2    H2 2428   2.862   1.883  14.379  0.9807 -1.0828 -1.3875
  159MPD2    H3 2429   2.996   1.855  14.213  1.6469  2.1696 -0.2715
  159MPD2     N 2430   2.760   2.152  13.936  0.0920  0.5737 -0.2792
  159MPD2    H5 2431   2.678   2.212  13.937  0.4531  1.0671  0.5401
  159MPD2    N1 2432   2.622   1.984  14.376 -0.1058 -0.5746 -0.3304
  159MPD2    H7 2433   2.654   1.925  14.452  0.9343  1.1726  0.5907
  160TMC2    C1 2434   1.866   0.093   1.423 -0.2207 -0.4758  0.5670
  160TMC2    C2 2435   1.949   0.118   1.527 -0.2535 -0.4738 -0.0806
  160TMC2    C3 2436   2.079   0.147   1.503 -0.6750 -0.2412 -0.0887
  160TMC2    C4 2437   1.899   0.111   1.297 -0.5293  0.0828  0.3925
  160TMC2    C5 2438   2.036   0.148   1.276 -0.1240  0.0269 -0.5242
  160TMC2    C6 2439   2.132   0.160   1.373 -0.1562 -0.3948  0.3661
  160TMC2     C 2440   1.734   0.063   1.459  0.3671 -0.0096  0.0069
  160TMC2     O 2441   1.709   0.010   1.566 -0.0544  0.2818  0.4526
  160TMC2     H 2442   1.926   0.066   1.619  4.3536  0.3670  1.5642
  160TMC2    H1 2443   1.828   0.108   1.215 -1.4842 -1.4456  1.2574
  160TMC2    H2 2444   2.238   0.171   1.357 -0.5267  0.6791 -1.3840
  160TMC2    C7 2445   2.075   0.164   1.137 -0.6636 -0.6407 -0.3623
  160TMC2    C8 2446   2.170   0.120   1.606  0.0932  0.4533  0.4911
  160TMC2    O1 2447   1.994   0.129   1.053  0.0321  0.0650 -0.4364
  160TMC2    O2 2448   2.283   0.081   1.598 -0.1763 -0.2902 -0.1152
  160TMC2    O5 2449   2.126   0.195   1.704  0.4344  0.0843  0.2678
  160TMC2    H5 2450   2.046   0.248   1.684 -1.4536 -2.6038  0.6446
  161MPD2     C 2451   1.449   0.021   1.454  0.4236 -0.7982  0.3583
  161MPD2    C1 2452   1.511   0.114   1.375 -0.7126 -0.2371 -0.6679
  161MPD2    C2 2453   1.434   0.206   1.300 -0.5465  1.0752  0.4559
  161MPD2    C3 2454   1.296   0.194   1.303 -0.5631 -0.5168 -1.0075
  161MPD2    C4 2455   1.240   0.097   1.381 -0.2194  0.6064 -0.4108
  161MPD2    C5 2456   1.313   0.014   1.462  0.4341 -0.3153 -0.8984
  161MPD2     H 2457   1.482   0.288   1.247 -0.9865  2.1072  1.6624
  161MPD2    H1 2458   1.133   0.087   1.365 -0.3115 -2.6323  2.3729
  161MPD2    H2 2459   1.503   4.662   1.491  0.3288 -0.7434  0.6207
  161MPD2    H3 2460   1.262   4.663   1.517  1.3169 -0.0648  0.2816
  161MPD2     N 2461   1.207   0.280   1.232  0.5726 -0.2488  0.0735
  161MPD2    H5 2462   1.107   0.264   1.228  0.6127 -0.1584 -1.3455
  161MPD2    N1 2463   1.651   0.123   1.376 -0.0133  0.5381  0.2046
  161MPD2    H7 2464   1.682   0.197   1.314  2.6853 -0.7176  0.0262
  162TMC2    C1 2465   0.497   2.691   0.424  0.5504 -0.3279 -0.6854
  162TMC2    C2 2466   0.509   2.800   0.343  0.9043 -0.0320  0.6216
  162TMC2    C3 2467   0.543   2.916   0.402  0.5446  0.5153  0.2403
  162TMC2    C4 2468   0.508   2.706   0.561  0.3718  0.8507  0.0306
  162TMC2    C5 2469   0.530   2.829   0.608  0.0962  0.6865 -0.5188
  162TMC2    C6 2470   0.543   2.939   0.531  0.3830  0.3563  0.0460
  162TMC2     C 2471   0.421   2.581   0.374 -0.1418 -0.4153  0.4614
  162TMC2     O 2472   0.418   2.481   0.445 -0.4316  0.2320 -0.1596
  162TMC2     H 2473   0.521   2.793   0.235 -2.2334  0.6034  0.2195
  162TMC2    H1 2474   0.458   2.638   0.628  2.0956  1.0160  1.4749
  162TMC2    H2 2475   0.548   3.036   0.579  2.4661  0.4560 -0.3971
  162TMC2    C7 2476   0.527   2.861   0.749 -0.9271  0.0353 -0.0720
  162TMC2    C8 2477   0.562   3.030   0.307 -0.5779  0.0440  0.5106
  162TMC2    O1 2478   0.513   2.979   0.782 -0.3234 -0.1385 -0.1249
  162TMC2    O2 2479   0.524   3.027   0.192 -0.0247  0.5260  0.3103
  162TMC2    O5 2480   0.667   3.112   0.344 -0.3639 -0.3134  0.0075
  162TMC2    H5 2481   0.702   3.105   0.436 -2.2259  1.2079  0.8318
  163MPD2     C 2482   0.205   2.370  17.684  0.2089 -0.1703 -0.6151
  163MPD2    C1 2483   0.229   2.314   0.094  0.2021 -0.9016  0.0578
  163MPD2    C2 2484   0.262   2.395   0.199  0.7541  0.1219  0.1862
  163MPD2    C3 2485   0.282   2.531   0.173 -0.7534 -0.6551  0.6362
  163MPD2    C4 2486   0.244   2.590   0.059 -0.0543  0.9128  0.4263
  163MPD2    C5 2487   0.201   2.507  17.667  0.3010  0.2930  0.7477
  163MPD2     H 2488   0.294   2.346   0.290 -0.4176  1.0069  1.0691
  163MPD2    H1 2489   0.250   2.694   0.032 -1.0622  0.9324  0.2918
  163MPD2    H2 2490   0.173   2.306  17.603 -2.5845  0.4062  0.0024
  163MPD2    H3 2491   0.180   2.553  17.571 -0.5907 -1.1880  0.2261
  163MPD2     N 2492   0.349   2.615   0.266 -0.1027 -0.2752 -0.1550
  163MPD2    H5 2493   0.346   2.715   0.245 -0.8122 -0.8936 -3.0374
  163MPD2    N1 2494   0.213   2.174   0.104  0.1270 -0.3944 -0.1171
  163MPD2    H7 2495   0.191   2.126   0.018 -0.2922  0.4991 -0.5101
  164TCq2    C1 2496   0.616   1.475  11.063 -0.6090 -1.1076 -0.6338
  164TCq2    O2 2497   0.536   1.429  11.145  0.6454 -0.1905 -0.4733
  164TCq2    C2 2498   0.596   1.615  11.027  0.5945 -0.4070  0.2729
  164TCq2    C3 2499   0.704   1.679  10.974 -0.6475 -0.1972  0.5346
  164TCq2    C4 2500   0.687   1.800  10.919 -1.0333  0.4373  0.6826
  164TCq2    C5 2501   0.563   1.856  10.911 -0.1375 -0.0586  0.2944
  164TCq2    C6 2502   0.456   1.789  10.973  0.1889 -0.4289 -1.1418
  164TCq2    C7 2503   0.473   1.663  11.030  0.5828 -0.3996  0.1328
  164TCq2    C8 2504   0.318   1.840  10.970 -0.4823  0.1008  0.6536
  164TCq2    O4 2505   0.227   1.759  10.968 -0.0480 -0.1056 -0.1046
  164TCq2    C9 2506   0.796   1.882  10.870  0.0770 -0.3456  0.6972
  164TCq2    O5 2507   0.768   1.996  10.832 -0.0816 -0.2092 -0.5354
  164TCq2    O6 2508   0.909   1.831  10.877  0.2024 -0.0735 -0.1589
  164TCq2    H2 2509   0.805   1.643  10.987 -0.6810  0.3912  2.4169
  164TCq2    H3 2510   0.553   1.949  10.857 -0.0938 -1.6676 -2.5100
  164TCq2    H4 2511   0.401   1.617  11.097  0.2112 -0.0334 -0.0177
  165MPD2     C 2512   1.349   4.055   2.548 -0.3250 -0.1696 -0.0016
  165MPD2    C1 2513   1.387   4.010   2.425  0.1352  0.2475  0.1603
  165MPD2    C2 2514   1.492   4.064   2.358  0.7734 -0.4658  0.2723
  165MPD2    C3 2515   1.556   4.171   2.425 -0.1439 -0.0698  0.0818
  165MPD2    C4 2516   1.516   4.218   2.544 -0.7366 -0.7351 -0.2090
  165MPD2    C5 2517   1.410   4.161   2.604  0.1490  0.6670  0.2554
  165MPD2     H 2518   1.540   4.010   2.277  2.0637 -2.2024  2.1978
  165MPD2    H1 2519   1.572   4.305   2.576  0.6966 -1.1103 -1.6959
  165MPD2    H2 2520   1.252   4.020   2.583 -0.8675  2.9104  1.5824
  165MPD2    H3 2521   1.361   4.209   2.688 -0.2146 -0.2826  0.5811
  165MPD2     N 2522   1.673   4.232   2.377 -0.2085 -0.3466  0.2887
  165MPD2    H5 2523   1.721   4.307   2.426  1.1500  0.0449 -1.6487
  165MPD2    N1 2524   1.310   3.909   2.371  0.3550  0.5276  0.7374
  165MPD2    H7 2525   1.229   3.880   2.426  0.7099 -1.1630  0.3679
  166TCq2    C1 2526   1.737   4.209   2.256 -0.3538  0.3137  0.0404
  166TCq2    O2 2527   1.693   4.155   2.158 -0.1277  0.2125 -0.2007
  166TCq2    C2 2528   1.856   4.291   2.246 -0.0057 -0.3035  0.3903
  166TCq2    C3 2529   1.923   4.337   2.357  0.2405 -0.3367  0.1945
  166TCq2    C4 2530   2.042   4.399   2.344 -0.1192  0.1912  0.2200
  166TCq2    C5 2531   2.080   4.426   2.215  0.1812  0.1716 -0.6671
  166TCq2    C6 2532   2.009   4.375   2.112 -0.6184 -0.0337 -0.0464
  166TCq2    C7 2533   1.891   4.316   2.120  0.0523 -0.5450 -0.4250
  166TCq2    C8 2534   2.057   4.407   1.970  0.7212 -0.2016 -0.1853
  166TCq2    O4 2535   2.178   4.408   1.947  0.3118  1.0931  0.6399
  166TCq2    C9 2536   2.123   4.440   2.455 -0.1172 -0.0274  0.9904
  166TCq2    O5 2537   2.073   4.427   2.567 -0.1136  0.2800 -0.4705
  166TCq2    O6 2538   2.237   4.478   2.430 -0.2874 -0.1662  0.0788
  166TCq2    H2 2539   1.893   4.318   2.460  0.7015 -0.7072  0.2579
  166TCq2    H3 2540   2.165   4.491   2.197  1.1723 -0.5320  1.4426
  166TCq2    H4 2541   1.851   4.268   2.032  0.1376 -1.0497 -0.1874
  167TMC2    C1 2542   4.377   1.765  12.750 -0.1695 -0.0104  0.1316
  167TMC2    C2 2543   4.270   1.802  12.828 -0.0967 -0.2745 -0.5798
  167TMC2    C3 2544   4.252   1.720  12.938  0.3198 -0.7917 -0.4426
  167TMC2    C4 2545   4.454   1.655  12.770  0.0211 -0.1285 -0.2714
  167TMC2    C5 2546   4.414   1.572  12.872  0.2134  0.1709  0.4411
  167TMC2    C6 2547   4.315   1.606  12.960  0.7315  0.1505  0.2821
  167TMC2     C 2548   4.415   1.858  12.645  0.0980 -0.0964  0.1488
  167TMC2     O 2549   4.361   1.968  12.642 -0.3575 -0.3081 -0.3709
  167TMC2     H 2550   4.223   1.899  12.810 -0.2116 -0.3149 -0.4955
  167TMC2    H1 2551   4.550   1.644  12.721 -0.3138 -1.0178 -0.7088
  167TMC2    H2 2552   4.297   1.555  13.054 -0.2163  0.9569  0.5478
  167TMC2    C7 2553   4.475   1.440  12.890 -0.3277  0.2122  0.2034
  167TMC2    C8 2554   4.141   1.749  13.033  0.4105 -0.1470 -0.1179
  167TMC2    O1 2555   4.427   1.369  12.976 -0.0594  0.4030  0.1384
  167TMC2    O2 2556   4.105   1.868  13.046 -0.0681  0.3687 -0.4943
  167TMC2    O5 2557   4.058   1.639  13.042 -0.7544  0.5208 -0.1267
  167TMC2    H5 2558   4.102   1.556  13.013  0.5097  1.9372 -2.2540
  168MPD2     C 2559   4.512   1.980  12.395  0.4531 -0.4102  0.0655
  168MPD2    C1 2560   4.522   1.848  12.425  0.3065  0.7479  0.7113
  168MPD2    C2 2561   4.576   1.758  12.333  0.3304  0.5600  0.8607
  168MPD2    C3 2562   4.602   1.800  12.200 -0.7938  0.3834  0.2011
  168MPD2    C4 2563   4.582   1.934  12.180  0.5295 -0.4359  0.0816
  168MPD2    C5 2564   4.537   2.023  12.270 -0.4280  0.4626 -0.5751
  168MPD2     H 2565   4.579   1.651  12.352  1.5022  0.8276  2.1646
  168MPD2    H1 2566   4.597   1.968  12.078  0.7345  0.0954  0.2889
  168MPD2    H2 2567   4.476   2.048  12.471 -1.6690 -0.5743 -0.7955
  168MPD2    H3 2568   4.532   2.130  12.254 -1.6430  0.5011  0.0350
  168MPD2     N 2569   4.639   1.724  12.089  0.0948  0.4615 -0.5777
  168MPD2    H5 2570   4.651   1.780  12.005 -0.6403  0.2869 -0.7972
  168MPD2    N1 2571   4.488   1.795  12.546 -0.0216  0.2053 -0.8233
  168MPD2    H7 2572   4.505   1.695  12.546 -0.1366  0.1850 -0.4967
  169MPD1     C 2573   1.813   1.090   8.810 -0.3967 -0.1304 -0.4019
  169MPD1    C1 2574   1.892   1.207   8.810 -0.2734  0.9723 -0.1383
  169MPD1    C2 2575   2.024   1.189   8.825  0.3111 -0.1306  0.6892
  169MPD1    C3 2576   2.078   1.075   8.882  0.6053  0.4809  0.2184
  169MPD1    C4 2577   1.994   0.968   8.909  1.1344 -0.5917 -0.3571
  169MPD1    C5 2578   1.869   0.979   8.867  0.6918  0.5702 -0.9736
  169MPD1     H 2579   2.087   1.273   8.797  0.3328 -0.1712  0.6133
  169MPD1    H1 2580   2.012   0.877   8.965  1.5459 -1.0702 -1.2672
  169MPD1    H2 2581   1.711   1.092   8.775 -0.1666 -1.2662 -1.1374
  169MPD1    H3 2582   1.817   0.887   8.889  3.7093 -1.0215 -0.4283
  169MPD1     N 2583   2.214   1.065   8.915 -0.2926 -0.4105  0.0930
  169MPD1    H5 2584   2.267   1.150   8.896 -1.2334  0.6056  2.0336
  169MPD1    N1 2585   1.840   1.325   8.754 -0.2427  0.0552 -0.3801
  169MPD1    H6 2586   1.744   1.336   8.784 -0.6034 -1.9019 -0.7798
  169MPD1    H7 2587   1.889   1.412   8.775  1.0523 -0.3694 -1.6323
  170MPD1     C 2588   1.314   3.815  13.171 -0.6715 -0.0600 -0.2778
  170MPD1    C1 2589   1.319   3.794  13.309 -0.0903 -0.3003 -0.6228
  170MPD1    C2 2590   1.202   3.825  13.377 -0.6823 -0.3439  0.0518
  170MPD1    C3 2591   1.080   3.844  13.317  0.2280  0.1829 -0.5600
  170MPD1    C4 2592   1.082   3.850  13.179  0.3165 -0.3511  0.3655
  170MPD1    C5 2593   1.197   3.850  13.112 -0.2915  0.1867  0.0299
  170MPD1     H 2594   1.196   3.826  13.485  1.0035  0.3220  0.1285
  170MPD1    H1 2595   0.994   3.866  13.116  1.3711 -2.3776 -1.6181
  170MPD1    H2 2596   1.407   3.813  13.115 -0.7523  0.9779 -0.4485
  170MPD1    H3 2597   1.208   3.863  13.005 -0.6833  2.3553  0.2559
  170MPD1     N 2598   0.971   3.868  13.397 -0.1297  0.6279 -0.0388
  170MPD1    H5 2599   0.973   3.863  13.498  1.6067 -1.4677 -0.1810
  170MPD1    N1 2600   1.440   3.770  13.377  0.4448 -0.0555  0.0957
  170MPD1    H6 2601   1.503   3.721  13.314 -1.8686 -0.7483 -1.6833
  170MPD1    H7 2602   1.420   3.718  13.463  0.1350 -1.8016 -1.0374
  171MPD1     C 2603   3.884   0.690  15.275 -0.0093 -0.7537 -0.2312
  171MPD1    C1 2604   3.778   0.614  15.297  0.5511 -1.1524 -0.5631
  171MPD1    C2 2605   3.793   0.499  15.370 -0.6304  0.1781 -0.5690
  171MPD1    C3 2606   3.908   0.481  15.448  0.0781 -1.1606  0.3468
  171MPD1    C4 2607   4.011   0.573  15.435  0.5531  0.0126 -0.0350
  171MPD1    C5 2608   4.002   0.673  15.343  0.5891  0.2904  0.2236
  171MPD1     H 2609   3.711   0.429  15.364 -0.2720 -0.1551 -1.4254
  171MPD1    H1 2610   4.106   0.554  15.484  0.3761 -2.5280 -0.7014
  171MPD1    H2 2611   3.885   0.773  15.205 -0.8954 -0.0443  0.5750
  171MPD1    H3 2612   4.093   0.728  15.321  0.5042  0.0986 -0.6336
  171MPD1     N 2613   3.927   0.363  15.526  0.7010  0.5827  0.0411
  171MPD1    H5 2614   4.020   0.350  15.564  0.1221 -0.6862  0.9823
  171MPD1    N1 2615   3.667   0.645  15.222 -0.0737 -0.2455 -0.3433
  171MPD1    H6 2616   3.666   0.746  15.210  0.8213 -0.4446 -2.2018
  171MPD1    H7 2617   3.579   0.617  15.264 -2.1434  3.3877 -2.1666
  172MPD1     C 2618   3.194   3.757   0.374 -0.9414 -0.2890 -0.0839
  172MPD1    C1 2619   3.127   3.858   0.444  0.2222 -0.4288  0.6559
  172MPD1    C2 2620   3.172   3.985   0.432  0.9566  0.0160 -0.0728
  172MPD1    C3 2621   3.279   4.017   0.353 -0.3143  0.0796  0.4622
  172MPD1    C4 2622   3.337   3.912   0.289  0.2490 -0.9426 -0.1292
  172MPD1    C5 2623   3.298   3.780   0.295 -0.5038 -0.7574  0.4700
  172MPD1     H 2624   3.134   4.054   0.507  0.2994  0.9427 -1.2602
  172MPD1    H1 2625   3.417   3.931   0.218  0.1514 -1.6752 -0.4447
  172MPD1    H2 2626   3.168   3.653   0.386  3.3238 -1.3694 -0.1676
  172MPD1    H3 2627   3.344   3.695   0.245 -1.0236 -1.8772  1.8875
  172MPD1     N 2628   3.325   4.150   0.340 -0.3786  0.5751  0.4285
  172MPD1    H5 2629   3.403   4.178   0.280 -0.4114 -0.5358 -0.1441
  172MPD1    N1 2630   3.030   3.826   0.543 -0.5586 -0.0183 -0.2867
  172MPD1    H6 2631   2.951   3.890   0.543  0.2279  0.9524 -0.2893
  172MPD1    H7 2632   2.995   3.734   0.516 -2.4496  0.1717  1.6363
  173MPD1     C 2633   0.508   4.538  13.912  0.2549 -0.3533 -0.5943
  173MPD1    C1 2634   0.560   4.579  14.032  0.9079  0.4075  0.9262
  173MPD1    C2 2635   0.530   4.510  14.147 -0.0080 -0.2651 -0.4277
  173MPD1    C3 2636   0.423   4.421  14.147  0.1573 -0.7979  0.0014
  173MPD1    C4 2637   0.358   4.394  14.030  0.1992 -0.7906  0.5760
  173MPD1    C5 2638   0.402   4.449  13.912  0.2389  0.1737  0.0982
  173MPD1     H 2639   0.572   4.538  14.243 -1.7190 -0.2108  0.3057
  173MPD1    H1 2640   0.268   4.335  14.028  0.2180 -0.8249  0.8616
  173MPD1    H2 2641   0.539   4.583  13.818 -2.9713  1.5367 -0.7247
  173MPD1    H3 2642   0.353   4.423  13.819  0.8793 -2.4616  0.4979
  173MPD1     N 2643   0.387   4.376  14.272 -0.9108  0.7257  0.0529
  173MPD1    H5 2644   0.458   4.387  14.344  0.3716 -0.2581 -1.0646
  173MPD1    N1 2645   0.669   4.671  14.032 -0.8830  0.3918 -0.4222
  173MPD1    H6 2646   0.654   0.010  13.956 -0.7384 -0.0033 -0.7977
  173MPD1    H7 2647   0.674   0.000  14.117 -0.4638  0.1609 -0.2923
  174MPD1     C 2648   0.987   3.964  14.630  0.2882  0.2634  0.1459
  174MPD1    C1 2649   0.910   3.992  14.740 -0.0451  0.1974 -0.2488
  174MPD1    C2 2650   0.779   4.020  14.728 -0.2854  0.2268 -0.0019
  174MPD1    C3 2651   0.722   4.010  14.600  0.6127 -0.4934 -0.0838
  174MPD1    C4 2652   0.800   3.981  14.490  0.2027  0.2099  1.0540
  174MPD1    C5 2653   0.935   3.956  14.503  0.8634  0.3897 -0.9727
  174MPD1     H 2654   0.724   4.044  14.818 -0.4869  0.6662 -0.2413
  174MPD1    H1 2655   0.757   3.994  14.392  1.5336  2.0517  0.7056
  174MPD1    H2 2656   1.093   3.949  14.648  0.0902 -1.0264  0.2126
  174MPD1    H3 2657   1.002   3.940  14.419  0.8032  0.0113 -0.9524
  174MPD1     N 2658   0.586   4.041  14.581  0.5294  0.2804 -0.4105
  174MPD1    H5 2659   0.562   4.043  14.482  1.3003 -1.0295 -0.6311
  174MPD1    N1 2660   0.976   4.012  14.863  0.9370 -0.7277 -0.5650
  174MPD1    H6 2661   1.060   3.955  14.857  1.8696  0.4742  0.9360
  174MPD1    H7 2662   0.921   3.968  14.936  1.8670 -1.3462 -0.2355
  175MPD1     C 2663   2.738   0.219  15.046  0.7636  0.0058 -1.2338
  175MPD1    C1 2664   2.638   0.274  15.125  0.0923  0.1110  0.0564
  175MPD1    C2 2665   2.646   0.269  15.264  1.4539 -0.0916  0.4716
  175MPD1    C3 2666   2.742   0.186  15.326 -0.2316  0.2849  0.5052
  175MPD1    C4 2667   2.831   0.126  15.244  0.0030  0.3377  0.2264
  175MPD1    C5 2668   2.824   0.130  15.111  0.1329 -0.4134 -0.2626
  175MPD1     H 2669   2.575   0.324  15.324  0.8142  2.1054 -2.2874
  175MPD1    H1 2670   2.920   0.083  15.288  1.7076  2.4382 -1.1428
  175MPD1    H2 2671   2.747   0.229  14.939  0.7250  2.3872 -1.0054
  175MPD1    H3 2672   2.893   0.083  15.043  1.8591  1.3733  0.2778
  175MPD1     N 2673   2.751   0.172  15.467 -0.1547 -0.1066 -0.0047
  175MPD1    H5 2674   2.820   0.108  15.504  0.3122  0.4901  0.1443
  175MPD1    N1 2675   2.554   0.370  15.063 -0.2345  0.1786 -0.5082
  175MPD1    H6 2676   2.550   0.351  14.963 -2.8594 -2.2045  0.0373
  175MPD1    H7 2677   2.458   0.379  15.098  0.0037  1.0725 -0.0724
  176MPD1     C 2678   4.227   1.947  16.107 -0.4399  0.1506  0.0578
  176MPD1    C1 2679   4.346   1.921  16.169  0.3243 -0.2111  0.0103
  176MPD1    C2 2680   4.346   1.924  16.307  0.3265  0.6439  0.7285
  176MPD1    C3 2681   4.230   1.921  16.376  0.2032 -0.1831 -0.0377
  176MPD1    C4 2682   4.107   1.940  16.318  0.2081  0.0899  0.0077
  176MPD1    C5 2683   4.109   1.953  16.181  0.3282  0.5175  0.2115
  176MPD1     H 2684   4.439   1.936  16.362  0.1876 -0.0949  1.1250
  176MPD1    H1 2685   4.012   1.949  16.370  0.4778 -1.5169  0.7791
  176MPD1    H2 2686   4.221   1.970  16.001  1.1638 -1.6917 -0.4310
  176MPD1    H3 2687   4.013   1.966  16.132 -1.1387 -0.7866  2.7139
  176MPD1     N 2688   4.245   1.941  16.522 -0.4611 -0.2495  0.0608
  176MPD1    H5 2689   4.342   1.936  16.553  0.0217 -0.6885 -1.5358
  176MPD1    N1 2690   4.467   1.935  16.102  0.5459 -0.5210 -0.7885
  176MPD1    H6 2691   4.481   1.924  16.001 -0.4301  1.3818 -1.1312
  176MPD1    H7 2692   4.543   1.884  16.146  0.5770 -0.2299 -0.5121
  177MPD1     C 2693   2.898   2.226   9.797  0.3532  0.2632 -0.4533
  177MPD1    C1 2694   2.833   2.122   9.736 -0.0464 -0.0099  0.4228
  177MPD1    C2 2695   2.716   2.148   9.663 -0.1847  0.2278  0.2772
  177MPD1    C3 2696   2.683   2.275   9.634  0.0668 -0.1374  0.6698
  177MPD1    C4 2697   2.754   2.382   9.694  0.3242  0.0561 -0.3591
  177MPD1    C5 2698   2.865   2.357   9.771 -0.5012 -0.1986  0.5472
  177MPD1     H 2699   2.659   2.071   9.613 -1.1631 -1.4070  3.9568
  177MPD1    H1 2700   2.725   2.485   9.673 -0.2600 -0.0879 -0.2611
  177MPD1    H2 2701   2.986   2.226   9.861 -0.3748  0.0603  0.5509
  177MPD1    H3 2702   2.916   2.437   9.823 -1.3823  0.8786 -0.2641
  177MPD1     N 2703   2.572   2.291   9.549 -0.0650  0.4129 -0.0458
  177MPD1    H5 2704   2.532   2.207   9.507 -0.4287 -0.7874  2.6373
  177MPD1    N1 2705   2.860   1.990   9.769  0.1580 -0.2848  0.6914
  177MPD1    H6 2706   2.960   1.975   9.783  0.7370  0.7468 -2.4312
  177MPD1    H7 2707   2.831   1.922   9.699 -1.6417 -0.1091  1.2547
  178MPD1     C 2708   0.105   3.473  17.621  0.1337  0.7823  0.1964
  178MPD1    C1 2709   0.062   3.412  17.504 -0.0349 -0.2527 -0.0186
  178MPD1    C2 2710   0.131   3.300  17.459 -0.7262  0.1106 -0.4701
  178MPD1    C3 2711   0.235   3.246  17.531 -0.1548  0.0168 -0.0981
  178MPD1    C4 2712   0.271   3.300  17.651 -0.4178  1.2215 -0.2244
  178MPD1    C5 2713   0.212   3.420  17.690 -0.3185 -0.2434 -0.3344
  178MPD1     H 2714   0.098   3.244  17.373  0.3588  0.8863 -1.3802
  178MPD1    H1 2715   0.354   3.274   0.005 -0.5197 -0.4850 -0.7751
  178MPD1    H2 2716   0.063   3.565  17.660 -0.9704  0.1462  0.5370
  178MPD1    H3 2717   0.254   3.462   0.070  1.0021 -2.2822  0.0026
  178MPD1     N 2718   0.313   3.146  17.483 -0.1349 -0.2017  0.2847
  178MPD1    H5 2719   0.406   3.133  17.521 -0.5549 -1.9944  0.7371
  178MPD1    N1 2720   4.713   3.482  17.411  0.2245  0.3331 -0.0846
  178MPD1    H6 2721   4.652   3.550  17.457  0.6455  0.1915  0.6821
  178MPD1    H7 2722   4.673   3.433  17.331 -0.3308 -0.4706  0.6887
  179MPD1     C 2723   0.947   1.526  15.581 -0.3434  0.0866 -0.2926
  179MPD1    C1 2724   0.820   1.576  15.586  0.7583 -0.2779 -0.3952
  179MPD1    C2 2725   0.719   1.484  15.599  0.0855  0.1055 -0.0970
  179MPD1    C3 2726   0.736   1.352  15.571 -0.0902  0.3146 -0.3152
  179MPD1    C4 2727   0.863   1.310  15.533 -0.6377 -0.1221  0.3258
  179MPD1    C5 2728   0.968   1.391  15.549  0.4665  0.2184  0.1660
  179MPD1     H 2729   0.619   1.521  15.622 -0.5502 -1.9560  0.4727
  179MPD1    H1 2730   0.877   1.207  15.502  0.0892 -0.6406  2.3396
  179MPD1    H2 2731   1.030   1.589  15.612 -1.5992  1.3128  0.5655
  179MPD1    H3 2732   1.068   1.360  15.520  0.1702  0.6192 -1.3129
  179MPD1     N 2733   0.638   1.250  15.571  0.2931  1.0159  0.1536
  179MPD1    H5 2734   0.664   1.163  15.524 -1.1737  0.2861  0.6818
  179MPD1    N1 2735   0.795   1.712  15.614  0.1979 -0.4150  0.0042
  179MPD1    H6 2736   0.711   1.752  15.573 -0.8799  0.2601  2.9196
  179MPD1    H7 2737   0.875   1.768  15.585 -0.4692  1.0584  1.0336
  180MPD1     C 2738   0.899   2.270  15.084  0.6439  0.6088  0.1193
  180MPD1    C1 2739   0.865   2.400  15.110  0.3442 -0.1530  0.3950
  180MPD1    C2 2740   0.793   2.469  15.015 -0.2272 -0.3470 -0.5403
  180MPD1    C3 2741   0.729   2.407  14.910 -0.3571  0.4504  1.0702
  180MPD1    C4 2742   0.748   2.272  14.896 -0.2787 -0.5347  1.1623
  180MPD1    C5 2743   0.839   2.210  14.980  0.4617  0.2569 -0.3624
  180MPD1     H 2744   0.792   2.577  15.014 -0.4666 -0.3424  0.3565
  180MPD1    H1 2745   0.691   2.221  14.819  1.4187 -2.2071  1.0129
  180MPD1    H2 2746   0.961   2.208  15.147 -2.9447  0.2283  3.2734
  180MPD1    H3 2747   0.866   2.107  14.961  1.1773 -0.0294  2.2823
  180MPD1     N 2748   0.648   2.475  14.810  0.5441 -0.5304  0.2849
  180MPD1    H5 2749   0.665   2.575  14.802 -2.7001  0.1035  1.4964
  180MPD1    N1 2750   0.949   2.468  15.201  0.2300 -0.2483  0.5114
  180MPD1    H6 2751   0.910   2.555  15.236  1.9280  0.8330 -0.2967
  180MPD1    H7 2752   0.973   2.404  15.276 -0.1679  1.0715  1.7662
  181MPD1     C 2753   1.322   4.483  10.530  0.2485  0.1472 -0.2863
  181MPD1    C1 2754   1.410   4.584  10.529 -0.3892  0.1557 -0.0661
  181MPD1    C2 2755   1.539   4.568  10.471  0.2390  0.5117  0.7209
  181MPD1    C3 2756   1.565   4.464  10.388  0.0928 -0.2958 -0.0095
  181MPD1    C4 2757   1.477   4.358  10.395 -0.2167 -0.8021 -0.3666
  181MPD1    C5 2758   1.357   4.366  10.470  0.2001  0.2405 -0.6103
  181MPD1     H 2759   1.613   4.645  10.492  3.0256 -1.9723  0.0855
  181MPD1    H1 2760   1.483   4.276  10.325  0.7683 -1.1841  0.1745
  181MPD1    H2 2761   1.222   4.494  10.571  0.1362 -0.0690 -0.5042
  181MPD1    H3 2762   1.293   4.279  10.464  0.3160  0.1967 -1.2274
  181MPD1     N 2763   1.677   4.461  10.301  0.3799  0.1121  0.0670
  181MPD1    H5 2764   1.703   4.372  10.260  2.9825  0.5883  0.7139
  181MPD1    N1 2765   1.378   4.697  10.612  0.4647  0.7934  0.3004
  181MPD1    H6 2766   1.278   4.702  10.596  0.6157  1.2746 -0.4807
  181MPD1    H7 2767   1.423   0.057  10.585  4.3622 -1.3391 -0.0338
  182MPD1     C 2768   3.695   4.046   1.529  0.4279  0.0782 -0.0584
  182MPD1    C1 2769   3.687   3.967   1.416  0.0194 -0.4321 -0.9567
  182MPD1    C2 2770   3.563   3.930   1.372 -0.2322 -0.4054 -0.4289
  182MPD1    C3 2771   3.450   3.993   1.419 -0.4120 -0.2392 -0.3911
  182MPD1    C4 2772   3.456   4.076   1.526  0.0907  0.0510 -0.3603
  182MPD1    C5 2773   3.577   4.102   1.588 -0.0079 -0.4094 -0.3190
  182MPD1     H 2774   3.561   3.858   1.291  1.2558 -1.5015  0.4868
  182MPD1    H1 2775   3.369   4.118   1.577 -1.0305 -2.2797 -0.3858
  182MPD1    H2 2776   3.788   4.072   1.579  0.1891 -0.2083  0.5403
  182MPD1    H3 2777   3.588   4.162   1.678  0.2679 -1.9834  0.6983
  182MPD1     N 2778   3.324   3.964   1.377  0.9180 -0.1980 -0.7089
  182MPD1    H5 2779   3.248   4.007   1.429  1.3483  1.2984 -1.3388
  182MPD1    N1 2780   3.800   3.899   1.373 -0.0283  0.3869 -0.4626
  182MPD1    H6 2781   3.782   3.877   1.275  1.8835  0.0599 -0.7563
  182MPD1    H7 2782   3.880   3.961   1.386  1.0985 -0.8804 -1.2886
  183MPD1     C 2783   3.572   3.890  10.410 -0.0812 -0.5232  0.1693
  183MPD1    C1 2784   3.490   3.813  10.333  0.4898  0.6819  0.0019
  183MPD1    C2 2785   3.396   3.876  10.255  0.5312 -0.0065  0.9056
  183MPD1    C3 2786   3.394   4.013  10.233 -0.2315  0.3368 -0.4952
  183MPD1    C4 2787   3.478   4.091  10.309 -0.1996 -0.1223 -0.0588
  183MPD1    C5 2788   3.554   4.024  10.401 -0.0916 -0.3332 -0.5639
  183MPD1     H 2789   3.326   3.815  10.199  0.9920 -1.1045  1.5100
  183MPD1    H1 2790   3.469   4.198  10.321 -2.7610 -0.2802 -0.6467
  183MPD1    H2 2791   3.652   3.845  10.468  0.7605  0.7513 -0.0048
  183MPD1    H3 2792   3.615   4.087  10.464  0.0721 -1.6561  0.6155
  183MPD1     N 2793   3.294   4.059  10.140 -0.7213  0.0158 -0.1656
  183MPD1    H5 2794   3.219   3.994  10.117  0.0443 -1.2377  0.8187
  183MPD1    N1 2795   3.511   3.673  10.332  0.3386 -0.3017  0.4216
  183MPD1    H6 2796   3.566   3.638  10.409 -0.3248 -1.2043  0.4883
  183MPD1    H7 2797   3.430   3.612  10.323  0.4037 -0.3778  0.3544
  184MPD1     C 2798   1.994   1.051   9.805 -0.8034 -0.0012  0.3135
  184MPD1    C1 2799   2.113   1.123   9.789 -0.3885  0.3806 -0.3774
  184MPD1    C2 2800   2.120   1.252   9.731 -0.2552 -0.2281  0.8875
  184MPD1    C3 2801   2.004   1.291   9.667 -0.2564 -0.3587 -0.6292
  184MPD1    C4 2802   1.892   1.216   9.668 -0.1706  0.2882 -0.1325
  184MPD1    C5 2803   1.881   1.092   9.737 -0.1725 -0.3601 -0.1027
  184MPD1     H 2804   2.210   1.312   9.741 -0.3571 -0.0444  0.6972
  184MPD1    H1 2805   1.800   1.249   9.620 -0.3582  1.2504  0.9071
  184MPD1    H2 2806   1.996   0.958   9.860 -2.3632  1.4545  2.8459
  184MPD1    H3 2807   1.788   1.036   9.748 -0.2618 -0.2755 -0.4354
  184MPD1     N 2808   1.996   1.401   9.585  0.6560 -0.4628  0.2805
  184MPD1    H5 2809   1.903   1.413   9.545  1.2226  1.4401 -0.4627
  184MPD1    N1 2810   2.226   1.068   9.857 -0.5108  0.3356  0.2369
  184MPD1    H6 2811   2.313   1.105   9.818 -0.0753 -1.1127 -0.1840
  184MPD1    H7 2812   2.234   1.100   9.953 -1.1881  0.8534  0.1158
  185MPD1     C 2813   1.369   1.514   9.049  0.4034 -0.3434 -0.1367
  185MPD1    C1 2814   1.442   1.624   9.002  0.6575  0.1581  0.6673
  185MPD1    C2 2815   1.561   1.659   9.066 -0.4952  0.4328  0.6280
  185MPD1    C3 2816   1.615   1.583   9.164  0.1662 -0.1407 -0.0812
  185MPD1    C4 2817   1.534   1.482   9.220  0.2207 -0.1963  0.4391
  185MPD1    C5 2818   1.417   1.448   9.160 -0.0975  0.3057 -0.8815
  185MPD1     H 2819   1.620   1.739   9.024  1.1398 -1.1540 -0.0790
  185MPD1    H1 2820   1.556   1.427   9.311  0.6663 -1.3925 -0.3836
  185MPD1    H2 2821   1.275   1.486   9.004  0.8414 -1.5345 -0.3052
  185MPD1    H3 2822   1.354   1.369   9.197  0.2920  0.3859 -0.0504
  185MPD1     N 2823   1.736   1.609   9.234  0.1903  0.1766 -0.0615
  185MPD1    H5 2824   1.762   1.542   9.305 -0.7336  1.8633  1.8830
  185MPD1    N1 2825   1.413   1.672   8.875  0.0729  0.6987 -0.3942
  185MPD1    H6 2826   1.316   1.660   8.849  0.2585 -1.8643  0.1524
  185MPD1    H7 2827   1.435   1.772   8.879 -1.8929  1.0641  1.4166
  186MPD1     C 2828   0.242   1.656  15.069 -0.2807 -0.7399  0.4167
  186MPD1    C1 2829   0.360   1.629  15.147 -0.2832  0.1698  0.0659
  186MPD1    C2 2830   0.379   1.694  15.267  0.7307  0.3860 -0.3079
  186MPD1    C3 2831   0.279   1.768  15.327 -0.7158 -0.0067  0.7355
  186MPD1    C4 2832   0.164   1.782  15.259 -0.2109 -0.0718 -0.0508
  186MPD1    C5 2833   0.147   1.731  15.127 -0.0238  0.1608 -0.0647
  186MPD1     H 2834   0.474   1.671  15.315  1.3561  1.4536 -1.0286
  186MPD1    H1 2835   0.085   1.848  15.293  0.4920  1.9894 -2.3776
  186MPD1    H2 2836   0.213   1.596  14.983 -0.1206  0.1505 -0.2586
  186MPD1    H3 2837   0.054   1.760  15.080 -0.8861 -2.1523  0.2556
  186MPD1     N 2838   0.294   1.829  15.451  0.3822  0.0708  0.3023
  186MPD1    H5 2839   0.213   1.879  15.485 -1.6600 -0.6084 -3.4987
  186MPD1    N1 2840   0.469   1.579  15.080  0.0029  0.0769  0.1040
  186MPD1    H6 2841   0.539   1.536  15.140  1.1424  0.2091 -1.1317
  186MPD1    H7 2842   0.438   1.511  15.010 -1.7588  2.0449 -1.0218
  187MPD1     C 2843   4.634   2.707   0.009  0.3539  0.5054 -0.6952
  187MPD1    C1 2844   4.596   2.617  17.624 -0.1731  0.3080  0.6766
  187MPD1    C2 2845   4.615   2.656  17.492  0.2767 -0.1253  0.0285
  187MPD1    C3 2846   4.684   2.769  17.458  0.1772 -0.1615  0.4704
  187MPD1    C4 2847   0.009   2.846  17.558 -0.0846 -0.1276  0.4103
  187MPD1    C5 2848   4.709   2.817  17.685 -0.5373  0.0109 -0.9015
  187MPD1     H 2849   4.560   2.601  17.416 -0.9293 -0.7433  1.3745
  187MPD1    H1 2850   0.042   2.948  17.542  0.2073  0.3717  4.1380
  187MPD1    H2 2851   4.615   2.675   0.111  0.6503 -0.5238 -0.9587
  187MPD1    H3 2852   0.016   2.876   0.059 -0.0277 -1.5025 -0.0616
  187MPD1     N 2853   4.689   2.815  17.320  0.3488 -0.0316  0.1011
  187MPD1    H5 2854   0.005   2.900  17.286  0.0697 -0.4015 -1.1872
  187MPD1    N1 2855   4.511   2.508  17.653 -0.9597  0.5775 -0.4523
  187MPD1    H6 2856   4.528   2.460   0.031 -1.1400 -0.3897 -0.9426
  187MPD1    H7 2857   4.516   2.437  17.580 -1.5844 -0.1640  0.2150
  188MPD1     C 2858   0.529   3.318  10.295  0.8943 -0.3434 -0.2846
  188MPD1    C1 2859   0.400   3.323  10.257 -0.0244 -0.1998 -0.1348
  188MPD1    C2 2860   0.357   3.236  10.157 -0.1712  0.3044 -0.2775
  188MPD1    C3 2861   0.431   3.137  10.102 -0.5268 -0.3951 -0.0962
  188MPD1    C4 2862   0.565   3.147  10.129 -0.3565  0.3290  0.2111
  188MPD1    C5 2863   0.611   3.230  10.232 -0.0803  0.3905 -0.1317
  188MPD1     H 2864   0.254   3.246  10.122  0.1467  1.7303 -0.8161
  188MPD1    H1 2865   0.638   3.083  10.082 -1.6953 -0.1426 -1.2334
  188MPD1    H2 2866   0.580   3.385  10.364  0.5936 -0.7684  0.3518
  188MPD1    H3 2867   0.712   3.227  10.271 -0.0432 -3.9510 -0.5205
  188MPD1     N 2868   0.373   3.040  10.006 -0.3376  0.4467  0.7251
  188MPD1    H5 2869   0.440   2.974   9.967 -2.6796 -1.9691  0.7446
  188MPD1    N1 2870   0.323   3.430  10.295  0.2517  0.6988  0.9415
  188MPD1    H6 2871   0.228   3.397  10.277  0.4999  0.2542  0.4495
  188MPD1    H7 2872   0.329   3.454  10.394 -1.2184 -1.7149  1.6230
  189MPD1     C 2873   2.223   3.410   0.609 -0.7541  0.0576  0.4843
  189MPD1    C1 2874   2.111   3.369   0.670  0.2185  0.0908  0.6295
  189MPD1    C2 2875   1.988   3.406   0.614 -0.2551 -0.1859 -0.0169
  189MPD1    C3 2876   1.983   3.466   0.499  0.6411  0.3612 -0.4774
  189MPD1    C4 2877   2.100   3.507   0.433 -0.0554  0.3369 -0.6570
  189MPD1    C5 2878   2.215   3.473   0.494  0.0356  1.1571 -0.5191
  189MPD1     H 2879   1.897   3.384   0.669  1.2053 -1.9299  1.7047
  189MPD1    H1 2880   2.113   3.571   0.346 -1.9239 -0.1762 -1.3166
  189MPD1    H2 2881   2.323   3.391   0.645 -2.1321 -2.6882  2.8594
  189MPD1    H3 2882   2.304   3.513   0.447  0.6263  0.7802  0.2702
  189MPD1     N 2883   1.857   3.503   0.454  0.4663  0.3610 -0.1698
  189MPD1    H5 2884   1.780   3.483   0.517  0.9143  1.2405  0.6493
  189MPD1    N1 2885   2.126   3.318   0.804  0.1256  0.1168  0.6262
  189MPD1    H6 2886   2.034   3.290   0.837 -0.4178  1.2017  0.0288
  189MPD1    H7 2887   2.191   3.240   0.803 -0.9566 -0.7313 -4.8812
  190MPD1     C 2888   1.293   3.370  15.032  0.3204 -0.1527 -0.1206
  190MPD1    C1 2889   1.373   3.257  15.031  0.0899  0.2485  0.1258
  190MPD1    C2 2890   1.348   3.164  15.135 -0.1469 -0.6987 -0.4785
  190MPD1    C3 2891   1.267   3.192  15.244 -0.3332 -1.1843 -0.4639
  190MPD1    C4 2892   1.203   3.313  15.241 -0.7931  0.2370 -0.1667
  190MPD1    C5 2893   1.216   3.395  15.132  0.1108 -0.5697  0.3889
  190MPD1     H 2894   1.410   3.075  15.130  1.4621  0.3879 -0.0124
  190MPD1    H1 2895   1.152   3.338  15.333 -0.5661 -0.9483  0.2860
  190MPD1    H2 2896   1.284   3.437  14.947  1.8824  0.6455  0.3436
  190MPD1    H3 2897   1.150   3.481  15.137  0.2625 -0.2639 -2.8736
  190MPD1     N 2898   1.246   3.095  15.348 -0.0078 -0.1695 -0.3343
  190MPD1    H5 2899   1.310   3.017  15.342  1.4876  1.2351 -2.4693
  190MPD1    N1 2900   1.464   3.236  14.918 -0.6511 -0.1402  0.7869
  190MPD1    H6 2901   1.503   3.324  14.886  0.4569 -1.6093 -1.8999
  190MPD1    H7 2902   1.545   3.177  14.938  0.5779  0.9229 -1.0366
  191MPD1     C 2903   4.390   4.241  13.277  0.3128 -0.4038 -0.4632
  191MPD1    C1 2904   4.434   4.239  13.147 -0.1655  0.4427  0.2301
  191MPD1    C2 2905   4.390   4.347  13.074 -0.2609  0.3413 -0.1542
  191MPD1    C3 2906   4.292   4.435  13.113  0.1823 -0.0456 -0.3749
  191MPD1    C4 2907   4.232   4.411  13.235 -0.0980 -0.1632  0.1855
  191MPD1    C5 2908   4.287   4.322  13.318 -0.1911 -0.2739 -0.6282
  191MPD1     H 2909   4.435   4.364  12.977 -0.9596 -0.7693 -0.6751
  191MPD1    H1 2910   4.154   4.476  13.274  0.0630 -1.0772  2.0153
  191MPD1    H2 2911   4.440   4.183  13.353  0.2316 -1.9507 -1.5954
  191MPD1    H3 2912   4.243   4.314  13.416  1.4452  4.2454  0.5024
  191MPD1     N 2913   4.248   4.536  13.026  0.3860 -0.0049  0.5521
  191MPD1    H5 2914   4.278   4.540  12.930 -0.2058 -1.1801  0.3244
  191MPD1    N1 2915   4.549   4.168  13.105  0.3861  0.6264 -0.2840
  191MPD1    H6 2916   4.557   4.074  13.143  2.0037  0.9249  0.1231
  191MPD1    H7 2917   4.564   4.168  13.004 -0.6563 -0.7991 -0.4357
  192MPD1     C 2918   3.517   0.579  12.783  0.1373 -0.0458 -0.2142
  192MPD1    C1 2919   3.511   0.471  12.879  0.3533 -0.0163 -0.4868
  192MPD1    C2 2920   3.601   0.364  12.869 -0.2809  0.1341  0.4440
  192MPD1    C3 2921   3.697   0.366  12.766  0.4486  0.8015 -0.1969
  192MPD1    C4 2922   3.709   0.475  12.684  0.1422  0.2982  0.1689
  192MPD1    C5 2923   3.625   0.578  12.695  0.2092  0.0568  0.1819
  192MPD1     H 2924   3.598   0.276  12.933 -0.6458  0.1511  0.4536
  192MPD1    H1 2925   3.790   0.484  12.613  0.4180 -0.7620  0.3481
  192MPD1    H2 2926   3.459   0.670  12.794  2.2695  1.3540 -0.7296
  192MPD1    H3 2927   3.641   0.666  12.635  1.2200  0.7279  1.4313
  192MPD1     N 2928   3.806   0.280  12.763 -0.3397  0.7032  0.6337
  192MPD1    H5 2929   3.884   0.316  12.709  1.1287 -0.2512  2.1351
  192MPD1    N1 2930   3.394   0.471  12.962 -0.2064 -0.0494 -0.4364
  192MPD1    H6 2931   3.378   0.570  12.984  0.3555  0.6426 -3.1802
  192MPD1    H7 2932   3.418   0.418  13.046 -0.9658  0.3813  0.0532
  193MPD1     C 2933   3.555   4.532  16.448 -0.1934 -0.5366  0.4657
  193MPD1    C1 2934   3.529   4.664  16.448 -0.4263 -0.2729 -0.3209
  193MPD1    C2 2935   3.642   0.018  16.440  0.7602  0.2165  0.2460
  193MPD1    C3 2936   3.771   4.699  16.422 -0.2378 -0.4013 -0.1479
  193MPD1    C4 2937   3.788   4.563  16.418  0.5385  0.2284  0.1313
  193MPD1    C5 2938   3.682   4.485  16.429  0.1254 -0.0174 -0.3832
  193MPD1     H 2939   3.613   0.122  16.432 -0.5302 -0.1192  0.5313
  193MPD1    H1 2940   3.888   4.525  16.406  1.4255  2.6152  0.1071
  193MPD1    H2 2941   3.470   4.465  16.452 -0.7207  0.2793  2.6268
  193MPD1    H3 2942   3.700   4.378  16.429  1.4667  0.2197 -3.0921
  193MPD1     N 2943   3.879   0.063  16.395 -0.1116 -0.4923  0.0833
  193MPD1    H5 2944   3.967   0.012  16.388  0.0545 -0.0937 -0.7451
  193MPD1    N1 2945   3.399   4.715  16.471  0.1636  0.4244  0.6684
  193MPD1    H6 2946   3.387   0.071  16.415 -0.3832  0.8134  1.3742
  193MPD1    H7 2947   3.331   4.643  16.447  0.1373  0.8548 -0.5465
  194MPD1     C 2948   1.597   2.260  16.901 -0.1297 -0.4229  0.0344
  194MPD1    C1 2949   1.635   2.232  16.766 -0.1306 -0.6177 -0.2997
  194MPD1    C2 2950   1.736   2.133  16.750 -0.3165  0.3887 -0.3832
  194MPD1    C3 2951   1.786   2.064  16.861  0.8504  0.8458 -0.5753
  194MPD1    C4 2952   1.751   2.101  16.990 -0.4496 -0.5116 -0.5649
  194MPD1    C5 2953   1.656   2.201  17.009 -0.4698  0.0596 -0.3578
  194MPD1     H 2954   1.762   2.100  16.650  2.4342 -3.0207  1.4366
  194MPD1    H1 2955   1.789   2.054  17.080 -3.0649 -1.9941 -0.2298
  194MPD1    H2 2956   1.523   2.336  16.923 -0.0911 -0.3163 -0.2044
  194MPD1    H3 2957   1.635   2.234  17.110  2.1952  0.7278 -0.0242
  194MPD1     N 2958   1.878   1.953  16.854 -0.2670 -0.1574 -0.1264
  194MPD1    H5 2959   1.928   1.930  16.940  0.5346 -0.7321 -0.7390
  194MPD1    N1 2960   1.582   2.295  16.648 -0.0305 -0.0173 -0.0051
  194MPD1    H6 2961   1.656   2.310  16.579  1.0367 -2.4812  0.6016
  194MPD1    H7 2962   1.542   2.387  16.663  1.1039  0.1062  2.1935
  195MPD1     C 2963   4.478   3.753  17.046  0.0905  0.3335 -0.5313
  195MPD1    C1 2964   4.402   3.731  17.159  0.5013 -0.1997  1.3604
  195MPD1    C2 2965   4.420   3.615  17.233 -0.4254 -0.1520 -0.6578
  195MPD1    C3 2966   4.493   3.511  17.180 -0.5583 -0.0587 -0.3863
  195MPD1    C4 2967   4.561   3.530  17.064 -0.0568 -0.1362  0.0477
  195MPD1    C5 2968   4.557   3.650  17.009 -0.9680 -0.3523  0.3703
  195MPD1     H 2969   4.366   3.605  17.326  0.1039 -2.2411 -0.5681
  195MPD1    H1 2970   4.609   3.443  17.019 -2.2518 -0.8990 -0.8258
  195MPD1    H2 2971   4.485   3.849  16.996 -0.2077  0.0655 -1.0838
  195MPD1    H3 2972   4.626   3.665  16.926 -1.0045 -1.1111  0.2057
  195MPD1     N 2973   4.497   3.377  17.227 -0.1051  0.0090 -0.7298
  195MPD1    H5 2974   4.554   3.314  17.171  0.8089 -1.3101  1.7177
  195MPD1    N1 2975   4.335   3.842  17.220 -0.2491  0.3311 -0.4598
  195MPD1    H6 2976   4.262   3.825  17.289  0.9337  2.6555  1.3700
  195MPD1    H7 2977   4.301   3.898  17.142  1.1755  1.8334  0.0124
  196MPD1     C 2978   3.444   3.415   0.900 -0.1541 -0.4207 -0.0320
  196MPD1    C1 2979   3.440   3.536   0.978  0.4467 -0.5528 -0.6679
  196MPD1    C2 2980   3.554   3.614   0.982 -0.2950  0.7976 -0.4024
  196MPD1    C3 2981   3.668   3.585   0.899 -0.2895  0.0442 -0.0515
  196MPD1    C4 2982   3.654   3.484   0.807 -0.7918  0.1262  0.1454
  196MPD1    C5 2983   3.552   3.402   0.806 -0.2165 -1.2498 -0.3052
  196MPD1     H 2984   3.550   3.697   1.052  0.2739 -2.3307  3.2592
  196MPD1    H1 2985   3.741   3.471   0.744 -0.1180  1.1590  0.8529
  196MPD1    H2 2986   3.377   3.333   0.921 -1.0219 -0.0848 -1.5075
  196MPD1    H3 2987   3.552   3.319   0.736 -2.5060 -1.4322 -0.1056
  196MPD1     N 2988   3.800   3.646   0.918  0.2072  0.0362 -0.1333
  196MPD1    H5 2989   3.868   3.611   0.851 -0.9425 -2.6164  0.0938
  196MPD1    N1 2990   3.345   3.535   1.080  0.1826 -0.6293  0.0032
  196MPD1    H6 2991   3.316   3.624   1.119 -2.5281 -0.9234 -1.3214
  196MPD1    H7 2992   3.260   3.480   1.066  0.2402 -0.8474  0.5003
  197MPD1     C 2993   2.366   0.056  17.297  0.3800 -0.6311 -0.3866
  197MPD1    C1 2994   2.466   0.051  17.394 -0.6806 -0.3728  0.0854
  197MPD1    C2 2995   2.570   0.141  17.378 -0.6342  0.0079 -0.1378
  197MPD1    C3 2996   2.583   0.220  17.268 -0.0173  0.1405 -0.5302
  197MPD1    C4 2997   2.476   0.226  17.184  0.2516 -0.2738  0.7475
  197MPD1    C5 2998   2.368   0.138  17.193  0.1105  0.0083  0.2591
  197MPD1     H 2999   2.646   0.136  17.455 -0.0679 -0.1321 -0.7016
  197MPD1    H1 3000   2.483   0.301  17.106  1.4736  0.3080  1.4204
  197MPD1    H2 3001   2.284   4.714  17.306 -0.5760  0.3406 -1.5817
  197MPD1    H3 3002   2.285   0.155  17.126 -0.6928  0.7985  1.4495
  197MPD1     N 3003   2.692   0.307  17.243 -0.8554  0.5801  0.0390
  197MPD1    H5 3004   2.702   0.357  17.156 -0.5621  0.2027 -0.1479
  197MPD1    N1 3005   2.475   4.679  17.494  0.1535  0.2082  0.3651
  197MPD1    H6 3006   2.384   4.660  17.535  1.1741  0.3660  2.6872
  197MPD1    H7 3007   2.533   4.714  17.570  0.6732 -1.2391  0.6423
  198MPD1     C 3008   0.436   3.503  15.356  0.5391 -0.2618 -0.3057
  198MPD1    C1 3009   0.572   3.541  15.337 -0.5008 -0.6893  0.1065
  198MPD1    C2 3010   0.618   3.639  15.412 -0.2768 -0.4778 -0.6288
  198MPD1    C3 3011   0.555   3.679  15.532  0.0850 -0.7380 -0.0774
  198MPD1    C4 3012   0.430   3.631  15.561 -0.6139  0.5991 -0.3905
  198MPD1    C5 3013   0.361   3.557  15.463 -1.2416 -0.1025 -0.5392
  198MPD1     H 3014   0.717   3.682  15.402 -0.5821  0.6635  1.1063
  198MPD1    H1 3015   0.376   3.658  15.652  2.5866  3.4119  0.6411
  198MPD1    H2 3016   0.383   3.438  15.288 -0.1308 -0.1814  0.1397
  198MPD1    H3 3017   0.260   3.520  15.481 -1.6590  1.4310  0.3458
  198MPD1     N 3018   0.625   3.768  15.618  0.0777 -0.5437 -0.3490
  198MPD1    H5 3019   0.715   3.803  15.586 -0.0469 -1.5971 -1.8680
  198MPD1    N1 3020   0.640   3.493  15.226 -0.1024 -0.3214  0.4149
  198MPD1    H6 3021   0.741   3.500  15.236 -0.1903  0.6114  0.6524
  198MPD1    H7 3022   0.621   3.398  15.194 -2.8621 -0.1034  1.4322
  199MPD1     C 3023   2.804   4.105   9.502 -0.2208  0.0867 -0.1941
  199MPD1    C1 3024   2.731   4.127   9.621  0.1909 -0.6689  0.3476
  199MPD1    C2 3025   2.677   4.250   9.638 -0.7059  0.2514  0.8937
  199MPD1    C3 3026   2.682   4.356   9.550 -0.2977 -0.1532  0.1292
  199MPD1    C4 3027   2.760   4.334   9.437  0.1320  0.3696 -0.0415
  199MPD1    C5 3028   2.819   4.210   9.414 -0.5234  0.4627 -0.1920
  199MPD1     H 3029   2.631   4.273   9.734  0.1073  1.8954  0.9065
  199MPD1    H1 3030   2.760   4.413   9.363  0.2252 -1.1941 -1.7186
  199MPD1    H2 3031   2.836   4.006   9.474 -0.4674 -0.4481  1.3754
  199MPD1    H3 3032   2.866   4.185   9.320  1.0842  0.2944  0.6550
  199MPD1     N 3033   2.627   4.487   9.571  0.1619  0.1920  0.0199
  199MPD1    H5 3034   2.645   4.556   9.499 -1.7935  2.7881  2.0158
  199MPD1    N1 3035   2.671   4.018   9.681  0.2482  0.4635  0.4336
  199MPD1    H6 3036   2.658   4.042   9.779 -4.0428  2.9312 -0.7078
  199MPD1    H7 3037   2.731   3.937   9.685 -0.2711  0.0343 -0.5414
  200MPD1     C 3038   1.099   0.256  14.777  0.1664  0.2773 -0.2276
  200MPD1    C1 3039   1.118   0.137  14.716  0.3371  0.4269  0.7369
  200MPD1    C2 3040   1.239   0.117  14.649 -0.3911  0.1122 -1.1613
  200MPD1    C3 3041   1.348   0.194  14.666  0.0602 -0.4642  0.5070
  200MPD1    C4 3042   1.331   0.305  14.740  0.4305 -0.0216 -0.1387
  200MPD1    C5 3043   1.208   0.341  14.788  0.5910 -0.0346 -0.2458
  200MPD1     H 3044   1.260   0.025  14.595 -0.8316 -0.0681 -1.0224
  200MPD1    H1 3045   1.418   0.364  14.767  0.3297 -0.3345  0.8782
  200MPD1    H2 3046   1.016   0.285  14.840  1.8842  0.7561  1.8244
  200MPD1    H3 3047   1.201   0.437  14.837  0.7756 -0.2753  0.2542
  200MPD1     N 3048   1.462   0.151  14.600 -0.1263  1.2718 -0.4460
  200MPD1    H5 3049   1.454   0.074  14.534 -0.3909  0.3083  0.7040
  200MPD1    N1 3050   1.014   0.050  14.730 -0.0599  0.3719  0.2894
  200MPD1    H6 3051   1.045   4.684  14.754  0.9386  0.4066 -0.8404
  200MPD1    H7 3052   0.957   0.081  14.809 -0.0123 -0.8058  0.7818
  201MPD1     C 3053   3.079   4.188  13.078 -0.5179 -0.3396 -0.2003
  201MPD1    C1 3054   3.163   4.164  12.973 -0.2226  0.6203  0.6551
  201MPD1    C2 3055   3.232   4.044  12.981  0.5365 -0.4931  0.4837
  201MPD1    C3 3056   3.220   3.961  13.093 -0.1168  0.7102  0.9479
  201MPD1    C4 3057   3.160   4.009  13.206  0.5576 -0.1450  0.2294
  201MPD1    C5 3058   3.094   4.128  13.202  0.2305  0.6752 -0.1905
  201MPD1     H 3059   3.280   4.011  12.890 -1.1727 -1.8485  0.0763
  201MPD1    H1 3060   3.162   3.962  13.303 -0.8087 -0.5729  0.0583
  201MPD1    H2 3061   3.012   4.274  13.076 -0.1337  0.0621  3.9973
  201MPD1    H3 3062   3.029   4.153  13.285  1.8135 -0.4663  1.4065
  201MPD1     N 3063   3.291   3.838  13.086 -0.3135  0.4865 -0.5881
  201MPD1    H5 3064   3.322   3.807  12.995  1.1590  2.8655 -0.9142
  201MPD1    N1 3065   3.162   4.238  12.857 -0.1242  0.4170 -0.2886
  201MPD1    H6 3066   3.148   4.339  12.865 -2.3984  0.1710 -1.2578
  201MPD1    H7 3067   3.244   4.229  12.797 -1.8857 -1.4343 -2.3990
  202MPD1     C 3068   2.924   2.847   9.112  0.6952  0.7339 -0.1490
  202MPD1    C1 3069   2.813   2.890   9.187  0.0967  0.0158  0.0814
  202MPD1    C2 3070   2.840   2.986   9.279 -0.1496 -0.0679  0.1152
  202MPD1    C3 3071   2.970   2.997   9.333  0.7673  0.4071 -0.4850
  202MPD1    C4 3072   3.072   2.935   9.273  0.0214 -0.3775  0.4375
  202MPD1    C5 3073   3.051   2.869   9.162 -0.1847  0.2787  0.3839
  202MPD1     H 3074   2.757   3.030   9.335 -0.2412 -0.8438  0.5952
  202MPD1    H1 3075   3.177   2.943   9.300 -0.2976  2.1458  0.9438
  202MPD1    H2 3076   2.903   2.799   9.018 -3.1786 -1.6448  1.9047
  202MPD1    H3 3077   3.128   2.827   9.099 -1.5399 -0.2388 -0.9391
  202MPD1     N 3078   2.999   3.074   9.451  0.0532 -0.8662 -0.2531
  202MPD1    H5 3079   3.095   3.080   9.483 -0.9598 -2.7528  3.0899
  202MPD1    N1 3080   2.699   2.893   9.115  0.2738 -0.2008  0.2882
  202MPD1    H6 3081   2.619   2.926   9.169 -0.0004 -0.2835 -0.0688
  202MPD1    H7 3082   2.676   2.806   9.067  0.6802  0.0190 -0.3064
  203MPD1     C 3083   2.657   0.282  12.659  0.0476  0.9879 -0.8335
  203MPD1    C1 3084   2.672   0.210  12.541  0.1403  0.1896 -0.1267
  203MPD1    C2 3085   2.628   0.079  12.545  0.0400 -0.7402 -0.6469
  203MPD1    C3 3086   2.597   0.016  12.661  0.2500  0.4790 -0.4773
  203MPD1    C4 3087   2.601   0.080  12.780 -0.3017  0.3940 -0.4574
  203MPD1    C5 3088   2.638   0.216  12.772  0.2409  0.6927  0.4269
  203MPD1     H 3089   2.618   0.026  12.451 -0.0485  0.3993 -1.2844
  203MPD1    H1 3090   2.580   0.047  12.881 -1.4667  0.0468 -0.8200
  203MPD1    H2 3091   2.673   0.388  12.671  2.9850  0.5611 -0.9465
  203MPD1    H3 3092   2.663   0.271  12.862  0.9030  1.3631 -0.1568
  203MPD1     N 3093   2.550   4.616  12.643 -0.0579 -0.2741  0.5536
  203MPD1    H5 3094   2.568   4.572  12.554  0.0023 -1.1447  0.9898
  203MPD1    N1 3095   2.697   0.278  12.427 -0.0961 -0.1611 -0.5265
  203MPD1    H6 3096   2.754   0.361  12.442  1.8702 -1.6017 -0.0324
  203MPD1    H7 3097   2.742   0.220  12.356 -0.3565 -0.1002 -0.7436
  204MPD1     C 3098   1.560   0.975  17.496 -0.6574 -0.8782  0.6377
  204MPD1    C1 3099   1.483   0.964  17.381  0.1453  1.2536  0.7401
  204MPD1    C2 3100   1.484   0.842  17.316 -0.4099 -0.2314 -0.1459
  204MPD1    C3 3101   1.588   0.748  17.344 -0.0835  0.1912  0.4960
  204MPD1    C4 3102   1.657   0.767  17.459 -0.1776 -0.1131  0.7089
  204MPD1    C5 3103   1.656   0.883  17.529 -0.3536  0.0739 -0.9207
  204MPD1     H 3104   1.418   0.826  17.232  0.9244  2.5193 -1.7035
  204MPD1    H1 3105   1.727   0.694  17.498  0.9213  0.1218 -0.8624
  204MPD1    H2 3106   1.562   1.071  17.547  0.8393 -0.5316 -0.0636
  204MPD1    H3 3107   1.713   0.899  17.620  0.6174 -2.0092 -1.1640
  204MPD1     N 3108   1.607   0.643  17.256  0.0652 -0.1087 -0.4017
  204MPD1    H5 3109   1.540   0.642  17.180 -1.5257  0.1018  1.0008
  204MPD1    N1 3110   1.383   1.059  17.364  0.0059 -0.2797  0.0466
  204MPD1    H6 3111   1.400   1.157  17.384 -0.4420 -0.1760 -0.0771
  204MPD1    H7 3112   1.372   1.063  17.263 -1.5876  0.8860  0.2622
  205MPD1     C 3113   2.632   4.101  16.639 -0.3364 -0.0222 -0.3072
  205MPD1    C1 3114   2.646   4.018  16.743  0.2727  1.1749 -0.1827
  205MPD1    C2 3115   2.570   4.046  16.850 -0.4756  0.1865 -0.3294
  205MPD1    C3 3116   2.462   4.129  16.847  0.8830 -0.4695 -0.0325
  205MPD1    C4 3117   2.444   4.210  16.733 -0.6591 -0.8184  0.6497
  205MPD1    C5 3118   2.527   4.188  16.624  0.4497  0.5002  0.2328
  205MPD1     H 3119   2.598   3.990  16.939  2.4412  1.6496 -0.3448
  205MPD1    H1 3120   2.370   4.289  16.727 -0.6993 -1.1893 -3.6221
  205MPD1    H2 3121   2.698   4.097  16.554  0.7446 -1.0086  0.5876
  205MPD1    H3 3122   2.514   4.257  16.542  0.7362 -0.5741 -0.7169
  205MPD1     N 3123   2.374   4.149  16.954  0.2887 -0.5829  0.0657
  205MPD1    H5 3124   2.290   4.203  16.937 -0.6587 -1.6616  1.2481
  205MPD1    N1 3125   2.753   3.934  16.746  0.9239  0.3180 -0.2604
  205MPD1    H6 3126   2.779   3.895  16.656 -0.2008  0.6220 -0.7183
  205MPD1    H7 3127   2.731   3.849  16.798 -2.0894  0.1042 -1.9173
  206MPD1     C 3128   2.142   2.296  16.965 -0.7842 -0.5490  0.2124
  206MPD1    C1 3129   2.199   2.190  16.895  0.3564  0.0529 -0.4124
  206MPD1    C2 3130   2.156   2.152  16.767  0.8523  0.0298 -0.3340
  206MPD1    C3 3131   2.080   2.237  16.697  0.4229 -0.4198  0.7796
  206MPD1    C4 3132   2.023   2.346  16.763  0.5919  0.0112  0.0440
  206MPD1    C5 3133   2.049   2.372  16.895  0.3532  0.5157 -0.0406
  206MPD1     H 3134   2.191   2.055  16.733 -1.1299 -0.2739 -1.4657
  206MPD1    H1 3135   1.952   2.414  16.718 -1.1812 -3.2204 -2.0747
  206MPD1    H2 3136   2.173   2.328  17.064 -0.4851  1.9481 -0.6781
  206MPD1    H3 3137   2.011   2.468  16.928 -0.4782 -0.6511  2.3776
  206MPD1     N 3138   2.037   2.229  16.563  0.6473  0.0183  0.2340
  206MPD1    H5 3139   1.978   2.301  16.524  1.0297  1.2409  1.9289
  206MPD1    N1 3140   2.307   2.115  16.952 -0.1500  0.0933  0.0461
  206MPD1    H6 3141   2.330   2.024  16.913  0.5348 -0.3105  1.3741
  206MPD1    H7 3142   2.325   2.123  17.052 -2.1097  0.5460  0.3562
  207MPD1     C 3143   3.736   0.062  10.977 -0.4251  0.2103 -0.2137
  207MPD1    C1 3144   3.663   0.075  10.866 -0.4844 -0.7560  0.6624
  207MPD1    C2 3145   3.710   0.160  10.770 -0.0786 -0.4043  0.2430
  207MPD1    C3 3146   3.816   0.238  10.787 -0.7589  0.7748 -0.1671
  207MPD1    C4 3147   3.887   0.236  10.905  0.2738  0.8027 -0.4501
  207MPD1    C5 3148   3.842   0.142  10.999  0.2313 -0.3613 -0.4109
  207MPD1     H 3149   3.657   0.155  10.676 -0.0085 -1.9987  0.2910
  207MPD1    H1 3150   3.981   0.286  10.924  1.0987 -0.4774 -1.1110
  207MPD1    H2 3151   3.705   4.710  11.045  2.4245 -2.1640 -1.6858
  207MPD1    H3 3152   3.890   0.129  11.096  1.9301 -3.0478 -1.6222
  207MPD1     N 3153   3.866   0.312  10.675 -0.1694  0.0098  0.0243
  207MPD1    H5 3154   3.806   0.309  10.593 -2.0120 -0.2366  1.3830
  207MPD1    N1 3155   3.545   0.000  10.844 -0.2410  0.6079  0.1434
  207MPD1    H6 3156   3.479   0.001  10.921 -2.5732 -1.5683 -1.8297
  207MPD1    H7 3157   3.494   0.026  10.760 -1.6346 -3.6394 -0.3070
  208MPD1     C 3158   3.309   3.583  17.459 -0.7360  0.0174  0.6612
  208MPD1    C1 3159   3.178   3.627  17.427  0.6415  0.9175  0.0113
  208MPD1    C2 3160   3.086   3.627  17.528 -0.5259  0.0979  0.8557
  208MPD1    C3 3161   3.116   3.587  17.656  0.4541 -0.3957 -0.3901
  208MPD1    C4 3162   3.244   3.552  17.683  0.2273 -0.0259  0.5627
  208MPD1    C5 3163   3.342   3.564  17.586 -0.2072  0.2126  0.1309
  208MPD1     H 3164   2.983   3.649  17.505  0.0691 -0.8647 -2.8169
  208MPD1    H1 3165   3.278   3.504   0.064 -1.2832 -2.2256 -0.0463
  208MPD1    H2 3166   3.385   3.580  17.382 -0.7458  0.3473  0.6371
  208MPD1    H3 3167   3.442   3.530  17.609 -0.5333 -0.3801  0.6907
  208MPD1     N 3168   3.015   3.580   0.040  0.1462  0.5101 -0.0958
  208MPD1    H5 3169   2.929   3.625   0.011 -0.8807 -1.3292  0.1016
  208MPD1    N1 3170   3.138   3.664  17.294  0.2289  0.1949  0.2845
  208MPD1    H6 3171   3.209   3.721  17.250  3.0528 -3.5351 -0.0348
  208MPD1    H7 3172   3.050   3.714  17.290 -1.8184 -3.4807 -0.7127
  209MPD1     C 3173   3.438   4.215   9.285  0.0145 -0.3155  0.0850
  209MPD1    C1 3174   3.475   4.336   9.338  0.3925 -0.7403 -0.0852
  209MPD1    C2 3175   3.587   4.334   9.418 -0.2422 -0.5397  0.0468
  209MPD1    C3 3176   3.643   4.219   9.467  0.3208 -0.1231  0.3482
  209MPD1    C4 3177   3.600   4.094   9.416 -0.1876  0.1126  0.7562
  209MPD1    C5 3178   3.493   4.096   9.330 -0.4779  0.2750 -0.3648
  209MPD1     H 3179   3.636   4.422   9.458 -0.4614 -0.0927 -0.6709
  209MPD1    H1 3180   3.649   4.002   9.446  0.7912  1.0431  2.0470
  209MPD1    H2 3181   3.369   4.212   9.201  2.1399  0.1821 -1.6925
  209MPD1    H3 3182   3.451   4.001   9.297 -0.1170  1.0592 -3.0643
  209MPD1     N 3183   3.749   4.224   9.564 -0.3650  0.7554  0.1014
  209MPD1    H5 3184   3.786   4.318   9.580 -0.3963  1.1599 -2.1920
  209MPD1    N1 3185   3.432   4.453   9.280  0.0436 -0.0702 -0.2107
  209MPD1    H6 3186   3.425   4.528   9.349  3.4295 -0.3381  0.4048
  209MPD1    H7 3187   3.334   4.433   9.263  0.2535  0.2068 -1.7772
  210MPD1     C 3188   4.414   3.812  10.358  0.3981 -0.6410 -0.9935
  210MPD1    C1 3189   4.367   3.934  10.397  0.4217  0.1870  0.0956
  210MPD1    C2 3190   4.299   4.011  10.302 -0.6369 -0.5517  0.3506
  210MPD1    C3 3191   4.281   3.968  10.169 -0.4526  0.3955  0.3447
  210MPD1    C4 3192   4.334   3.847  10.130  0.6623 -0.3935  0.0930
  210MPD1    C5 3193   4.397   3.770  10.228 -0.1622  0.6818 -0.5322
  210MPD1     H 3194   4.234   4.092  10.332 -1.1133 -0.2369 -1.4897
  210MPD1    H1 3195   4.315   3.807  10.032  1.1103  1.2947 -0.6929
  210MPD1    H2 3196   4.453   3.742  10.431 -0.4921 -0.0828  0.0184
  210MPD1    H3 3197   4.438   3.673  10.201 -2.2638  0.2943 -2.3209
  210MPD1     N 3198   4.201   4.050  10.087  0.2000  0.1720 -0.4370
  210MPD1    H5 3199   4.169   4.136  10.131  0.4294  0.0616 -0.0522
  210MPD1    N1 3200   4.379   3.983  10.530 -0.3179  0.0830 -0.2210
  210MPD1    H6 3201   4.467   3.962  10.577 -0.4380  1.9044  0.8311
  210MPD1    H7 3202   4.355   4.082  10.535  1.0052  0.3689  0.6408
  211MPD1     C 3203   2.821   3.608  17.003 -0.0210  0.0438 -0.4287
  211MPD1    C1 3204   2.703   3.641  17.064 -0.3488 -0.7732  0.3738
  211MPD1    C2 3205   2.586   3.646  16.993 -0.3779  1.4492  0.0626
  211MPD1    C3 3206   2.597   3.657  16.856 -0.7235 -0.5430  0.1602
  211MPD1    C4 3207   2.715   3.628  16.792 -0.5331  0.7385 -0.2165
  211MPD1    C5 3208   2.830   3.611  16.872  0.5352  0.5811 -0.5197
  211MPD1     H 3209   2.492   3.650  17.047 -1.0882 -0.2287 -1.0493
  211MPD1    H1 3210   2.724   3.628  16.684 -2.1086 -0.1381 -0.3378
  211MPD1    H2 3211   2.912   3.596  17.061 -0.6371 -0.4303  0.4407
  211MPD1    H3 3212   2.923   3.606  16.816 -0.2690  2.3193 -2.0215
  211MPD1     N 3213   2.480   3.703  16.796 -0.6123 -0.3526  0.1574
  211MPD1    H5 3214   2.400   3.691  16.857  0.7881 -1.1479  1.8281
  211MPD1    N1 3215   2.710   3.622  17.205 -0.5897 -0.4238  0.0857
  211MPD1    H6 3216   2.792   3.674  17.237 -0.6189 -0.1908 -0.2117
  211MPD1    H7 3217   2.633   3.668  17.253  1.0769  1.8778  0.5223
  212MPD1     C 3218   1.703   1.462  17.515  0.3180  0.4888 -0.1592
  212MPD1    C1 3219   1.682   1.351  17.439 -0.4919 -0.5285 -0.3987
  212MPD1    C2 3220   1.576   1.342  17.347 -0.3105 -0.5178  0.6704
  212MPD1    C3 3221   1.501   1.453  17.330 -0.3756 -0.4357 -0.2020
  212MPD1    C4 3222   1.515   1.562  17.407 -0.0657  0.1879 -0.0647
  212MPD1    C5 3223   1.614   1.568  17.506 -0.3777  0.4713 -0.2457
  212MPD1     H 3224   1.560   1.252  17.289 -1.6089  0.4181 -0.4144
  212MPD1    H1 3225   1.451   1.648  17.394 -0.4736 -0.1558 -0.3292
  212MPD1    H2 3226   1.784   1.463  17.587  1.1678 -1.3868 -1.0888
  212MPD1    H3 3227   1.623   1.649  17.577  0.7609  1.3921 -1.4223
  212MPD1     N 3228   1.398   1.462  17.229  0.1133 -0.2006 -0.3991
  212MPD1    H5 3229   1.351   1.551  17.219  0.3552  0.0973  1.0324
  212MPD1    N1 3230   1.768   1.244  17.465 -0.4638 -0.4995  0.0825
  212MPD1    H6 3231   1.794   1.197  17.379 -0.7144 -2.5289  1.1138
  212MPD1    H7 3232   1.851   1.271  17.517 -1.5185  0.9199  1.0185
  213MPD1     C 3233   4.337   3.704  16.043 -0.2602  0.3026  0.3088
  213MPD1    C1 3234   4.289   3.750  15.926 -0.0439 -0.0627 -0.3579
  213MPD1    C2 3235   4.291   3.649  15.825 -0.4064  0.1392 -0.2181
  213MPD1    C3 3236   4.287   3.517  15.856  0.5130  0.5799 -0.2459
  213MPD1    C4 3237   4.301   3.481  15.985  0.3228 -0.7049  0.0390
  213MPD1    C5 3238   4.330   3.575  16.074 -0.6422 -0.1221  0.5848
  213MPD1     H 3239   4.284   3.686  15.724 -1.1744 -2.0768 -0.9842
  213MPD1    H1 3240   4.311   3.379  16.022  0.0773 -1.4637 -2.0075
  213MPD1    H2 3241   4.359   3.766  16.129 -0.4048 -0.1954  0.7078
  213MPD1    H3 3242   4.372   3.540  16.167 -0.6718 -3.1727 -0.5474
  213MPD1     N 3243   4.288   3.422  15.751 -0.1896 -0.0447  0.1483
  213MPD1    H5 3244   4.290   3.448  15.653  0.3472  2.4346  0.8214
  213MPD1    N1 3245   4.323   3.884  15.900  0.5667  0.7212 -0.3152
  213MPD1    H6 3246   4.276   3.937  15.974  2.4304 -0.9996  2.1074
  213MPD1    H7 3247   4.280   3.920  15.815  2.2818 -0.2942 -1.6107
  214MPD1     C 3248   3.600   2.715  15.715 -0.0840 -0.9302  0.0093
  214MPD1    C1 3249   3.643   2.736  15.587  0.6281 -0.2604  0.6580
  214MPD1    C2 3250   3.766   2.798  15.558  0.3745 -0.1309 -0.6314
  214MPD1    C3 3251   3.839   2.851  15.662 -0.1709  0.0055  0.7653
  214MPD1    C4 3252   3.787   2.835  15.790  0.0507 -0.6491  0.6872
  214MPD1    C5 3253   3.674   2.767  15.818 -0.6822  0.2587 -0.3114
  214MPD1     H 3254   3.797   2.816  15.455 -1.7472  1.5801 -0.9876
  214MPD1    H1 3255   3.833   2.877  15.879  0.5986 -0.0542  0.1280
  214MPD1    H2 3256   3.515   2.651  15.731  0.0019 -0.8658  0.7268
  214MPD1    H3 3257   3.646   2.744  15.920 -0.9002  2.0641  0.0410
  214MPD1     N 3258   3.952   2.932  15.650  0.3655 -0.2100  0.3011
  214MPD1    H5 3259   3.999   2.969  15.731 -1.4468  1.6599  0.5179
  214MPD1    N1 3260   3.573   2.665  15.486  0.6273  0.0271  0.3579
  214MPD1    H6 3261   3.474   2.662  15.509  0.1856  1.7239 -1.3545
  214MPD1    H7 3262   3.578   2.714  15.397 -2.0081 -2.2350 -1.0055
  215MPD1     C 3263   4.501   3.258  10.021  0.3511  0.1352 -0.3176
  215MPD1    C1 3264   4.564   3.319  10.132 -0.1123 -0.3909 -0.1186
  215MPD1    C2 3265   4.483   3.404  10.214 -0.7716  0.6128  0.5035
  215MPD1    C3 3266   4.347   3.405  10.203  0.4651 -0.1047  0.2163
  215MPD1    C4 3267   4.297   3.334  10.100 -0.2397  0.1342 -0.3248
  215MPD1    C5 3268   4.371   3.266  10.003 -0.1838 -0.1978  0.5796
  215MPD1     H 3269   4.523   3.436  10.309  0.7514 -2.8143  0.9996
  215MPD1    H1 3270   4.190   3.324  10.088  0.1012 -2.7534 -0.9904
  215MPD1    H2 3271   4.566   3.203   9.954 -1.9624 -0.5463 -1.9795
  215MPD1    H3 3272   4.338   3.218   9.912  1.7667  1.2860 -0.8984
  215MPD1     N 3273   4.269   3.483  10.293 -0.0041 -0.1415  0.5468
  215MPD1    H5 3274   4.310   3.525  10.376 -1.7634 -0.5995  1.6529
  215MPD1    N1 3275   4.706   3.318  10.145 -0.3439 -0.1122  0.2553
  215MPD1    H6 3276   0.018   3.314  10.239 -0.5811  0.7180  0.3949
  215MPD1    H7 3277   0.025   3.239  10.101 -2.2439 -1.3766  0.5140
  216MPD1     C 3278   1.610   2.045  17.377  0.0877 -0.6777  0.2229
  216MPD1    C1 3279   1.725   1.973  17.414 -0.1228 -0.1956 -0.1315
  216MPD1    C2 3280   1.752   1.858  17.344 -0.3102 -0.5638  0.4427
  216MPD1    C3 3281   1.667   1.811  17.242 -0.0818  0.1657  0.5273
  216MPD1    C4 3282   1.542   1.872  17.226 -0.0535  0.0458 -0.4910
  216MPD1    C5 3283   1.526   1.999  17.281 -0.2776  0.6545 -0.1895
  216MPD1     H 3284   1.838   1.799  17.374 -0.3910 -0.0599  1.6600
  216MPD1    H1 3285   1.472   1.845  17.147 -1.1962  0.3711  0.3985
  216MPD1    H2 3286   1.589   2.142  17.421  0.8187  0.6750 -2.4551
  216MPD1    H3 3287   1.438   2.057  17.255 -2.7069 -1.4040  3.3725
  216MPD1     N 3288   1.713   1.701  17.167 -0.0905  0.3847  0.8974
  216MPD1    H5 3289   1.800   1.660  17.201 -0.0650  0.0736  0.4461
  216MPD1    N1 3290   1.815   2.034  17.501  0.3312 -0.7441 -0.4889
  216MPD1    H6 3291   1.885   1.967  17.531 -0.3026 -1.1093  0.1614
  216MPD1    H7 3292   1.775   2.085  17.580 -0.3405  0.4782 -1.6240
  217MPD1     C 3293   1.406   2.685   8.447 -0.4509  0.1238  0.3483
  217MPD1    C1 3294   1.425   2.608   8.555  0.3694  0.3121 -0.2516
  217MPD1    C2 3295   1.520   2.646   8.647  0.0973  0.0928 -0.3875
  217MPD1    C3 3296   1.607   2.752   8.615  0.2459  0.2491 -0.1933
  217MPD1    C4 3297   1.583   2.825   8.502  0.4380 -0.4095 -0.5395
  217MPD1    C5 3298   1.479   2.793   8.421 -0.2608  0.3377  0.8311
  217MPD1     H 3299   1.523   2.604   8.747  1.4535  0.8065 -0.1322
  217MPD1    H1 3300   1.634   2.915   8.470 -0.6864 -0.6704 -3.0550
  217MPD1    H2 3301   1.321   2.657   8.386 -0.3521  0.9950 -0.1871
  217MPD1    H3 3302   1.459   2.848   8.329  1.2199 -0.8797 -0.2401
  217MPD1     N 3303   1.703   2.810   8.710  0.3939  0.9416  0.0829
  217MPD1    H5 3304   1.748   2.893   8.674  1.4308  0.4230  0.1635
  217MPD1    N1 3305   1.321   2.515   8.577 -0.0662  0.2468  0.1708
  217MPD1    H6 3306   1.269   2.492   8.492 -1.7076  0.9625  0.9878
  217MPD1    H7 3307   1.359   2.427   8.611 -0.5731 -0.6574 -1.5772
  218MPD1     C 3308   3.525   4.590  13.242  0.3146 -0.3272  0.1492
  218MPD1    C1 3309   3.615   4.650  13.156 -0.8330 -0.0982 -0.1917
  218MPD1    C2 3310   3.721   4.575  13.117  0.2300 -0.1073  0.3334
  218MPD1    C3 3311   3.742   4.440  13.142  0.2229  0.3091 -0.0367
  218MPD1    C4 3312   3.655   4.384  13.231 -0.5104 -0.2369  0.2783
  218MPD1    C5 3313   3.552   4.461  13.277 -0.3376  0.0557 -0.0929
  218MPD1     H 3314   3.797   4.622  13.056  0.3683 -2.9718 -1.6642
  218MPD1    H1 3315   3.666   4.280  13.263  0.7093 -0.2480 -0.1893
  218MPD1    H2 3316   3.455   4.651  13.298  1.8544 -1.8268  3.7035
  218MPD1    H3 3317   3.494   4.412  13.354  0.2880  0.0989  0.3996
  218MPD1     N 3318   3.849   4.378  13.087 -0.0665 -0.7239  0.3525
  218MPD1    H5 3319   3.908   4.438  13.031 -1.4396  0.8991  0.6424
  218MPD1    N1 3320   3.606   0.059  13.132 -0.0682 -0.0821  0.2680
  218MPD1    H6 3321   3.660   0.083  13.049  2.4024 -0.2398  1.8253
  218MPD1    H7 3322   3.510   0.074  13.100 -1.3281 -5.4708  1.6092
  219MPD1     C 3323   4.416   4.431  12.273 -0.0032  0.0161 -0.0124
  219MPD1    C1 3324   4.341   4.519  12.356 -0.2694 -0.2645 -0.4808
  219MPD1    C2 3325   4.296   4.473  12.483 -0.2302 -0.2451 -0.3620
  219MPD1    C3 3326   4.315   4.346  12.523 -0.2818  0.3109 -0.5497
  219MPD1    C4 3327   4.386   4.267  12.435  0.6904 -0.3811  0.7449
  219MPD1    C5 3328   4.438   4.305  12.317 -0.1404 -0.9628 -0.3780
  219MPD1     H 3329   4.243   4.533  12.556  1.2778  1.1346 -0.4142
  219MPD1    H1 3330   4.429   4.171  12.461 -4.2304 -2.1369  2.3379
  219MPD1    H2 3331   4.449   4.455  12.172 -0.0372  2.4055  0.5392
  219MPD1    H3 3332   4.501   4.244  12.254  0.1957 -0.9670 -0.0338
  219MPD1     N 3333   4.277   4.287  12.645 -0.1358 -0.2244  0.0727
  219MPD1    H5 3334   4.317   4.195  12.660 -0.3224 -0.1729  0.8986
  219MPD1    N1 3335   4.294   4.640  12.308  0.6634 -0.0066 -0.1848
  219MPD1    H6 3336   4.355   4.669  12.232 -0.4127  1.1059 -0.6190
  219MPD1    H7 3337   4.279   4.707  12.383  0.9964  0.0056 -0.1269
  220MPD1     C 3338   3.007   4.447   9.078 -0.4438 -0.2663 -0.1182
  220MPD1    C1 3339   3.017   4.314   9.091  0.3230 -0.3737 -0.4851
  220MPD1    C2 3340   3.076   4.270   9.206 -0.4493  0.2859  0.0084
  220MPD1    C3 3341   3.110   4.349   9.309  0.8001  0.1711  0.3742
  220MPD1    C4 3342   3.100   4.485   9.296 -1.0122 -0.0454  0.2652
  220MPD1    C5 3343   3.046   4.530   9.177 -0.5899  0.0713 -0.5173
  220MPD1     H 3344   3.100   4.164   9.211 -0.5308  0.1865 -1.5071
  220MPD1    H1 3345   3.130   4.554   9.373 -0.0157 -2.8175  2.3532
  220MPD1    H2 3346   2.967   4.481   8.983  0.5292  2.2690  0.3574
  220MPD1    H3 3347   3.029   4.637   9.167  0.2136  0.1901 -0.6123
  220MPD1     N 3348   3.153   4.279   9.424 -0.2252  0.1636  0.1660
  220MPD1    H5 3349   3.148   4.177   9.419  1.2539  0.1198 -0.4960
  220MPD1    N1 3350   2.989   4.222   8.983  0.2630  0.0436 -0.5020
  220MPD1    H6 3351   2.958   4.136   9.026 -3.0218  1.3110 -0.3253
  220MPD1    H7 3352   2.919   4.248   8.915  1.2395 -0.4654 -1.6966
  221MPD1     C 3353   2.519   2.984  17.464 -1.3482 -0.2782 -1.1274
  221MPD1    C1 3354   2.612   2.955  17.367 -0.3848 -0.3541 -0.1505
  221MPD1    C2 3355   2.580   2.975  17.231  0.6120 -0.5503 -0.7281
  221MPD1    C3 3356   2.460   3.039  17.196  0.8683 -0.3550 -0.3343
  221MPD1    C4 3357   2.377   3.075  17.298 -0.1072 -0.0486  0.3572
  221MPD1    C5 3358   2.402   3.042  17.427 -0.4902  0.0029 -0.2424
  221MPD1     H 3359   2.644   2.942  17.149  0.8748  0.7253 -1.0481
  221MPD1    H1 3360   2.278   3.117  17.284  0.6054  0.1129 -4.1470
  221MPD1    H2 3361   2.541   2.956  17.566  1.2657 -0.6253 -1.7864
  221MPD1    H3 3362   2.335   3.058  17.510 -1.2505  1.9899 -1.2543
  221MPD1     N 3363   2.411   3.056  17.066  0.0189  0.2571 -0.1552
  221MPD1    H5 3364   2.311   3.069  17.062 -0.0139 -0.1192 -0.6680
  221MPD1    N1 3365   2.731   2.887  17.405 -0.4920 -0.6715 -0.5023
  221MPD1    H6 3366   2.809   2.899  17.342  1.3144  0.4374  1.9364
  221MPD1    H7 3367   2.759   2.910  17.500  0.4873 -1.9541 -0.4737
  222MPD1     C 3368   0.849   1.434  17.079  0.2073  0.0275 -0.2144
  222MPD1    C1 3369   0.804   1.560  17.055 -0.3829 -0.4368  0.1874
  222MPD1    C2 3370   0.809   1.646  17.166 -0.3176  0.3864 -0.6671
  222MPD1    C3 3371   0.851   1.613  17.290 -0.3834 -0.0729 -0.8904
  222MPD1    C4 3372   0.905   1.484  17.312 -0.2710 -0.0397 -0.5007
  222MPD1    C5 3373   0.900   1.399  17.203  0.7111 -0.3912 -0.1348
  222MPD1     H 3374   0.776   1.748  17.148  1.2680  0.8784 -0.7636
  222MPD1    H1 3375   0.945   1.448  17.406 -0.7868 -1.4484 -0.8215
  222MPD1    H2 3376   0.862   1.358  17.003 -1.9933 -0.9411  0.3820
  222MPD1    H3 3377   0.936   1.299  17.225 -2.1288 -0.8718  2.2182
  222MPD1     N 3378   0.851   1.709  17.396 -0.3039 -0.4645  0.4432
  222MPD1    H5 3379   0.863   1.670  17.489 -2.3582  0.2576  1.0020
  222MPD1    N1 3380   0.752   1.607  16.937 -0.0749  0.5938 -0.8046
  222MPD1    H6 3381   0.758   1.541  16.860 -1.8340 -3.1989  2.3259
  222MPD1    H7 3382   0.789   1.698  16.911 -2.7520  1.3439 -1.9406
  223MPD1     C 3383   0.541   1.717   0.617  0.0513  1.3111  0.4214
  223MPD1    C1 3384   0.556   1.848   0.599  0.2416 -0.4519 -0.0487
  223MPD1    C2 3385   0.590   1.898   0.472  0.7557 -0.7588  0.5857
  223MPD1    C3 3386   0.626   1.812   0.369  0.7192  0.0131 -0.3345
  223MPD1    C4 3387   0.602   1.680   0.386  0.5961  0.0033 -0.3847
  223MPD1    C5 3388   0.553   1.632   0.507  0.5822  0.1493  0.4894
  223MPD1     H 3389   0.608   2.004   0.463  0.1964 -0.5677  1.6816
  223MPD1    H1 3390   0.620   1.608   0.308 -1.6824 -0.7706 -0.1882
  223MPD1    H2 3391   0.511   1.672   0.711  2.0185 -2.8454 -0.9508
  223MPD1    H3 3392   0.546   1.527   0.531 -0.0401 -0.0012 -0.3427
  223MPD1     N 3393   0.680   1.876   0.255 -0.3426 -0.8931  0.5210
  223MPD1    H5 3394   0.674   1.977   0.253  0.6525 -0.8398  0.4107
  223MPD1    N1 3395   0.527   1.935   0.712 -0.3771  0.9460  0.0844
  223MPD1    H6 3396   0.548   1.879   0.794 -0.4879  3.3207  1.7313
  223MPD1    H7 3397   0.588   2.016   0.717 -3.6456  3.3015  1.8066
  224MPD1     C 3398   2.353   4.170   9.180  0.3574 -0.1933 -0.4883
  224MPD1    C1 3399   2.299   4.043   9.173 -0.2506  0.1479  0.0299
  224MPD1    C2 3400   2.349   3.945   9.260 -0.6981 -0.0982  0.4598
  224MPD1    C3 3401   2.432   3.978   9.359  0.1394 -0.6760 -0.1763
  224MPD1    C4 3402   2.480   4.107   9.368 -0.8023 -0.2716 -0.9394
  224MPD1    C5 3403   2.440   4.202   9.278 -0.3026  0.8406  0.9985
  224MPD1     H 3404   2.311   3.844   9.250 -0.1018 -0.5020  2.3136
  224MPD1    H1 3405   2.547   4.130   9.449  0.7012 -2.1271 -1.6568
  224MPD1    H2 3406   2.331   4.247   9.107 -1.9931  0.3845  0.8114
  224MPD1    H3 3407   2.476   4.304   9.287  1.4570  0.3491 -0.3743
  224MPD1     N 3408   2.460   3.892   9.469 -0.8554  0.2481  0.0654
  224MPD1    H5 3409   2.512   3.931   9.547 -0.3880 -0.6552  0.2092
  224MPD1    N1 3410   2.226   4.006   9.054  0.2742 -0.0474 -0.2267
  224MPD1    H6 3411   2.175   4.088   9.023 -2.1474 -0.1925  3.3352
  224MPD1    H7 3412   2.176   3.917   9.047 -0.5207  0.3248  0.7140
  225MPD1     C 3413   3.123   0.013  13.269 -0.6649 -0.2903 -0.5532
  225MPD1    C1 3414   3.150   4.625  13.193  0.4131  0.4839 -0.0603
  225MPD1    C2 3415   3.226   4.629  13.082  0.0848  0.4092  0.1784
  225MPD1    C3 3416   3.276   0.023  13.037 -0.4594 -0.0153  0.3663
  225MPD1    C4 3417   3.242   0.135  13.109 -0.2973 -0.0251  0.2289
  225MPD1    C5 3418   3.168   0.130  13.220  0.3008 -0.5737  0.5964
  225MPD1     H 3419   3.255   4.534  13.040  1.1443  0.8135 -0.0076
  225MPD1    H1 3420   3.259   0.234  13.068 -0.5365 -0.4493 -0.8925
  225MPD1    H2 3421   3.052   0.008  13.350 -1.1356 -1.3675 -1.0369
  225MPD1    H3 3422   3.136   0.219  13.273 -1.4754  0.2688 -1.8791
  225MPD1     N 3423   3.335   0.037  12.911  0.2487 -0.0548  0.0350
  225MPD1    H5 3424   3.337   0.128  12.867  0.7149 -0.2447 -0.3336
  225MPD1    N1 3425   3.083   4.507  13.213 -0.0627 -0.8003 -0.3653
  225MPD1    H6 3426   3.054   4.495  13.309 -0.1201 -1.1842 -0.4321
  225MPD1    H7 3427   3.139   4.427  13.184  1.4884  0.0360  0.2964
  226MPD1     C 3428   3.458   1.160   9.608  0.6722  0.4612  0.7651
  226MPD1    C1 3429   3.504   1.058   9.694 -0.2036 -0.1114  0.0846
  226MPD1    C2 3430   3.411   0.978   9.754  0.2403  0.1080  0.1623
  226MPD1    C3 3431   3.274   0.981   9.723  0.3652 -0.6955  0.4614
  226MPD1    C4 3432   3.233   1.087   9.646 -0.0352 -0.6415 -0.9266
  226MPD1    C5 3433   3.323   1.174   9.597 -0.0383 -0.2812  0.1071
  226MPD1     H 3434   3.445   0.904   9.826  0.9621  0.6634  0.3879
  226MPD1    H1 3435   3.129   1.104   9.623 -0.3942 -0.2795  0.9963
  226MPD1    H2 3436   3.514   1.233   9.551  1.3459 -1.4296 -1.0035
  226MPD1    H3 3437   3.286   1.263   9.548  0.8879 -1.3768 -2.5386
  226MPD1     N 3438   3.188   0.878   9.768  0.0571  0.0004 -0.3593
  226MPD1    H5 3439   3.229   0.807   9.827 -1.5637  1.0222  2.0018
  226MPD1    N1 3440   3.638   1.018   9.699  0.1613 -0.1595  0.2543
  226MPD1    H6 3441   3.660   0.959   9.779  0.5233 -0.2470  0.0896
  226MPD1    H7 3442   3.692   1.104   9.700  2.7982 -1.7911 -0.8981
  227MPD1     C 3443   2.637   0.408  10.514 -0.9086  0.2118  0.1591
  227MPD1    C1 3444   2.680   0.302  10.435  0.6195 -0.0868 -0.3199
  227MPD1    C2 3445   2.748   0.321  10.317  0.1356  0.2263 -0.3214
  227MPD1    C3 3446   2.773   0.452  10.271  0.3995 -0.2682  0.2623
  227MPD1    C4 3447   2.724   0.554  10.347 -0.5816 -0.2833  0.0334
  227MPD1    C5 3448   2.663   0.529  10.464 -0.3063  0.0893  0.0578
  227MPD1     H 3449   2.794   0.237  10.267  1.2488 -1.2546  3.2256
  227MPD1    H1 3450   2.733   0.658  10.315  4.8853 -0.4463  1.0460
  227MPD1    H2 3451   2.597   0.391  10.614  0.2454  2.8555  1.0623
  227MPD1    H3 3452   2.643   0.611  10.532 -0.0516 -0.0116  0.2574
  227MPD1     N 3453   2.856   0.472  10.154  0.4709 -0.1591 -0.1131
  227MPD1    H5 3454   2.870   0.388  10.099  2.0289  0.1600 -0.2078
  227MPD1    N1 3455   2.669   0.172  10.497 -0.7534  0.3742 -0.1898
  227MPD1    H6 3456   2.594   0.168  10.565 -0.2660  1.8597  0.4289
  227MPD1    H7 3457   2.667   0.089  10.438  1.3549  3.0953 -4.0931
  228MPD1     C 3458   4.717   2.616  12.036 -0.1495 -0.1110 -0.1094
  228MPD1    C1 3459   4.583   2.624  12.068  0.3794  0.1285  0.0877
  228MPD1    C2 3460   4.553   2.663  12.197  1.0284 -0.3876  0.1635
  228MPD1    C3 3461   4.645   2.707  12.288 -0.5090  1.1712 -0.0023
  228MPD1    C4 3462   0.049   2.711  12.250 -0.7426  0.4452 -1.8418
  228MPD1    C5 3463   0.080   2.650  12.132 -0.1737  0.6114  0.2503
  228MPD1     H 3464   4.452   2.673  12.235  0.6980 -1.7347 -0.3708
  228MPD1    H1 3465   0.139   2.744  12.301  1.5644 -3.1153 -3.5255
  228MPD1    H2 3466   0.020   2.576  11.940 -1.8065 -0.4054 -0.5104
  228MPD1    H3 3467   0.185   2.634  12.107 -0.4069  3.2658 -2.3619
  228MPD1     N 3468   4.604   2.758  12.415 -0.1048  0.2764 -0.6320
  228MPD1    H5 3469   4.507   2.756  12.445 -0.1923  0.1501 -0.9212
  228MPD1    N1 3470   4.481   2.563  11.997 -0.0793 -0.1761  0.8644
  228MPD1    H6 3471   4.390   2.606  12.014  0.7007  0.7786  2.5138
  228MPD1    H7 3472   4.499   2.572  11.897  0.0971  1.6435  1.0615
  229MPD1     C 3473   0.499   1.575  14.577 -0.2476  0.6928 -0.0221
  229MPD1    C1 3474   0.509   1.570  14.714  0.1619 -0.5455 -0.2558
  229MPD1    C2 3475   0.582   1.463  14.772 -0.1343  0.4612  0.2660
  229MPD1    C3 3476   0.665   1.381  14.691 -1.0245 -0.4246  0.3281
  229MPD1    C4 3477   0.658   1.398  14.555 -0.1364 -0.4004 -0.7883
  229MPD1    C5 3478   0.567   1.484  14.503  0.9315 -0.5142 -0.1364
  229MPD1     H 3479   0.572   1.459  14.879  0.1341  0.1486  0.2787
  229MPD1    H1 3480   0.713   1.330  14.491  2.5588  1.0593 -0.0253
  229MPD1    H2 3481   0.431   1.644  14.529 -0.8050  0.9151  1.1000
  229MPD1    H3 3482   0.544   1.488  14.397  3.9751  2.2378 -0.7077
  229MPD1     N 3483   0.749   1.282  14.747  0.0638 -0.7320  0.4732
  229MPD1    H5 3484   0.811   1.233  14.682 -2.3193  1.0044 -3.0821
  229MPD1    N1 3485   0.430   1.651  14.803 -0.3976 -0.0149  0.2148
  229MPD1    H6 3486   0.423   1.745  14.765 -1.6511  0.2447  1.1108
  229MPD1    H7 3487   0.469   1.656  14.897  0.6096  2.5711 -0.3376
  230MPD1     C 3488   1.034   0.645  15.608 -0.1978  0.7510  0.6263
  230MPD1    C1 3489   1.127   0.631  15.510 -0.5473 -0.1867 -0.0333
  230MPD1    C2 3490   1.119   0.709  15.397 -0.1803 -0.5558  0.0907
  230MPD1    C3 3491   1.023   0.807  15.389  0.8940 -0.8320  0.0113
  230MPD1    C4 3492   0.940   0.832  15.496  0.1585  0.0037 -0.2845
  230MPD1    C5 3493   0.944   0.748  15.602 -0.0134  0.0701  0.6220
  230MPD1     H 3494   1.189   0.686  15.318 -1.1217 -0.8992 -0.6366
  230MPD1    H1 3495   0.850   0.893  15.494 -1.0787 -1.8020  0.4948
  230MPD1    H2 3496   1.031   0.581  15.695 -2.1800  1.4345  1.0632
  230MPD1    H3 3497   0.861   0.763  15.670  0.2169 -1.6318  1.2982
  230MPD1     N 3498   1.002   0.853  15.263 -0.1905 -0.1254  0.2812
  230MPD1    H5 3499   1.070   0.822  15.194  0.5515 -1.9951  1.8706
  230MPD1    N1 3500   1.220   0.525  15.521  0.2524  0.0942 -0.0225
  230MPD1    H6 3501   1.243   0.517  15.620 -0.5938 -0.8377  0.0920
  230MPD1    H7 3502   1.302   0.537  15.461 -0.4717  2.8452 -0.4660
  231MPD1     C 3503   3.609   3.146  15.383  0.4795 -0.3028  0.4277
  231MPD1    C1 3504   3.588   3.179  15.246  0.7184  0.3233  0.2349
  231MPD1    C2 3505   3.689   3.242  15.180  0.9038 -0.0112 -0.0738
  231MPD1    C3 3506   3.811   3.278  15.234 -0.0807  0.3239 -0.0085
  231MPD1    C4 3507   3.832   3.251  15.365  0.2559 -0.0837  0.3770
  231MPD1    C5 3508   3.733   3.177  15.431  0.6099  0.0471  0.3535
  231MPD1     H 3509   3.675   3.275  15.077 -1.5141  0.2880  0.3339
  231MPD1    H1 3510   3.917   3.274  15.429  0.7873  1.6800 -0.9777
  231MPD1    H2 3511   3.532   3.107  15.450  1.1064 -0.0711  1.2905
  231MPD1    H3 3512   3.759   3.160  15.535 -0.7536  1.1435  0.8742
  231MPD1     N 3513   3.908   3.337  15.150  0.2273  0.2615  0.0672
  231MPD1    H5 3514   3.890   3.342  15.051  0.9100 -0.7412 -0.1078
  231MPD1    N1 3515   3.465   3.151  15.194 -0.0556 -0.2431  0.0217
  231MPD1    H6 3516   3.471   3.123  15.096  1.2267  1.1087 -0.2913
  231MPD1    H7 3517   3.410   3.081  15.244  0.3862  1.0384  2.2647
  232MPD1     C 3518   1.229   4.688  17.546  0.4634 -0.4135 -0.1396
  232MPD1    C1 3519   1.152   4.685  17.663 -0.4595 -0.1880 -0.0970
  232MPD1    C2 3520   1.036   0.033  17.655  0.9069 -0.1773 -0.2854
  232MPD1    C3 3521   1.000   0.111  17.540 -0.7923 -1.2947 -0.0449
  232MPD1    C4 3522   1.076   0.093  17.419  0.3939 -0.0545  0.1952
  232MPD1    C5 3523   1.188   0.015  17.428  0.0734  0.2451 -0.1782
  232MPD1     H 3524   0.977   0.056   0.032  0.7936  0.1006 -0.4353
  232MPD1    H1 3525   1.047   0.138  17.325 -0.7375 -2.4198 -0.5795
  232MPD1    H2 3526   1.326   4.639  17.547  0.0657 -1.2566 -1.8214
  232MPD1    H3 3527   1.243   4.720  17.337 -0.4831  0.8206 -0.6557
  232MPD1     N 3528   0.882   0.190  17.551 -0.1792  0.0831  0.7805
  232MPD1    H5 3529   0.838   0.195  17.643  2.6149 -0.2073  2.1463
  232MPD1    N1 3530   1.179   4.601   0.066 -0.1314  0.3531 -0.4695
  232MPD1    H6 3531   1.276   4.571   0.072 -0.3840 -0.5222 -0.6338
  232MPD1    H7 3532   1.152   4.646   0.153 -0.4451  0.5933 -0.6949
  233MPD1     C 3533   1.577   4.589   1.119  0.1183  0.6371 -0.1660
  233MPD1    C1 3534   1.534   4.485   1.201  0.2202 -0.0918  0.3641
  233MPD1    C2 3535   1.625   4.389   1.238  0.4260 -0.0983 -0.4395
  233MPD1    C3 3536   1.758   4.396   1.192  0.5241  0.0622  0.6950
  233MPD1    C4 3537   1.801   4.504   1.119 -0.5639  0.0278  0.0045
  233MPD1    C5 3538   1.712   4.597   1.088 -0.3802  0.3442  0.2514
  233MPD1     H 3539   1.581   4.306   1.293  2.1298 -1.0188 -0.4937
  233MPD1    H1 3540   1.902   4.524   1.085  0.0369 -3.0695 -0.0504
  233MPD1    H2 3541   1.510   4.667   1.085  0.7767  0.6708 -1.4043
  233MPD1    H3 3542   1.736   4.688   1.034 -2.6215  0.9384  0.2536
  233MPD1     N 3543   1.852   4.302   1.241  0.8977  0.2109 -0.2024
  233MPD1    H5 3544   1.947   4.320   1.211  0.3757  1.7265 -0.9493
  233MPD1    N1 3545   1.397   4.482   1.247 -0.8469 -0.2319  0.7034
  233MPD1    H6 3546   1.399   4.424   1.331  0.4290 -0.5211  0.4711
  233MPD1    H7 3547   1.361   4.574   1.272 -3.7279 -0.1184 -3.9165
  234MPD1     C 3548   3.286   2.148   9.425 -0.5252 -0.5536 -0.0567
  234MPD1    C1 3549   3.154   2.128   9.404  0.8480 -0.4047 -0.3930
  234MPD1    C2 3550   3.069   2.235   9.431 -0.7084  0.1187 -0.3818
  234MPD1    C3 3551   3.112   2.352   9.481  0.5162  0.2357 -0.1243
  234MPD1    C4 3552   3.246   2.368   9.503  0.7711 -0.1186  0.5153
  234MPD1    C5 3553   3.332   2.262   9.482 -0.3528  0.4031  0.2942
  234MPD1     H 3554   2.964   2.225   9.404 -0.2251 -0.2312 -2.1684
  234MPD1    H1 3555   3.287   2.464   9.530  1.3733 -0.3204  0.3220
  234MPD1    H2 3556   3.369   2.081   9.407 -1.7499 -2.1718  0.2814
  234MPD1    H3 3557   3.440   2.259   9.492 -0.1482 -1.1392 -2.3006
  234MPD1     N 3558   3.032   2.467   9.476  0.3518 -0.1216 -0.3395
  234MPD1    H5 3559   2.940   2.453   9.437 -0.2771  1.7645  0.4178
  234MPD1    N1 3560   3.103   2.021   9.328  0.6457 -0.2395 -0.2387
  234MPD1    H6 3561   3.003   2.008   9.345  0.7394 -1.6293 -0.7128
  234MPD1    H7 3562   3.159   1.941   9.357 -0.2770 -0.7891  0.0542
  235MPD1     C 3563   4.169   0.021   9.302  0.1681  0.0099  0.8213
  235MPD1    C1 3564   4.122   0.135   9.366  0.5590  0.2216 -0.0373
  235MPD1    C2 3565   4.203   0.194   9.460 -0.3904  0.0446 -0.4669
  235MPD1    C3 3566   4.330   0.142   9.491 -0.1892  0.2825 -0.0876
  235MPD1    C4 3567   4.375   0.038   9.412  0.0443  0.0273  1.0287
  235MPD1    C5 3568   4.297   4.707   9.317  0.4301  0.2693  0.0849
  235MPD1     H 3569   4.163   0.278   9.516  1.7792  0.1254  0.9820
  235MPD1    H1 3570   4.468   4.714   9.429 -0.4723 -0.1518  3.3260
  235MPD1    H2 3571   4.117   4.702   9.218 -4.2071  3.4280  1.6576
  235MPD1    H3 3572   4.321   4.619   9.259  1.7792 -0.0080  1.0454
  235MPD1     N 3573   4.413   0.213   9.586  0.6198 -0.3302 -0.3944
  235MPD1    H5 3574   4.376   0.298   9.628  0.7106  0.6940 -2.3763
  235MPD1    N1 3575   3.986   0.172   9.352  0.1398 -0.2491  0.5870
  235MPD1    H6 3576   3.943   0.158   9.261 -0.2866  2.1254  0.4071
  235MPD1    H7 3577   3.963   0.267   9.381 -1.1023 -0.1074 -0.8511
  236MPD1     C 3578   3.602   1.561   9.602  0.3147  0.2447  0.1193
  236MPD1    C1 3579   3.715   1.640   9.602  0.2880 -1.2402 -0.1922
  236MPD1    C2 3580   3.813   1.619   9.696 -0.2614  0.0259 -0.1231
  236MPD1    C3 3581   3.791   1.548   9.810 -0.1430  0.1622 -0.2078
  236MPD1    C4 3582   3.671   1.480   9.822  0.6157  0.3097 -0.4324
  236MPD1    C5 3583   3.580   1.486   9.715 -0.7444  0.4052  0.2766
  236MPD1     H 3584   3.907   1.671   9.685  0.7403 -1.6596  0.5677
  236MPD1    H1 3585   3.657   1.411   9.904  0.0908  0.7990 -0.1150
  236MPD1    H2 3586   3.520   1.562   9.531  0.3794  0.1943  0.0435
  236MPD1    H3 3587   3.480   1.444   9.722 -0.9892  0.8784 -0.4079
  236MPD1     N 3588   3.885   1.538   9.913  0.7894  0.4927 -0.3763
  236MPD1    H5 3589   3.866   1.478   9.993 -2.5554  0.2912 -1.3237
  236MPD1    N1 3590   3.739   1.712   9.486 -0.1696  0.2917  0.0006
  236MPD1    H6 3591   3.652   1.741   9.443  0.8741 -2.2238 -3.8312
  236MPD1    H7 3592   3.799   1.790   9.511 -0.2751  0.5711 -0.6171
  237MPD1     C 3593   4.129   0.255  15.227 -0.3210 -0.5763 -0.6694
  237MPD1    C1 3594   4.022   0.281  15.143  0.0688 -0.0320 -0.5951
  237MPD1    C2 3595   3.957   0.169  15.087  0.1994 -0.4625  0.2001
  237MPD1    C3 3596   3.979   0.040  15.131 -0.8190  0.0356 -0.1032
  237MPD1    C4 3597   4.081   0.018  15.214 -0.3303  0.5298 -0.2266
  237MPD1    C5 3598   4.159   0.125  15.262  0.2115  0.8527  0.3216
  237MPD1     H 3599   3.892   0.189  15.003  1.7533 -1.5201 -1.2502
  237MPD1    H1 3600   4.103   4.647  15.254  1.8473  0.4724 -1.5616
  237MPD1    H2 3601   4.191   0.337  15.262 -0.6760  0.1154 -1.6498
  237MPD1    H3 3602   4.243   0.106  15.327 -0.2418 -1.2606  0.2815
  237MPD1     N 3603   3.900   4.663  15.087 -0.2442  0.4892  0.7521
  237MPD1    H5 3604   3.907   4.579  15.142  0.0427  1.4449  2.1733
  237MPD1    N1 3605   4.002   0.410  15.097 -0.4826  0.0765  0.1005
  237MPD1    H6 3606   4.024   0.483  15.164  1.4503 -0.4949  0.0732
  237MPD1    H7 3607   3.910   0.430  15.057 -0.5743 -1.3941 -0.4258
  238MPD1     C 3608   1.241   2.765  14.915 -0.2294  0.4210  0.1563
  238MPD1    C1 3609   1.143   2.675  14.889 -0.9908 -0.3698 -0.1998
  238MPD1    C2 3610   1.010   2.725  14.899  0.2357  0.4887 -0.3991
  238MPD1    C3 3611   0.985   2.861  14.896 -0.2629  0.1351 -0.0090
  238MPD1    C4 3612   1.090   2.947  14.917 -0.1829  0.7286 -0.0470
  238MPD1    C5 3613   1.217   2.898  14.917  0.1013  0.1654 -0.4644
  238MPD1     H 3614   0.928   2.665  14.864  0.7569 -0.4642  0.0197
  238MPD1    H1 3615   1.080   3.054  14.934 -3.7977  0.0493  2.1402
  238MPD1    H2 3616   1.340   2.720  14.920 -0.8296 -0.6112  2.8796
  238MPD1    H3 3617   1.301   2.963  14.937  0.2389 -0.6511  1.5894
  238MPD1     N 3618   0.860   2.921  14.879  0.4675 -0.4759 -0.3367
  238MPD1    H5 3619   0.856   3.017  14.848  2.8983 -0.7413 -1.4544
  238MPD1    N1 3620   1.177   2.538  14.891 -0.1183 -0.1309  0.7801
  238MPD1    H6 3621   1.109   2.474  14.849 -0.5176  0.4087  0.5988
  238MPD1    H7 3622   1.265   2.519  14.845 -1.0415 -1.6677 -0.3311
  239MPD1     C 3623   1.233   4.308  15.266  0.2793 -0.3058  0.4550
  239MPD1    C1 3624   1.247   4.426  15.189 -0.1948 -0.2044 -0.4403
  239MPD1    C2 3625   1.202   4.421  15.058  0.6225  0.2180 -0.2641
  239MPD1    C3 3626   1.162   4.298  15.007 -0.4043  0.3188  0.2871
  239MPD1    C4 3627   1.152   4.183  15.087 -0.3533  0.0383  0.3773
  239MPD1    C5 3628   1.193   4.189  15.216  0.0026 -0.0422 -0.5169
  239MPD1     H 3629   1.190   4.510  14.998  0.0629  0.2672 -0.0757
  239MPD1    H1 3630   1.121   4.086  15.049  0.9511  0.3602 -1.5113
  239MPD1    H2 3631   1.280   4.307  15.364  3.7005 -0.8081 -1.1611
  239MPD1    H3 3632   1.190   4.100  15.277 -0.4195  0.8702  0.8045
  239MPD1     N 3633   1.099   4.283  14.887  0.6577  0.0426  0.2193
  239MPD1    H5 3634   1.071   4.191  14.855  3.1420 -0.1036 -1.5539
  239MPD1    N1 3635   1.298   4.552  15.232 -0.2436 -0.4228 -0.1556
  239MPD1    H6 3636   1.326   4.618  15.161  2.9807  1.4448  2.8397
  239MPD1    H7 3637   1.373   4.537  15.300 -0.8297  2.0595  1.0051
  240MPD1     C 3638   0.413   4.054  13.837  1.1568  0.2305 -0.3346
  240MPD1    C1 3639   0.354   3.932  13.825  0.4741 -0.2505  0.1925
  240MPD1    C2 3640   0.339   3.854  13.940 -0.2994 -0.4809  0.8335
  240MPD1    C3 3641   0.394   3.890  14.064  0.6931 -0.0933 -0.2558
  240MPD1    C4 3642   0.469   4.006  14.066 -0.0056  0.5065  0.3396
  240MPD1    C5 3643   0.476   4.090  13.954 -0.4820  0.3678 -0.0284
  240MPD1     H 3644   0.290   3.758  13.937  0.7460 -1.0608  2.1702
  240MPD1    H1 3645   0.520   4.041  14.155  0.4135  1.2973 -0.2161
  240MPD1    H2 3646   0.413   4.132  13.762  1.6225  0.4571 -0.0980
  240MPD1    H3 3647   0.530   4.184  13.949  2.3156 -1.1222  1.7391
  240MPD1     N 3648   0.366   3.818  14.183  0.1128 -0.1991 -0.3285
  240MPD1    H5 3649   0.305   3.738  14.176 -0.6772  0.7693 -4.4417
  240MPD1    N1 3650   0.272   3.907  13.711 -0.1377  0.2347 -0.3561
  240MPD1    H6 3651   0.307   3.952  13.626  1.7274  0.1388  0.3671
  240MPD1    H7 3652   0.250   3.809  13.697  2.8884 -0.1860 -2.1754
  241MPD1     C 3653   0.657   3.211  15.031  0.1958 -0.0629 -0.2887
  241MPD1    C1 3654   0.741   3.285  14.952 -0.1423  0.1713 -0.4607
  241MPD1    C2 3655   0.680   3.375  14.864  0.3990 -0.5001  0.3621
  241MPD1    C3 3656   0.540   3.400  14.866 -0.1465  1.0399  0.8252
  241MPD1    C4 3657   0.462   3.342  14.960 -0.3370  0.5675  0.6216
  241MPD1    C5 3658   0.521   3.242  15.034 -0.2448 -0.3566 -0.2146
  241MPD1     H 3659   0.738   3.442  14.802 -0.7648 -0.5356 -0.7630
  241MPD1    H1 3660   0.356   3.366  14.966 -0.2892  0.4884  1.7423
  241MPD1    H2 3661   0.688   3.121  15.083  2.9611  1.8268  1.2892
  241MPD1    H3 3662   0.455   3.177  15.091  1.4163 -0.0622  2.0275
  241MPD1     N 3663   0.483   3.494  14.776 -0.2982 -0.2809  0.1242
  241MPD1    H5 3664   0.382   3.495  14.786 -0.1722  1.9024  1.1852
  241MPD1    N1 3665   0.867   3.232  14.941  0.3044 -0.4105 -0.1760
  241MPD1    H6 3666   0.912   3.197  15.026  0.1224 -0.5137 -0.1213
  241MPD1    H7 3667   0.932   3.293  14.892 -0.1679 -0.8580 -1.3528
  242MPD1     C 3668   0.233   2.344  15.773  0.5454 -0.1800 -0.1499
  242MPD1    C1 3669   0.165   2.371  15.659 -0.3394 -0.1575 -0.3787
  242MPD1    C2 3670   0.212   2.312  15.544  0.2751  0.0716  0.4093
  242MPD1    C3 3671   0.338   2.248  15.539  0.5372  0.7842 -0.0196
  242MPD1    C4 3672   0.412   2.232  15.649  0.3580  0.4781  0.3154
  242MPD1    C5 3673   0.366   2.293  15.760 -0.1038  0.6895 -0.6005
  242MPD1     H 3674   0.144   2.313  15.459 -0.1355  0.2737  0.7426
  242MPD1    H1 3675   0.511   2.187  15.651  1.1120  2.1557  0.5278
  242MPD1    H2 3676   0.198   2.377  15.870 -0.7138 -0.8283 -0.3852
  242MPD1    H3 3677   0.426   2.298  15.851 -1.2582 -1.3729  0.2746
  242MPD1     N 3678   0.393   2.202  15.413  0.1004  0.8022  0.2809
  242MPD1    H5 3679   0.492   2.179  15.413 -0.0383  0.1988  1.8576
  242MPD1    N1 3680   0.030   2.404  15.656 -0.5487 -0.1646  0.0874
  242MPD1    H6 3681   4.726   2.468  15.728  0.0928 -0.9041  1.0270
  242MPD1    H7 3682   0.005   2.450  15.569 -0.7253 -0.9253 -0.2671
  243MPD1     C 3683   0.880   1.023  17.233 -0.2792  0.3829  0.5583
  243MPD1    C1 3684   0.819   0.901  17.259  0.0172 -0.5471  0.0573
  243MPD1    C2 3685   0.893   0.789  17.221 -0.4898 -0.5072  0.5261
  243MPD1    C3 3686   1.004   0.798  17.150  0.8544  0.3785  0.2256
  243MPD1    C4 3687   1.060   0.927  17.116 -0.6132 -0.2433  0.2997
  243MPD1    C5 3688   0.997   1.039  17.162 -0.3007  0.9249 -0.0218
  243MPD1     H 3689   0.849   0.694  17.248  1.4723 -1.7619 -0.6977
  243MPD1    H1 3690   1.149   0.934  17.055 -1.2616 -0.2720 -0.6542
  243MPD1    H2 3691   0.827   1.114  17.259 -0.2633  0.1962  1.2314
  243MPD1    H3 3692   1.045   1.136  17.151 -0.3574  0.7783 -1.6952
  243MPD1     N 3693   1.065   0.682  17.108  0.1288  0.2164 -0.1446
  243MPD1    H5 3694   1.014   0.601  17.141 -2.9773  1.4770 -1.9160
  243MPD1    N1 3695   0.699   0.884  17.328  0.0148 -0.0422  0.0127
  243MPD1    H6 3696   0.665   0.789  17.317 -1.1784  0.5040 -1.1041
  243MPD1    H7 3697   0.634   0.949  17.283 -0.7632 -0.5040  0.4878
  244MPD1     C 3698   1.437   0.271   0.029  0.1975  0.3527  0.1583
  244MPD1    C1 3699   1.372   0.395   0.005 -0.2357  0.1297  0.6812
  244MPD1    C2 3700   1.341   0.415  17.582  0.2243 -0.2799  0.3258
  244MPD1    C3 3701   1.378   0.331  17.484 -0.4448 -0.6038 -0.0844
  244MPD1    C4 3702   1.442   0.211  17.516  0.3545 -0.0860 -0.2129
  244MPD1    C5 3703   1.471   0.185  17.642 -0.0495 -0.4737  0.3687
  244MPD1     H 3704   1.278   0.499  17.555 -4.0289 -3.7971 -0.5494
  244MPD1    H1 3705   1.461   0.139  17.438  1.0545  0.9756 -1.0187
  244MPD1    H2 3706   1.450   0.235   0.130 -0.2512  1.7552  0.7172
  244MPD1    H3 3707   1.497   0.085  17.676  1.3425 -0.4119 -0.5078
  244MPD1     N 3708   1.340   0.363  17.355 -0.3806  0.9061 -0.0653
  244MPD1    H5 3709   1.305   0.458  17.345  1.1402  1.4318 -0.3741
  244MPD1    N1 3710   1.315   0.476   0.104 -0.0451  0.1040 -0.6468
  244MPD1    H6 3711   1.292   0.573   0.083 -2.9109  0.1974  2.9093
  244MPD1    H7 3712   1.353   0.473   0.199  0.3334 -2.2442 -0.8564
  245MPD1     C 3713   2.996   0.878  13.309  0.1591  0.1777 -0.5575
  245MPD1    C1 3714   3.129   0.856  13.345 -0.7078  0.0749 -0.6804
  245MPD1    C2 3715   3.212   0.965  13.366 -0.4807 -0.6361  0.4863
  245MPD1    C3 3716   3.166   1.091  13.342 -0.3771 -0.0266 -0.2367
  245MPD1    C4 3717   3.042   1.113  13.296 -0.1403  0.7465  0.1008
  245MPD1    C5 3718   2.958   1.007  13.282 -0.1160  0.3430  0.3425
  245MPD1     H 3719   3.316   0.947  13.390 -0.1374  1.3083  0.4427
  245MPD1    H1 3720   3.013   1.214  13.272  0.0003  1.3594  2.4944
  245MPD1    H2 3721   2.925   0.796  13.307 -1.0576  1.1971  0.9092
  245MPD1    H3 3722   2.856   1.015  13.245  0.2559  0.2206 -0.7270
  245MPD1     N 3723   3.269   1.197  13.356 -0.8579 -0.7272  0.4832
  245MPD1    H5 3724   3.365   1.166  13.366 -0.6914  0.4153  2.4425
  245MPD1    N1 3725   3.165   0.731  13.378  0.5068  0.9757 -0.8200
  245MPD1    H6 3726   3.115   0.657  13.328 -0.0899  1.3034 -0.7065
  245MPD1    H7 3727   3.264   0.710  13.392 -0.3299 -2.9302 -0.6540
  246MPD1     C 3728   1.096   2.474   9.655  0.0679 -0.3652 -0.0567
  246MPD1    C1 3729   1.044   2.603   9.634  0.8280 -0.0003  0.4198
  246MPD1    C2 3730   0.913   2.617   9.606 -0.5651  0.1087 -0.5180
  246MPD1    C3 3731   0.825   2.508   9.588  0.4086 -0.2167 -0.0948
  246MPD1    C4 3732   0.872   2.382   9.609 -0.1180  0.2679 -0.7329
  246MPD1    C5 3733   1.006   2.371   9.646 -0.6469  0.4328 -1.0152
  246MPD1     H 3734   0.867   2.715   9.603 -0.0919  0.2924 -1.8220
  246MPD1    H1 3735   0.807   2.296   9.614  1.4532 -0.7130  2.6015
  246MPD1    H2 3736   1.202   2.463   9.676 -0.4045 -1.7308  1.5794
  246MPD1    H3 3737   1.034   2.267   9.637 -1.3418  0.2723 -1.3393
  246MPD1     N 3738   0.695   2.538   9.545 -0.1779  0.5623  0.1331
  246MPD1    H5 3739   0.679   2.638   9.532 -0.8070  0.1354 -2.2352
  246MPD1    N1 3740   1.120   2.708   9.691  0.5380  0.1965  0.3607
  246MPD1    H6 3741   1.087   2.801   9.667  1.2779  0.5428  0.6955
  246MPD1    H7 3742   1.220   2.689   9.690  0.2971 -1.0886  0.3520
  247MPD1     C 3743   2.876   0.074  16.445  0.4405  0.4539  0.9161
  247MPD1    C1 3744   2.835   0.142  16.556 -0.0926 -0.0508 -0.1979
  247MPD1    C2 3745   2.844   0.275  16.563  0.1024 -0.0108 -0.3975
  247MPD1    C3 3746   2.875   0.351  16.454 -0.2122  0.1009 -0.5386
  247MPD1    C4 3747   2.914   0.289  16.344  0.1384  0.6720  0.5314
  247MPD1    C5 3748   2.918   0.151  16.348  0.2073  0.2110  0.1991
  247MPD1     H 3749   2.834   0.322  16.661  1.4052  2.7774 -1.5903
  247MPD1    H1 3750   2.941   0.335  16.250  1.2561  0.0173  0.5416
  247MPD1    H2 3751   2.882   4.693  16.439 -1.8750  0.4106 -0.9360
  247MPD1    H3 3752   2.950   0.103  16.256  1.1208  3.4273 -1.1636
  247MPD1     N 3753   2.884   0.494  16.454 -0.2611 -0.3482 -0.4796
  247MPD1    H5 3754   2.897   0.533  16.362 -3.3256 -0.0064 -0.7431
  247MPD1    N1 3755   2.797   0.063  16.669 -0.1924  0.1067  0.1454
  247MPD1    H6 3756   2.716   0.108  16.712 -0.0426  2.4408 -2.0013
  247MPD1    H7 3757   2.767   4.697  16.640 -0.0547 -0.2045  1.0055
  248MPD1     C 3758   3.896   0.754  17.477  0.3663  0.0280  0.8109
  248MPD1    C1 3759   3.871   0.860  17.565 -0.3319  0.1016 -0.4142
  248MPD1    C2 3760   3.804   0.825  17.678 -0.1060 -0.8192  0.4734
  248MPD1    C3 3761   3.748   0.703  17.697 -0.7040 -0.1855  0.0167
  248MPD1    C4 3762   3.771   0.602  17.608 -0.4817  0.4947  0.5112
  248MPD1    C5 3763   3.851   0.629  17.500  0.9026 -0.2966  0.1440
  248MPD1     H 3764   3.796   0.903   0.043  2.0949 -1.6225  1.5344
  248MPD1    H1 3765   3.714   0.510  17.605 -0.1528  0.3915 -2.7609
  248MPD1    H2 3766   3.950   0.772  17.384 -1.0902 -1.7298 -0.3760
  248MPD1    H3 3767   3.865   0.551  17.426  0.5560 -1.1688  1.0065
  248MPD1     N 3768   3.671   0.684   0.102 -0.0449 -0.0771  0.4314
  248MPD1    H5 3769   3.659   0.770   0.156  0.8956 -1.6060  3.0553
  248MPD1    N1 3770   3.936   0.982  17.547 -0.3030 -0.1312 -0.0722
  248MPD1    H6 3771   3.949   1.012  17.450 -0.7001  1.0225  0.2236
  248MPD1    H7 3772   3.884   1.053  17.598  3.4946  0.6998  2.6819
  249MPD1     C 3773   4.043   4.292   9.384  0.5633 -0.0957  0.0170
  249MPD1    C1 3774   3.970   4.401   9.344  0.3255 -0.2870 -0.0543
  249MPD1    C2 3775   3.979   4.514   9.421 -0.0364  0.0220 -0.3497
  249MPD1    C3 3776   4.072   4.519   9.529  0.6910 -0.6037 -0.1817
  249MPD1    C4 3777   4.151   4.409   9.554  0.0830 -0.1777  0.1232
  249MPD1    C5 3778   4.136   4.290   9.487 -0.0778  0.4964 -0.5922
  249MPD1     H 3779   3.921   4.600   9.390 -0.8498 -0.1625  0.6535
  249MPD1    H1 3780   4.217   4.412   9.640 -0.4715  2.6086  0.4454
  249MPD1    H2 3781   4.024   4.200   9.329  1.9496  0.5039 -1.4502
  249MPD1    H3 3782   4.181   4.200   9.529  0.2970  0.1340 -1.7559
  249MPD1     N 3783   4.069   4.643   9.602  0.3621  0.1775  0.1898
  249MPD1    H5 3784   3.996   4.709   9.580 -1.0004 -0.9731  1.2421
  249MPD1    N1 3785   3.888   4.397   9.224  0.2374 -0.1501 -0.5031
  249MPD1    H6 3786   3.808   4.460   9.221 -0.2157 -0.5337  2.9080
  249MPD1    H7 3787   3.856   4.302   9.207 -2.5324  0.9486 -1.5102
  250MPD2     C 3788   1.418   0.050  13.107 -0.5989  0.9474 -0.2344
  250MPD2    C1 3789   1.376   0.110  12.994 -0.3204  0.1416  0.4016
  250MPD2    C2 3790   1.300   0.027  12.905  0.0477 -0.0138 -0.1316
  250MPD2    C3 3791   1.275   4.620  12.930  0.3075 -0.1906 -0.5776
  250MPD2    C4 3792   1.322   4.569  13.048 -0.6815  0.2861 -0.1312
  250MPD2    C5 3793   1.398   4.642  13.135 -1.0990 -0.2338  0.4188
  250MPD2     H 3794   1.260   0.072  12.815  0.3097  3.6423  1.5758
  250MPD2    H1 3795   1.297   4.468  13.079 -0.0225  0.3592  0.6248
  250MPD2    H2 3796   1.486   0.102  13.173 -0.2133 -0.6556  0.6303
  250MPD2    H3 3797   1.416   4.595  13.231  0.5405 -0.5007 -0.0305
  250MPD2     N 3798   1.204   4.523  12.855  0.6821 -0.4265  0.4342
  250MPD2    H5 3799   1.208   4.425  12.884 -0.7057 -0.2358  1.2723
  250MPD2    N1 3800   1.402   0.248  12.974 -0.0824 -0.3693  0.4017
  250MPD2    H7 3801   1.454   0.290  13.050  0.5854 -0.7927  0.1823
  251TMC3    C1 3802   1.449   0.452  12.871 -0.0240  0.0010 -0.6214
  251TMC3    C2 3803   1.450   0.508  12.996 -0.5283 -0.4249 -0.1883
  251TMC3    C3 3804   1.498   0.636  13.004 -0.6926 -0.0902 -0.5726
  251TMC3    C4 3805   1.495   0.514  12.760  0.0282 -0.1227  0.5449
  251TMC3    C5 3806   1.549   0.643  12.764  0.7026 -0.5595  0.2039
  251TMC3    C6 3807   1.550   0.702  12.890 -0.2636  0.2687 -0.1002
  251TMC3     C 3808   1.394   0.316  12.855 -0.2980  0.4008 -0.2066
  251TMC3     O 3809   1.365   0.275  12.741  0.2826 -0.2081  0.1140
  251TMC3     H 3810   1.394   0.462  13.077  0.2830  0.2147  0.7452
  251TMC3    H1 3811   1.493   0.465  12.663 -1.1675  1.0720 -0.0334
  251TMC3    H2 3812   1.608   0.791  12.910 -0.2923 -0.1965  2.1675
  251TMC3    C7 3813   1.666   0.662  12.678 -0.3757 -0.7624  0.6572
  251TMC3    C8 3814   1.538   0.672  13.135  0.2576 -0.7202  0.1867
  251TMC3    O1 3815   1.765   0.706  12.736  0.2644  0.1558 -0.4358
  251TMC3    O2 3816   1.534   0.792  13.151  0.4557  0.2270  0.1365
  252TMC3    C1 3817   2.421   0.981   8.990 -0.1937  0.3760  0.0347
  252TMC3    C2 3818   2.481   1.101   9.000  0.7074  0.5303 -1.0036
  252TMC3    C3 3819   2.610   1.112   9.051  0.3541 -0.0404 -0.0438
  252TMC3    C4 3820   2.490   0.867   9.017  0.3452 -0.2173  0.0225
  252TMC3    C5 3821   2.620   0.876   9.061 -0.7484  0.0851  0.3156
  252TMC3    C6 3822   2.679   1.002   9.080  0.2099 -0.1549 -0.4757
  252TMC3     C 3823   2.278   0.954   8.972  0.4673  0.3833 -0.1590
  252TMC3     O 3824   2.229   0.849   9.019 -0.3078 -0.4661  0.5421
  252TMC3     H 3825   2.430   1.194   8.977  2.8426  2.1230  0.6325
  252TMC3    H1 3826   2.450   0.770   8.989  0.1127 -0.2898  0.6037
  252TMC3    H2 3827   2.782   1.013   9.112 -0.1047 -0.0755  0.4851
  252TMC3    C7 3828   2.703   0.758   9.098 -0.7688 -0.4713  0.4702
  252TMC3    C8 3829   2.654   1.235   9.107  0.0583 -0.0001  0.4013
  252TMC3    O1 3830   2.823   0.761   9.065 -0.0503  0.1223 -0.2056
  252TMC3    O2 3831   2.644   1.345   9.056 -0.4507 -0.8891 -0.5163
  253MPD2     C 3832   3.452   0.059  15.025 -0.5163 -0.0917 -0.8845
  253MPD2    C1 3833   3.351   4.692  15.040  0.5223 -0.2783  0.0750
  253MPD2    C2 3834   3.334   4.634  15.165 -0.3266  0.8332 -0.2823
  253MPD2    C3 3835   3.406   4.672  15.277  0.3508  0.1613 -0.2874
  253MPD2    C4 3836   3.506   0.041  15.260 -0.6210 -1.2367  0.6424
  253MPD2    C5 3837   3.531   0.090  15.136  0.3638 -0.4768 -0.0732
  253MPD2     H 3838   3.256   4.559  15.169 -0.0208  0.5940  1.2045
  253MPD2    H1 3839   3.567   0.072  15.344 -0.7379  1.8721 -0.4261
  253MPD2    H2 3840   3.478   0.104  14.930  2.2367 -2.6398 -1.3263
  253MPD2    H3 3841   3.609   0.161  15.115 -1.6211  1.1460 -2.0085
  253MPD2     N 3842   3.385   4.610  15.403  0.1623 -0.4135 -0.4964
  253MPD2    H5 3843   3.454   4.623  15.476 -0.2581  2.3835 -0.6037
  253MPD2    N1 3844   3.264   4.644  14.934 -0.0225 -0.2874 -0.3717
  253MPD2    H7 3845   3.192   4.580  14.962  0.6570 -1.5642 -1.5443
  254TMC3    C1 3846   3.271   4.470  15.563 -0.4249 -0.0971  0.4594
  254TMC3    C2 3847   3.150   4.434  15.609  0.2660  0.0120  0.5179
  254TMC3    C3 3848   3.133   4.404  15.746  0.1653 -0.2647 -0.4108
  254TMC3    C4 3849   3.378   4.491  15.652  0.7169  0.2370  0.3987
  254TMC3    C5 3850   3.359   4.460  15.786  0.0357  0.2060  0.4665
  254TMC3    C6 3851   3.238   4.416  15.829  0.5922  1.1779  0.2764
  254TMC3     C 3852   3.273   4.531  15.429  0.3536  0.4626 -0.3533
  254TMC3     O 3853   3.164   4.532  15.373 -0.3429 -0.1191 -0.0230
  254TMC3     H 3854   3.074   4.399  15.541  1.5501  1.7886 -1.8249
  254TMC3    H1 3855   3.473   4.532  15.618  0.8286  0.1632  0.6268
  254TMC3    H2 3856   3.219   4.402  15.934 -1.3728  1.4263 -0.0470
  254TMC3    C7 3857   3.466   4.423  15.872  0.0457  0.1666  0.2814
  254TMC3    C8 3858   2.997   4.412  15.806  0.3314  0.3248  0.3269
  254TMC3    O1 3859   3.440   4.412  15.992 -0.2747  0.7553  0.0921
  254TMC3    O2 3860   2.986   4.385  15.927 -0.1135 -0.2624  0.5088
  255MPD2     C 3861   1.746   2.756  10.990  0.0661 -0.3383 -0.1315
  255MPD2    C1 3862   1.704   2.732  10.859  0.2033  0.4007  0.0400
  255MPD2    C2 3863   1.755   2.623  10.795  0.4718  0.3526  0.0310
  255MPD2    C3 3864   1.844   2.539  10.861 -0.3704 -0.1041 -0.7389
  255MPD2    C4 3865   1.888   2.561  10.989 -0.2997 -0.0244 -0.3503
  255MPD2    C5 3866   1.834   2.676  11.052  0.0762 -0.3230  0.1900
  255MPD2     H 3867   1.725   2.598  10.694 -0.3224  0.7610  0.1693
  255MPD2    H1 3868   1.963   2.497  11.035 -0.2122 -0.4822 -1.1305
  255MPD2    H2 3869   1.704   2.843  11.039  2.3280  0.0382  1.1425
  255MPD2    H3 3870   1.855   2.694  11.157  2.0996  0.7707 -0.4123
  255MPD2     N 3871   1.904   2.452  10.766  0.2949  0.5246 -0.0681
  255MPD2    H5 3872   1.871   2.447  10.670  0.7662  1.5845 -0.2820
  255MPD2    N1 3873   1.617   2.816  10.796 -0.2072  0.1672  0.7107
  255MPD2    H7 3874   1.585   2.789  10.703  2.6145  2.4098 -0.9011
  256TMC3    C1 3875   1.429   2.961  10.780 -0.0578 -0.2439  0.2683
  256TMC3    C2 3876   1.385   3.087  10.772 -0.0309  0.4033 -0.0319
  256TMC3    C3 3877   1.253   3.111  10.727  0.1326  0.7721 -0.7485
  256TMC3    C4 3878   1.351   2.856  10.732  0.1842 -0.0293 -0.6465
  256TMC3    C5 3879   1.230   2.881  10.676 -0.2664  0.3267 -0.0907
  256TMC3    C6 3880   1.176   3.004  10.674  0.2281 -1.0001  0.0829
  256TMC3     C 3881   1.559   2.935  10.841  0.1233  0.1001  0.8695
  256TMC3     O 3882   1.599   3.009  10.932  0.1318 -0.5529  0.0920
  256TMC3     H 3883   1.455   3.168  10.791  1.8982 -2.0992  3.5629
  256TMC3    H1 3884   1.377   2.752  10.750  1.6576  0.5513  0.6983
  256TMC3    H2 3885   1.086   3.020  10.616  0.7412 -0.1452 -0.4897
  256TMC3    C7 3886   1.159   2.769  10.623 -1.0962  0.2936  0.1806
  256TMC3    C8 3887   1.216   3.246  10.687 -0.4633 -0.7532 -0.2637
  256TMC3    O1 3888   1.231   2.674  10.602  0.0108 -0.2036  0.1458
  256TMC3    O2 3889   1.143   3.321  10.753  0.0115  0.5656  0.3292
  257MPD2     C 3890   0.615   4.704  13.363  0.1905 -0.1273  0.2676
  257MPD2    C1 3891   0.547   4.621  13.282 -0.4695  0.0483 -0.5384
  257MPD2    C2 3892   0.526   4.485  13.319  0.7945 -0.0838 -0.5988
  257MPD2    C3 3893   0.586   4.436  13.435 -0.9906  0.4398  0.1130
  257MPD2    C4 3894   0.661   4.520  13.508 -0.0536 -0.5830  0.1734
  257MPD2    C5 3895   0.671   4.656  13.482  0.3978 -0.4614 -0.2520
  257MPD2     H 3896   0.479   4.416  13.250 -3.1365  0.8290  1.1409
  257MPD2    H1 3897   0.727   4.491  13.588  0.1514 -1.6002 -0.3765
  257MPD2    H2 3898   0.624   0.082  13.337  1.8750 -0.3526 -0.0639
  257MPD2    H3 3899   0.731   4.723  13.542  0.3572 -0.4834 -0.1867
  257MPD2     N 3900   0.582   4.291  13.459  0.2676 -0.2725 -0.0243
  257MPD2    H5 3901   0.559   4.236  13.377  0.6718 -1.9174  0.9540
  257MPD2    N1 3902   0.501   4.675  13.157  0.6031  0.1379  0.4164
  257MPD2    H7 3903   0.536   0.040  13.135 -1.5547  0.8148 -0.1016
  258TMC3    C1 3904   0.656   4.082  13.570 -0.6396  0.5663  0.1152
  258TMC3    C2 3905   0.693   4.026  13.449  0.4574 -0.1656 -0.3853
  258TMC3    C3 3906   0.753   3.904  13.452 -0.8367  0.3880 -0.3484
  258TMC3    C4 3907   0.691   4.019  13.692  0.5592  0.5245  0.4037
  258TMC3    C5 3908   0.752   3.892  13.688  0.3906 -0.3386  0.2208
  258TMC3    C6 3909   0.778   3.836  13.568  0.2740  0.4262  0.0346
  258TMC3     C 3910   0.633   4.232  13.574  0.1804  0.5241 -0.3529
  258TMC3     O 3911   0.662   4.289  13.678 -0.8122  0.0615 -0.1946
  258TMC3     H 3912   0.670   4.084  13.360 -3.0343 -3.4496 -1.6092
  258TMC3    H1 3913   0.681   4.079  13.782  2.6722  1.7883 -0.2195
  258TMC3    H2 3914   0.828   3.740  13.560  0.2980  0.2867  1.8192
  258TMC3    C7 3915   0.838   3.851  13.800  0.9286  0.5858 -0.3246
  258TMC3    C8 3916   0.848   3.882  13.346  0.9553  0.4294 -0.0280
  258TMC3    O1 3917   0.929   3.775  13.761 -0.2056 -0.3804 -0.3487
  258TMC3    O2 3918   0.807   3.877  13.231 -0.3551  0.4635  0.0666
  259MPD2     C 3919   4.588   1.600   0.561 -0.0928 -0.2732 -0.3740
  259MPD2    C1 3920   4.572   1.476   0.611 -0.2625 -0.3035  0.7684
  259MPD2    C2 3921   4.605   1.368   0.530  0.1905  0.4354  0.4107
  259MPD2    C3 3922   4.651   1.387   0.397  0.5903 -0.1711  0.2956
  259MPD2    C4 3923   4.650   1.516   0.351 -0.2639  1.0188  0.4340
  259MPD2    C5 3924   4.619   1.622   0.430 -0.0276 -0.3561  0.4018
  259MPD2     H 3925   4.632   1.269   0.565  1.0147  0.3030 -0.6056
  259MPD2    H1 3926   4.689   1.538   0.252  0.0125  0.7556  0.4858
  259MPD2    H2 3927   4.567   1.691   0.616  0.8907  0.0897 -0.5963
  259MPD2    H3 3928   4.633   1.723   0.392  0.6931  0.0034  1.6194
  259MPD2     N 3929   4.695   1.272   0.320 -0.3118 -0.3578 -0.4104
  259MPD2    H5 3930   4.687   1.186   0.373  0.7081 -1.1625 -1.5643
  259MPD2    N1 3931   4.539   1.469   0.750 -1.5372  0.2293  0.3945
  259MPD2    H7 3932   4.533   1.560   0.795 -0.1009  0.7600 -0.4977
  260TMC3    C1 3933   0.071   1.157   0.134 -0.4342 -0.1200 -0.3512
  260TMC3    C2 3934   0.141   1.176   0.017 -0.6021 -0.8460  0.5193
  260TMC3    C3 3935   0.218   1.077  17.677 -0.4627  0.1492 -0.3477
  260TMC3    C4 3936   0.084   1.042   0.215 -0.1163  0.4572 -0.0715
  260TMC3    C5 3937   0.154   0.938   0.157  0.0622  0.0759  0.1642
  260TMC3    C6 3938   0.227   0.957   0.040  0.2530 -0.3718  0.8013
  260TMC3     C 3939   0.015   1.277   0.186  0.6493 -0.3126 -0.2875
  260TMC3     O 3940   0.013   1.375   0.118  0.0612  0.5064 -0.0049
  260TMC3     H 3941   0.135   1.269  17.672  0.1117 -2.7279 -2.7431
  260TMC3    H1 3942   0.029   1.036   0.308  1.3942 -0.3914  0.7518
  260TMC3    H2 3943   0.284   0.878  17.704  0.7756 -0.1848  1.1206
  260TMC3    C7 3944   0.118   0.802   0.184  0.1336  0.1127 -0.2566
  260TMC3    C8 3945   0.194   1.063  17.535  0.1706 -0.0924  0.4342
  260TMC3    O1 3946   0.164   0.724   0.102 -0.2705 -0.3619  0.7289
  260TMC3    O2 3947   0.097   1.126  17.493 -0.3172 -0.3194 -0.1707
  261MPD2     C 3948   0.724   4.550  12.170 -0.0618 -0.2415  0.4002
  261MPD2    C1 3949   0.856   4.575  12.216  0.0819 -0.0115  0.0922
  261MPD2    C2 3950   0.945   4.654  12.147 -0.0098  0.4251  0.1084
  261MPD2    C3 3951   0.909   4.709  12.025  0.1515  0.3728 -0.3293
  261MPD2    C4 3952   0.780   4.679  11.977  0.5911  0.5056  0.1056
  261MPD2    C5 3953   0.696   4.600  12.048  0.6905 -0.1522 -0.2840
  261MPD2     H 3954   1.047   4.664  12.183 -0.0377 -0.9620  0.5686
  261MPD2    H1 3955   0.752   4.698  11.874  0.7100  1.1742  0.1950
  261MPD2    H2 3956   0.650   4.496  12.227  0.1640  1.1985  2.0820
  261MPD2    H3 3957   0.597   4.594  12.004  1.4560  1.3243 -2.2038
  261MPD2     N 3958   0.998   0.078  11.956  0.5292 -0.7005 -0.6151
  261MPD2    H5 3959   0.961   0.133  11.879  1.2483  1.7254  0.7689
  261MPD2    N1 3960   0.904   4.529  12.340  0.2671  0.0852  1.0022
  261MPD2    H7 3961   0.993   4.566  12.372  0.2835  2.1250 -1.4539
  262TMC3    C1 3962   1.208   0.169  11.892  0.5162 -1.3339  0.3825
  262TMC3    C2 3963   1.148   0.288  11.869 -0.2397  0.0502  0.7775
  262TMC3    C3 3964   1.227   0.377  11.800 -0.3116  0.0777  0.2258
  262TMC3    C4 3965   1.332   0.125  11.846  0.1764  0.0602  0.5030
  262TMC3    C5 3966   1.397   0.217  11.776 -1.0958  0.2836 -0.5928
  262TMC3    C6 3967   1.352   0.345  11.753  0.5793  0.4300 -0.2841
  262TMC3     C 3968   1.139   0.081  11.981  0.3008 -0.2935 -1.2737
  262TMC3     O 3969   1.206   4.726  12.041 -0.2851  0.8789 -0.2229
  262TMC3     H 3970   1.059   0.311  11.926 -0.3493  0.2721  0.5193
  262TMC3    H1 3971   1.385   0.034  11.870 -0.3424 -0.9487 -2.2568
  262TMC3    H2 3972   1.418   0.420  11.711  3.7162 -2.0492  0.1880
  262TMC3    C7 3973   1.517   0.177  11.706 -0.1520  0.6760  0.3436
  262TMC3    C8 3974   1.188   0.514  11.780 -0.2821  0.3670  0.4949
  262TMC3    O1 3975   1.520   0.061  11.678  0.1479 -0.3901 -0.4965
  262TMC3    O2 3976   1.276   0.587  11.735  0.7086 -0.5082 -0.0852
  263MPD2     C 3977   2.073   3.952  11.673 -0.5183 -0.1797  0.5453
  263MPD2    C1 3978   2.176   3.897  11.596  0.6090  0.1195 -0.1859
  263MPD2    C2 3979   2.164   3.906  11.461  0.0109 -0.5356  0.2142
  263MPD2    C3 3980   2.047   3.960  11.402  0.5567 -0.1754  0.1345
  263MPD2    C4 3981   1.951   4.008  11.484  0.4155  0.7212  0.7123
  263MPD2    C5 3982   1.967   4.009  11.616 -0.4497 -0.1674  0.3541
  263MPD2     H 3983   2.243   3.867  11.397  1.0391 -0.9136  1.7280
  263MPD2    H1 3984   1.871   4.074  11.453  0.7406  0.7841 -0.0066
  263MPD2    H2 3985   2.084   3.947  11.781  1.1554  2.9858  0.4921
  263MPD2    H3 3986   1.897   4.052  11.687 -0.7825  0.3582 -0.3038
  263MPD2     N 3987   2.053   3.981  11.262  0.2028 -0.3472  0.3010
  263MPD2    H5 3988   2.136   3.956  11.209 -1.2495 -2.4754 -0.9528
  263MPD2    N1 3989   2.286   3.843  11.664 -0.6018 -0.1129  0.3681
  263MPD2    H7 3990   2.283   3.851  11.765 -0.0928  1.1686  0.2801
  264TMC3    C1 3991   1.984   4.074  11.047  0.3817 -0.0643 -0.1352
  264TMC3    C2 3992   1.967   4.211  11.011  0.6985  0.3785  0.2353
  264TMC3    C3 3993   2.023   4.252  10.893 -0.3001 -0.7345  0.0041
  264TMC3    C4 3994   2.062   3.987  10.977 -0.4914 -0.3952  0.9685
  264TMC3    C5 3995   2.105   4.037  10.854  0.8927  0.2087 -0.3996
  264TMC3    C6 3996   2.083   4.162  10.809 -0.5667 -0.1272 -0.6988
  264TMC3     C 3997   1.951   4.041  11.187  0.3564 -0.1821  0.8980
  264TMC3     O 3998   1.846   4.088  11.230 -0.3743  0.0065 -0.2464
  264TMC3     H 3999   1.905   4.276  11.071  0.2583 -0.3633  0.5793
  264TMC3    H1 4000   2.070   3.880  10.988  1.3957 -0.0331  3.0795
  264TMC3    H2 4001   2.118   4.202  10.714 -3.8769 -0.3697 -2.0137
  264TMC3    C7 4002   2.242   4.000  10.824 -0.4618 -0.1500  0.1681
  264TMC3    C8 4003   2.104   4.368  10.900  0.5869 -1.1651 -0.6617
  264TMC3    O1 4004   2.284   3.888  10.815 -0.3860  0.0979 -0.1176
  264TMC3    O2 4005   2.204   4.380  10.828 -0.7213 -0.3174 -0.6217
  265MPD2     C 4006   4.059   4.281  15.411 -0.7393 -0.2029  0.3841
  265MPD2    C1 4007   4.166   4.367  15.425 -0.2951  0.4191 -0.1137
  265MPD2    C2 4008   4.293   4.330  15.396  0.3614  0.5736 -0.2438
  265MPD2    C3 4009   4.319   4.204  15.349 -0.0240 -0.1083  0.6359
  265MPD2    C4 4010   4.212   4.121  15.330  0.1752 -0.0909  0.3174
  265MPD2    C5 4011   4.083   4.154  15.359 -0.1663  0.4177  0.4457
  265MPD2     H 4012   4.363   4.410  15.418  1.2569 -0.3253  0.1948
  265MPD2    H1 4013   4.213   4.018  15.296 -0.1860 -0.4274  1.3254
  265MPD2    H2 4014   3.957   4.312  15.431 -0.6812 -0.0907  0.5097
  265MPD2    H3 4015   4.007   4.080  15.339 -1.3097  2.2836 -2.1097
  265MPD2     N 4016   4.447   4.150  15.309 -0.2810 -0.0532 -0.4403
  265MPD2    H5 4017   4.454   4.049  15.302 -1.7838 -0.2325  0.7237
  265MPD2    N1 4018   4.143   4.494  15.477 -0.2943  0.2928 -0.0573
  265MPD2    H7 4019   4.229   4.545  15.497 -0.3387 -0.1546  1.2652
  266TMC3    C1 4020   4.033   4.684  15.556 -0.3593  0.4628 -0.2024
  266TMC3    C2 4021   4.079   4.682  15.686 -0.1575  0.0610  0.1319
  266TMC3    C3 4022   4.035   0.064  15.772 -0.3374  0.3772 -0.1006
  266TMC3    C4 4023   3.938   0.045  15.511 -0.3073  0.2319  0.7115
  266TMC3    C5 4024   3.899   0.145  15.596 -0.1045 -0.3273 -0.6366
  266TMC3    C6 4025   3.942   0.155  15.723 -0.3215 -0.1616  0.7490
  266TMC3     C 4026   4.024   4.558  15.480  0.4721 -0.0911  0.0339
  266TMC3     O 4027   3.915   4.533  15.434 -0.6224  0.6527 -0.2241
  266TMC3     H 4028   4.157   4.614  15.717 -0.7018 -0.0750  1.1854
  266TMC3    H1 4029   3.900   0.042  15.410 -2.3442 -1.0393  1.5155
  266TMC3    H2 4030   3.898   0.229  15.789 -1.0718  0.0183  0.0472
  266TMC3    C7 4031   3.837   0.257  15.539 -0.3660  0.4876 -0.6831
  266TMC3    C8 4032   4.116   0.081  15.895  0.1031  0.0202  0.1024
  266TMC3    O1 4033   3.725   0.238  15.499 -0.5009  0.1318 -0.1800
  266TMC3    O2 4034   4.182   4.710  15.940  0.0506 -0.1069 -0.4305
  267MPD2     C 4035   2.095   0.775  17.236  0.2911 -1.0989 -0.1536
  267MPD2    C1 4036   2.150   0.900  17.251 -0.3752  0.0443 -0.7047
  267MPD2    C2 4037   2.073   1.007  17.197  0.0856 -0.1886 -0.1138
  267MPD2    C3 4038   1.941   0.986  17.153  0.4823  0.2045 -0.0377
  267MPD2    C4 4039   1.889   0.860  17.151  0.6776 -0.0779  0.0113
  267MPD2    C5 4040   1.968   0.753  17.191 -0.3561  0.2218 -0.1571
  267MPD2     H 4041   2.096   1.112  17.205  1.8245 -0.6162  0.5110
  267MPD2    H1 4042   1.789   0.849  17.110  0.1921  0.2946  1.1066
  267MPD2    H2 4043   2.165   0.696  17.262  1.0762 -0.6793 -0.9638
  267MPD2    H3 4044   1.925   0.654  17.187  1.0453 -0.3057 -2.3230
  267MPD2     N 4045   1.859   1.094  17.105  0.5570 -0.5117  0.1568
  267MPD2    H5 4046   1.765   1.072  17.075 -0.2921  2.3301  0.7469
  267MPD2    N1 4047   2.284   0.917  17.302 -0.1381  0.7424 -0.2446
  267MPD2    H7 4048   2.324   0.837  17.350 -2.1462 -0.9232 -1.3784
  268TMC3    C1 4049   2.492   1.015  17.364  1.1012  0.5430 -0.6108
  268TMC3    C2 4050   2.586   1.086  17.297 -0.1112  0.9828 -0.1194
  268TMC3    C3 4051   2.685   1.151  17.371  0.7155  0.7575  0.6803
  268TMC3    C4 4052   2.508   0.984  17.499  0.1787  0.5037 -0.2571
  268TMC3    C5 4053   2.602   1.049  17.568  0.3973  0.4270 -0.4381
  268TMC3    C6 4054   2.691   1.134  17.505 -0.4895 -0.3209 -0.1730
  268TMC3     C 4055   2.360   1.027  17.303  0.5997 -0.0319 -0.2216
  268TMC3     O 4056   2.346   1.128  17.238  0.3931 -0.2143 -0.6270
  268TMC3     H 4057   2.575   1.085  17.189  0.6451  2.0662 -0.2034
  268TMC3    H1 4058   2.442   0.921  17.558  0.1433  0.7336 -0.0502
  268TMC3    H2 4059   2.770   1.179  17.564  1.0987 -3.5291  0.1766
  268TMC3    C7 4060   2.596   1.049   0.006  0.2268  0.3771 -0.0836
  268TMC3    C8 4061   2.714   1.289  17.331 -0.5106 -0.2154 -0.4321
  268TMC3    O1 4062   2.572   0.938   0.057  0.4247  0.8313 -0.2039
  268TMC3    O2 4063   2.792   1.360  17.396 -0.3424 -0.0412  0.0357
  269MPD2     C 4064   2.279   4.725  15.550  0.5427  0.2540 -0.4913
  269MPD2    C1 4065   2.209   0.012  15.667  0.2364 -0.0708 -1.0764
  269MPD2    C2 4066   2.185   0.139  15.727 -0.8473 -0.3564  0.8515
  269MPD2    C3 4067   2.242   0.249  15.666 -0.4987  0.1698  0.0578
  269MPD2    C4 4068   2.322   0.239  15.550 -0.4209 -0.7196  0.1304
  269MPD2    C5 4069   2.348   0.116  15.499 -0.1408  0.1400  0.1033
  269MPD2     H 4070   2.139   0.164  15.822 -3.5092  1.8474 -1.0146
  269MPD2    H1 4071   2.358   0.332  15.506  1.0946 -1.7829 -0.8400
  269MPD2    H2 4072   2.315   4.630  15.513 -1.3367 -0.8911  0.6309
  269MPD2    H3 4073   2.413   0.103  15.414  0.3546  2.1879  0.1806
  269MPD2     N 4074   2.191   0.380  15.707 -0.4478  0.2841  0.0346
  269MPD2    H5 4075   2.118   0.388  15.778 -0.4310  0.6741  0.0070
  269MPD2    N1 4076   2.162   4.615  15.720 -0.0880  0.5448 -0.4055
  269MPD2    H7 4077   2.186   4.532  15.667 -2.4504 -2.4140  3.2092
  270TMC3    C1 4078   2.085   4.474  15.862 -0.7261 -0.5824  0.2109
  270TMC3    C2 4079   1.961   4.419  15.851 -0.2510  0.2384 -0.4283
  270TMC3    C3 4080   1.948   4.285  15.838 -0.0687 -0.1942  0.0317
  270TMC3    C4 4081   2.199   4.405  15.842 -0.3196  0.0058 -0.4491
  270TMC3    C5 4082   2.182   4.267  15.861 -0.0350  0.2290  0.4041
  270TMC3    C6 4083   2.056   4.213  15.867 -0.1127 -0.0082  0.0702
  270TMC3     C 4084   2.084   4.608  15.827 -0.6642  0.7532 -0.1825
  270TMC3     O 4085   2.041   4.691  15.906 -0.1989  0.1855 -0.8677
  270TMC3     H 4086   1.878   4.489  15.856  1.2069  1.9958 -0.5673
  270TMC3    H1 4087   2.298   4.448  15.846  0.0785 -0.7753 -1.7416
  270TMC3    H2 4088   2.045   4.105  15.862 -0.7338  0.1867 -2.7244
  270TMC3    C7 4089   2.300   4.193  15.906  0.3941  0.3145 -0.2786
  270TMC3    C8 4090   1.877   4.244  15.714 -0.3984  0.7816 -0.6639
  270TMC3    O1 4091   2.408   4.226  15.862 -0.2430 -0.7323  0.5880
  270TMC3    O2 4092   1.918   4.145  15.653 -0.3252  0.2166 -0.1624
  271MPD2     C 4093   1.381   4.316  13.926  0.2587 -0.9041 -0.1057
  271MPD2    C1 4094   1.347   4.382  14.044  0.8994  0.3630  0.7993
  271MPD2    C2 4095   1.272   4.495  14.035 -0.4248 -0.6919  0.4735
  271MPD2    C3 4096   1.214   4.537  13.915 -0.2758 -0.2808  0.6517
  271MPD2    C4 4097   1.254   4.472  13.800 -0.4932  0.3751  0.1992
  271MPD2    C5 4098   1.332   4.367  13.808 -0.6017  0.2752 -0.4180
  271MPD2     H 4099   1.272   4.551  14.128 -1.2430 -0.7833  0.5305
  271MPD2    H1 4100   1.217   4.498  13.701  1.6214  1.6392 -0.2610
  271MPD2    H2 4101   1.443   4.226  13.929  1.3442 -0.2020 -2.2862
  271MPD2    H3 4102   1.348   4.317  13.713 -1.0780  0.7930 -0.7716
  271MPD2     N 4103   1.122   4.648  13.902  0.5069  0.3053 -0.0298
  271MPD2    H5 4104   1.083   4.662  13.809  0.8342  0.6021 -0.1248
  271MPD2    N1 4105   1.389   4.336  14.172  0.5253  0.2097  0.3673
  271MPD2    H7 4106   1.354   4.396  14.246  0.2361  1.0367 -0.4436
  272TMC3    C1 4107   1.483   4.214  14.344 -0.2666 -0.4372  0.2630
  272TMC3    C2 4108   1.570   4.118  14.388 -0.1760 -0.2506 -0.5626
  272TMC3    C3 4109   1.613   4.121  14.520  0.0881  0.1220 -0.0001
  272TMC3    C4 4110   1.444   4.312  14.430  0.3339  0.3335  0.1955
  272TMC3    C5 4111   1.494   4.306  14.556  0.6039 -0.3408 -0.1489
  272TMC3    C6 4112   1.579   4.211  14.612 -0.4560 -0.4907 -0.1562
  272TMC3     C 4113   1.444   4.216  14.206  0.0603  0.0596  0.2256
  272TMC3     O 4114   1.481   4.125  14.136 -0.0833 -0.1471 -0.3585
  272TMC3     H 4115   1.602   4.034  14.327 -0.5072  0.1636 -1.3099
  272TMC3    H1 4116   1.372   4.388  14.402 -0.3902  0.3932  2.2410
  272TMC3    H2 4117   1.627   4.205  14.709 -1.9025  0.2291  0.5901
  272TMC3    C7 4118   1.447   4.417  14.639  0.6421 -0.6797 -0.3848
  272TMC3    C8 4119   1.754   4.094  14.517  0.1545  0.1220  0.1468
  272TMC3    O1 4120   1.340   4.472  14.607 -0.7224 -0.3217 -0.5896
  272TMC3    O2 4121   1.806   4.087  14.407 -0.5196 -0.2475 -0.0587
  273MPD2     C 4122   2.704   2.177  11.982 -1.0256 -0.4985 -0.3100
  273MPD2    C1 4123   2.831   2.240  11.982 -0.2266 -0.4645 -0.3062
  273MPD2    C2 4124   2.860   2.330  11.880 -0.1547 -0.5320  0.4366
  273MPD2    C3 4125   2.756   2.358  11.791 -0.2300 -0.6425 -0.1456
  273MPD2    C4 4126   2.633   2.297  11.795  0.0434 -0.4126 -0.4151
  273MPD2    C5 4127   2.607   2.204  11.899 -0.8377  0.5314  0.3383
  273MPD2     H 4128   2.952   2.387  11.882 -0.4284 -0.0499 -0.7316
  273MPD2    H1 4129   2.553   2.326  11.727  1.4008  2.8686 -0.6230
  273MPD2    H2 4130   2.679   2.094  12.047  0.6342  0.5167  1.6380
  273MPD2    H3 4131   2.515   2.149  11.912  0.7368 -1.6789  2.1577
  273MPD2     N 4132   2.774   2.444  11.681 -0.3483  0.2708 -0.8018
  273MPD2    H5 4133   2.692   2.461  11.625  0.3052  0.4279 -1.7106
  273MPD2    N1 4134   2.921   2.209  12.091  0.5183 -0.0921 -0.5689
  273MPD2    H7 4135   2.892   2.123  12.135 -1.0625  1.0723  0.6751
  274TMC3    C1 4136   2.860   2.632  11.562 -0.8445  0.1641  0.2635
  274TMC3    C2 4137   2.766   2.616  11.466 -0.3463 -0.2747  0.1700
  274TMC3    C3 4138   2.764   2.709  11.367  0.6120 -0.6217 -0.2773
  274TMC3    C4 4139   2.936   2.743  11.573  0.2853 -0.2311 -0.5645
  274TMC3    C5 4140   2.928   2.844  11.473  0.6229 -0.9659  0.1291
  274TMC3    C6 4141   2.844   2.817  11.370 -0.2691 -0.7472 -0.8367
  274TMC3     C 4142   2.877   2.533  11.669 -0.3183 -0.6913 -0.8175
  274TMC3     O 4143   2.972   2.551  11.746  0.2218  0.2066 -0.0357
  274TMC3     H 4144   2.732   2.516  11.443  0.2335  0.2171 -2.8664
  274TMC3    H1 4145   2.998   2.757  11.661  0.7001 -2.4377 -0.5141
  274TMC3    H2 4146   2.803   2.896  11.309  0.3913  0.8613  0.8269
  274TMC3    C7 4147   2.916   2.985  11.517 -0.1434  0.3012  0.4468
  274TMC3    C8 4148   2.651   2.710  11.283 -0.0857 -0.2529  1.1026
  274TMC3    O1 4149   2.800   3.028  11.529  0.4126 -0.1733  0.1687
  274TMC3    O2 4150   2.543   2.711  11.342  0.8010  0.8407  0.0982
  275MPD2     C 4151   3.099   0.387  14.406 -0.7276  0.1030 -0.0005
  275MPD2    C1 4152   3.002   0.481  14.430 -0.2155  0.2885 -0.9735
  275MPD2    C2 4153   2.868   0.455  14.394 -0.1901 -0.3639  0.3691
  275MPD2    C3 4154   2.831   0.335  14.337 -0.0516 -0.2327  0.3347
  275MPD2    C4 4155   2.929   0.251  14.294  0.3394  0.1520 -0.1290
  275MPD2    C5 4156   3.061   0.274  14.329  0.6095  0.9324 -0.1345
  275MPD2     H 4157   2.803   0.538  14.420  2.7903  1.5408  1.7619
  275MPD2    H1 4158   2.902   0.163  14.236 -1.4904  1.6766 -1.5695
  275MPD2    H2 4159   3.204   0.398  14.427 -0.7011 -1.1848  0.5539
  275MPD2    H3 4160   3.142   0.207  14.303  1.3675  1.9080 -0.2998
  275MPD2     N 4161   2.697   0.300  14.304 -0.1016 -0.1664  0.9498
  275MPD2    H5 4162   2.681   0.203  14.279 -0.2078 -0.2714  1.4203
  275MPD2    N1 4163   3.034   0.615  14.476 -0.6158 -0.3491 -0.1196
  275MPD2    H7 4164   2.955   0.677  14.486 -0.0028  0.0132  2.5798
  276TMC3    C1 4165   3.167   0.772  14.598 -0.0974 -0.6673  0.7300
  276TMC3    C2 4166   3.041   0.834  14.605  0.4250  0.1647 -0.1368
  276TMC3    C3 4167   2.979   0.867  14.726 -0.3599  0.0843  0.0984
  276TMC3    C4 4168   3.244   0.767  14.707  0.7831 -0.2187 -0.4250
  276TMC3    C5 4169   3.185   0.810  14.822 -0.0392  0.0270  0.6303
  276TMC3    C6 4170   3.055   0.849  14.839 -0.0768 -0.2318  0.1358
  276TMC3     C 4171   3.164   0.651  14.518  0.6161  0.0169  0.1363
  276TMC3     O 4172   3.273   0.594  14.518  0.2704  0.3034 -0.0501
  276TMC3     H 4173   2.988   0.851  14.512 -3.0046 -1.4261  1.5454
  276TMC3    H1 4174   3.337   0.711  14.705  0.4356 -0.7970 -0.7543
  276TMC3    H2 4175   3.025   0.880  14.938  1.7063  2.6076 -0.2125
  276TMC3    C7 4176   3.262   0.832  14.942 -0.2677  0.1977  0.1623
  276TMC3    C8 4177   2.854   0.786  14.727  0.1259  0.1630 -0.2993
  276TMC3    O1 4178   3.211   0.828  15.054  0.1943  0.5659  0.4237
  276TMC3    O2 4179   2.776   0.804  14.636  0.6854  0.1937 -0.6134
  277MPD2     C 4180   4.693   4.345  13.544 -0.3877 -0.0896  0.3438
  277MPD2    C1 4181   4.575   4.408  13.547  0.2902  0.4573 -0.2404
  277MPD2    C2 4182   4.466   4.344  13.615 -1.1234  0.0598 -0.1523
  277MPD2    C3 4183   4.474   4.215  13.662 -0.5739 -0.2275 -0.3460
  277MPD2    C4 4184   4.598   4.158  13.653 -0.0099  0.4500  0.0227
  277MPD2    C5 4185   4.708   4.220  13.601 -0.3184  1.2469  0.5897
  277MPD2     H 4186   4.364   4.379  13.605 -0.1295  2.2125 -2.7762
  277MPD2    H1 4187   4.607   4.058  13.695  0.7377  0.1493 -0.8439
  277MPD2    H2 4188   0.050   4.391  13.494 -0.0302 -1.0267  0.0894
  277MPD2    H3 4189   0.074   4.166  13.601  0.1712  2.0734 -1.8065
  277MPD2     N 4190   4.352   4.150  13.702 -0.2511  0.1019 -0.1584
  277MPD2    H5 4191   4.274   4.214  13.699  1.1326  1.8679  1.1429
  277MPD2    N1 4192   4.563   4.522  13.471 -0.4490 -0.2033 -0.1763
  277MPD2    H7 4193   4.637   4.542  13.405 -1.1747  1.5035 -0.4757
  278TMC3    C1 4194   4.208   3.976  13.761  1.0089  0.1067  0.4688
  278TMC3    C2 4195   4.170   3.845  13.735  0.0906  0.5465 -0.7602
  278TMC3    C3 4196   4.040   3.815  13.767  0.0532  0.2115 -0.4650
  278TMC3    C4 4197   4.124   4.069  13.816 -0.3855  0.1400  0.1785
  278TMC3    C5 4198   3.996   4.034  13.827  0.2129  0.0431  0.2300
  278TMC3    C6 4199   3.950   3.903  13.816  0.2771 -0.2419  0.3040
  278TMC3     C 4200   4.340   4.016  13.724 -0.1181 -0.1275 -0.9960
  278TMC3     O 4201   4.430   3.939  13.733  0.3237 -0.3989 -0.1813
  278TMC3     H 4202   4.230   3.776  13.677 -1.0766 -1.7440  0.7776
  278TMC3    H1 4203   4.153   4.169  13.848  1.8291 -0.3430 -0.3754
  278TMC3    H2 4204   3.850   3.879  13.848  0.7703 -0.8735  1.3630
  278TMC3    C7 4205   3.907   4.135  13.876  0.4267  0.3489  0.1420
  278TMC3    C8 4206   4.011   3.672  13.765  1.0052 -0.3643  0.1439
  278TMC3    O1 4207   3.956   4.239  13.919 -0.7598 -0.6262 -0.0253
  278TMC3    O2 4208   4.096   3.597  13.802 -0.1255 -0.2612  0.4886
  279MPD2     C 4209   3.455   4.249  17.466  0.4042  0.2067 -0.0945
  279MPD2    C1 4210   3.452   4.379  17.515 -0.0975  0.1603  0.0170
  279MPD2    C2 4211   3.496   4.485  17.432 -0.5233  0.3280  0.1612
  279MPD2    C3 4212   3.544   4.464  17.306  0.1759  0.4753  0.0409
  279MPD2    C4 4213   3.552   4.329  17.262  0.2554 -0.3102 -0.5215
  279MPD2    C5 4214   3.501   4.225  17.340  0.0590 -0.8497 -0.2789
  279MPD2     H 4215   3.491   4.584  17.475 -1.4638 -0.0087  0.8199
  279MPD2    H1 4216   3.612   4.295  17.179 -0.1904 -2.3431 -0.0144
  279MPD2    H2 4217   3.431   4.154  17.512  0.3623  0.3676  0.2137
  279MPD2    H3 4218   3.515   4.125  17.300 -3.8292 -1.6849  0.5274
  279MPD2     N 4219   3.587   4.566  17.215 -0.2748  0.3379  0.2906
  279MPD2    H5 4220   3.625   4.534  17.126 -0.0580  1.4622 -0.0132
  279MPD2    N1 4221   3.399   4.400  17.644 -0.4447 -1.1060 -0.3974
  279MPD2    H7 4222   3.357   4.319  17.689 -2.9869 -0.7281 -2.0821
  280TMC3    C1 4223   3.335   4.502   0.133 -0.2690  0.5117  0.0205
  280TMC3    C2 4224   3.329   4.379   0.198  0.1293  0.4206  0.0219
  280TMC3    C3 4225   3.298   4.384   0.332 -1.0557 -0.4158 -0.1709
  280TMC3    C4 4226   3.320   4.620   0.196 -0.0109 -0.1097  0.2530
  280TMC3    C5 4227   3.297   4.617   0.329  0.3515 -0.1423  0.3254
  280TMC3    C6 4228   3.284   4.500   0.403  0.3463 -0.0509 -0.2239
  280TMC3     C 4229   3.384   4.519  17.708 -0.3908  0.3719  0.5680
  280TMC3     O 4230   3.417   4.628  17.675 -0.2043 -0.1329  0.5810
  280TMC3     H 4231   3.329   4.285   0.145 -0.9610  0.3914  0.0844
  280TMC3    H1 4232   3.325   4.715   0.144 -2.8503 -0.6871 -1.0788
  280TMC3    H2 4233   3.243   4.492   0.503 -1.8415  0.7948 -1.0683
  280TMC3    C7 4234   3.242   0.011   0.388  0.4655 -0.4939  0.0373
  280TMC3    C8 4235   3.267   4.262   0.400 -0.5436 -0.4873 -0.2281
  280TMC3    O1 4236   3.295   0.048   0.491  0.2160  0.4443 -0.6478
  280TMC3    O2 4237   3.175   4.263   0.482 -0.3411  0.2670 -0.4475
  281TMC3    C1 4238   2.323   0.269  12.816 -0.7110 -0.5354 -0.3200
  281TMC3    C2 4239   2.299   0.375  12.725  0.4948  1.0833 -0.6000
  281TMC3    C3 4240   2.241   0.341  12.604 -0.3411 -0.5641  0.3848
  281TMC3    C4 4241   2.301   0.142  12.778  0.2881 -0.2235  0.6223
  281TMC3    C5 4242   2.258   0.116  12.653  0.4205 -0.3118  0.1007
  281TMC3    C6 4243   2.220   0.218  12.564  0.2800  1.0758  0.3558
  281TMC3     C 4244   2.318   0.290  12.959  0.5899  0.7210  0.0746
  281TMC3     O 4245   2.346   0.195  13.029  0.5217  0.1333 -0.4853
  281TMC3     H 4246   2.324   0.478  12.749  0.5095  1.5719 -2.7229
  281TMC3    H1 4247   2.322   0.054  12.838  0.7871 -1.6670 -1.6889
  281TMC3    H2 4248   2.167   0.193  12.472  1.7586 -2.1850  0.3920
  281TMC3    C7 4249   2.213   4.709  12.627  0.3314 -0.1762  0.4109
  281TMC3    C8 4250   2.147   0.444  12.573  0.1174 -0.2706 -0.1647
  281TMC3    O1 4251   2.205   4.676  12.508  0.1307  0.0738  0.0231
  281TMC3    O2 4252   2.130   0.527  12.659 -0.2058  0.2171  0.6540
  282MPD2     C 4253   4.402   1.227  15.228  0.4554  0.7263 -0.2421
  282MPD2    C1 4254   4.290   1.309  15.207 -0.7975  0.4046 -0.1105
  282MPD2    C2 4255   4.254   1.331  15.077  0.5590 -0.7486  0.3590
  282MPD2    C3 4256   4.319   1.273  14.970 -0.3764 -0.7433 -0.3091
  282MPD2    C4 4257   4.419   1.180  14.994  0.5755  0.0817  0.0693
  282MPD2    C5 4258   4.461   1.162  15.125 -1.1461 -0.1751 -0.4906
  282MPD2     H 4259   4.165   1.388  15.051 -0.2958 -1.6472  1.3442
  282MPD2    H1 4260   4.464   1.119  14.917 -0.3831 -0.1193 -0.3413
  282MPD2    H2 4261   4.442   1.216  15.328  1.1983 -1.5832 -0.7992
  282MPD2    H3 4262   4.539   1.089  15.146  0.5659  1.7291 -0.3134
  282MPD2     N 4263   4.271   1.302  14.842  0.5103  0.0120  0.5213
  282MPD2    H5 4264   4.187   1.358  14.834  0.6315  0.1318  0.0763
  282MPD2    N1 4265   4.215   1.372  15.316 -0.8454  0.0877  0.0567
  282MPD2    H7 4266   4.144   1.433  15.277  1.0619  1.4563 -1.2400
  283TMC3    C1 4267   4.120   1.390  15.526 -0.5566 -0.1139  0.2892
  283TMC3    C2 4268   4.072   1.511  15.493 -0.2159 -0.4448 -0.5351
  283TMC3    C3 4269   3.945   1.542  15.539 -0.3349  0.7187 -0.0128
  283TMC3    C4 4270   4.068   1.303  15.620 -0.7102  0.0179  0.1578
  283TMC3    C5 4271   3.947   1.347  15.674 -0.3105 -0.3874  0.2564
  283TMC3    C6 4272   3.881   1.461  15.624 -0.4202  0.2198  0.4932
  283TMC3     C 4273   4.224   1.335  15.448 -0.1023 -0.4043 -0.0681
  283TMC3     O 4274   4.290   1.239  15.490  0.6011 -0.4781  0.3534
  283TMC3     H 4275   4.131   1.574  15.427 -3.0807  2.0440 -0.7179
  283TMC3    H1 4276   4.107   1.202  15.629 -1.2024 -0.2465 -0.6822
  283TMC3    H2 4277   3.781   1.485  15.657 -0.8160 -0.2023 -0.4293
  283TMC3    C7 4278   3.845   1.256  15.712  0.3354 -0.0112  1.2056
  283TMC3    C8 4279   3.891   1.672  15.529 -0.5070 -0.4471 -0.4159
  283TMC3    O1 4280   3.752   1.300  15.781  0.6941 -0.4157  0.2683
  283TMC3    O2 4281   3.785   1.706  15.585  0.1134 -0.0837  0.0200
  284MPD2     C 4282   2.646   1.233  11.934 -0.3409  0.0685 -0.1200
  284MPD2    C1 4283   2.678   1.107  11.880 -0.4215 -0.7977  0.4020
  284MPD2    C2 4284   2.751   1.020  11.960  0.1462 -0.4251  0.3797
  284MPD2    C3 4285   2.797   1.063  12.083 -0.3856  0.2122  0.3653
  284MPD2    C4 4286   2.770   1.187  12.129  0.3605 -0.0453 -0.1294
  284MPD2    C5 4287   2.692   1.274  12.054 -0.4758 -0.4739  0.1334
  284MPD2     H 4288   2.777   0.922  11.923  0.8088 -0.7075  1.6062
  284MPD2    H1 4289   2.803   1.234  12.221 -1.0315 -0.7846  0.7312
  284MPD2    H2 4290   2.596   1.312  11.879 -0.0895 -0.1340 -0.6390
  284MPD2    H3 4291   2.668   1.375  12.085  0.0963 -0.5493  0.8239
  284MPD2     N 4292   2.866   0.978  12.170 -0.6454  0.5145  0.4683
  284MPD2    H5 4293   2.907   1.021  12.252  0.7240  1.7688 -0.8779
  284MPD2    N1 4294   2.659   1.064  11.753  0.1168  0.6872 -0.1887
  284MPD2    H7 4295   2.688   0.969  11.735 -1.6928  0.1741 -0.4265
  285TMC3    C1 4296   2.686   1.099  11.516  0.4936  1.0477 -0.9037
  285TMC3    C2 4297   2.718   0.970  11.519  0.0641 -0.3671  0.0450
  285TMC3    C3 4298   2.826   0.927  11.438  0.4465 -0.2000  0.0111
  285TMC3    C4 4299   2.763   1.191  11.455  1.0122  0.1118  0.5196
  285TMC3    C5 4300   2.866   1.147  11.373  0.0741 -0.9860  0.1350
  285TMC3    C6 4301   2.903   1.021  11.371  0.2244  0.3444 -0.3879
  285TMC3     C 4302   2.640   1.150  11.649  1.0626 -0.5767 -0.5429
  285TMC3     O 4303   2.579   1.260  11.646  0.3768  0.1721 -0.4182
  285TMC3     H 4304   2.644   0.899  11.556 -0.5577 -0.9452 -2.3093
  285TMC3    H1 4305   2.749   1.298  11.468  1.3496  0.3223 -0.8090
  285TMC3    H2 4306   2.985   0.984  11.310 -0.6185 -0.6601 -0.9283
  285TMC3    C7 4307   2.958   1.249  11.337 -0.1987  0.6930 -0.0098
  285TMC3    C8 4308   2.837   0.785  11.406  0.3277 -0.4992 -0.8871
  285TMC3    O1 4309   2.919   1.362  11.324 -0.0133 -0.8577 -0.0845
  285TMC3    O2 4310   2.738   0.713  11.421 -0.4802 -0.2338 -1.2621
  286MPD2     C 4311   3.017   4.486   1.578  0.0867  0.0092  0.4770
  286MPD2    C1 4312   2.978   4.430   1.457  0.1024  0.0316  0.0282
  286MPD2    C2 4313   3.076   4.386   1.365 -0.4699 -0.3187 -0.7694
  286MPD2    C3 4314   3.211   4.394   1.406  0.4638 -0.0440 -0.9160
  286MPD2    C4 4315   3.244   4.437   1.532 -0.1244  0.7903  0.5179
  286MPD2    C5 4316   3.151   4.492   1.613 -0.3877  1.0226 -0.3731
  286MPD2     H 4317   3.044   4.351   1.268 -2.7864 -0.7625  0.1450
  286MPD2    H1 4318   3.348   4.438   1.562  0.6546  1.0216 -2.1783
  286MPD2    H2 4319   2.948   4.529   1.649 -0.4859 -0.9104  0.4845
  286MPD2    H3 4320   3.170   4.543   1.706  0.4957 -0.2324  0.1369
  286MPD2     N 4321   3.315   4.350   1.331  0.1173  0.1064  0.4139
  286MPD2    H5 4322   3.407   4.361   1.371  0.5965 -0.7217 -0.4819
  286MPD2    N1 4323   2.852   4.434   1.403  0.2886  0.9625  0.1085
  286MPD2    H7 4324   2.841   4.402   1.307 -0.6780  1.0529  0.1896
  287TMC3    C1 4325   3.440   4.246   1.160 -0.5648  0.6492  0.1961
  287TMC3    C2 4326   3.440   4.146   1.067 -0.6696 -0.3544  0.1277
  287TMC3    C3 4327   3.556   4.083   1.033 -0.3276  0.2940 -0.5589
  287TMC3    C4 4328   3.550   4.281   1.225 -0.7880 -0.0477 -0.4062
  287TMC3    C5 4329   3.670   4.219   1.190  0.7206 -0.2421 -0.4008
  287TMC3    C6 4330   3.675   4.113   1.101  0.0069 -0.4771  0.0872
  287TMC3     C 4331   3.311   4.281   1.210  0.6324  0.5207  0.1688
  287TMC3     O 4332   3.219   4.228   1.153 -1.2335 -0.0055  0.5651
  287TMC3     H 4333   3.349   4.102   1.030 -1.3216 -0.0757  1.3703
  287TMC3    H1 4334   3.555   4.363   1.296  1.3994  0.7598 -1.5006
  287TMC3    H2 4335   3.757   4.043   1.088 -1.3103 -1.6442 -1.8353
  287TMC3    C7 4336   3.781   4.251   1.275  0.2766 -0.5902  0.7293
  287TMC3    C8 4337   3.558   3.986   0.919  0.0422 -0.0876 -0.0162
  287TMC3    O1 4338   3.762   4.323   1.373  0.1806 -0.1058 -0.1883
  287TMC3    O2 4339   3.461   3.912   0.909  0.2949 -0.2090 -0.0973
  288TMC3    C1 4340   0.368   4.120  14.609  0.1354  0.5351  0.0106
  288TMC3    C2 4341   0.243   4.114  14.670 -0.3167  0.3696  0.2234
  288TMC3    C3 4342   0.129   4.169  14.603 -0.1306 -0.3270 -0.3676
  288TMC3    C4 4343   0.378   4.186  14.491  0.0298  0.6507 -0.1093
  288TMC3    C5 4344   0.269   4.258  14.435  0.1945  0.5118 -0.6229
  288TMC3    C6 4345   0.151   4.243  14.488 -0.7440 -0.0365  0.4291
  288TMC3     C 4346   0.482   4.050  14.668  0.1366 -0.6645 -0.5429
  288TMC3     O 4347   0.488   4.007  14.784 -0.4815  0.1876 -0.1965
  288TMC3     H 4348   0.250   4.071  14.769 -1.4746  1.2354  0.6804
  288TMC3    H1 4349   0.476   4.197  14.447  0.6535 -0.0636  1.1059
  288TMC3    H2 4350   0.066   4.295  14.446 -0.4758  0.8388  0.9627
  288TMC3    C7 4351   0.267   4.315  14.303  0.1060  0.6619 -0.2215
  288TMC3    C8 4352   0.010   4.184  14.675  0.3392  0.1655  0.0700
  288TMC3    O1 4353   0.162   4.305  14.236  0.1748  0.3427 -0.1530
  288TMC3    O2 4354   4.672   4.286  14.650  0.3029 -0.0906  0.1594
  289MPD2     C 4355   0.103   3.080  14.476  0.5435 -0.0380  0.1427
  289MPD2    C1 4356   0.076   3.198  14.411  0.5373 -0.3155  0.4065
  289MPD2    C2 4357   4.680   3.203  14.354  0.2944 -0.9226 -0.3463
  289MPD2    C3 4358   4.583   3.108  14.357 -0.1012 -0.2348  0.1847
  289MPD2    C4 4359   4.609   2.997  14.431 -0.4682  0.1385 -0.9263
  289MPD2    C5 4360   0.005   2.986  14.487  0.2917  0.7325  0.1610
  289MPD2     H 4361   4.656   3.298  14.308  0.0743 -0.4502  0.7328
  289MPD2    H1 4362   4.529   2.924  14.436  0.3113 -0.9290 -3.6106
  289MPD2    H2 4363   0.200   3.057  14.517  0.3637 -2.0264 -0.5998
  289MPD2    H3 4364   0.033   2.892  14.532  0.4792  1.5648  1.8242
  289MPD2     N 4365   4.456   3.126  14.290 -0.7948 -0.3297 -0.1225
  289MPD2    H5 4366   4.380   3.061  14.308  1.1632 -3.4649 -3.2706
  289MPD2    N1 4367   0.167   3.306  14.425  0.0900 -0.4941  0.4179
  289MPD2    H7 4368   0.250   3.272  14.472  0.5243 -0.4007 -0.2881
  290TMC3    C1 4369   4.277   3.242  14.180  0.2613 -0.3707  0.1984
  290TMC3    C2 4370   4.221   3.366  14.162  0.1926 -0.0386 -0.3404
  290TMC3    C3 4371   4.092   3.368  14.103 -0.5560  0.3870  0.3778
  290TMC3    C4 4372   4.211   3.121  14.147  0.6053 -0.5573 -0.0323
  290TMC3    C5 4373   4.089   3.134  14.089 -0.1252  0.1136  0.4926
  290TMC3    C6 4374   4.029   3.251  14.060 -0.2377 -0.3690  0.9064
  290TMC3     C 4375   4.417   3.239  14.224  0.3294 -0.1080  0.0739
  290TMC3     O 4376   4.470   3.347  14.214  0.7611 -0.8665  0.0737
  290TMC3     H 4377   4.281   3.455  14.173 -0.2716  0.5289 -2.4513
  290TMC3    H1 4378   4.267   3.029  14.155  1.3914 -0.1092 -0.3125
  290TMC3    H2 4379   3.925   3.265  14.036  0.0582  1.1158  0.4478
  290TMC3    C7 4380   3.997   3.018  14.080  0.4316 -0.6223  0.8264
  290TMC3    C8 4381   4.010   3.484  14.117  0.3672  0.1808 -0.5266
  290TMC3    O1 4382   3.890   3.038  14.018 -0.3519  0.1922  0.4700
  290TMC3    O2 4383   3.900   3.489  14.070  0.3692  0.1588 -0.2825
  291MPD2     C 4384   4.127   3.187   0.320 -0.2464  0.4082 -0.0851
  291MPD2    C1 4385   4.076   3.093   0.235 -0.0021  0.4258 -0.0906
  291MPD2    C2 4386   4.155   3.041   0.133 -1.4981  0.6886  0.2513
  291MPD2    C3 4387   4.283   3.097   0.113 -0.4840  0.7538  0.1518
  291MPD2    C4 4388   4.330   3.186   0.206  0.0277 -0.8867  0.0303
  291MPD2    C5 4389   4.264   3.221   0.318 -0.4076  0.8306 -0.1936
  291MPD2     H 4390   4.111   2.962   0.073 -1.4797  1.1059 -0.3083
  291MPD2    H1 4391   4.434   3.213   0.188 -0.1513 -0.0205  0.2782
  291MPD2    H2 4392   4.064   3.237   0.393 -2.0397 -0.4554 -1.0499
  291MPD2    H3 4393   4.300   3.292   0.391  1.3109  0.5635 -0.7846
  291MPD2     N 4394   4.361   3.073  17.708  0.1520  0.1665 -0.1476
  291MPD2    H5 4395   4.442   3.133  17.699  0.4045  0.3208  3.1799
  291MPD2    N1 4396   3.951   3.037   0.250  0.1780 -0.2525 -0.1420
  291MPD2    H7 4397   3.923   2.977   0.173 -0.4871  1.0360 -0.9055
  292TMC3    C1 4398   3.733   2.990   0.330 -0.3361  0.3982 -0.1704
  292TMC3    C2 4399   3.644   3.044   0.423 -0.1804  0.2458 -0.3049
  292TMC3    C3 4400   3.559   2.955   0.490 -0.0835  0.1000 -0.2827
  292TMC3    C4 4401   3.733   2.860   0.300  0.1104 -0.5695 -0.9787
  292TMC3    C5 4402   3.655   2.774   0.378 -0.0124  0.2432  0.2142
  292TMC3    C6 4403   3.562   2.817   0.469 -0.3175 -0.7532  0.4204
  292TMC3     C 4404   3.858   3.076   0.340  0.0785 -0.4677 -0.3408
  292TMC3     O 4405   3.864   3.156   0.431  0.0028 -0.2332 -0.2371
  292TMC3     H 4406   3.636   3.151   0.438  1.0610  0.1948  0.6997
  292TMC3    H1 4407   3.802   2.822   0.225  4.0128  1.9237  1.3013
  292TMC3    H2 4408   3.501   2.744   0.522 -0.2394 -0.9917  0.1823
  292TMC3    C7 4409   3.651   2.636   0.325  0.5402  0.5155 -1.2507
  292TMC3    C8 4410   3.516   2.999   0.618  0.7337  0.0963  0.4443
  292TMC3    O1 4411   3.714   2.612   0.222 -0.0849 -0.2533  0.1153
  292TMC3    O2 4412   3.567   3.104   0.665  0.2650 -0.1140 -0.0812
  293MPD2     C 4413   0.797   4.075  12.746  0.0431 -0.3965 -0.6879
  293MPD2    C1 4414   0.722   4.184  12.779 -0.4474 -0.1743  0.3852
  293MPD2    C2 4415   0.754   4.245  12.900 -0.2930 -0.4061  0.4979
  293MPD2    C3 4416   0.853   4.200  12.979 -0.0452  0.4823 -0.2642
  293MPD2    C4 4417   0.922   4.084  12.954 -0.0737  0.5007 -0.1499
  293MPD2    C5 4418   0.889   4.019  12.836 -0.2994 -0.4251 -0.1039
  293MPD2     H 4419   0.712   4.342  12.924  0.2714  0.1314 -0.7075
  293MPD2    H1 4420   0.996   4.043  13.023 -0.1377  1.1731  0.3152
  293MPD2    H2 4421   0.790   4.034  12.646  0.7555  0.0626 -0.9269
  293MPD2    H3 4422   0.941   3.933  12.797  1.7414  1.3037 -1.1986
  293MPD2     N 4423   0.879   4.271  13.095  0.3158  0.2255 -0.0444
  293MPD2    H5 4424   0.814   4.343  13.124 -1.4821 -0.2814 -2.8801
  293MPD2    N1 4425   0.620   4.233  12.698  0.6334 -0.6229 -0.2528
  293MPD2    H7 4426   0.585   4.179  12.619 -0.9775  0.2578 -0.1470
  294TMC3    C1 4427   0.463   4.373  12.600  0.3455  0.1814  0.4668
  294TMC3    C2 4428   0.375   4.272  12.595 -0.1624 -0.3143  0.0830
  294TMC3    C3 4429   0.287   4.264  12.489  0.0771  0.3953  0.1310
  294TMC3    C4 4430   0.468   4.479  12.521  0.2420 -0.3809 -0.1409
  294TMC3    C5 4431   0.386   4.467  12.413 -0.1959  0.1531  0.2539
  294TMC3    C6 4432   0.298   4.363  12.392 -0.0240 -0.2390  0.0515
  294TMC3     C 4433   0.576   4.362  12.698  0.0962  0.4834  0.9728
  294TMC3     O 4434   0.643   4.459  12.723  0.1030 -0.4720 -0.0154
  294TMC3     H 4435   0.351   4.211  12.681  1.4577 -1.2772 -0.1384
  294TMC3    H1 4436   0.543   4.556  12.533 -2.2190  2.1971 -1.3027
  294TMC3    H2 4437   0.217   4.378  12.322  1.1230  3.1654 -0.5818
  294TMC3    C7 4438   0.356   4.586  12.334 -0.7582 -0.0953 -0.0573
  294TMC3    C8 4439   0.164   4.196  12.513  0.8894 -0.3457  0.5908
  294TMC3    O1 4440   0.349   4.696  12.397 -0.5750 -0.5577 -0.3178
  294TMC3    O2 4441   0.109   4.209  12.624 -0.1174  0.6484  0.8145
  295MPD2     C 4442   1.738   2.670   0.704 -0.2792  0.2508 -0.7021
  295MPD2    C1 4443   1.644   2.775   0.699 -0.4836 -0.0198 -0.1350
  295MPD2    C2 4444   1.640   2.867   0.803 -0.5558 -0.3448 -0.3917
  295MPD2    C3 4445   1.705   2.842   0.921  0.6731 -0.2932  0.0759
  295MPD2    C4 4446   1.785   2.731   0.926 -0.3352 -0.6075 -0.0095
  295MPD2    C5 4447   1.803   2.648   0.820  0.8682  0.7073 -0.0711
  295MPD2     H 4448   1.570   2.948   0.790 -1.8254 -1.4647 -0.5689
  295MPD2    H1 4449   1.838   2.707   1.018 -0.0889  1.5138  0.4095
  295MPD2    H2 4450   1.757   2.604   0.621 -0.4381  0.7712 -1.1524
  295MPD2    H3 4451   1.877   2.569   0.828 -0.4009 -0.3922  0.8663
  295MPD2     N 4452   1.679   2.908   1.042  0.5711  0.4383  0.3359
  295MPD2    H5 4453   1.713   2.870   1.130 -1.2591 -2.4779 -0.1983
  295MPD2    N1 4454   1.568   2.788   0.577  0.5925 -0.1912  0.4767
  295MPD2    H7 4455   1.531   2.880   0.557 -0.0063 -0.6620 -0.5612
  296TMC3    C1 4456   1.568   3.072   1.177 -0.2929  0.5052 -0.9705
  296TMC3    C2 4457   1.496   3.193   1.182 -0.5938  0.2553  0.2109
  296TMC3    C3 4458   1.430   3.227   1.298 -0.2665  0.5454 -0.0896
  296TMC3    C4 4459   1.557   2.982   1.278  0.0978  0.0502 -0.6945
  296TMC3    C5 4460   1.497   3.027   1.393  0.6875 -0.2535 -0.5652
  296TMC3    C6 4461   1.432   3.150   1.407  0.4649  0.2725 -0.1338
  296TMC3     C 4462   1.603   3.026   1.044  0.1230  0.1644 -0.0469
  296TMC3     O 4463   1.563   3.092   0.955 -0.0027  0.6318 -0.3642
  296TMC3     H 4464   1.480   3.259   1.098  0.4398  0.1130 -0.0935
  296TMC3    H1 4465   1.616   2.892   1.278 -1.7989 -1.1949  1.6468
  296TMC3    H2 4466   1.379   3.169   1.500  0.7074  1.1245 -0.1706
  296TMC3    C7 4467   1.527   2.945   1.515 -0.0837 -0.9101 -0.0012
  296TMC3    C8 4468   1.374   3.360   1.307  0.0537 -0.0721  0.5180
  296TMC3    O1 4469   1.511   3.003   1.621 -0.0920 -0.2350  0.3644
  296TMC3    O2 4470   1.351   3.432   1.206 -0.4134  0.0466  0.2014
  297MPD2     C 4471   3.217   0.003  16.076 -0.1118 -0.1453 -0.2947
  297MPD2    C1 4472   3.176   0.133  16.062 -0.7815 -0.4712  0.2128
  297MPD2    C2 4473   3.243   0.232  16.129  0.3632  0.7841 -0.7813
  297MPD2    C3 4474   3.376   0.211  16.155  0.1934 -0.4800 -0.3276
  297MPD2    C4 4475   3.422   0.077  16.165 -0.4343  0.7206  0.3747
  297MPD2    C5 4476   3.339   4.703  16.126  0.3070  0.9773  0.3140
  297MPD2     H 4477   3.210   0.336  16.125  1.5557  1.1718 -0.5403
  297MPD2    H1 4478   3.527   0.058  16.183 -0.2952  1.2636  0.1354
  297MPD2    H2 4479   3.167   4.641  16.041 -0.9872  0.2901 -0.1653
  297MPD2    H3 4480   3.390   4.608  16.128  0.1339  0.8589 -0.8372
  297MPD2     N 4481   3.461   0.319  16.165  0.0118  0.5148  0.0559
  297MPD2    H5 4482   3.415   0.408  16.155  1.2574  0.6217 -4.8195
  297MPD2    N1 4483   3.051   0.163  16.002  0.2923 -0.5678  0.0616
  297MPD2    H7 4484   3.009   0.253  16.021  0.0101 -0.5786 -0.5067
  298TMC3    C1 4485   2.862   0.144  15.867  0.8680 -0.4114  0.9354
  298TMC3    C2 4486   2.830   0.131  15.732 -0.3239  0.6000 -0.5759
  298TMC3    C3 4487   2.711   0.195  15.696  0.3582 -0.5322  0.1248
  298TMC3    C4 4488   2.782   0.199  15.965 -0.4832 -0.6103 -0.5679
  298TMC3    C5 4489   2.663   0.244  15.923  0.0902 -0.4163 -0.3050
  298TMC3    C6 4490   2.632   0.253  15.791  0.3860  0.2276  0.6494
  298TMC3     C 4491   2.991   0.088  15.903  0.0618 -0.3587 -1.0672
  298TMC3     O 4492   3.045   0.020  15.817  0.1092 -0.1019 -0.0988
  298TMC3     H 4493   2.891   0.077  15.661 -0.6244 -0.8074  0.2341
  298TMC3    H1 4494   2.821   0.192  16.066 -2.0535 -0.1035  0.0746
  298TMC3    H2 4495   2.537   0.291  15.757  1.5869  1.2512 -1.5592
  298TMC3    C7 4496   2.594   0.327  16.018  0.1827 -0.6445  0.3040
  298TMC3    C8 4497   2.681   0.241  15.562  0.0621  0.1010 -0.0615
  298TMC3    O1 4498   2.606   0.306  16.137  0.3319  0.2070 -0.2926
  298TMC3    O2 4499   2.618   0.346  15.548 -0.0256  0.1471 -0.1540
  299MPD2     C 4500   4.197   4.486  11.071 -0.5795  0.2120 -0.4515
  299MPD2    C1 4501   4.176   4.612  11.023 -0.3677  0.1401 -0.7143
  299MPD2    C2 4502   4.122   4.632  10.901  0.7773 -0.6230 -0.3598
  299MPD2    C3 4503   4.083   4.523  10.824 -0.0271 -0.3278  0.3186
  299MPD2    C4 4504   4.103   4.396  10.881 -0.3744  0.1562 -0.2902
  299MPD2    C5 4505   4.157   4.377  11.008 -0.2737  0.7968  0.0628
  299MPD2     H 4506   4.111   0.006  10.862  0.8659  0.7564  3.2408
  299MPD2    H1 4507   4.064   4.307  10.833  0.2908 -1.2261  1.7002
  299MPD2    H2 4508   4.239   4.462  11.168 -4.2267 -1.0002  0.8200
  299MPD2    H3 4509   4.180   4.277  11.044 -0.3536  0.4979 -0.7192
  299MPD2     N 4510   4.002   4.519  10.707 -0.2384 -0.6138  0.5832
  299MPD2    H5 4511   3.970   4.425  10.686 -0.6010 -0.3579 -0.0178
  299MPD2    N1 4512   4.232   4.717  11.100  0.7745 -0.0770  0.1048
  299MPD2    H7 4513   4.281   4.692  11.185 -0.0817  0.8626  0.8845
  300TMC3    C1 4514   3.828   4.605  10.564  0.0066  0.4501  0.1262
  300TMC3    C2 4515   3.791   4.709  10.477 -0.4158  0.6523 -0.2693
  300TMC3    C3 4516   3.680   4.690  10.397 -0.0315 -0.0502 -0.0579
  300TMC3    C4 4517   3.749   4.490  10.579 -0.1721  0.3244  0.0597
  300TMC3    C5 4518   3.627   4.489  10.513 -0.0169  0.0045  0.6723
  300TMC3    C6 4519   3.597   4.581  10.420  0.0990 -0.2707  0.2550
  300TMC3     C 4520   3.948   4.634  10.647  0.0590  0.5314  0.8586
  300TMC3     O 4521   4.004   0.014  10.640  0.4831 -0.7229  0.4285
  300TMC3     H 4522   3.857   0.066  10.465  1.4556 -1.0432 -1.8480
  300TMC3    H1 4523   3.753   4.426  10.666  0.4631 -1.8764 -1.6027
  300TMC3    H2 4524   3.499   4.584  10.373 -0.1007 -0.0567  0.6809
  300TMC3    C7 4525   3.526   4.413  10.577 -0.3357  0.3697  0.2078
  300TMC3    C8 4526   3.621   0.093  10.357 -0.0761 -0.6874 -0.1988
  300TMC3    O1 4527   3.551   4.299  10.601  0.0496  0.2869  0.2428
  300TMC3    O2 4528   3.668   0.185  10.422 -0.4002 -0.0335  0.1684
  301MPD2     C 4529   1.297   1.183   0.717  0.5026  0.6990 -0.0479
  301MPD2    C1 4530   1.208   1.194   0.819 -0.6214 -0.2678 -0.0581
  301MPD2    C2 4531   1.178   1.076   0.886  0.4372  0.0403 -0.0358
  301MPD2    C3 4532   1.235   0.952   0.858  0.2385  0.4960 -0.1116
  301MPD2    C4 4533   1.330   0.950   0.754  0.0088 -0.2761 -0.8417
  301MPD2    C5 4534   1.363   1.065   0.689 -0.2399 -0.5925 -0.0459
  301MPD2     H 4535   1.106   1.080   0.967 -0.9877  2.1197 -1.3964
  301MPD2    H1 4536   1.383   0.858   0.729 -0.8588 -0.5891 -1.5336
  301MPD2    H2 4537   1.328   1.264   0.652  3.9831 -0.2635  0.3908
  301MPD2    H3 4538   1.434   1.054   0.608  1.7342  0.2234  1.5948
  301MPD2     N 4539   1.192   0.830   0.916 -0.0231  0.2371 -0.6346
  301MPD2    H5 4540   1.244   0.748   0.884 -2.4124 -1.9691  1.1173
  301MPD2    N1 4541   1.143   1.313   0.853 -0.3596  0.3106  0.2332
  301MPD2    H7 4542   1.100   1.324   0.944  0.1569 -1.0083  0.6249
  302TMC3    C1 4543   1.053   0.675   1.014 -0.4399 -0.0357 -0.6169
  302TMC3    C2 4544   1.150   0.580   1.035 -0.3051 -0.1047 -0.4456
  302TMC3    C3 4545   1.133   0.462   1.106 -0.3767  0.2679  0.2862
  302TMC3    C4 4546   0.929   0.642   1.050 -0.6818  0.4741  0.2030
  302TMC3    C5 4547   0.903   0.515   1.106  0.5251 -0.3556  0.8856
  302TMC3    C6 4548   1.006   0.432   1.144  0.2966 -0.2388  0.6511
  302TMC3     C 4549   1.088   0.816   1.011 -0.2154  0.0654  0.8895
  302TMC3     O 4550   0.998   0.890   1.044 -0.2488  0.5587 -0.0575
  302TMC3     H 4551   1.252   0.597   1.004 -0.0726 -1.4327 -0.3913
  302TMC3    H1 4552   0.849   0.715   1.040 -0.8205  0.9184  4.4709
  302TMC3    H2 4553   0.979   0.349   1.208  1.7325 -1.1146  0.1274
  302TMC3    C7 4554   0.769   0.477   1.153  0.8194 -0.4014  0.5171
  302TMC3    C8 4555   1.245   0.392   1.162  0.7302 -0.2267 -0.6763
  302TMC3    O1 4556   0.754   0.385   1.231  0.1354  0.0883  0.1385
  302TMC3    O2 4557   1.359   0.432   1.143 -0.1384  0.6463 -0.2564
  303MPD2     C 4558   0.966   3.796  10.219  0.0400  0.1563  0.6264
  303MPD2    C1 4559   1.025   3.715  10.124 -0.1110 -0.0204  0.9594
  303MPD2    C2 4560   1.095   3.775  10.027  0.5292  0.4415  0.2882
  303MPD2    C3 4561   1.093   3.917  10.010  0.1189 -0.0051 -0.3514
  303MPD2    C4 4562   1.031   3.994  10.105  0.1349  0.1998  0.6981
  303MPD2    C5 4563   0.960   3.930  10.203 -0.0488  0.4828 -0.8369
  303MPD2     H 4564   1.152   3.718   9.954 -0.5502 -0.5783  0.2515
  303MPD2    H1 4565   1.035   4.102  10.105  0.7877  0.1719 -0.6151
  303MPD2    H2 4566   0.909   3.765  10.306  2.3640  0.3446  2.2163
  303MPD2    H3 4567   0.915   3.993  10.279  1.7196 -0.3111  0.8689
  303MPD2     N 4568   1.170   3.986   9.913  0.0487 -0.2572  0.0230
  303MPD2    H5 4569   1.172   4.086   9.929  1.2445 -0.4493  1.0266
  303MPD2    N1 4570   1.003   3.576  10.125  0.4786  0.3760  0.4503
  303MPD2    H7 4571   0.940   3.548  10.200 -1.5197  1.1965 -0.9261
  304TMC3    C1 4572   1.036   3.344  10.099  0.3004 -0.3254 -0.0489
  304TMC3    C2 4573   0.898   3.328  10.076  0.0549 -0.7608  0.7361
  304TMC3    C3 4574   0.864   3.209  10.021  0.0686  0.8907 -0.3903
  304TMC3    C4 4575   1.124   3.249  10.059  0.0004 -0.0003 -0.2214
  304TMC3    C5 4576   1.079   3.127  10.016  0.9420 -0.5212 -0.3485
  304TMC3    C6 4577   0.944   3.104  10.000 -0.5167 -0.5820  0.2635
  304TMC3     C 4578   1.075   3.479  10.056  0.0260 -0.4633 -0.2049
  304TMC3     O 4579   1.165   3.488   9.974 -0.0515  0.3046 -0.3810
  304TMC3     H 4580   0.828   3.410  10.080  1.3313  0.2534  2.3694
  304TMC3    H1 4581   1.231   3.265  10.051  0.1003 -0.5429  0.0921
  304TMC3    H2 4582   0.898   3.014   9.960 -0.8567  0.5408 -1.8136
  304TMC3    C7 4583   1.155   3.073   9.915  0.0389 -0.1657 -0.1452
  304TMC3    C8 4584   0.787   3.235   9.897  0.6961  0.4666  0.4784
  304TMC3    O1 4585   1.096   3.019   9.823  0.5017  0.8513  0.1197
  304TMC3    O2 4586   0.692   3.308   9.897 -0.2701  1.0082  0.1333
  305MPD2     C 4587   4.444   1.798  13.741  0.0719 -0.0229 -0.0613
  305MPD2    C1 4588   4.426   1.688  13.828 -0.0279  0.1426  0.2083
  305MPD2    C2 4589   4.383   1.569  13.771  0.2963  0.1384  0.2682
  305MPD2    C3 4590   4.358   1.558  13.635 -0.0255 -0.2146 -0.2669
  305MPD2    C4 4591   4.370   1.667  13.550 -0.2434  0.3860 -0.0142
  305MPD2    C5 4592   4.422   1.782  13.602  0.6697 -0.4199  0.1644
  305MPD2     H 4593   4.376   1.485  13.839 -1.4798  0.5209  0.5472
  305MPD2    H1 4594   4.361   1.650  13.444  2.0898 -1.8645  0.1704
  305MPD2    H2 4595   4.483   1.887  13.789  1.7826 -0.7754 -0.0811
  305MPD2    H3 4596   4.436   1.869  13.540 -0.4688 -1.0018 -0.9048
  305MPD2     N 4597   4.343   1.434  13.573  0.8356  0.4744  0.2961
  305MPD2    H5 4598   4.331   1.435  13.473  0.8251 -1.7872  0.2611
  305MPD2    N1 4599   4.468   1.706  13.962 -0.2920 -0.1992  0.1320
  305MPD2    H7 4600   4.511   1.795  13.986 -3.2354  0.9910  1.0573
  306TMC3    C1 4601   4.526   1.667  14.181 -0.8426 -0.4231  0.1988
  306TMC3    C2 4602   4.485   1.595  14.294 -0.1022  0.1053 -0.0181
  306TMC3    C3 4603   4.539   1.633  14.414 -0.2191 -0.4164 -0.7244
  306TMC3    C4 4604   4.618   1.771  14.182  0.0281  0.5596  0.1520
  306TMC3    C5 4605   4.675   1.789  14.300 -0.2603 -0.1465 -0.1603
  306TMC3    C6 4606   4.634   1.731  14.421  0.7293  0.3697  0.0352
  306TMC3     C 4607   4.462   1.619  14.064  0.4327 -0.5107 -0.4859
  306TMC3     O 4608   4.387   1.521  14.066  0.4301 -0.2315  0.1178
  306TMC3     H 4609   4.427   1.504  14.283  0.2771 -0.3024  1.4166
  306TMC3    H1 4610   4.645   1.816  14.088  0.2973  1.1146  0.4985
  306TMC3    H2 4611   4.671   1.754  14.520 -0.8182  2.0216  0.2349
  306TMC3    C7 4612   0.084   1.848  14.291  0.0579  0.6427 -0.4135
  306TMC3    C8 4613   4.573   1.525  14.507  0.4898 -0.1249 -0.5295
  306TMC3    O1 4614   0.126   1.851  14.178 -0.0321  0.2161 -0.4567
  306TMC3    O2 4615   4.609   1.419  14.462 -0.2046 -0.4056 -0.1542
  307MPD2     C 4616   2.714   3.988   0.697 -0.5162  0.2727  1.0316
  307MPD2    C1 4617   2.614   3.923   0.630  0.4441  0.6871  0.0809
  307MPD2    C2 4618   2.502   3.878   0.697 -0.4704 -0.1172 -0.5103
  307MPD2    C3 4619   2.488   3.892   0.836  0.0142 -0.0783 -0.2267
  307MPD2    C4 4620   2.592   3.952   0.904  0.5830  0.0209 -0.1764
  307MPD2    C5 4621   2.702   4.006   0.832  0.5459 -0.2115 -0.5225
  307MPD2     H 4622   2.431   3.813   0.645 -0.8754  0.7669 -1.0651
  307MPD2    H1 4623   2.588   3.962   1.012 -0.6530 -0.1952 -0.2054
  307MPD2    H2 4624   2.802   4.028   0.650 -1.0508  1.6983  1.2535
  307MPD2    H3 4625   2.780   4.057   0.888 -1.6733  0.3054  2.1144
  307MPD2     N 4626   2.369   3.849   0.884 -0.7286  0.0195  0.0748
  307MPD2    H5 4627   2.309   3.812   0.811 -1.7011  1.2982  0.2124
  307MPD2    N1 4628   2.614   3.905   0.489 -0.5678  0.3628 -0.2022
  307MPD2    H7 4629   2.531   3.878   0.437  0.4336 -2.5091 -0.3502
  308TMC3    C1 4630   1.973   3.876   0.903 -0.4623  0.2080 -0.3144
  308TMC3    C2 4631   1.971   4.012   0.897 -0.3175  0.1696 -0.1500
  308TMC3    C3 4632   2.072   4.082   0.963 -0.3811 -0.1610  0.1058
  308TMC3    C4 4633   2.085   3.812   0.951  0.4654  0.2512 -0.4517
  308TMC3    C5 4634   2.186   3.885   1.017 -0.1910  0.0159 -0.4611
  308TMC3    C6 4635   2.174   4.021   1.031 -0.6697 -0.1567  0.1893
  308TMC3     C 4636   1.871   3.796   0.828  0.1100  0.0327 -0.8360
  308TMC3     O 4637   1.877   3.673   0.851 -0.2878 -0.9724 -0.0837
  308TMC3     H 4638   1.884   4.063   0.858  1.0748  0.1221 -3.3085
  308TMC3    H1 4639   2.092   3.704   0.944 -2.0664 -0.0837  2.0725
  308TMC3    H2 4640   2.248   4.085   1.079  1.3420  0.5513 -3.8336
  308TMC3    C7 4641   2.325   3.856   1.015 -0.2625 -0.5062  0.4625
  308TMC3    C8 4642   2.069   4.228   0.969  0.0145 -0.7368 -0.4655
  308TMC3    O1 4643   2.384   3.904   1.109 -0.3117 -0.1477 -0.0485
  308TMC3    O2 4644   2.108   4.283   1.070 -0.3256  0.2518 -0.1541
  309MPD2     C 4645   1.524   4.530  16.987  0.5248  0.4401 -0.0159
  309MPD2    C1 4646   1.474   4.649  16.930 -0.3891  0.3117  0.5038
  309MPD2    C2 4647   1.342   4.691  16.944  0.6943 -0.4657 -0.3004
  309MPD2    C3 4648   1.254   4.601  17.006 -0.1235  0.3146 -0.5435
  309MPD2    C4 4649   1.300   4.478  17.055 -0.9517  0.1870 -0.1012
  309MPD2    C5 4650   1.433   4.446  17.045 -0.1911  0.4815  0.0383
  309MPD2     H 4651   1.308   0.055  16.897 -2.3609 -1.4586 -0.0222
  309MPD2    H1 4652   1.228   4.423  17.114  0.7625  0.7270  2.5038
  309MPD2    H2 4653   1.628   4.504  17.002  0.3531 -1.0007 -1.2867
  309MPD2    H3 4654   1.471   4.354  17.088 -0.2460  0.3455 -0.2037
  309MPD2     N 4655   1.115   4.625  17.013  1.3619  0.1293 -1.0058
  309MPD2    H5 4656   1.055   4.551  17.046 -0.0540  1.7436  0.0430
  309MPD2    N1 4657   1.553   4.726  16.839  0.5622  0.4982 -0.2527
  309MPD2    H7 4658   1.513   0.083  16.800 -2.2837 -1.1442 -0.9245
  310TMC3    C1 4659   1.717   0.060  16.685  0.0462 -0.4630 -0.2881
  310TMC3    C2 4660   1.619   0.083  16.590 -0.4454 -0.2597  0.1594
  310TMC3    C3 4661   1.646   0.059  16.460  0.6612  0.0172  0.5721
  310TMC3    C4 4662   1.840   0.024  16.641  0.2488 -0.1243 -0.6826
  310TMC3    C5 4663   1.863   0.004  16.509  0.7843 -0.6249 -0.1377
  310TMC3    C6 4664   1.770   0.022  16.414  0.5409 -0.1944 -0.7479
  310TMC3     C 4665   1.677   4.694  16.795 -0.4576 -0.2910  0.3443
  310TMC3     O 4666   1.756   4.610  16.836  0.2348 -0.7499  0.4785
  310TMC3     H 4667   1.523   0.125  16.619  0.2237  0.6801  1.0427
  310TMC3    H1 4668   1.911   4.715  16.714 -1.2831 -1.3301  0.1944
  310TMC3    H2 4669   1.793   4.716  16.313  1.4699  0.2618 -0.6932
  310TMC3    C7 4670   1.972   4.637  16.481  0.0890  0.4643 -0.6634
  310TMC3    C8 4671   1.540   0.041  16.361 -0.5626  0.5232 -0.0224
  310TMC3    O1 4672   2.005   4.567  16.578  0.7499 -0.5221 -0.6724
  310TMC3    O2 4673   1.580   0.018  16.249  0.2866  0.0127  0.2016
  311MPD2     C 4674   3.618   1.218  12.998 -0.5955  1.0005 -0.1628
  311MPD2    C1 4675   3.594   1.337  12.931  0.4502 -0.6616 -0.4045
  311MPD2    C2 4676   3.465   1.401  12.942 -0.1371  0.4449  0.1794
  311MPD2    C3 4677   3.360   1.323  12.988  0.0911  0.0513 -0.5280
  311MPD2    C4 4678   3.381   1.201  13.043 -0.3333  0.1373 -0.4950
  311MPD2    C5 4679   3.517   1.154  13.055 -0.0432 -0.3858  0.9937
  311MPD2     H 4680   3.456   1.499  12.897 -0.9986 -0.7349 -2.2053
  311MPD2    H1 4681   3.302   1.145  13.093 -0.1215 -2.2584 -2.8282
  311MPD2    H2 4682   3.713   1.166  13.000 -2.0114 -1.4934  3.3390
  311MPD2    H3 4683   3.529   1.058  13.105  1.7630 -2.4935 -3.4270
  311MPD2     N 4684   3.229   1.380  12.983  0.5647 -0.5466  0.2976
  311MPD2    H5 4685   3.225   1.480  12.964  1.0769 -0.4538  0.6773
  311MPD2    N1 4686   3.701   1.398  12.851  0.5364 -0.6112  0.6936
  311MPD2    H7 4687   3.669   1.479  12.799  0.9313  0.5600  2.2781
  312TMC3    C1 4688   3.003   1.398  13.004  0.7896  0.2766  0.2434
  312TMC3    C2 4689   2.888   1.359  12.940  0.4406  0.5411 -0.0829
  312TMC3    C3 4690   2.771   1.425  12.972 -0.5762 -1.3377 -0.3198
  312TMC3    C4 4691   3.010   1.503  13.090 -0.3628  0.4206  0.1297
  312TMC3    C5 4692   2.891   1.565  13.116 -0.5795 -0.3145  0.5567
  312TMC3    C6 4693   2.768   1.528  13.058 -0.8947  0.1007  0.8729
  312TMC3     C 4694   3.116   1.309  13.000 -0.0810 -0.7367  0.8801
  312TMC3     O 4695   3.080   1.192  12.989 -0.0772 -0.0076 -0.4118
  312TMC3     H 4696   2.900   1.274  12.874  3.3883  2.2767 -1.7795
  312TMC3    H1 4697   3.100   1.536  13.140  0.9988  0.2048 -2.1845
  312TMC3    H2 4698   2.674   1.568  13.093 -1.1064 -0.4011  0.8790
  312TMC3    C7 4699   2.873   1.635  13.242 -0.4088  0.2817 -0.5208
  312TMC3    C8 4700   2.653   1.410  12.884 -0.2081  0.2144 -0.5594
  312TMC3    O1 4701   2.791   1.722  13.242  0.2173 -0.6370  0.5183
  312TMC3    O2 4702   2.659   1.312  12.810 -0.1795  0.1650  0.5198
  313MPD2     C 4703   3.006   0.426  10.879 -0.0943  0.1314  0.0467
  313MPD2    C1 4704   2.884   0.392  10.839 -0.3020 -0.6070 -0.1350
  313MPD2    C2 4705   2.881   0.299  10.738 -1.1396  0.2783 -0.4278
  313MPD2    C3 4706   2.988   0.251  10.675  0.0066  0.3637  0.0687
  313MPD2    C4 4707   3.112   0.283  10.723  0.1097  0.1824 -0.0713
  313MPD2    C5 4708   3.123   0.370  10.824  0.1164 -0.4252 -0.2016
  313MPD2     H 4709   2.783   0.265  10.707 -0.1142 -1.2649 -1.9947
  313MPD2    H1 4710   3.209   0.260  10.681 -0.0605  1.8793 -1.3806
  313MPD2    H2 4711   3.030   0.488  10.964  0.1264 -0.7480  0.6243
  313MPD2    H3 4712   3.220   0.406  10.859 -0.7829  0.4541  1.4245
  313MPD2     N 4713   2.966   0.169  10.570  0.9473 -0.0637  0.0336
  313MPD2    H5 4714   2.872   0.145  10.543 -0.1301  4.1696  0.1263
  313MPD2    N1 4715   2.766   0.450  10.883  1.0110 -0.3671  0.3553
  313MPD2    H7 4716   2.679   0.410  10.850  1.2562 -0.6585  0.0590
  314TMC3    C1 4717   2.632   0.617  10.993  0.4569 -0.4134  0.7137
  314TMC3    C2 4718   2.665   0.726  11.069  0.2527 -0.0724  0.9990
  314TMC3    C3 4719   2.641   0.846  11.018  0.0342 -0.3271  0.4630
  314TMC3    C4 4720   2.556   0.627  10.879 -0.2634 -0.1198 -0.5431
  314TMC3    C5 4721   2.516   0.749  10.843  0.2326 -0.0803 -0.2382
  314TMC3    C6 4722   2.575   0.863  10.904 -1.2518 -0.2360 -0.3309
  314TMC3     C 4723   2.762   0.546  10.981 -0.9508  0.8034 -0.2435
  314TMC3     O 4724   2.855   0.599  11.037 -0.6269  0.2671  0.4364
  314TMC3     H 4725   2.697   0.712  11.171  1.0020 -0.1190  0.7576
  314TMC3    H1 4726   2.504   0.543  10.835 -1.0790 -0.1596  0.4932
  314TMC3    H2 4727   2.536   0.959  10.873  2.1544  0.3832 -2.6098
  314TMC3    C7 4728   2.440   0.769  10.719 -0.1302  0.2550  0.9628
  314TMC3    C8 4729   2.750   0.948  11.036 -0.3060  0.7747 -1.3005
  314TMC3    O1 4730   2.345   0.696  10.697  0.5912 -0.0542 -0.1955
  314TMC3    O2 4731   2.722   1.061  11.002  0.0922  0.5241  0.0568
  315MPD2     C 4732   2.287   0.001   0.292  0.5862 -0.0161 -0.2996
  315MPD2    C1 4733   2.428   4.704   0.269 -0.3883  0.1066 -0.7334
  315MPD2    C2 4734   2.501   0.062   0.192  0.0028  0.4572 -0.1136
  315MPD2    C3 4735   2.437   0.169   0.135 -0.1421  0.3361  0.2947
  315MPD2    C4 4736   2.300   0.184   0.143 -0.0138  0.0697 -0.1315
  315MPD2    C5 4737   2.227   0.091   0.211  0.0792 -0.4803  0.5892
  315MPD2     H 4738   2.608   0.053   0.179  0.0139  1.3099 -0.6137
  315MPD2    H1 4739   2.243   0.264   0.097 -0.2343  0.4933  0.8925
  315MPD2    H2 4740   2.218   4.663   0.345  2.1167  1.7865  3.8885
  315MPD2    H3 4741   2.119   0.091   0.200  0.1021 -3.3865  0.3635
  315MPD2     N 4742   2.518   0.259   0.058  0.4304  0.3660  0.5336
  315MPD2    H5 4743   2.617   0.237   0.061  0.1024 -0.8478  2.3685
  315MPD2    N1 4744   2.510   4.603   0.318  0.2396 -0.6110  0.1919
  315MPD2    H7 4745   2.609   4.615   0.301 -0.0391  0.6627 -0.6018
  316TMC3    C1 4746   2.572   0.454  17.657  0.3661 -0.2996  0.2509
  316TMC3    C2 4747   2.670   0.475   0.042  0.1417 -0.1365 -1.3861
  316TMC3    C3 4748   2.755   0.581   0.021 -0.7045 -0.1536 -0.6303
  316TMC3    C4 4749   2.566   0.522  17.537  0.3635 -0.4670  0.2053
  316TMC3    C5 4750   2.658   0.626  17.521  0.4633  0.0960  0.0320
  316TMC3    C6 4751   2.753   0.659  17.616 -0.5328  0.5550  0.1799
  316TMC3     C 4752   2.467   0.361  17.692 -0.5933 -0.4745  0.0869
  316TMC3     O 4753   2.354   0.407  17.677 -0.7099  0.3620 -0.8848
  316TMC3     H 4754   2.674   0.418   0.134 -1.8503 -0.9630 -1.7999
  316TMC3    H1 4755   2.501   0.486  17.458  0.4434 -0.3046  0.0664
  316TMC3    H2 4756   2.835   0.728  17.598 -2.1687  1.8991 -2.1198
  316TMC3    C7 4757   2.688   0.666  17.382 -0.0683 -0.8664  0.9099
  316TMC3    C8 4758   2.889   0.574   0.074 -0.3697 -0.5496  0.2351
  316TMC3    O1 4759   2.802   0.697  17.374  0.8971  0.1749  0.5345
  316TMC3    O2 4760   2.943   0.679   0.103 -0.4983 -0.8734  0.4115
  317MPD2     C 4761   3.979   3.681  13.268 -0.2390  0.1232 -0.7496
  317MPD2    C1 4762   3.953   3.561  13.206 -0.0426 -0.2861  0.1240
  317MPD2    C2 4763   4.014   3.450  13.258  0.4005 -0.0985  0.2504
  317MPD2    C3 4764   4.103   3.457  13.358  0.2813 -0.2744 -0.1869
  317MPD2    C4 4765   4.118   3.577  13.436 -0.2585 -0.1753  0.2097
  317MPD2    C5 4766   4.046   3.684  13.387  0.2154  0.7581 -0.4216
  317MPD2     H 4767   4.004   3.350  13.217 -0.7569 -0.1687  0.6880
  317MPD2    H1 4768   4.182   3.581  13.523 -1.6253  0.2814  1.1954
  317MPD2    H2 4769   3.922   3.769  13.241 -1.1809 -0.5510 -0.9796
  317MPD2    H3 4770   4.051   3.779  13.439  2.2015  1.4575 -1.8816
  317MPD2     N 4771   4.180   3.340  13.378 -1.4828  0.7642 -0.0458
  317MPD2    H5 4772   4.155   3.266  13.313  1.3125  0.5488 -0.8499
  317MPD2    N1 4773   3.864   3.544  13.099 -0.1160 -0.1517  0.1546
  317MPD2    H7 4774   3.871   3.449  13.062 -1.8564  0.2729 -1.2798
  318TMC3    C1 4775   4.383   3.225  13.407 -0.0468 -0.4160  0.8993
  318TMC3    C2 4776   4.320   3.114  13.356 -0.2411  0.1697  0.4563
  318TMC3    C3 4777   4.397   2.999  13.359 -0.5043  0.2256 -0.0979
  318TMC3    C4 4778   4.511   3.226  13.463 -0.8487  0.1330 -0.1330
  318TMC3    C5 4779   4.582   3.111  13.456  0.9046  0.5129  0.1945
  318TMC3    C6 4780   4.529   2.996  13.406  0.0129  0.2207  0.1661
  318TMC3     C 4781   4.304   3.340  13.441 -0.2810 -0.3694 -0.6154
  318TMC3     O 4782   4.363   3.427  13.509 -0.0505  0.6041  0.7384
  318TMC3     H 4783   4.221   3.114  13.313 -0.8408  0.3344  1.8205
  318TMC3    H1 4784   4.556   3.317  13.500 -1.4471  0.1122  0.6649
  318TMC3    H2 4785   4.593   2.910  13.386 -0.8555 -0.6423  1.1216
  318TMC3    C7 4786   4.704   3.120  13.538 -0.3120  0.1866  0.6454
  318TMC3    C8 4787   4.362   2.875  13.297  0.4746  0.5625 -0.4513
  318TMC3    O1 4788   0.007   3.219  13.602 -0.7973  0.3115 -0.3173
  318TMC3    O2 4789   4.392   2.769  13.355 -0.0098  0.3554  0.5795
  319MPD2     C 4790   0.403   4.485  16.841 -0.1211  0.1329 -0.2541
  319MPD2    C1 4791   0.432   4.355  16.822  0.0789  0.2090  0.1259
  319MPD2    C2 4792   0.411   4.286  16.707 -0.7483  0.0981 -0.0986
  319MPD2    C3 4793   0.350   4.349  16.602  1.2012  0.4004 -0.3147
  319MPD2    C4 4794   0.316   4.483  16.619  0.4537 -0.2756 -0.3511
  319MPD2    C5 4795   0.351   4.550  16.732  0.2906  0.3874  0.1269
  319MPD2     H 4796   0.436   4.181  16.700 -1.8979 -0.0671 -1.7465
  319MPD2    H1 4797   0.274   4.541  16.537  2.8571  1.1012 -0.6107
  319MPD2    H2 4798   0.439   4.544  16.925 -1.6726  0.7725 -0.0228
  319MPD2    H3 4799   0.328   4.656  16.741  1.6288  0.4383  2.8710
  319MPD2     N 4800   0.308   4.287  16.482  0.1217 -0.0351 -1.0244
  319MPD2    H5 4801   0.278   4.350  16.407  0.8784 -0.4710 -1.6840
  319MPD2    N1 4802   0.490   4.285  16.943  0.1702 -0.9314 -0.2109
  319MPD2    H7 4803   0.503   4.185  16.929  0.3969 -0.9077 -0.1797
  320TMC3    C1 4804   0.303   4.124  16.304 -0.5002 -0.4803  0.0294
  320TMC3    C2 4805   0.194   4.187  16.251  0.9388 -0.1956 -0.4981
  320TMC3    C3 4806   0.118   4.135  16.148 -0.1518 -0.2847  0.1801
  320TMC3    C4 4807   0.334   3.995  16.272  0.5740 -0.2591 -0.8606
  320TMC3    C5 4808   0.271   3.956  16.157 -0.2681  0.0852  0.0257
  320TMC3    C6 4809   0.163   4.019  16.093  0.3655  0.6554 -0.0354
  320TMC3     C 4810   0.331   4.155  16.443 -0.3566 -0.1366  0.1260
  320TMC3     O 4811   0.383   4.067  16.511 -0.1481  0.4940 -0.2486
  320TMC3     H 4812   0.177   4.288  16.284 -0.9813 -0.4560 -0.7329
  320TMC3    H1 4813   0.400   3.925  16.321  0.2638  0.3952  0.5020
  320TMC3    H2 4814   0.130   3.987  15.995  0.3428  0.5796 -0.0027
  320TMC3    C7 4815   0.288   3.818  16.119  0.4122 -0.0189 -0.2897
  320TMC3    C8 4816   0.039   4.225  16.067  0.2017  0.5572  0.2098
  320TMC3    O1 4817   0.399   3.778  16.140 -0.0445 -0.4448 -0.1623
  320TMC3    O2 4818   0.077   4.344  16.080  0.5061 -0.2434  0.3626
  321TMC3    C1 4819   0.589   4.240  17.151 -0.2147  0.4449 -0.1188
  321TMC3    C2 4820   0.524   4.116  17.158 -0.5120 -0.3298 -0.9850
  321TMC3    C3 4821   0.542   4.045  17.271 -0.1317  0.0378  0.0356
  321TMC3    C4 4822   0.675   4.282  17.251  0.7278  0.3958  0.4690
  321TMC3    C5 4823   0.678   4.205  17.368  1.1885 -0.5587 -0.2169
  321TMC3    C6 4824   0.610   4.092  17.378 -0.2500 -0.1316  0.4536
  321TMC3     C 4825   0.552   4.340  17.051 -0.0465 -0.2218 -0.3813
  321TMC3     O 4826   0.591   4.456  17.070 -0.4648 -0.0289  0.1757
  321TMC3     H 4827   0.454   4.081  17.084 -0.2402 -1.0437 -0.9036
  321TMC3    H1 4828   0.735   4.372  17.241 -0.0482  0.8046 -0.5237
  321TMC3    H2 4829   0.622   4.038  17.471  1.5017 -0.0885  0.2418
  321TMC3    C7 4830   0.811   4.171  17.412 -0.3635 -0.1925  0.3834
  321TMC3    C8 4831   0.570   3.905  17.243  0.5412 -1.0179  0.6651
  321TMC3    O1 4832   0.828   4.068  17.473 -0.8118 -0.1908 -0.0089
  321TMC3    O2 4833   0.507   3.861  17.148  0.1800  0.0622  0.8267
  322MPD2     C 4834   4.236   0.938  13.828  0.7157 -0.0874 -0.5708
  322MPD2    C1 4835   4.297   0.871  13.926  0.3825 -0.3395  0.0690
  322MPD2    C2 4836   4.339   0.744  13.901 -0.2772 -0.9926 -0.1841
  322MPD2    C3 4837   4.322   0.678  13.779 -0.0069 -0.0646 -0.5243
  322MPD2    C4 4838   4.249   0.748  13.686 -0.7128  0.4402  0.1044
  322MPD2    C5 4839   4.205   0.869  13.716  0.4279  0.3685 -0.3570
  322MPD2     H 4840   4.404   0.697  13.975  1.4141 -0.6088 -1.4346
  322MPD2    H1 4841   4.229   0.707  13.588  0.6053 -0.0523  0.0456
  322MPD2    H2 4842   4.197   1.038  13.845  0.3048 -0.5180  1.0546
  322MPD2    H3 4843   4.142   0.925  13.648  1.1929  1.2040 -0.3655
  322MPD2     N 4844   4.386   0.553  13.751 -0.1410  0.2972  0.0252
  322MPD2    H5 4845   4.439   0.514  13.829 -1.6112 -1.1499  0.3145
  322MPD2    N1 4846   4.329   0.941  14.041 -0.2656 -0.6511  0.3428
  322MPD2    H7 4847   4.317   1.042  14.047 -0.7940 -0.5700 -1.9098
  323TMC3    C1 4848   4.413   0.967  14.257  0.0635 -0.9653 -0.3136
  323TMC3    C2 4849   4.498   1.061  14.207  0.0996 -0.0669 -0.0368
  323TMC3    C3 4850   4.583   1.115  14.295 -0.4055 -0.0047  0.5349
  323TMC3    C4 4851   4.410   0.921  14.386  0.0034 -0.4793 -0.2686
  323TMC3    C5 4852   4.501   0.970  14.470  0.1695  0.1074 -0.2111
  323TMC3    C6 4853   4.591   1.070  14.427  0.8231  0.6965 -0.6521
  323TMC3     C 4854   4.359   0.882  14.160 -0.8385  0.0549 -0.9553
  323TMC3     O 4855   4.330   0.767  14.196 -0.2568 -0.6573  0.2672
  323TMC3     H 4856   4.488   1.095  14.104  0.2187  1.9842  0.6346
  323TMC3    H1 4857   4.333   0.852  14.418  1.9308 -1.9930  1.1142
  323TMC3    H2 4858   4.653   1.127  14.496  0.5754 -0.1266  0.2409
  323TMC3    C7 4859   4.533   0.898  14.595  0.4106 -1.0640 -0.2850
  323TMC3    C8 4860   4.687   1.201  14.244 -0.5486  0.5006  0.2014
  323TMC3    O1 4861   4.491   0.786  14.602 -0.0309 -0.9690  0.0800
  323TMC3    O2 4862   0.070   1.196  14.300 -0.9131  0.0396  0.0235
  324MPD2     C 4863   1.442   2.079  14.492 -0.5621 -0.0946  0.2272
  324MPD2    C1 4864   1.505   2.198  14.453  0.2252 -0.3909 -0.0291
  324MPD2    C2 4865   1.454   2.277  14.348  0.1097 -0.7976  0.2571
  324MPD2    C3 4866   1.319   2.252  14.312  0.0929  0.3272  0.1896
  324MPD2    C4 4867   1.253   2.150  14.378  1.5682 -0.6599  0.3984
  324MPD2    C5 4868   1.316   2.056  14.453  0.9039 -0.2983  0.9633
  324MPD2     H 4869   1.519   2.360  14.322  1.1225 -1.3838  0.9087
  324MPD2    H1 4870   1.150   2.124  14.355  0.7545  0.6129  2.6293
  324MPD2    H2 4871   1.508   2.014  14.548 -0.5346  0.1899  0.5309
  324MPD2    H3 4872   1.261   1.968  14.483 -2.0984  0.3824 -2.6007
  324MPD2     N 4873   1.248   2.330  14.219 -0.1305  0.4049 -0.4102
  324MPD2    H5 4874   1.150   2.304  14.215  0.1853 -0.6798 -1.2542
  324MPD2    N1 4875   1.626   2.241  14.505 -0.6187  0.2738 -0.1508
  324MPD2    H7 4876   1.661   2.327  14.463  0.4326 -0.0029  0.1674
  325TMC3    C1 4877   1.193   2.500  14.070  0.6959  0.2678  0.0182
  325TMC3    C2 4878   1.107   2.418  13.995  0.3569 -0.0259  0.2208
  325TMC3    C3 4879   1.017   2.470  13.901  0.6766 -0.2831  0.2533
  325TMC3    C4 4880   1.201   2.635  14.044  0.4016  0.2718 -0.0127
  325TMC3    C5 4881   1.110   2.684  13.949  0.3060 -0.7389 -0.2302
  325TMC3    C6 4882   1.020   2.602  13.882 -0.0990 -0.8901  0.3737
  325TMC3     C 4883   1.295   2.441  14.152 -0.3850  0.3295 -0.4558
  325TMC3     O 4884   1.403   2.491  14.161  0.0134  0.6137  0.3252
  325TMC3     H 4885   1.102   2.311  14.007  0.5046 -0.1639 -0.9911
  325TMC3    H1 4886   1.265   2.699  14.103  0.9732  0.7695 -1.1678
  325TMC3    H2 4887   0.969   2.646  13.798  2.0186 -0.5812 -0.7438
  325TMC3    C7 4888   1.034   2.804  13.984  0.1924 -0.1750 -0.5865
  325TMC3    C8 4889   0.878   2.418  13.924  0.0918  0.5476 -0.0772
  325TMC3    O1 4890   0.966   2.860  13.893  0.1382 -0.1655 -0.2773
  325TMC3    O2 4891   0.855   2.308  13.973  0.6024  0.7022  0.0897
  326MPD2     C 4892   2.121   3.347  11.437 -0.7544  0.0705 -0.9748
  326MPD2    C1 4893   2.181   3.243  11.360 -0.5854  0.2515  0.3581
  326MPD2    C2 4894   2.317   3.220  11.357  0.1233  0.5143  0.1087
  326MPD2    C3 4895   2.397   3.301  11.434  0.1380 -0.5971 -0.3988
  326MPD2    C4 4896   2.342   3.381  11.536  0.3326  0.6359 -0.1437
  326MPD2    C5 4897   2.208   3.399  11.536 -0.6317 -0.1174  0.8874
  326MPD2     H 4898   2.361   3.151  11.285  0.2318 -0.2714  0.9383
  326MPD2    H1 4899   2.409   3.419  11.613  0.8090  2.1516 -1.2983
  326MPD2    H2 4900   2.016   3.370  11.433 -0.5006  1.2884 -0.4164
  326MPD2    H3 4901   2.158   3.479  11.590 -3.5778  0.7166 -2.9768
  326MPD2     N 4902   2.544   3.288  11.418  0.1395  0.6046 -0.1444
  326MPD2    H5 4903   2.596   3.339  11.489  0.2386  0.1939  0.0772
  326MPD2    N1 4904   2.106   3.163  11.273 -0.2370  0.1082 -0.1568
  326MPD2    H7 4905   2.157   3.088  11.227  0.1101 -0.7596  1.6411
  327TMC3    C1 4906   1.927   3.080  11.136  0.3135  0.2124 -0.5807
  327TMC3    C2 4907   1.848   3.147  11.042  0.5106 -0.2740  0.0070
  327TMC3    C3 4908   1.885   3.141  10.907  0.5379  0.3201 -0.7965
  327TMC3    C4 4909   2.031   2.991  11.096 -0.5403  0.6773 -0.3860
  327TMC3    C5 4910   2.054   2.990  10.958 -0.4026  0.2155  0.1095
  327TMC3    C6 4911   1.988   3.064  10.864 -0.2833 -0.2182 -0.4667
  327TMC3     C 4912   1.973   3.186  11.237 -0.3749 -0.3754 -0.0097
  327TMC3     O 4913   1.894   3.275  11.257  0.2864  0.0336 -0.6610
  327TMC3     H 4914   1.769   3.212  11.079  1.0169  0.9223 -0.9946
  327TMC3    H1 4915   2.077   2.933  11.175 -1.1237 -0.1619 -0.6613
  327TMC3    H2 4916   2.007   3.054  10.758 -1.4908 -0.9730 -0.6131
  327TMC3    C7 4917   2.197   2.986  10.918 -0.1049  0.6323  0.7037
  327TMC3    C8 4918   1.821   3.225  10.809 -0.8218  0.3876  0.0797
  327TMC3    O1 4919   2.228   3.035  10.812 -0.1573 -0.1933 -0.3165
  327TMC3    O2 4920   1.893   3.252  10.718  0.6866 -0.8357 -0.6390
  328MPD2     C 4921   4.695   2.360  16.970  1.2463  0.3777  0.3531
  328MPD2    C1 4922   4.644   2.291  16.862 -0.5927  0.7171  0.0186
  328MPD2    C2 4923   4.662   2.344  16.735 -0.3076  0.5492  0.8139
  328MPD2    C3 4924   4.719   2.471  16.720  0.5205 -0.7334  0.4693
  328MPD2    C4 4925   0.038   2.537  16.828  0.0213 -0.1251  0.1045
  328MPD2    C5 4926   0.035   2.477  16.949  0.2042  0.3582 -0.3172
  328MPD2     H 4927   4.620   2.294  16.649  0.3982  0.6486  0.4168
  328MPD2    H1 4928   0.094   2.629  16.813  0.6573 -0.2778  1.4536
  328MPD2    H2 4929   4.687   2.314  17.068  0.9653  0.3517  0.3174
  328MPD2    H3 4930   0.081   2.525  17.035 -1.1757  0.7895  0.1719
  328MPD2     N 4931   4.722   2.541  16.598 -0.4310 -0.0224  0.0990
  328MPD2    H5 4932   0.049   2.627  16.599  1.4430 -1.2270 -0.4414
  328MPD2    N1 4933   4.571   2.177  16.895 -0.0237 -0.1099 -0.1932
  328MPD2    H7 4934   4.561   2.156  16.994 -1.5283  0.6263 -0.1879
  329TMC3    C1 4935   4.379   2.038  16.877 -0.5623  0.6119 -0.4072
  329TMC3    C2 4936   4.300   2.116  16.961  0.7101  0.4597 -0.2154
  329TMC3    C3 4937   4.165   2.129  16.932 -0.3584 -0.2758 -0.0750
  329TMC3    C4 4938   4.322   1.968  16.772 -0.5145  0.6335  0.2565
  329TMC3    C5 4939   4.193   1.988  16.745  0.1103  0.0067  0.1743
  329TMC3    C6 4940   4.113   2.067  16.824  0.1664 -0.2957  0.2809
  329TMC3     C 4941   4.491   2.104  16.810  0.0278  0.0467  0.2205
  329TMC3     O 4942   4.488   2.110  16.690  0.2694 -0.1122 -0.2572
  329TMC3     H 4943   4.348   2.167  17.043 -1.5204  0.3373  1.1532
  329TMC3    H1 4944   4.387   1.902  16.715 -1.4616 -0.0691 -0.0053
  329TMC3    H2 4945   4.006   2.072  16.808  0.4181 -1.0448 -1.5989
  329TMC3    C7 4946   4.142   1.951  16.612  0.4175  0.1473 -0.5148
  329TMC3    C8 4947   4.105   2.257  16.951 -0.4855 -0.0506  0.0120
  329TMC3    O1 4948   4.018   1.954  16.604 -0.1973  0.1753  0.6750
  329TMC3    O2 4949   3.998   2.270  16.890  0.0620  0.3048  0.1232
  330TMC3    C1 4950   2.154   2.457   9.406  0.6243  1.0084 -0.1369
  330TMC3    C2 4951   2.150   2.367   9.307 -0.3675 -0.0231 -0.7480
  330TMC3    C3 4952   2.260   2.296   9.284  0.1848 -0.0529 -0.2172
  330TMC3    C4 4953   2.269   2.483   9.472  0.0892  0.1356  0.2515
  330TMC3    C5 4954   2.382   2.403   9.451 -0.0468  0.2057  0.0196
  330TMC3    C6 4955   2.369   2.303   9.365 -0.4655 -0.2443  0.7558
  330TMC3     C 4956   2.036   2.524   9.452  0.6446  0.0266  0.2008
  330TMC3     O 4957   2.049   2.631   9.508 -0.3197 -0.3273  0.0260
  330TMC3     H 4958   2.062   2.347   9.247  1.0315 -3.0857 -1.7847
  330TMC3    H1 4959   2.267   2.550   9.557  1.7297  1.1649 -0.5368
  330TMC3    H2 4960   2.453   2.240   9.339 -0.5063 -0.4892  1.2136
  330TMC3    C7 4961   2.493   2.402   9.545 -0.3754  0.3390 -0.1016
  330TMC3    C8 4962   2.240   2.187   9.195 -0.2644 -0.1219 -0.3504
  330TMC3    O1 4963   2.488   2.490   9.632 -0.2343  0.7291 -0.2226
  330TMC3    O2 4964   2.165   2.208   9.104 -0.2554 -0.2095  0.4746
  331MPD2     C 4965   0.616   1.310  12.740 -0.4652 -0.5349 -0.3831
  331MPD2    C1 4966   0.687   1.384  12.650 -0.4831  0.6229  0.3324
  331MPD2    C2 4967   0.715   1.327  12.527 -0.2421 -0.7150  0.0378
  331MPD2    C3 4968   0.678   1.200  12.492  0.2053 -0.2770 -0.0194
  331MPD2    C4 4969   0.587   1.132  12.575 -0.2540 -0.2862  0.0670
  331MPD2    C5 4970   0.565   1.186  12.698 -0.4859 -0.0058 -0.1334
  331MPD2     H 4971   0.768   1.377  12.447  1.9331 -0.1611  1.8576
  331MPD2    H1 4972   0.537   1.038  12.551 -0.0179  0.1580 -2.1554
  331MPD2    H2 4973   0.589   1.344  12.839 -2.0350 -1.3161 -0.5397
  331MPD2    H3 4974   0.502   1.132  12.768  1.1583  0.5737  1.7796
  331MPD2     N 4975   0.698   1.159  12.360  0.1500 -0.6210  0.1945
  331MPD2    H5 4976   0.730   1.236  12.301 -2.4940  0.2563 -0.1290
  331MPD2    N1 4977   0.730   1.513  12.681 -0.0512  0.0307  0.2121
  331MPD2    H7 4978   0.682   1.565  12.753 -1.8406  1.9775 -2.4154
  332TMC3    C1 4979   0.777   1.036  12.184 -0.3735  1.0149  0.6558
  332TMC3    C2 4980   0.767   1.150  12.114 -0.4762  0.1568 -0.3419
  332TMC3    C3 4981   0.873   1.199  12.051 -0.4379 -0.1115  0.4555
  332TMC3    C4 4982   0.895   0.970  12.196 -0.1819 -0.1445 -0.3884
  332TMC3    C5 4983   1.002   1.025  12.132  0.8839  0.2593 -0.0465
  332TMC3    C6 4984   0.999   1.146  12.060 -0.5209 -0.0112 -0.6042
  332TMC3     C 4985   0.702   1.029  12.307  0.0128 -0.0194 -0.2769
  332TMC3     O 4986   0.687   0.924  12.369  0.4120  0.4798 -0.3084
  332TMC3     H 4987   0.672   1.195  12.092  1.2810  3.7541 -0.6389
  332TMC3    H1 4988   0.897   0.889  12.268 -1.8718  0.7112  0.6331
  332TMC3    H2 4989   1.088   1.189  12.016 -0.2182  0.7298  0.7303
  332TMC3    C7 4990   1.118   0.941  12.133  0.4325 -0.3312 -0.2120
  332TMC3    C8 4991   0.863   1.315  11.974  0.3441  0.3075 -0.3811
  332TMC3    O1 4992   1.092   0.820  12.146 -0.4717  0.2276  0.5161
  332TMC3    O2 4993   0.965   1.385  11.967  0.3559 -1.1460  0.0829
  333MPD2     C 4994   1.111   1.299  11.060 -0.3011 -0.2340  0.4075
  333MPD2    C1 4995   1.141   1.179  10.995 -0.3132  0.1413  0.6202
  333MPD2    C2 4996   1.101   1.065  11.060  0.1365 -0.1210 -0.7435
  333MPD2    C3 4997   1.023   1.072  11.173 -0.1275 -0.1145 -0.5247
  333MPD2    C4 4998   0.991   1.190  11.232 -0.3936 -0.2351 -0.1672
  333MPD2    C5 4999   1.033   1.305  11.175  0.1189  0.2977 -0.5216
  333MPD2     H 5000   1.123   0.965  11.025 -1.6062 -1.2919  1.5001
  333MPD2    H1 5001   0.943   1.200  11.329 -0.8231 -0.6098 -0.3407
  333MPD2    H2 5002   1.150   1.394  11.024 -0.8693 -0.7974 -1.6438
  333MPD2    H3 5003   1.005   1.401  11.218 -0.2036  0.0698 -0.2224
  333MPD2     N 5004   0.988   0.949  11.225 -0.4157 -0.2314 -0.4753
  333MPD2    H5 5005   1.016   0.868  11.170  0.4641  0.1889 -0.6493
  333MPD2    N1 5006   1.238   1.182  10.893 -0.2188 -0.6257 -0.5962
  333MPD2    H7 5007   1.266   1.275  10.862  0.2187 -1.3479 -2.3726
  334TMC3    C1 5008   1.409   1.111  10.750 -0.4069  0.3153 -0.3171
  334TMC3    C2 5009   1.439   1.039  10.637 -0.1879  0.5888  0.0080
  334TMC3    C3 5010   1.550   1.090  10.571  0.1041 -0.5935 -0.3358
  334TMC3    C4 5011   1.467   1.230  10.779 -0.0696  0.2305  0.0482
  334TMC3    C5 5012   1.558   1.288  10.699 -0.2131  0.4432 -0.1664
  334TMC3    C6 5013   1.600   1.213  10.596 -0.2339 -0.0755 -0.2169
  334TMC3     C 5014   1.290   1.073  10.825 -0.3714 -0.0002 -0.5069
  334TMC3     O 5015   1.250   0.958  10.824  0.2210  0.0955  0.4850
  334TMC3     H 5016   1.389   0.947  10.610  0.9805  0.8452 -2.9883
  334TMC3    H1 5017   1.448   1.282  10.873 -1.4727 -0.7630  0.3262
  334TMC3    H2 5018   1.667   1.257  10.523 -1.8701  0.3029 -1.4923
  334TMC3    C7 5019   1.557   1.436  10.694 -0.1379 -0.1671  0.3063
  334TMC3    C8 5020   1.612   1.010  10.473  0.6481 -0.1845 -0.2110
  334TMC3    O1 5021   1.546   1.488  10.806  0.1515  0.3550 -0.0769
  334TMC3    O2 5022   1.544   0.947  10.392  0.2598 -0.0040  0.5049
  335TMC3    C1 5023   0.375   2.957  17.354  0.6241  0.0142  0.2392
  335TMC3    C2 5024   0.333   2.842  17.286 -0.1604 -0.4123  0.4239
  335TMC3    C3 5025   0.428   2.771  17.216  0.1459 -0.7537  0.7163
  335TMC3    C4 5026   0.508   2.986  17.366 -0.4243 -0.1439 -0.3343
  335TMC3    C5 5027   0.596   2.910  17.297  0.8049 -0.0523  0.0918
  335TMC3    C6 5028   0.564   2.798  17.221  0.2876  0.7676  0.0021
  335TMC3     C 5029   0.266   3.050  17.396  0.1585 -0.0368  1.1778
  335TMC3     O 5030   0.152   3.034  17.356 -0.0487  0.1784  1.0171
  335TMC3     H 5031   0.228   2.825  17.266 -0.2360  1.1467 -0.4810
  335TMC3    H1 5032   0.535   3.075  17.422  1.3024 -0.4529 -0.6742
  335TMC3    H2 5033   0.639   2.757  17.154  0.1746  0.9260 -0.2199
  335TMC3    C7 5034   0.736   2.955  17.296  0.0643 -1.0055  0.0365
  335TMC3    C8 5035   0.376   2.681  17.124 -0.0208  0.1055 -0.2103
  335TMC3    O1 5036   0.801   2.905  17.206 -0.3244  0.7961  0.6295
  335TMC3    O2 5037   0.277   2.618  17.162  0.0551  0.8811 -0.7431
  336MPD2     C 5038   0.695   0.548  15.602 -0.3133 -0.4694  0.7022
  336MPD2    C1 5039   0.596   0.567  15.690  0.2375 -0.0031 -0.4409
  336MPD2    C2 5040   0.568   0.463  15.782 -0.2860 -0.9673 -0.0216
  336MPD2    C3 5041   0.653   0.354  15.793 -0.5358  0.4415 -0.4107
  336MPD2    C4 5042   0.765   0.347  15.714  0.6149  0.2447 -0.4460
  336MPD2    C5 5043   0.780   0.435  15.618 -0.3103 -0.0683  0.3201
  336MPD2     H 5044   0.475   0.467  15.836 -0.8737  5.2422 -1.5462
  336MPD2    H1 5045   0.837   0.266  15.722  0.4986  0.2249  0.4329
  336MPD2    H2 5046   0.725   0.622  15.529  1.3255  0.1414  1.9939
  336MPD2    H3 5047   0.854   0.423  15.541 -1.2177 -1.1497 -0.3932
  336MPD2     N 5048   0.632   0.254  15.891 -0.5405  1.2358  0.8953
  336MPD2    H5 5049   0.700   0.180  15.904  0.1682  1.8471  0.6894
  336MPD2    N1 5050   0.507   0.681  15.681  0.4391  0.4718 -0.2374
  336MPD2    H7 5051   0.435   0.681  15.752  2.3875 -1.8161  1.7174
  337TMC3    C1 5052   0.441   0.904  15.616  0.3713  0.3550  1.1576
  337TMC3    C2 5053   0.306   0.897  15.608 -0.2924  0.2373  0.1008
  337TMC3    C3 5054   0.241   1.015  15.593  0.6713  0.3264  0.3194
  337TMC3    C4 5055   0.504   1.025  15.622  0.5560 -0.2089 -0.5573
  337TMC3    C5 5056   0.433   1.140  15.603  0.3637  0.9350 -0.2360
  337TMC3    C6 5057   0.302   1.135  15.588  0.2367 -0.0968 -0.5981
  337TMC3     C 5058   0.527   0.789  15.601  0.8963 -0.8751 -0.3718
  337TMC3     O 5059   0.606   0.803  15.508  0.2027 -0.8916 -0.3217
  337TMC3     H 5060   0.261   0.798  15.610 -1.9381  0.9454 -2.7060
  337TMC3    H1 5061   0.607   1.024  15.655  0.4127 -1.6577 -0.1853
  337TMC3    H2 5062   0.249   1.224  15.554  0.7289 -0.2083 -1.6268
  337TMC3    C7 5063   0.501   1.266  15.583  0.0218 -0.1719  0.8087
  337TMC3    C8 5064   0.099   1.022  15.562 -0.1643  0.5661 -0.1324
  337TMC3    O1 5065   0.442   1.374  15.591 -0.4790 -0.9256 -0.6791
  337TMC3    O2 5066   0.031   1.111  15.609  0.0261  0.1884  0.2785
  338MPD2     C 5067   1.286   4.614   0.754 -0.3528 -0.6624 -0.1984
  338MPD2    C1 5068   1.193   4.619   0.648 -0.6987  0.3254  0.4437
  338MPD2    C2 5069   1.088   4.706   0.664 -0.4883 -0.2042  0.3846
  338MPD2    C3 5070   1.074   0.050   0.783 -1.2431 -0.0637 -0.4696
  338MPD2    C4 5071   1.159   0.035   0.887 -0.1198  0.1332 -0.1085
  338MPD2    C5 5072   1.267   4.675   0.878  0.4079  0.6106 -0.0751
  338MPD2     H 5073   1.011   0.002   0.592 -1.2292  0.9165  1.5566
  338MPD2    H1 5074   1.142   0.091   0.978 -1.4303 -1.7702  0.8362
  338MPD2    H2 5075   1.358   4.533   0.750 -1.6553 -1.8724  1.0526
  338MPD2    H3 5076   1.329   4.656   0.965  1.9566 -2.0277 -1.7666
  338MPD2     N 5077   0.955   0.129   0.796  0.3098  0.0690 -0.3894
  338MPD2    H5 5078   0.890   0.142   0.719  0.9944  1.2342 -0.7784
  338MPD2    N1 5079   1.204   4.549   0.526  1.3018 -0.2305  0.5464
  338MPD2    H7 5080   1.128   4.562   0.460  0.8852 -1.4344  0.7859
  339TMC3    C1 5081   0.766   0.227   0.888  0.4034  0.0878  0.2106
  339TMC3    C2 5082   0.673   0.206   0.981 -0.2665 -0.4170 -0.3307
  339TMC3    C3 5083   0.541   0.207   0.943 -0.4301  0.6486 -0.8087
  339TMC3    C4 5084   0.734   0.268   0.761 -0.2484 -0.7235  0.0934
  339TMC3    C5 5085   0.599   0.280   0.730  0.4555  0.1232 -0.9350
  339TMC3    C6 5086   0.497   0.242   0.819  0.3146 -0.3114 -0.5585
  339TMC3     C 5087   0.903   0.182   0.915  0.2119 -0.0595  0.0495
  339TMC3     O 5088   0.939   0.154   1.029  0.4170  0.3657 -0.0358
  339TMC3     H 5089   0.710   0.178   1.079  0.2194 -1.3863 -0.7909
  339TMC3    H1 5090   0.815   0.297   0.696 -1.1332  1.0330 -0.2375
  339TMC3    H2 5091   0.395   0.241   0.781  0.2191 -2.6139 -0.2263
  339TMC3    C7 5092   0.562   0.291   0.589 -0.4264  0.3644 -0.8728
  339TMC3    C8 5093   0.431   0.179   1.029  0.3729  0.6082 -0.1345
  339TMC3    O1 5094   0.648   0.256   0.509  0.2723  0.0441  0.1836
  339TMC3    O2 5095   0.327   0.228   0.991  0.5555 -0.4836  0.0737
  340MPD2     C 5096   0.752   2.480  10.509 -0.2263 -0.3528 -0.4499
  340MPD2    C1 5097   0.884   2.455  10.466 -0.5258  1.2621 -0.5098
  340MPD2    C2 5098   0.978   2.550  10.503 -0.2913  0.0046 -0.5445
  340MPD2    C3 5099   0.940   2.663  10.583  0.5001  0.1192  0.8889
  340MPD2    C4 5100   0.808   2.683  10.622  0.2042 -0.7482 -0.0805
  340MPD2    C5 5101   0.715   2.589  10.587 -0.4357  1.2414  0.0599
  340MPD2     H 5102   1.082   2.545  10.474  0.1886 -2.0066  1.5384
  340MPD2    H1 5103   0.774   2.775  10.669 -0.9508 -0.4953 -1.4359
  340MPD2    H2 5104   0.672   2.418  10.470  0.3508 -3.3685  3.1600
  340MPD2    H3 5105   0.614   2.605  10.624 -1.0527 -0.1966 -1.0106
  340MPD2     N 5106   1.022   2.767  10.624  0.4160  0.1275  0.6752
  340MPD2    H5 5107   0.981   2.849  10.667  0.2918 -1.4897  3.6632
  340MPD2    N1 5108   0.914   2.340  10.383 -0.3279 -0.0099  0.3702
  340MPD2    H7 5109   0.840   2.274  10.367 -0.9304  0.9464 -0.7611
  341TMC3    C1 5110   1.036   2.183  10.241 -0.1256 -0.7841 -0.5188
  341TMC3    C2 5111   0.933   2.088  10.262 -0.4029 -0.2865 -0.2107
  341TMC3    C3 5112   0.950   1.964  10.221 -0.4349 -0.2998 -0.2250
  341TMC3    C4 5113   1.156   2.149  10.185  0.2854 -0.0398  0.8524
  341TMC3    C5 5114   1.172   2.016  10.141  0.9146 -0.9024  0.7024
  341TMC3    C6 5115   1.064   1.928  10.147 -0.4687  0.0406  0.4649
  341TMC3     C 5116   1.035   2.310  10.323 -0.3054  0.9965  0.4732
  341TMC3     O 5117   1.130   2.384  10.316 -0.1385 -0.4021  0.1532
  341TMC3     H 5118   0.848   2.111  10.325 -1.4511 -1.5623 -1.1581
  341TMC3    H1 5119   1.241   2.216  10.189  0.1751  0.1077  0.7148
  341TMC3    H2 5120   1.071   1.829  10.102 -1.3701  0.1177  0.1647
  341TMC3    C7 5121   1.288   1.949  10.074 -0.0843 -0.3211  0.2783
  341TMC3    C8 5122   0.869   1.859  10.275  0.1189  0.3427  0.0408
  341TMC3    O1 5123   1.287   1.822  10.057  0.9093 -0.0732  0.2863
  341TMC3    O2 5124   0.750   1.889  10.287  0.0917 -0.3974 -0.0044
  342MPD2     C 5125   3.361   1.264  17.536 -0.2908 -0.3656  0.0482
  342MPD2    C1 5126   3.489   1.271  17.491  0.6750  0.2692 -0.6816
  342MPD2    C2 5127   3.555   1.389  17.483  0.5459 -0.5331 -0.9673
  342MPD2    C3 5128   3.487   1.509  17.522 -0.2669 -0.0218  0.3625
  342MPD2    C4 5129   3.360   1.499  17.576  0.2210 -0.3307 -1.5207
  342MPD2    C5 5130   3.291   1.376  17.571 -0.0559 -0.5407  0.5289
  342MPD2     H 5131   3.653   1.383  17.437  2.7581  3.3634  3.2077
  342MPD2    H1 5132   3.290   1.579  17.599 -0.8656 -1.4501 -0.9327
  342MPD2    H2 5133   3.296   1.178  17.543  0.7137 -1.0206  1.3201
  342MPD2    H3 5134   3.193   1.362  17.615  0.4068 -0.1376  1.6919
  342MPD2     N 5135   3.549   1.642  17.522 -0.1555 -0.3194 -0.1211
  342MPD2    H5 5136   3.492   1.724  17.543 -3.2338 -1.7538 -2.9051
  342MPD2    N1 5137   3.556   1.161  17.440 -0.7239 -0.2191  0.0339
  342MPD2    H7 5138   3.647   1.175  17.396  0.3304 -0.3910  2.1901
  343TMC3    C1 5139   3.584   0.938  17.364 -0.4200  0.8550  0.5218
  343TMC3    C2 5140   3.659   0.967  17.250  0.0434  0.2552  0.3540
  343TMC3    C3 5141   3.702   0.863  17.175 -0.2755  0.0263  0.3370
  343TMC3    C4 5142   3.548   0.811  17.396  0.5657 -0.4247 -0.0043
  343TMC3    C5 5143   3.594   0.708  17.322  0.3113  0.3484  0.2765
  343TMC3    C6 5144   3.662   0.738  17.205  0.6397 -0.2823 -1.4846
  343TMC3     C 5145   3.502   1.031  17.444  0.8226 -0.2852  0.4005
  343TMC3     O 5146   3.400   0.988  17.502  0.0999  0.3683 -0.1934
  343TMC3     H 5147   3.685   1.071  17.231  0.4701 -0.0516 -0.7878
  343TMC3    H1 5148   3.476   0.794  17.476  0.3827  0.2827 -0.0215
  343TMC3    H2 5149   3.708   0.653  17.156 -0.0774 -1.8290  0.5169
  343TMC3    C7 5150   3.541   0.573  17.348  0.4239 -0.3428  0.4281
  343TMC3    C8 5151   3.839   0.864  17.130 -0.8250  0.6119  0.0642
  343TMC3    O1 5152   3.557   0.486  17.265  0.0464  1.1082 -0.0004
  343TMC3    O2 5153   3.920   0.929  17.194 -0.7151 -0.0785  0.3023
  344MPD2     C 5154   0.114   0.532  11.096  0.4714 -0.5525  0.0307
  344MPD2    C1 5155   4.718   0.574  11.055 -0.4044 -0.2905 -0.3213
  344MPD2    C2 5156   4.706   0.686  10.974  0.4378 -0.0926 -0.4446
  344MPD2    C3 5157   0.091   0.754  10.934  0.4238  0.0871  0.2899
  344MPD2    C4 5158   0.213   0.714  10.981 -0.0014  0.2349 -0.0822
  344MPD2    C5 5159   0.223   0.605  11.060 -0.2500  0.0816  0.1235
  344MPD2     H 5160   4.606   0.725  10.957 -0.6220 -2.9344 -0.7440
  344MPD2    H1 5161   0.305   0.769  10.963  0.3505 -0.4935 -0.5140
  344MPD2    H2 5162   0.127   0.440  11.152  1.7734 -0.0851  0.5036
  344MPD2    H3 5163   0.321   0.567  11.087  0.2022  0.8144 -0.4801
  344MPD2     N 5164   0.094   0.874  10.862 -0.7362  0.2018 -0.0695
  344MPD2    H5 5165   0.186   0.913  10.841  0.0429 -0.9119  1.2313
  344MPD2    N1 5166   4.600   0.518  11.107  0.5084  0.5449 -0.4341
  344MPD2    H7 5167   4.509   0.550  11.077  1.0299  1.8045 -0.6540
  345TMC3    C1 5168   0.014   1.029  10.701  0.1824  0.1672  0.0000
  345TMC3    C2 5169   0.132   1.104  10.713  0.7020 -1.1019  0.1610
  345TMC3    C3 5170   0.170   1.169  10.600  0.3219  0.1796 -0.1584
  345TMC3    C4 5171   4.674   1.019  10.584 -0.4424 -0.6907 -0.0101
  345TMC3    C5 5172   4.719   1.096  10.486  0.2135  0.1411  0.1136
  345TMC3    C6 5173   0.112   1.162  10.482  0.4541 -0.4338 -0.1841
  345TMC3     C 5174   4.715   0.922  10.799 -0.6759 -0.0859  0.2909
  345TMC3     O 5175   4.605   0.879  10.789 -0.1826  0.0149  0.1855
  345TMC3     H 5176   0.189   1.106  10.805 -0.5913 -1.6854  0.9669
  345TMC3    H1 5177   4.574   0.977  10.583 -1.3114  1.3996 -0.4509
  345TMC3    H2 5178   0.141   1.221  10.395  0.6815  0.3060  0.3917
  345TMC3    C7 5179   4.624   1.184  10.417 -0.3331  0.2119 -0.1295
  345TMC3    C8 5180   0.222   1.301  10.616 -0.2256  0.6115 -0.0371
  345TMC3    O1 5181   4.643   1.305  10.434 -0.3390  0.2050 -0.0182
  345TMC3    O2 5182   0.158   1.395  10.573  0.1658 -0.2442 -0.0221
  346MPD2     C 5183   4.424   2.420  14.305  0.2149  0.2423  0.4047
  346MPD2    C1 5184   4.510   2.485  14.213 -0.4220 -0.1349  0.6739
  346MPD2    C2 5185   4.629   2.533  14.259  0.4382  0.7668  0.1892
  346MPD2    C3 5186   4.664   2.528  14.393  0.0437 -0.4314  0.1623
  346MPD2    C4 5187   4.578   2.458  14.477  0.2893 -0.7511 -0.5183
  346MPD2    C5 5188   4.463   2.407  14.433 -0.5534  0.6935  0.1542
  346MPD2     H 5189   4.694   2.573  14.181  0.2895  1.1407  0.2590
  346MPD2    H1 5190   4.604   2.438  14.580 -0.9858 -2.3909 -0.5119
  346MPD2    H2 5191   4.328   2.377  14.280 -0.1049  0.3350  1.4806
  346MPD2    H3 5192   4.410   2.339  14.499  1.7850 -1.0123  0.2673
  346MPD2     N 5193   0.070   2.565  14.431  0.6450  0.1158  0.1079
  346MPD2    H5 5194   0.123   2.614  14.360 -0.2260 -0.7076 -1.1070
  346MPD2    N1 5195   4.485   2.509  14.072  0.3901 -0.1218 -0.1848
  346MPD2    H7 5196   4.568   2.536  14.020 -0.2551  2.1751 -0.0418
  347TMC3    C1 5197   0.262   2.561  14.565 -0.1401 -0.0897 -0.2351
  347TMC3    C2 5198   0.316   2.667  14.502 -0.1668 -0.2336  0.3997
  347TMC3    C3 5199   0.438   2.699  14.526  0.9393  0.4591 -0.1172
  347TMC3    C4 5200   0.341   2.491  14.651 -0.3796  0.3065  0.4140
  347TMC3    C5 5201   0.466   2.521  14.674 -0.3531 -0.0748 -0.2980
  347TMC3    C6 5202   0.519   2.633  14.610  0.3893 -0.4100  0.0460
  347TMC3     C 5203   0.127   2.521  14.549  0.1863  0.1107  0.0660
  347TMC3     O 5204   0.087   2.434  14.625  0.0154  0.2708  0.2679
  347TMC3     H 5205   0.264   2.719  14.423  1.0281  0.6571  0.2000
  347TMC3    H1 5206   0.300   2.405  14.702  0.3675 -0.9838 -1.1878
  347TMC3    H2 5207   0.625   2.636  14.591  0.4689  1.1541  0.7825
  347TMC3    C7 5208   0.536   2.422  14.761  0.0107 -0.2788  0.3186
  347TMC3    C8 5209   0.490   2.814  14.450  0.1830  0.7397 -0.2224
  347TMC3    O1 5210   0.483   2.311  14.786 -0.6438 -0.5485  0.5950
  347TMC3    O2 5211   0.408   2.898  14.414  0.1000  0.3335  0.0909
  348MPD2     C 5212   2.934   1.928  11.887  0.0044  0.0085  0.0587
  348MPD2    C1 5213   3.047   1.979  11.832  0.1651  0.5176 -0.1028
  348MPD2    C2 5214   3.039   2.035  11.705 -0.2944 -0.7195 -0.0308
  348MPD2    C3 5215   2.912   2.046  11.643 -0.2255  0.6150  0.2554
  348MPD2    C4 5216   2.802   1.991  11.704 -0.4056 -0.9099  0.0106
  348MPD2    C5 5217   2.808   1.930  11.822  0.2853  0.1119 -0.1267
  348MPD2     H 5218   3.119   2.089  11.656 -1.5947  2.7857  1.7073
  348MPD2    H1 5219   2.701   1.994  11.664 -0.3510 -0.7451 -0.1160
  348MPD2    H2 5220   2.946   1.868  11.977 -0.2156 -0.1517 -0.0200
  348MPD2    H3 5221   2.728   1.890  11.883  1.7380 -1.5825  0.6923
  348MPD2     N 5222   2.903   2.107  11.516  0.1626 -0.0178 -0.0128
  348MPD2    H5 5223   2.986   2.150  11.476 -1.0425  0.0150 -2.5008
  348MPD2    N1 5224   3.173   1.959  11.885 -0.5767 -0.0315  0.2085
  348MPD2    H7 5225   3.243   1.991  11.819 -1.6613  3.8010  0.8897
  349TMC3    C1 5226   3.354   1.916  12.012  0.3307  0.9789  1.1710
  349TMC3    C2 5227   3.407   1.810  12.073 -0.4946  0.1145  0.0745
  349TMC3    C3 5228   3.525   1.758  12.041 -0.1063  0.5892 -0.3854
  349TMC3    C4 5229   3.431   1.984  11.919 -0.2858 -0.0636  0.1337
  349TMC3    C5 5230   3.549   1.924  11.884  0.9882  0.7180 -0.3004
  349TMC3    C6 5231   3.604   1.815  11.942 -0.0191  0.1022  0.0610
  349TMC3     C 5232   3.210   1.921  12.010  0.6184  0.1517 -0.2920
  349TMC3     O 5233   3.144   1.906  12.118  0.3921  0.4145  0.5158
  349TMC3     H 5234   3.347   1.757  12.146 -1.1846  2.6531  1.3683
  349TMC3    H1 5235   3.395   2.068  11.860 -0.7605 -0.8097 -0.6494
  349TMC3    H2 5236   3.703   1.779  11.915  2.0246  4.1324  2.2250
  349TMC3    C7 5237   3.602   1.955  11.755 -0.1794  0.4066 -0.3037
  349TMC3    C8 5238   3.581   1.648  12.114 -0.0314  0.6093 -0.7466
  349TMC3    O1 5239   3.660   1.864  11.694  0.1481 -0.1253 -0.2523
  349TMC3    O2 5240   3.501   1.598  12.192 -0.3644  0.0441 -0.5874
  350MPD2     C 5241   2.367   0.171   9.973  0.5755  0.3067 -0.2323
  350MPD2    C1 5242   2.385   0.042  10.012  0.3975  0.7561  0.9300
  350MPD2    C2 5243   2.513   4.726  10.026  0.5235 -0.2129  0.2223
  350MPD2    C3 5244   2.626   0.076  10.014  0.1038  0.1587  0.5690
  350MPD2    C4 5245   2.608   0.202   9.964  0.5978  0.0560  0.0742
  350MPD2    C5 5246   2.481   0.247   9.937 -0.8074 -0.0202  0.1586
  350MPD2     H 5247   2.515   4.632  10.081 -2.3564 -0.8524 -0.7758
  350MPD2    H1 5248   2.695   0.264   9.946  0.0135  0.4815 -1.2937
  350MPD2    H2 5249   2.270   0.213   9.950  1.3157  1.3982 -1.4399
  350MPD2    H3 5250   2.473   0.347   9.895  0.8757  0.3637  0.7840
  350MPD2     N 5251   2.741   0.009  10.051 -0.3461 -0.2878 -0.2271
  350MPD2    H5 5252   2.716   4.642  10.080 -0.1355 -0.2304  0.1390
  350MPD2    N1 5253   2.280   4.681  10.046  0.0109 -0.1547  0.2013
  350MPD2    H7 5254   2.302   4.584  10.067  0.1796 -0.3823 -1.0531
  351TMC3    C1 5255   2.065   4.609  10.092  0.0819 -0.1785 -0.3547
  351TMC3    C2 5256   2.106   4.478  10.067 -0.8269  0.6312  0.3457
  351TMC3    C3 5257   2.029   4.377  10.118 -0.3902  0.2473  0.5537
  351TMC3    C4 5258   1.952   4.634  10.169 -0.0166 -0.0496 -0.5965
  351TMC3    C5 5259   1.875   4.526  10.198 -0.3354  0.2018 -1.1722
  351TMC3    C6 5260   1.915   4.400  10.189 -0.2583  0.1478 -0.2026
  351TMC3     C 5261   2.153   4.718  10.063  0.7758  0.5672 -0.1525
  351TMC3     O 5262   2.105   0.104  10.069  0.2864 -0.3121 -0.6544
  351TMC3     H 5263   2.183   4.455   9.994 -2.7507 -0.4108 -1.3307
  351TMC3    H1 5264   1.924   0.009  10.193  1.6222  0.0119  1.0191
  351TMC3    H2 5265   1.856   4.313  10.216 -1.1656  1.4619  2.0418
  351TMC3    C7 5266   1.764   4.566  10.277 -0.2666  0.5987 -0.6703
  351TMC3    C8 5267   2.080   4.241  10.104 -0.0776  0.4893  0.2499
  351TMC3    O1 5268   1.749   4.685  10.307 -0.0539  0.3941  0.3392
  351TMC3    O2 5269   2.132   4.219   9.994  0.0932 -0.3323 -0.4429
  352MPD2     C 5270   1.083   2.049   0.219 -0.6296 -0.1696  0.3124
  352MPD2    C1 5271   1.043   2.102   0.337 -0.0819  0.1394  0.0772
  352MPD2    C2 5272   1.010   2.020   0.440  0.4965 -0.1685  0.2306
  352MPD2    C3 5273   1.028   1.887   0.435  0.2203 -0.2042 -0.4404
  352MPD2    C4 5274   1.064   1.828   0.314 -0.0491  0.0030  0.5693
  352MPD2    C5 5275   1.091   1.912   0.211 -0.1258  0.4109  1.2381
  352MPD2     H 5276   0.995   2.060   0.539  0.8503 -0.1344  0.2725
  352MPD2    H1 5277   1.080   1.722   0.301  1.0541  0.1740  0.5175
  352MPD2    H2 5278   1.122   2.109   0.138 -2.0915  4.1942  2.8494
  352MPD2    H3 5279   1.119   1.873   0.113 -1.3958 -0.7665  1.3505
  352MPD2     N 5280   1.001   1.799   0.543  0.4346  0.4035  0.6569
  352MPD2    H5 5281   0.985   1.702   0.520  0.4734  0.7235 -0.7652
  352MPD2    N1 5282   1.030   2.244   0.342  0.2393  0.1958  0.2043
  352MPD2    H7 5283   1.061   2.298   0.262 -2.4898  0.1119 -0.9187
  353TMC3    C1 5284   0.952   1.733   0.762 -0.2663  0.5394 -0.2137
  353TMC3    C2 5285   1.052   1.641   0.740 -0.2561  0.6951  0.2044
  353TMC3    C3 5286   1.043   1.527   0.802  0.0919  1.2384 -0.5483
  353TMC3    C4 5287   0.838   1.696   0.823 -0.5788 -0.0244 -0.7813
  353TMC3    C5 5288   0.826   1.574   0.876 -0.0041  0.3908  0.3133
  353TMC3    C6 5289   0.933   1.485   0.878 -0.3329  0.2506  0.7109
  353TMC3     C 5290   0.938   1.839   0.666  0.3245 -0.0874 -0.1285
  353TMC3     O 5291   0.888   1.938   0.714 -0.4817 -0.3305  0.0062
  353TMC3     H 5292   1.145   1.662   0.688 -0.1817  1.2425  0.5556
  353TMC3    H1 5293   0.745   1.751   0.817 -0.0441  0.9622 -0.0380
  353TMC3    H2 5294   0.916   1.381   0.904 -0.8500  0.4062  0.9950
  353TMC3    C7 5295   0.696   1.528   0.908 -0.8120 -0.0674 -0.1339
  353TMC3    C8 5296   1.140   1.429   0.768  0.1541 -0.3196  0.4464
  353TMC3    O1 5297   0.673   1.413   0.874 -0.5126 -0.4046  0.2260
  353TMC3    O2 5298   1.203   1.449   0.666 -0.1089 -0.4818 -0.2882
  354TMC3    C1 5299   2.025   3.458  13.422  0.3486 -0.3076  0.8770
  354TMC3    C2 5300   2.078   3.585  13.393 -0.1635 -0.0081  0.0474
  354TMC3    C3 5301   2.038   3.653  13.281  1.3655 -1.0303  0.2396
  354TMC3    C4 5302   1.952   3.392  13.327  0.3435 -0.6586  0.0328
  354TMC3    C5 5303   1.906   3.456  13.216 -0.8208 -0.7613 -0.0716
  354TMC3    C6 5304   1.949   3.588  13.194  0.6920  0.0154  0.1875
  354TMC3     C 5305   2.069   3.378  13.538  0.5147  1.1113  0.1987
  354TMC3     O 5306   2.011   3.268  13.544 -0.0176 -0.1879 -0.1612
  354TMC3     H 5307   2.151   3.632  13.458  0.1493 -1.3248  0.6343
  354TMC3    H1 5308   1.910   3.297  13.358  0.4315 -0.1563  1.7088
  354TMC3    H2 5309   1.934   3.636  13.097  1.5461 -0.7201 -0.3107
  354TMC3    C7 5310   1.905   3.373  13.099 -0.9561  0.7695  0.0282
  354TMC3    C8 5311   2.120   3.759  13.226  0.1671 -0.4983  0.2498
  354TMC3    O1 5312   1.835   3.272  13.089  0.7306 -0.0430  0.1787
  354TMC3    O2 5313   2.115   3.770  13.107  0.8358  0.5638 -0.2443
  355MPD2     C 5314   2.233   4.252  11.583  0.4085  0.2821  0.6209
  355MPD2    C1 5315   2.320   4.248  11.477 -0.1633 -0.4024  0.1510
  355MPD2    C2 5316   2.451   4.228  11.507  0.6222 -0.6180  0.5889
  355MPD2    C3 5317   2.499   4.223  11.640  0.6800  0.0828 -0.0863
  355MPD2    C4 5318   2.409   4.219  11.741  0.2410 -0.0884 -0.0812
  355MPD2    C5 5319   2.271   4.238  11.709  0.7079 -0.4844  0.3876
  355MPD2     H 5320   2.521   4.219  11.425 -1.9173  0.2850 -1.7025
  355MPD2    H1 5321   2.433   4.211  11.847  1.6601 -1.1132 -0.4873
  355MPD2    H2 5322   2.125   4.254  11.575  0.2713 -2.1647  2.1354
  355MPD2    H3 5323   2.204   4.241  11.795  0.7587 -0.3289  0.4209
  355MPD2     N 5324   2.639   4.229  11.670  0.4081 -0.1321 -0.0161
  355MPD2    H5 5325   2.672   4.235  11.766 -1.7734  0.0946  0.7207
  355MPD2    N1 5326   2.265   4.254  11.344 -0.3835  0.0238  0.1724
  355MPD2    H7 5327   2.164   4.243  11.332 -0.7203  0.5762  2.5948
  356TMC3    C1 5328   2.871   4.282  11.641  0.6076  0.1295  0.1705
  356TMC3    C2 5329   2.952   4.362  11.570  0.3548 -0.7653 -0.3576
  356TMC3    C3 5330   3.063   4.410  11.631  0.0671 -0.4193 -0.5899
  356TMC3    C4 5331   2.906   4.238  11.770 -1.3982  0.1040 -0.2221
  356TMC3    C5 5332   3.009   4.292  11.832  0.3482 -0.7864 -1.1604
  356TMC3    C6 5333   3.090   4.386  11.761 -0.3557 -0.1351 -0.2433
  356TMC3     C 5334   2.740   4.262  11.583 -0.4943  0.0482 -0.0566
  356TMC3     O 5335   2.720   4.297  11.465 -0.3683 -0.0263 -0.6142
  356TMC3     H 5336   2.928   4.399  11.471 -0.9021 -1.5129 -0.3333
  356TMC3    H1 5337   2.839   4.168  11.819 -1.2963  0.5717  0.5815
  356TMC3    H2 5338   3.172   4.416  11.824 -1.0583  0.6575  0.3003
  356TMC3    C7 5339   3.041   4.230  11.958 -0.7376  0.8437 -0.4167
  356TMC3    C8 5340   3.172   4.458  11.546 -0.3289 -0.8273 -0.4715
  356TMC3    O1 5341   2.974   4.129  11.984  0.1259 -0.0357  0.0091
  356TMC3    O2 5342   3.156   4.447  11.424  0.0973  0.5734  0.6645
  357MPD2     C 5343   2.663   4.295   1.033  0.3740  0.1817 -0.1684
  357MPD2    C1 5344   2.687   4.226   1.149  0.7866  0.3392  0.3392
  357MPD2    C2 5345   2.580   4.200   1.230 -0.3351 -0.5884 -0.6002
  357MPD2    C3 5346   2.448   4.246   1.196 -0.3463  0.1797  0.2592
  357MPD2    C4 5347   2.433   4.314   1.078  0.0684  0.3427  0.0507
  357MPD2    C5 5348   2.540   4.337   1.000 -0.5961  0.2597 -0.0054
  357MPD2     H 5349   2.585   4.129   1.312 -0.0393  0.7224  0.4979
  357MPD2    H1 5350   2.340   4.361   1.045  0.0542  0.9525  0.9764
  357MPD2    H2 5351   2.751   4.320   0.975  0.7012  0.1646  0.3178
  357MPD2    H3 5352   2.529   4.405   0.917 -0.6450  1.4516  0.9882
  357MPD2     N 5353   2.333   4.220   1.269 -0.0826 -0.3452  0.3874
  357MPD2    H5 5354   2.247   4.250   1.224  0.0526  2.3314  1.8991
  357MPD2    N1 5355   2.814   4.181   1.166  0.4173 -0.6977  0.2349
  357MPD2    H7 5356   2.894   4.193   1.105  1.2120 -2.0117  1.0174
  358TMC3    C1 5357   2.939   4.003   1.236  0.1405  0.4237  0.4271
  358TMC3    C2 5358   2.880   3.902   1.167  0.1148 -0.3626 -0.2271
  358TMC3    C3 5359   2.952   3.784   1.161 -0.5471 -0.0475 -0.8936
  358TMC3    C4 5360   3.062   3.986   1.296  0.0536 -0.1838  0.1748
  358TMC3    C5 5361   3.139   3.871   1.264  0.0808 -0.4039 -0.4195
  358TMC3    C6 5362   3.075   3.760   1.215  0.5336 -0.7094  0.0563
  358TMC3     C 5363   2.853   4.108   1.274  0.2286 -0.4660  0.1544
  358TMC3     O 5364   2.804   4.100   1.388 -0.0900  0.2575  0.7365
  358TMC3     H 5365   2.782   3.923   1.127  0.4628  2.3982  0.3809
  358TMC3    H1 5366   3.106   4.078   1.332 -0.4638 -0.0777  0.5374
  358TMC3    H2 5367   3.127   3.667   1.194 -1.6371 -1.3207 -2.5995
  358TMC3    C7 5368   3.286   3.868   1.285  1.0527 -0.2736  0.0862
  358TMC3    C8 5369   2.897   3.693   1.059 -0.0985 -0.0103  0.0700
  358TMC3    O1 5370   3.353   3.790   1.223 -0.4313  0.5632 -0.2166
  358TMC3    O2 5371   2.983   3.652   0.984 -0.4992 -0.2382  0.2011
  359MPD2     C 5372   2.730   1.886  12.579  0.1008 -0.1790  0.5018
  359MPD2    C1 5373   2.739   2.027  12.572 -0.1116 -0.6283 -0.1241
  359MPD2    C2 5374   2.619   2.095  12.575 -0.0770 -0.3985  0.4198
  359MPD2    C3 5375   2.497   2.024  12.595  0.0804  0.5683  0.0793
  359MPD2    C4 5376   2.494   1.883  12.606 -0.6779 -0.1006  0.7221
  359MPD2    C5 5377   2.610   1.817  12.597 -0.3790  0.4076 -0.3020
  359MPD2     H 5378   2.612   2.203  12.568  0.4049 -0.4706 -1.2399
  359MPD2    H1 5379   2.397   1.834  12.613 -0.8015  0.1433  0.6986
  359MPD2    H2 5380   2.822   1.828  12.576  0.4600  0.4612 -0.9248
  359MPD2    H3 5381   2.613   1.710  12.616  0.4424  0.2789 -1.1746
  359MPD2     N 5382   2.374   2.087  12.604  0.3921 -0.0411  0.2661
  359MPD2    H5 5383   2.299   2.021  12.594 -0.8245  1.7963 -2.6990
  359MPD2    N1 5384   2.862   2.097  12.546 -0.8582 -0.3009 -0.1599
  359MPD2    H7 5385   2.854   2.193  12.514 -3.2374 -0.3886  0.1463
  360TMC3    C1 5386   3.065   2.070  12.426 -1.1880 -0.0247  0.1030
  360TMC3    C2 5387   3.195   2.032  12.421  0.2024  0.3852 -0.7196
  360TMC3    C3 5388   3.280   2.085  12.330  0.4479 -0.6309 -0.5777
  360TMC3    C4 5389   3.011   2.148  12.322  0.2253 -0.4430 -0.1269
  360TMC3    C5 5390   3.099   2.186  12.229  0.1917 -0.3450  0.2689
  360TMC3    C6 5391   3.234   2.167  12.228 -0.0314  0.4041 -0.1137
  360TMC3     C 5392   2.985   2.031  12.535  0.6080  0.2479 -0.2106
  360TMC3     O 5393   3.031   1.950  12.619 -0.3620  0.2311 -0.3474
  360TMC3     H 5394   3.237   1.971  12.500 -0.3732  0.6103 -0.2411
  360TMC3    H1 5395   2.903   2.156  12.320  0.0766 -2.2402  0.9257
  360TMC3    H2 5396   3.287   2.194  12.138  0.7148 -1.4289 -0.2323
  360TMC3    C7 5397   3.049   2.257  12.111  1.0529 -0.1758  0.4085
  360TMC3    C8 5398   3.411   2.026  12.324 -0.2122 -0.4668  0.1028
  360TMC3    O1 5399   3.121   2.337  12.052 -0.5499  0.2921 -0.4139
  360TMC3    O2 5400   3.421   1.913  12.369  0.0883  0.1486  0.0644
  361MPD2     C 5401   4.548   1.271  16.400 -0.1789  0.4654 -0.2670
  361MPD2    C1 5402   4.502   1.286  16.533  0.2470 -0.2839  0.4074
  361MPD2    C2 5403   4.574   1.233  16.640  0.6245 -0.2002  0.1217
  361MPD2    C3 5404   4.700   1.181  16.613  0.2900 -0.4061 -0.1551
  361MPD2    C4 5405   0.011   1.161  16.482 -0.2780 -0.4913  0.6173
  361MPD2    C5 5406   4.662   1.204  16.374  0.1521  0.5630 -0.6533
  361MPD2     H 5407   4.537   1.238  16.741 -0.3470  0.8903 -0.2886
  361MPD2    H1 5408   0.102   1.113  16.450 -1.5817 -1.5925 -1.3719
  361MPD2    H2 5409   4.484   1.314  16.324 -0.6678  1.4278  0.6845
  361MPD2    H3 5410   4.698   1.197  16.272 -0.0068  0.3200 -0.6915
  361MPD2     N 5411   0.055   1.121  16.716 -0.0267 -0.3078  0.1526
  361MPD2    H5 5412   0.125   1.052  16.690  0.4226 -0.1603  0.9541
  361MPD2    N1 5413   4.374   1.345  16.550  0.2283 -0.4306  0.2133
  361MPD2    H7 5414   4.327   1.364  16.463  1.3956  0.2641 -0.2649
  362TMC3    C1 5415   4.189   1.440  16.657 -0.2501 -0.9993  0.4055
  362TMC3    C2 5416   4.115   1.449  16.772 -0.1658  0.3438  0.0211
  362TMC3    C3 5417   3.992   1.500  16.769  0.6080  0.5846  0.2763
  362TMC3    C4 5418   4.143   1.500  16.545  0.4885  0.5475  0.2437
  362TMC3    C5 5419   4.019   1.553  16.551  0.6681  0.1793 -0.7844
  362TMC3    C6 5420   3.934   1.542  16.655  0.5242  0.4668 -0.8405
  362TMC3     C 5421   4.325   1.395  16.673 -0.0010  0.0974 -0.3618
  362TMC3     O 5422   4.380   1.412  16.781  0.0819 -0.4128 -0.1105
  362TMC3     H 5423   4.155   1.410  16.865  0.0483 -0.5169 -0.4300
  362TMC3    H1 5424   4.209   1.507  16.459  1.7514  1.3618  1.2666
  362TMC3    H2 5425   3.836   1.589  16.656 -0.4088 -1.5160  1.1577
  362TMC3    C7 5426   3.967   1.590  16.418 -0.1554  0.0843  0.7118
  362TMC3    C8 5427   3.920   1.502  16.894  0.1103  0.1865 -0.5274
  362TMC3    O1 5428   4.052   1.595  16.326  0.1626  0.4113 -0.1277
  362TMC3    O2 5429   3.965   1.462  17.000 -0.6368  0.6057  0.3472
  363TMC3    C1 5430   3.183   4.222  10.014 -0.5771 -0.8526  0.2339
  363TMC3    C2 5431   3.078   4.132   9.990 -0.1810 -0.0403  0.8582
  363TMC3    C3 5432   2.965   4.178   9.931 -0.0154 -0.6096 -0.1383
  363TMC3    C4 5433   3.169   4.352   9.973 -0.3381 -0.1968  0.1253
  363TMC3    C5 5434   3.053   4.392   9.917 -0.4662  0.1053  0.6147
  363TMC3    C6 5435   2.948   4.308   9.891 -0.4676 -0.3403 -0.3072
  363TMC3     C 5436   3.293   4.188  10.100  0.4240 -0.3659  0.0682
  363TMC3     O 5437   3.370   4.279  10.124  0.2750  0.2644  0.0364
  363TMC3     H 5438   3.084   4.029  10.021  0.4493 -0.0313  0.7613
  363TMC3    H1 5439   3.252   4.422   9.977  0.8581 -1.6200  0.4248
  363TMC3    H2 5440   2.854   4.345   9.852 -0.6086 -0.2310  0.1413
  363TMC3    C7 5441   3.043   4.532   9.869  0.0575 -0.4134  0.4296
  363TMC3    C8 5442   2.844   4.092   9.945  1.8587 -0.0825 -0.2486
  363TMC3    O1 5443   3.112   4.611   9.927 -0.1434  0.0229 -0.0495
  363TMC3    O2 5444   2.736   4.143   9.967  0.0336 -0.0271 -0.7928
  364MPD2     C 5445   1.464   3.575  10.736  0.7814  0.4733  0.3498
  364MPD2    C1 5446   1.570   3.531  10.648  0.0377  0.0377 -0.4208
  364MPD2    C2 5447   1.650   3.430  10.690 -1.4074 -0.1955 -0.1572
  364MPD2    C3 5448   1.621   3.369  10.807  0.1779  0.1480 -0.5594
  364MPD2    C4 5449   1.520   3.408  10.894 -0.0342 -0.5269  0.1308
  364MPD2    C5 5450   1.439   3.512  10.850 -0.7209 -0.0665 -0.0109
  364MPD2     H 5451   1.731   3.403  10.623 -1.2875 -0.3292  0.0419
  364MPD2    H1 5452   1.497   3.368  10.992 -3.2818 -0.4363 -0.5931
  364MPD2    H2 5453   1.396   3.653  10.705 -0.9031 -0.4687  1.6702
  364MPD2    H3 5454   1.355   3.545  10.911 -1.2989 -0.8394 -0.3850
  364MPD2     N 5455   1.707   3.274  10.861  0.5315  0.0026 -0.4143
  364MPD2    H5 5456   1.674   3.231  10.946  0.3609  1.0964  0.0710
  364MPD2    N1 5457   1.589   3.603  10.527 -0.1448  0.0409  0.3910
  364MPD2    H7 5458   1.526   3.681  10.516 -0.7086 -0.4371  0.2333
  365TMC3    C1 5459   1.713   3.694  10.347 -0.2476  0.0743  0.1511
  365TMC3    C2 5460   1.782   3.680  10.234  0.1214  0.2751 -0.4127
  365TMC3    C3 5461   1.840   3.792  10.175  0.6368  0.2024 -0.1073
  365TMC3    C4 5462   1.695   3.815  10.408 -0.2411  0.1347 -0.4012
  365TMC3    C5 5463   1.750   3.927  10.342 -0.0341  0.7578 -0.4102
  365TMC3    C6 5464   1.813   3.922  10.218  0.2453  0.5242 -0.2841
  365TMC3     C 5465   1.682   3.573  10.423  0.0620  0.0616 -1.0654
  365TMC3     O 5466   1.738   3.465  10.396 -1.2077  1.0211 -0.8278
  365TMC3     H 5467   1.804   3.587  10.183  0.6886 -0.0759  0.4826
  365TMC3    H1 5468   1.647   3.833  10.503  1.2332  0.6471  0.2551
  365TMC3    H2 5469   1.863   4.006  10.171 -2.3789  3.6708  2.5522
  365TMC3    C7 5470   1.767   4.044  10.431 -0.4222  0.0087  0.5397
  365TMC3    C8 5471   1.911   3.770  10.045  0.1849 -0.8721 -0.1937
  365TMC3    O1 5472   1.793   4.152  10.385 -0.5147 -0.3899  0.3322
  365TMC3    O2 5473   1.903   3.859   9.961 -0.1372  0.4500  0.1958
  366MPD2     C 5474   0.212   4.068  15.439  0.1312 -0.3624  0.1721
  366MPD2    C1 5475   0.269   4.188  15.456  0.6251 -0.5355  1.2328
  366MPD2    C2 5476   0.401   4.208  15.410 -0.1315  0.6739 -0.0866
  366MPD2    C3 5477   0.486   4.098  15.387 -0.0054 -0.0956 -0.0362
  366MPD2    C4 5478   0.430   3.977  15.380  0.7632  1.1120 -0.7133
  366MPD2    C5 5479   0.290   3.964  15.399  1.0687  0.2886  0.1486
  366MPD2     H 5480   0.438   4.309  15.419 -0.3280  0.8285 -0.9877
  366MPD2    H1 5481   0.480   3.891  15.339 -0.3344  0.2107 -0.1834
  366MPD2    H2 5482   0.109   4.052  15.470 -1.1774  0.0918 -3.8794
  366MPD2    H3 5483   0.249   3.867  15.374 -0.8281  1.6960 -2.1880
  366MPD2     N 5484   0.625   4.130  15.359  0.2750 -0.3330  0.2128
  366MPD2    H5 5485   0.638   4.230  15.344 -2.3569 -0.1518 -0.8485
  366MPD2    N1 5486   0.206   4.306  15.495  0.5357  0.1009  0.0435
  366MPD2    H7 5487   0.264   4.389  15.491 -1.5730  1.6754  1.7169
  367TMC3    C1 5488   0.053   4.451  15.576  0.0706 -1.2633  0.4197
  367TMC3    C2 5489   0.168   4.517  15.614  0.1577 -0.6086 -0.1309
  367TMC3    C3 5490   0.177   4.641  15.561 -0.7081 -0.1800 -0.5461
  367TMC3    C4 5491   4.683   4.501  15.493 -0.2274 -0.4824  0.6926
  367TMC3    C5 5492   4.701   4.628  15.443 -0.0438 -0.2685  0.2230
  367TMC3    C6 5493   0.082   4.699  15.482  0.2170  0.2128 -0.2716
  367TMC3     C 5494   0.077   4.316  15.540 -0.8575  0.3312  0.0874
  367TMC3     O 5495   4.714   4.235  15.533 -0.0527 -0.0939  0.6033
  367TMC3     H 5496   0.244   4.478  15.681 -0.7813  0.9014  1.7990
  367TMC3    H1 5497   4.595   4.445  15.464  1.2116 -1.4378 -1.7830
  367TMC3    H2 5498   0.089   0.075  15.451 -1.3683  0.2904 -0.4057
  367TMC3    C7 5499   4.602   4.698  15.360  0.4071 -0.2150  0.7203
  367TMC3    C8 5500   0.319   4.678  15.537 -0.9828  0.0016  0.4976
  367TMC3    O1 5501   4.610   0.092  15.361 -0.0277  0.4561  0.4196
  367TMC3    O2 5502   0.401   4.592  15.559 -0.4801 -0.5636  0.4271
  368MPD2     C 5503   0.775   1.952  13.392  1.0270 -0.2304 -0.0481
  368MPD2    C1 5504   0.793   2.026  13.272 -0.5449 -0.6004 -0.0104
  368MPD2    C2 5505   0.914   2.012  13.209  0.0394  0.0943 -0.3950
  368MPD2    C3 5506   1.019   1.944  13.271 -0.1798 -0.0763  0.2055
  368MPD2    C4 5507   0.994   1.882  13.391 -0.7442  0.1217  0.2648
  368MPD2    C5 5508   0.870   1.887  13.451 -0.7510  0.4464  0.0399
  368MPD2     H 5509   0.934   2.051  13.110 -2.4558 -0.0987 -0.9807
  368MPD2    H1 5510   1.066   1.828  13.451  1.8503  1.3106 -1.7813
  368MPD2    H2 5511   0.679   1.957  13.442  0.1179  0.7178 -1.9163
  368MPD2    H3 5512   0.853   1.835  13.544  0.8129  2.3499  1.3882
  368MPD2     N 5513   1.146   1.929  13.219  0.1615 -0.6279  0.3164
  368MPD2    H5 5514   1.214   1.885  13.280 -1.3057 -0.8410  1.8099
  368MPD2    N1 5515   0.679   2.096  13.219 -0.3246 -0.5451 -0.1496
  368MPD2    H7 5516   0.588   2.090  13.263 -0.1619  1.7016  0.4616
  369TMC3    C1 5517   0.544   2.223  13.068  0.3545 -0.1201  0.0631
  369TMC3    C2 5518   0.548   2.333  12.995 -0.2024 -0.1860 -0.8862
  369TMC3    C3 5519   0.428   2.393  12.965  0.5440  0.8742 -0.8714
  369TMC3    C4 5520   0.431   2.160  13.110  0.8548  0.2777 -0.5094
  369TMC3    C5 5521   0.316   2.224  13.087  0.5138  0.4048  0.2227
  369TMC3    C6 5522   0.316   2.335  13.007  0.3304  0.1652  0.0994
  369TMC3     C 5523   0.675   2.166  13.107  0.2793 -0.1663  0.4070
  369TMC3     O 5524   0.771   2.211  13.042 -0.7741 -0.3325  0.6382
  369TMC3     H 5525   0.644   2.371  12.964 -0.8686  2.2650  0.0194
  369TMC3    H1 5526   0.424   2.068  13.168  3.2685  0.6431  0.3350
  369TMC3    H2 5527   0.227   2.395  12.993 -0.4658 -0.3256  3.0443
  369TMC3    C7 5528   0.191   2.175  13.153 -0.3715  0.1602  0.4771
  369TMC3    C8 5529   0.438   2.487  12.854 -0.3519 -0.6841 -0.0128
  369TMC3    O1 5530   0.197   2.066  13.215  0.0629 -0.1940  0.5496
  369TMC3    O2 5531   0.448   2.429  12.743  0.1148  0.0170 -0.4948
  370TMC3    C1 5532   0.723   2.461  16.202 -0.6760 -0.9395  0.4117
  370TMC3    C2 5533   0.630   2.368  16.244  0.0484 -0.4015 -0.1251
  370TMC3    C3 5534   0.620   2.252  16.174  0.2780  0.0188 -0.5765
  370TMC3    C4 5535   0.801   2.444  16.088  0.3301 -0.0989  0.4150
  370TMC3    C5 5536   0.780   2.321  16.026  0.1589  0.1373 -0.7772
  370TMC3    C6 5537   0.701   2.217  16.070  0.4206  0.2343 -0.4828
  370TMC3     C 5538   0.726   2.577  16.284 -0.0415 -0.1065  0.3258
  370TMC3     O 5539   0.653   2.572  16.384 -0.4565 -0.5041 -0.1661
  370TMC3     H 5540   0.554   2.386  16.319  0.5011  0.5859  0.0914
  370TMC3    H1 5541   0.872   2.514  16.045  0.9926  0.9802  3.2363
  370TMC3    H2 5542   0.687   2.127  16.012 -0.6144 -0.0665  0.2392
  370TMC3    C7 5543   0.882   2.294  15.929  0.1879 -0.0379  0.3891
  370TMC3    C8 5544   0.539   2.145  16.222 -0.1230 -0.1148 -0.0697
  370TMC3    O1 5545   0.929   2.385  15.861  0.4184  0.8230 -0.1601
  370TMC3    O2 5546   0.466   2.083  16.147  0.2741  0.0981 -0.2282
  371TMC3    C1 5547   2.160   0.615  15.698 -0.3570  0.1120  0.3301
  371TMC3    C2 5548   2.026   0.595  15.739  0.1938 -0.5895 -0.0556
  371TMC3    C3 5549   1.952   0.711  15.758  0.0828 -0.0446 -0.4601
  371TMC3    C4 5550   2.224   0.737  15.686  0.2812  0.4779  0.8857
  371TMC3    C5 5551   2.134   0.843  15.685  0.3097  0.0557 -0.2533
  371TMC3    C6 5552   2.004   0.830  15.725 -0.3827  0.5753 -0.7585
  371TMC3     C 5553   2.248   0.503  15.674  1.2304  0.3008 -0.0214
  371TMC3     O 5554   2.350   0.526  15.606  0.2856  0.8146 -0.1376
  371TMC3     H 5555   1.979   0.497  15.739 -2.0095  0.4885  2.2342
  371TMC3    H1 5556   2.327   0.743  15.654  0.8987 -1.8600  2.3701
  371TMC3    H2 5557   1.943   0.919  15.722 -0.3690  0.5140 -2.4543
  371TMC3    C7 5558   2.168   0.958  15.604  0.0622 -0.0267 -0.9670
  371TMC3    C8 5559   1.805   0.700  15.738 -0.2806  0.3520 -0.5716
  371TMC3    O1 5560   2.098   1.055  15.620 -0.1648  0.6174  0.1688
  371TMC3    O2 5561   1.754   0.600  15.686  0.7409 -0.1031 -0.2602
  372MPD2     C 5562   2.170   2.412  13.635 -0.8489 -0.4573  0.7834
  372MPD2    C1 5563   2.246   2.300  13.658  0.0823  0.5164  0.5100
  372MPD2    C2 5564   2.185   2.186  13.692  0.3321  0.0176 -0.0267
  372MPD2    C3 5565   2.046   2.177  13.686  0.1648 -0.3225 -0.1618
  372MPD2    C4 5566   1.971   2.283  13.632 -0.0317  0.0219  0.1837
  372MPD2    C5 5567   2.033   2.405  13.620 -1.0859 -0.5021  0.5991
  372MPD2     H 5568   2.242   2.102  13.730  2.7603  0.3617 -2.9725
  372MPD2    H1 5569   1.863   2.276  13.630  0.0392 -1.6373  1.5589
  372MPD2    H2 5570   2.217   2.509  13.620  0.0690 -1.1611 -0.9860
  372MPD2    H3 5571   1.977   2.496  13.604  0.2360  0.6624  2.5635
  372MPD2     N 5572   1.982   2.063  13.735 -0.3951 -0.7699 -0.0372
  372MPD2    H5 5573   2.044   1.996  13.778 -0.1783  0.0782  0.9743
  372MPD2    N1 5574   2.392   2.306  13.671  0.7331 -0.5794  0.8881
  372MPD2    H7 5575   2.433   2.215  13.687  2.0395 -0.3893 -1.3311
  373TMC3    C1 5576   1.810   1.923  13.820  0.0416  0.1036  0.2325
  373TMC3    C2 5577   1.765   1.922  13.948  0.1754  0.9904  0.5358
  373TMC3    C3 5578   1.781   1.822  14.035 -0.2699  0.3637 -0.0151
  373TMC3    C4 5579   1.899   1.821  13.790 -0.6206 -0.3024  0.5926
  373TMC3    C5 5580   1.932   1.725  13.886  0.9314 -0.2329 -0.0905
  373TMC3    C6 5581   1.867   1.721  14.009  0.2556 -0.3342 -0.5026
  373TMC3     C 5582   1.850   2.053  13.768 -0.4534  0.0214  0.7161
  373TMC3     O 5583   1.752   2.121  13.752  0.7770  0.2502  0.3045
  373TMC3     H 5584   1.695   2.002  13.970 -0.3111  0.2140  1.8591
  373TMC3    H1 5585   1.940   1.828  13.690  0.6069  0.9965  1.1996
  373TMC3    H2 5586   1.898   1.655  14.089  0.1846 -0.3307 -0.4721
  373TMC3    C7 5587   2.042   1.641  13.841  1.1292  0.4267 -0.5689
  373TMC3    C8 5588   1.749   1.861  14.171 -0.2762  0.3655 -0.7185
  373TMC3    O1 5589   2.066   1.644  13.720 -0.4756 -0.5835  0.2950
  373TMC3    O2 5590   1.760   1.980  14.200  0.8884  0.1847  0.3338
  374TMC3    C1 5591   2.045   1.613   9.489  0.0311  0.5193 -0.3044
  374TMC3    C2 5592   2.098   1.730   9.523  0.2571 -0.5695 -0.3319
  374TMC3    C3 5593   2.071   1.844   9.447  0.3205 -0.0597  0.0091
  374TMC3    C4 5594   1.980   1.594   9.370  0.2375 -0.1389 -0.3740
  374TMC3    C5 5595   1.941   1.708   9.301 -0.3373 -0.3218  0.4680
  374TMC3    C6 5596   1.990   1.830   9.335 -0.5188  0.7413  0.2833
  374TMC3     C 5597   2.090   1.495   9.559 -1.0048 -0.2496  0.0375
  374TMC3     O 5598   2.182   1.511   9.639 -0.4612  0.4778 -0.6226
  374TMC3     H 5599   2.138   1.739   9.624 -0.0974  0.4612 -0.2848
  374TMC3    H1 5600   1.944   1.495   9.347 -1.6641  0.3829  0.3461
  374TMC3    H2 5601   1.991   1.913   9.265  0.1903 -0.3591 -0.9941
  374TMC3    C7 5602   1.823   1.716   9.214 -0.4854 -0.4543  0.1650
  374TMC3    C8 5603   2.096   1.975   9.485 -0.8217  0.9781  0.7810
  374TMC3    O1 5604   1.811   1.817   9.143  0.4611  0.0369  0.3271
  374TMC3    O2 5605   2.036   2.066   9.434 -0.7371 -0.7186  0.1536
  375MPD2     C 5606   2.097   2.807  17.166  0.2459 -0.1203  0.2108
  375MPD2    C1 5607   2.018   2.800  17.047  0.5359  0.4813 -0.0279
  375MPD2    C2 5608   2.079   2.749  16.933 -0.1455 -0.3676  0.3786
  375MPD2    C3 5609   2.214   2.709  16.929  0.7792 -0.3420  0.0065
  375MPD2    C4 5610   2.284   2.720  17.043 -0.8099 -0.0844  0.1896
  375MPD2    C5 5611   2.229   2.772  17.156 -0.2673 -0.1663 -0.8348
  375MPD2     H 5612   2.017   2.741  16.844 -2.1298  4.9077  1.2871
  375MPD2    H1 5613   2.384   2.679  17.048 -1.0404 -0.5004  1.4953
  375MPD2    H2 5614   2.071   2.863  17.255 -0.4993 -1.0695  0.5912
  375MPD2    H3 5615   2.291   2.779  17.245  1.0995  2.2937 -1.9476
  375MPD2     N 5616   2.282   2.662  16.815 -0.3804  0.4472 -0.4133
  375MPD2    H5 5617   2.375   2.628  16.836 -0.5335  0.5275  0.3659
  375MPD2    N1 5618   1.879   2.844  17.038  0.2127 -0.0512  0.4757
  375MPD2    H7 5619   1.832   2.839  16.948 -1.4622  0.3285  1.3247
  376TMC3    C1 5620   2.332   2.593  16.596 -0.0263 -0.1938  0.1664
  376TMC3    C2 5621   2.467   2.620  16.619 -0.1649 -0.4821  0.5045
  376TMC3    C3 5622   2.554   2.591  16.524  0.1982 -0.2144 -0.0533
  376TMC3    C4 5623   2.288   2.534  16.480  0.4273  0.2073 -0.1642
  376TMC3    C5 5624   2.380   2.498  16.387  0.7566 -0.0088 -0.5435
  376TMC3    C6 5625   2.510   2.526  16.415  0.1864  0.0978  0.2566
  376TMC3     C 5626   2.232   2.653  16.685  0.4711  0.1510  1.3175
  376TMC3     O 5627   2.119   2.680  16.648 -0.1656 -0.3733 -0.0845
  376TMC3     H 5628   2.493   2.685  16.702 -1.0257  2.9134 -1.8480
  376TMC3    H1 5629   2.181   2.521  16.472  0.1979  2.3341 -0.5561
  376TMC3    H2 5630   2.590   2.501  16.348  0.4577  0.6294  0.3807
  376TMC3    C7 5631   2.352   2.411  16.273  0.1379 -0.5214 -0.0703
  376TMC3    C8 5632   2.681   2.663  16.514 -0.1605  0.6963  0.3862
  376TMC3    O1 5633   2.308   2.297  16.292 -0.0009  0.0475  0.5437
  376TMC3    O2 5634   2.745   2.654  16.407  0.0281 -0.2317  0.4977
  377MPD2     C 5635   4.498   2.403  12.352  0.2749 -0.5698  0.0920
  377MPD2    C1 5636   4.609   2.366  12.433 -0.1091  0.3169  0.3151
  377MPD2    C2 5637   4.584   2.331  12.565 -0.1448  0.2805 -0.6611
  377MPD2    C3 5638   4.457   2.321  12.624  0.0773  0.2174 -0.4543
  377MPD2    C4 5639   4.351   2.361  12.540  0.1947 -1.0000  0.4696
  377MPD2    C5 5640   4.376   2.404  12.410 -0.4785 -0.8441  0.3863
  377MPD2     H 5641   4.664   2.293  12.628 -0.8260  0.4462  0.3080
  377MPD2    H1 5642   4.246   2.351  12.567  0.5085  0.2818  2.1761
  377MPD2    H2 5643   4.512   2.424  12.247 -2.0873 -0.6327 -0.2377
  377MPD2    H3 5644   4.298   2.450  12.351  0.5883 -0.8164 -0.9856
  377MPD2     N 5645   4.431   2.258  12.754  0.2443  0.0995 -0.2408
  377MPD2    H5 5646   4.337   2.237  12.787  0.9722 -2.0033  0.5401
  377MPD2    N1 5647   0.004   2.368  12.369 -0.5279 -0.2082  0.5981
  377MPD2    H7 5648   4.723   2.423  12.284 -0.7583 -1.9195 -0.4933
  378TMC3    C1 5649   0.315   2.391  12.096  0.4013 -0.2761 -0.3307
  378TMC3    C2 5650   0.209   2.372  12.182  0.0743 -0.9754  0.3307
  378TMC3    C3 5651   0.233   2.343  12.314  0.1251  0.0888 -0.1404
  378TMC3    C4 5652   0.447   2.389  12.142  0.0259  0.7449 -1.7124
  378TMC3    C5 5653   0.459   2.351  12.275  0.2988 -0.8334  0.4324
  378TMC3    C6 5654   0.359   2.323  12.357 -0.3155 -0.3036 -0.3070
  378TMC3     C 5655   0.289   2.404  11.955 -0.2005 -0.1553 -0.1020
  378TMC3     O 5656   0.186   2.364  11.911  0.1465 -0.0156  0.3546
  378TMC3     H 5657   0.112   2.360  12.135  1.3854  0.1595 -2.6721
  378TMC3    H1 5658   0.526   2.404  12.068  0.1559 -0.4084 -1.8056
  378TMC3    H2 5659   0.369   2.298  12.462  0.7444  1.0852 -0.0854
  378TMC3    C7 5660   0.588   2.317  12.326  0.2500 -0.9363 -0.4905
  378TMC3    C8 5661   0.126   2.315  12.407  0.6368 -0.1487 -0.1909
  378TMC3    O1 5662   0.598   2.269  12.438 -0.3549  0.2419 -0.2213
  378TMC3    O2 5663   0.148   2.234  12.497  0.4146 -0.7155  0.1547
  379MPD2     C 5664   1.053   0.084  16.179 -0.6499 -0.0940  0.6618
  379MPD2    C1 5665   1.169   0.050  16.114 -0.3250  0.1827 -0.2238
  379MPD2    C2 5666   1.286   0.031  16.188  0.3249 -0.2857 -0.2821
  379MPD2    C3 5667   1.295   0.068  16.323  0.0964 -0.2657  0.1689
  379MPD2    C4 5668   1.174   0.112  16.385  0.4859 -0.1381 -0.3145
  379MPD2    C5 5669   1.058   0.110  16.313  0.2403 -0.1209  0.5636
  379MPD2     H 5670   1.375   0.013  16.129  0.9514  1.5163  0.1258
  379MPD2    H1 5671   1.168   0.142  16.489  2.7010 -0.0917 -0.2090
  379MPD2    H2 5672   0.960   0.093  16.124 -0.9375  2.0959  1.5504
  379MPD2    H3 5673   0.967   0.136  16.365 -0.1123 -1.4850  0.6376
  379MPD2     N 5674   1.412   0.075  16.402 -0.5232  0.4042 -0.0340
  379MPD2    H5 5675   1.396   0.113  16.495 -0.6985 -0.1955  0.1774
  379MPD2    N1 5676   1.179   0.030  15.975 -0.3629 -0.6097 -0.4527
  379MPD2    H7 5677   1.270   4.725  15.943  0.1879 -0.0580  0.5599
  380TMC3    C1 5678   1.121   0.015  15.751  0.0747 -0.0068  0.6193
  380TMC3    C2 5679   1.253   0.041  15.706  0.5139  0.2594 -0.4296
  380TMC3    C3 5680   1.268   0.042  15.569  0.3712  0.0192 -0.9107
  380TMC3    C4 5681   1.023   4.715  15.663 -0.1613 -0.3948 -0.3800
  380TMC3    C5 5682   1.041   4.723  15.525 -0.2464 -0.5071  0.3577
  380TMC3    C6 5683   1.162   0.022  15.482  0.0208 -0.2375 -0.2011
  380TMC3     C 5684   1.079   0.045  15.884 -0.5094  0.7496 -0.4005
  380TMC3     O 5685   0.963   0.080  15.889 -0.8919  0.0534 -0.4156
  380TMC3     H 5686   1.331   0.083  15.769  0.5318 -0.2044 -0.1448
  380TMC3    H1 5687   0.927   4.678  15.697 -0.4845  0.8983  0.1116
  380TMC3    H2 5688   1.182   0.029  15.375 -3.2852 -2.0470 -0.9492
  380TMC3    C7 5689   0.945   0.074  15.460 -0.1771 -0.6936 -0.7978
  380TMC3    C8 5690   1.398   0.073  15.509  0.0822 -0.0041  0.0549
  380TMC3    O1 5691   0.986   0.144  15.369  0.3213  0.2003 -0.6325
  380TMC3    O2 5692   1.395   0.121  15.397 -0.0913  0.3105 -0.0472
  381TMC3    C1 5693   0.394   1.858  15.670  0.6146 -0.1155 -0.1567
  381TMC3    C2 5694   0.504   1.890  15.748 -0.1722  1.1962  0.4056
  381TMC3    C3 5695   0.483   1.901  15.884 -0.0967  0.4580  0.1523
  381TMC3    C4 5696   0.272   1.836  15.728 -0.4004 -0.4564  1.0023
  381TMC3    C5 5697   0.260   1.853  15.861 -0.2126 -0.0446 -0.7950
  381TMC3    C6 5698   0.361   1.896  15.945 -0.2087  0.7991  0.4035
  381TMC3     C 5699   0.411   1.824  15.531 -0.4077 -0.2515 -0.1095
  381TMC3     O 5700   0.525   1.788  15.507  0.2168  0.0000 -0.2416
  381TMC3     H 5701   0.604   1.890  15.706 -0.4791  0.1747 -0.3376
  381TMC3    H1 5702   0.184   1.797  15.679  0.7659 -3.0093  0.9176
  381TMC3    H2 5703   0.341   1.921  16.049 -1.1211  0.0317  0.4130
  381TMC3    C7 5704   0.130   1.819  15.919  0.5586 -0.7063  0.0958
  381TMC3    C8 5705   0.605   1.884  15.959 -0.1869  0.5129  0.6528
  381TMC3    O1 5706   0.059   1.742  15.858  0.0137 -0.2630  0.1234
  381TMC3    O2 5707   0.706   1.926  15.906  0.1172 -0.8149 -0.0724
  382MPD2     C 5708   0.312   3.507  16.800  0.4525  0.3820  0.9465
  382MPD2    C1 5709   0.232   3.521  16.917 -0.4523  0.5025 -0.3583
  382MPD2    C2 5710   0.170   3.405  16.964 -0.3001  0.2013  0.2281
  382MPD2    C3 5711   0.186   3.287  16.890  0.4320  0.0970 -0.4484
  382MPD2    C4 5712   0.282   3.273  16.798 -0.5317  0.8006 -0.6241
  382MPD2    C5 5713   0.338   3.386  16.746 -0.1556  1.0604 -0.0702
  382MPD2     H 5714   0.104   3.390  17.048  0.8353 -1.6056  0.8014
  382MPD2    H1 5715   0.285   3.184  16.736 -0.7808 -0.0201  0.5408
  382MPD2    H2 5716   0.364   3.593  16.757 -1.6326  1.3097  0.2667
  382MPD2    H3 5717   0.401   3.384  16.658  1.5546  0.0865  1.1604
  382MPD2     N 5718   0.090   3.181  16.898 -0.5419 -0.4981 -0.6695
  382MPD2    H5 5719   0.108   3.108  16.830 -0.3384 -0.1095 -1.0278
  382MPD2    N1 5720   0.204   3.648  16.975 -0.5763 -0.0516  0.0549
  382MPD2    H7 5721   0.168   3.645  17.070 -0.5801  3.7508  0.1641
  383TMC3    C1 5722   4.663   3.026  16.974  0.2925 -0.6464 -0.2272
  383TMC3    C2 5723   4.594   2.989  16.866  0.0010 -0.7618  1.3113
  383TMC3    C3 5724   4.555   2.858  16.871 -0.2095 -0.1493 -0.4744
  383TMC3    C4 5725   4.684   2.947  17.086 -0.3215  0.3744 -0.2875
  383TMC3    C5 5726   4.652   2.814  17.081  0.2348 -0.5299  0.1077
  383TMC3    C6 5727   4.581   2.768  16.976 -0.8419  0.1571  0.2779
  383TMC3     C 5728   4.711   3.161  16.988 -0.4263  0.0502  0.1686
  383TMC3     O 5729   4.677   3.226  17.085  0.3177  0.6393 -0.5332
  383TMC3     H 5730   4.568   3.069  16.798 -0.1336 -1.8777  0.0522
  383TMC3    H1 5731   0.015   2.983  17.170 -1.3653  0.6465  0.3365
  383TMC3    H2 5732   4.530   2.673  16.986  0.4804 -0.5116  0.7111
  383TMC3    C7 5733   4.639   2.744  17.212  0.2433  0.0815 -0.2568
  383TMC3    C8 5734   4.451   2.825  16.773 -0.6787 -0.0227 -0.1211
  383TMC3    O1 5735   4.591   2.630  17.208  0.3425 -0.0366 -0.5852
  383TMC3    O2 5736   4.391   2.912  16.714  0.2593 -0.0064 -0.1458
  384MPD2     C 5737   1.752   0.209  11.973 -0.6006  0.7287  0.4162
  384MPD2    C1 5738   1.668   0.142  12.054  0.5440  0.9141 -0.2354
  384MPD2    C2 5739   1.673   0.002  12.076  0.1863  0.1710  0.2976
  384MPD2    C3 5740   1.780   4.668  12.012  0.5245 -0.4320 -0.5169
  384MPD2    C4 5741   1.862   0.007  11.923 -0.2679  0.1825  0.3032
  384MPD2    C5 5742   1.854   0.142  11.914  0.6814  0.0730  0.7576
  384MPD2     H 5743   1.620   4.677  12.154 -0.1228 -0.0403 -0.0516
  384MPD2    H1 5744   1.941   4.691  11.863  0.0738  2.6617 -1.0434
  384MPD2    H2 5745   1.742   0.312  11.940  1.0996  1.0684  0.9913
  384MPD2    H3 5746   1.926   0.191  11.849  2.3262 -3.9234 -0.4127
  384MPD2     N 5747   1.812   4.534  12.042 -0.1714 -0.0016 -0.4196
  384MPD2    H5 5748   1.768   4.505  12.128  1.4011 -3.2090 -0.6857
  384MPD2    N1 5749   1.568   0.210  12.121 -0.5977 -0.2926  0.1144
  384MPD2    H7 5750   1.543   0.151  12.200 -1.3367 -2.1007 -1.4869
  385TMC3    C1 5751   1.925   4.345  12.092  0.4745  0.4699 -0.0049
  385TMC3    C2 5752   1.946   4.216  12.047  0.7749  0.4543 -0.7211
  385TMC3    C3 5753   1.943   4.118  12.149  0.2221 -0.0673  0.3202
  385TMC3    C4 5754   1.907   4.379  12.222  0.1319  0.7914 -0.2206
  385TMC3    C5 5755   1.918   4.283  12.319  0.4878 -0.3254 -0.4058
  385TMC3    C6 5756   1.935   4.154  12.281  0.3031  0.2802 -0.3070
  385TMC3     C 5757   1.908   4.452  11.992  0.6672  0.5080  0.1694
  385TMC3     O 5758   1.984   4.457  11.901  0.1731 -0.2504  0.2019
  385TMC3     H 5759   1.947   4.192  11.942  0.1023  2.5685 -1.2172
  385TMC3    H1 5760   1.896   4.484  12.247 -0.1263  1.1298 -1.7488
  385TMC3    H2 5761   1.947   4.084  12.364 -1.3645  0.2584 -0.0857
  385TMC3    C7 5762   1.840   4.309  12.442  0.5898  0.1794 -0.4029
  385TMC3    C8 5763   1.893   3.986  12.122  0.9360  0.1995  0.7118
  385TMC3    O1 5764   1.818   4.215  12.516  0.4078 -0.0124 -0.3462
  385TMC3    O2 5765   1.885   3.916  12.225 -0.6481 -0.6416  0.1968
  386TMC3    C1 5766   2.015   2.546  12.035  0.2182 -0.1121  1.6084
  386TMC3    C2 5767   2.007   2.504  11.901 -0.3450 -0.5498  0.8442
  386TMC3    C3 5768   1.879   2.521  11.846 -0.0188  0.0774  0.2184
  386TMC3    C4 5769   1.910   2.573  12.115 -0.2320 -0.3132 -0.4502
  386TMC3    C5 5770   1.787   2.571  12.054 -0.6249  0.4631 -0.4155
  386TMC3    C6 5771   1.768   2.549  11.926  0.7921  0.7663  0.2425
  386TMC3     C 5772   2.131   2.493  12.113  0.7480  0.3510 -0.2445
  386TMC3     O 5773   2.170   2.563  12.203  0.1671 -0.2552 -0.5115
  386TMC3     H 5774   2.102   2.497  11.849 -1.6403 -1.1008 -1.4651
  386TMC3    H1 5775   1.926   2.591  12.221  1.1749 -0.6543 -0.6064
  386TMC3    H2 5776   1.668   2.555  11.885  0.1521  0.4736  1.7617
  386TMC3    C7 5777   1.669   2.600  12.133  0.9751  0.2245 -0.1468
  386TMC3    C8 5778   1.861   2.485  11.711  0.0414 -0.0668 -0.1505
  386TMC3    O1 5779   1.571   2.538  12.088 -0.4386  0.1448  0.5279
  386TMC3    O2 5780   1.754   2.504  11.659  0.3815 -0.2489 -0.6357
  387MPD2     C 5781   4.353   2.562   9.937  0.3764 -0.3352 -0.1247
  387MPD2    C1 5782   4.472   2.520   9.887 -0.0962  0.2480 -0.5593
  387MPD2    C2 5783   4.481   2.383   9.867  0.5876 -0.3509  0.0533
  387MPD2    C3 5784   4.380   2.292   9.893  1.0690 -0.0400 -0.0883
  387MPD2    C4 5785   4.259   2.333   9.937 -0.6899 -0.3157 -0.1390
  387MPD2    C5 5786   4.247   2.471   9.949 -0.0275  0.7126  0.3993
  387MPD2     H 5787   4.576   2.340   9.836  0.5557  0.4457 -1.1793
  387MPD2    H1 5788   4.177   2.264   9.955  0.2939 -1.6301 -0.6070
  387MPD2    H2 5789   4.325   2.667   9.935  1.2277 -0.0790  1.4784
  387MPD2    H3 5790   4.148   2.509   9.970 -0.7301 -0.0838 -1.4474
  387MPD2     N 5791   4.422   2.154   9.890 -0.7795 -0.2415  0.1267
  387MPD2    H5 5792   4.520   2.137   9.874 -0.4131  1.2250  0.7714
  387MPD2    N1 5793   4.592   2.595   9.861  1.2355 -0.0658 -0.3400
  387MPD2    H7 5794   4.670   2.537   9.833  1.0259 -0.8857  0.7690
  388TMC3    C1 5795   0.028   2.765   9.860 -0.0263  0.1135  0.1641
  388TMC3    C2 5796   0.076   2.893   9.886  0.1231  0.1193  0.5502
  388TMC3    C3 5797   0.207   2.912   9.906  0.0066  0.0743 -0.5432
  388TMC3    C4 5798   0.113   2.659   9.851  0.4242 -0.2713 -0.0274
  388TMC3    C5 5799   0.243   2.690   9.871 -0.5106  0.5218 -0.4355
  388TMC3    C6 5800   0.297   2.812   9.896  0.3072  0.5886 -0.5721
  388TMC3     C 5801   4.617   2.731   9.890  0.4442  0.0376  0.1360
  388TMC3     O 5802   4.548   2.826   9.924 -0.5041  0.0857 -0.0636
  388TMC3     H 5803   0.003   2.972   9.903  0.5901  0.8106 -0.6133
  388TMC3    H1 5804   0.085   2.570   9.795 -0.7210  0.6879 -0.9891
  388TMC3    H2 5805   0.405   2.827   9.901  0.3081 -0.2054  1.5146
  388TMC3    C7 5806   0.331   2.572   9.861  0.1194 -0.3463 -0.2642
  388TMC3    C8 5807   0.238   3.016   9.993 -0.2590  1.1929 -0.2424
  388TMC3    O1 5808   0.456   2.587   9.844 -0.9610 -0.2662  0.0429
  388TMC3    O2 5809   0.140   3.071  10.040 -0.3083  0.1190  0.1191
  389MPD2     C 5810   3.696   0.844  10.939  0.5183 -0.2497  0.4657
  389MPD2    C1 5811   3.599   0.764  10.890  0.1328  0.0533  0.6110
  389MPD2    C2 5812   3.574   0.645  10.958 -0.3975 -0.4284  0.5022
  389MPD2    C3 5813   3.648   0.605  11.067  0.1720 -0.4915  0.6923
  389MPD2    C4 5814   3.748   0.687  11.116 -0.4133  0.2366  0.3436
  389MPD2    C5 5815   3.769   0.806  11.049 -0.4922  0.2458 -0.2415
  389MPD2     H 5816   3.496   0.577  10.926  0.7567 -1.1700 -0.7673
  389MPD2    H1 5817   3.816   0.651  11.192  0.5375  3.3920  0.9917
  389MPD2    H2 5818   3.715   0.943  10.901  0.6758 -1.0327 -1.4741
  389MPD2    H3 5819   3.838   0.883  11.082  1.6558 -1.7093 -0.1613
  389MPD2     N 5820   3.635   0.483  11.129  0.2504 -0.3022  0.1448
  389MPD2    H5 5821   3.699   0.473  11.208 -0.0928  0.1273  0.4787
  389MPD2    N1 5822   3.526   0.813  10.776 -0.2033 -0.1610 -0.3936
  389MPD2    H7 5823   3.563   0.899  10.735  4.8386 -2.3027 -0.2453
  390TMC3    C1 5824   3.558   0.277  11.195  0.3823 -0.7700 -0.2969
  390TMC3    C2 5825   3.447   0.206  11.199  0.0637 -0.4871 -0.0018
  390TMC3    C3 5826   3.386   0.176  11.321  0.2716 -0.7596  0.8072
  390TMC3    C4 5827   3.624   0.298  11.314 -0.5755 -0.3116 -0.3032
  390TMC3    C5 5828   3.567   0.259  11.435  0.0140  0.5794  0.9652
  390TMC3    C6 5829   3.449   0.197  11.440 -0.3111 -0.0621 -0.8437
  390TMC3     C 5830   3.557   0.386  11.100  0.0216 -0.1012 -0.5764
  390TMC3     O 5831   3.479   0.376  11.006  0.2874 -0.2196 -0.2771
  390TMC3     H 5832   3.396   0.186  11.105 -2.7375 -0.9879  1.6564
  390TMC3    H1 5833   3.727   0.332  11.321 -1.0223  1.0116 -0.2292
  390TMC3    H2 5834   3.407   0.162  11.534  0.0321 -0.4323 -0.8284
  390TMC3    C7 5835   3.606   0.350  11.542 -0.2255 -0.2130  0.1674
  390TMC3    C8 5836   3.257   0.108  11.308 -0.0073  0.0632  0.3246
  390TMC3    O1 5837   3.714   0.408  11.538  0.4434  0.5245 -0.1976
  390TMC3    O2 5838   3.205   0.064  11.207  0.3746 -0.4486 -0.2928
  391MPD2     C 5839   2.705   1.863  10.843 -0.5237  0.4626 -0.5993
  391MPD2    C1 5840   2.691   2.006  10.842  0.0708 -0.4852  0.0245
  391MPD2    C2 5841   2.677   2.069  10.716 -0.5501 -0.0124  0.5185
  391MPD2    C3 5842   2.673   1.991  10.602 -0.2337 -0.1287 -0.0017
  391MPD2    C4 5843   2.675   1.849  10.607 -0.5306  0.5447  0.8400
  391MPD2    C5 5844   2.705   1.791  10.726  0.3227  0.4170  0.6224
  391MPD2     H 5845   2.653   2.174  10.707 -1.8352 -0.5419 -2.2745
  391MPD2    H1 5846   2.666   1.786  10.519  1.6911  0.5171  0.6364
  391MPD2    H2 5847   2.711   1.805  10.935  0.5098 -2.1595 -2.3221
  391MPD2    H3 5848   2.712   1.683  10.731 -0.1203  0.3661  0.1748
  391MPD2     N 5849   2.667   2.064  10.480  0.4619 -0.0642  0.5835
  391MPD2    H5 5850   2.670   2.165  10.489  0.0093  0.0602 -0.6301
  391MPD2    N1 5851   2.705   2.071  10.968  0.1337 -0.0482  0.6244
  391MPD2    H7 5852   2.738   2.013  11.044  0.4744 -3.0577 -1.8371
  392TMC3    C1 5853   2.700   2.127  10.264  0.0408 -0.3077  1.6124
  392TMC3    C2 5854   2.637   2.127  10.143 -0.1505 -1.0217  0.0241
  392TMC3    C3 5855   2.650   2.236  10.059 -0.3566  0.1656  0.7537
  392TMC3    C4 5856   2.797   2.218  10.295  0.6315 -0.5446 -0.0119
  392TMC3    C5 5857   2.813   2.323  10.205 -0.3312  0.1587 -0.3903
  392TMC3    C6 5858   2.733   2.341  10.091  0.1324  0.0431  0.2867
  392TMC3     C 5859   2.675   2.018  10.350  0.1398 -1.0379  0.1486
  392TMC3     O 5860   2.657   1.907  10.305 -0.1307  0.3693 -0.2982
  392TMC3     H 5861   2.559   2.052  10.133 -1.4295  0.1511  1.1873
  392TMC3    H1 5862   2.852   2.217  10.389 -0.0803 -0.6166  0.4066
  392TMC3    H2 5863   2.746   2.419  10.017  0.0839 -0.9418 -0.7680
  392TMC3    C7 5864   2.905   2.428  10.243  0.2622  0.5637 -0.7696
  392TMC3    C8 5865   2.535   2.277   9.979 -0.2943  0.7250 -0.5744
  392TMC3    O1 5866   2.943   2.429  10.361  0.5601  0.4426 -0.3199
  392TMC3    O2 5867   2.508   2.396   9.987 -0.2412 -0.3018 -0.3862
  393TMC3    C1 5868   2.028   0.070  10.506 -0.4824 -0.5135 -0.2419
  393TMC3    C2 5869   1.924   0.071  10.598 -0.0038  0.2471  0.1797
  393TMC3    C3 5870   1.886   4.679  10.650 -0.1139 -0.8760 -0.8797
  393TMC3    C4 5871   2.096   4.684  10.479 -0.4152  0.2421  0.0122
  393TMC3    C5 5872   2.058   4.569  10.539  0.4518 -0.0038  0.6793
  393TMC3    C6 5873   1.956   4.567  10.631 -0.1145 -0.8866  0.1060
  393TMC3     C 5874   2.036   0.184  10.418 -0.0737  0.5332  0.2697
  393TMC3     O 5875   1.941   0.259  10.430 -0.3999  0.4641 -0.2674
  393TMC3     H 5876   1.865   0.160  10.613  1.9747  1.2896  1.8696
  393TMC3    H1 5877   2.151   4.674  10.387  0.6564  5.1574  0.1068
  393TMC3    H2 5878   1.940   4.476  10.688  0.1844  0.2758  2.0755
  393TMC3    C7 5879   2.124   4.446  10.507 -0.7352 -0.4606  0.7092
  393TMC3    C8 5880   1.814   4.689  10.775 -0.3698 -0.0863 -0.7541
  393TMC3    O1 5881   2.064   4.343  10.530  0.0574 -0.3794 -0.3623
  393TMC3    O2 5882   1.740   4.598  10.805  0.2306  0.0259  0.3829
  394TMC3    C1 5883   3.443   0.773  10.563  0.5427  0.0847  0.6816
  394TMC3    C2 5884   3.352   0.712  10.483  0.4661 -0.1902 -0.5806
  394TMC3    C3 5885   3.343   0.742  10.350 -0.3850 -0.2226 -0.8264
  394TMC3    C4 5886   3.547   0.842  10.505 -1.2799 -0.2250  0.9985
  394TMC3    C5 5887   3.535   0.869  10.374  0.1879 -0.2461 -0.0025
  394TMC3    C6 5888   3.436   0.828  10.293  0.3717 -0.0437  0.5281
  394TMC3     C 5889   3.445   0.737  10.704 -0.0827 -0.0999 -0.5661
  394TMC3     O 5890   3.373   0.640  10.736  0.6246  0.3156 -0.5446
  394TMC3     H 5891   3.264   0.663  10.523  0.1147  1.5365  0.7335
  394TMC3    H1 5892   3.622   0.891  10.566  1.4779 -2.3588 -0.6972
  394TMC3    H2 5893   3.458   0.810  10.188  1.1012 -0.5060  0.7598
  394TMC3    C7 5894   3.654   0.932  10.321  0.1730  0.2756 -0.5521
  394TMC3    C8 5895   3.293   0.636  10.268  0.3778  0.8676  0.3542
  394TMC3    O1 5896   3.640   1.025  10.251 -0.0158 -0.1205  0.5032
  394TMC3    O2 5897   3.249   0.657  10.158 -0.3123 -0.2049  0.5351
  395TMC3    C1 5898   4.032   2.409  14.666 -0.1914  0.1381  0.1332
  395TMC3    C2 5899   3.932   2.365  14.582  0.6694 -0.5526  0.3564
  395TMC3    C3 5900   3.862   2.458  14.506  0.2328  0.0302 -1.0902
  395TMC3    C4 5901   4.078   2.540  14.659  0.2685 -0.3351  0.2845
  395TMC3    C5 5902   4.018   2.624  14.571 -0.0828 -0.2389  0.4741
  395TMC3    C6 5903   3.903   2.588  14.507 -0.4297 -0.1985 -0.3325
  395TMC3     C 5904   4.129   2.317  14.713 -0.0010  0.3913  0.2837
  395TMC3     O 5905   4.230   2.357  14.668 -0.1486  0.2375 -0.2236
  395TMC3     H 5906   3.902   2.261  14.593  3.2736 -1.2439  0.8615
  395TMC3    H1 5907   4.167   2.567  14.714  1.7506  1.3019 -2.9143
  395TMC3    H2 5908   3.857   2.665  14.447 -1.8923 -0.2685  0.6816
  395TMC3    C7 5909   4.061   2.767  14.566 -0.8355 -0.6342  0.5518
  395TMC3    C8 5910   3.720   2.435  14.482 -0.2220  0.1484 -0.5421
  395TMC3    O1 5911   4.154   2.793  14.644 -0.1973  0.4937 -0.8061
  395TMC3    O2 5912   3.662   2.542  14.463 -0.0532 -0.5179  0.3749
  396MPD2     C 5913   3.488   3.549  16.990  0.1585  0.0269  0.3014
  396MPD2    C1 5914   3.620   3.524  16.963 -0.1774  0.3505  0.1860
  396MPD2    C2 5915   3.688   3.617  16.880 -0.6081  0.0226  0.3478
  396MPD2    C3 5916   3.613   3.713  16.815  0.2625 -0.2017  0.7293
  396MPD2    C4 5917   3.482   3.729  16.843  0.6636 -0.2863 -0.2152
  396MPD2    C5 5918   3.420   3.655  16.936  0.3706  0.6220  0.7229
  396MPD2     H 5919   3.792   3.596  16.861  0.1737  1.3882  3.2390
  396MPD2    H1 5920   3.425   3.811  16.801 -1.2150 -0.8167  1.2846
  396MPD2    H2 5921   3.432   3.489  17.061  0.3536 -0.9944 -0.4223
  396MPD2    H3 5922   3.315   3.675  16.955  0.3745  0.6912  0.6718
  396MPD2     N 5923   3.679   3.787  16.719 -0.6007  0.0254  0.0805
  396MPD2    H5 5924   3.780   3.788  16.724 -0.6155  0.0676  0.3900
  396MPD2    N1 5925   3.673   3.400  17.014 -0.3558  1.1756 -0.1461
  396MPD2    H7 5926   3.616   3.353  17.083 -0.3067 -1.2320 -1.7396
  397TMC3    C1 5927   3.833   3.222  17.040  0.5429  0.3194  0.0657
  397TMC3    C2 5928   3.886   3.144  16.943  0.4080 -0.5918 -0.5174
  397TMC3    C3 5929   3.838   3.014  16.930 -0.1342 -0.4286 -0.1637
  397TMC3    C4 5930   3.742   3.174  17.137  0.1370  0.7164 -0.2269
  397TMC3    C5 5931   3.714   3.042  17.135  0.6760  0.0042  0.1688
  397TMC3    C6 5932   3.757   2.968  17.034 -0.0663 -0.3676  0.2366
  397TMC3     C 5933   3.798   3.350  16.986  0.3697 -0.1399 -0.4702
  397TMC3     O 5934   3.874   3.385  16.898 -0.3371  0.3650 -0.2691
  397TMC3     H 5935   3.933   3.184  16.854  0.7234  2.1499  0.8846
  397TMC3    H1 5936   3.703   3.238  17.215  0.6389 -0.3036  0.8723
  397TMC3    H2 5937   3.725   2.864  17.027 -1.6896  0.2210 -0.9520
  397TMC3    C7 5938   3.644   2.966  17.246 -0.8126  0.5455  0.0721
  397TMC3    C8 5939   3.779   2.995  16.798  0.0699  0.3453  0.5798
  397TMC3    O1 5940   3.613   2.847  17.232 -0.0527 -0.6037 -0.1129
  397TMC3    O2 5941   3.663   2.973  16.802  0.2475  0.2459 -0.2086
  398MPD2     C 5942   1.340   4.043   0.006 -0.3377  0.5814 -0.1888
  398MPD2    C1 5943   1.466   4.024   0.055 -0.6282  0.7208 -0.3207
  398MPD2    C2 5944   1.548   4.134   0.080 -0.7955  0.3354  0.0665
  398MPD2    C3 5945   1.509   4.269   0.059 -0.4869  0.1256 -0.7517
  398MPD2    C4 5946   1.370   4.273   0.025 -0.7593 -0.0475  0.1182
  398MPD2    C5 5947   1.292   4.165   0.011 -0.0741 -0.6604 -0.1710
  398MPD2     H 5948   1.649   4.113   0.113 -0.4718 -1.6659 -2.2202
  398MPD2    H1 5949   1.320   4.368   0.016  0.8193  0.3961 -4.2622
  398MPD2    H2 5950   1.274   3.959  17.696 -1.2783  0.9625  1.2790
  398MPD2    H3 5951   1.185   4.171  17.707 -0.2780 -1.1712  1.1189
  398MPD2     N 5952   1.600   4.378   0.082  0.4665  0.4147 -0.4167
  398MPD2    H5 5953   1.696   4.362   0.112  1.1733  0.3315 -2.7274
  398MPD2    N1 5954   1.516   3.897   0.100 -0.5088  0.0778  0.2102
  398MPD2    H7 5955   1.597   3.894   0.160 -1.2452 -1.4540  1.1584
  399TMC3    C1 5956   1.524   3.671   0.164 -0.1378  0.1948  0.0597
  399TMC3    C2 5957   1.649   3.691   0.226  0.3910  0.4031 -0.3735
  399TMC3    C3 5958   1.687   3.586   0.309 -0.8231  0.3023 -0.4849
  399TMC3    C4 5959   1.458   3.552   0.173  0.3916  0.5755  0.4686
  399TMC3    C5 5960   1.498   3.463   0.266 -0.0932 -0.2868  0.6017
  399TMC3    C6 5961   1.607   3.480   0.341 -0.3692  0.3476  0.2969
  399TMC3     C 5962   1.451   3.778   0.087 -0.0085  0.4541 -0.6740
  399TMC3     O 5963   1.362   3.740   0.012 -0.0106 -0.0894 -0.2523
  399TMC3     H 5964   1.713   3.777   0.208 -0.7351  1.8103  2.3006
  399TMC3    H1 5965   1.366   3.538   0.118  1.5263 -1.1967 -0.9643
  399TMC3    H2 5966   1.635   3.403   0.412 -0.4278  1.3036  1.3706
  399TMC3    C7 5967   1.411   3.358   0.311 -0.1091  0.1781 -0.1790
  399TMC3    C8 5968   1.827   3.584   0.350 -0.8981  0.0007  0.9276
  399TMC3    O1 5969   1.439   3.316   0.424  0.9769  0.0615 -0.0916
  399TMC3    O2 5970   1.898   3.647   0.273  0.8452  0.0975  0.0221
  400TMC3    C1 5971   4.627   2.626  16.406 -0.1050 -0.3822 -0.8615
  400TMC3    C2 5972   4.504   2.617  16.351  0.3942  0.4829 -0.5023
  400TMC3    C3 5973   4.453   2.738  16.305  0.1249  0.3613 -0.0107
  400TMC3    C4 5974   4.701   2.742  16.425 -0.0555  0.3628  0.3930
  400TMC3    C5 5975   4.636   2.860  16.384 -0.1272  0.1003  0.2230
  400TMC3    C6 5976   4.512   2.859  16.332  1.0194 -0.3147  0.0000
  400TMC3     C 5977   4.661   2.509  16.484  0.4506 -0.2490 -0.0748
  400TMC3     O 5978   4.618   2.400  16.446  0.0636  0.0817  0.0906
  400TMC3     H 5979   4.449   2.524  16.338  1.0817 -0.6526  4.6851
  400TMC3    H1 5980   0.073   2.751  16.466  0.0069 -0.7213  0.4660
  400TMC3    H2 5981   4.462   2.945  16.290 -0.5428 -1.0319  0.4202
  400TMC3    C7 5982   4.682   2.983  16.421  0.3410  0.0150  1.0669
  400TMC3    C8 5983   4.325   2.746  16.233 -0.9215 -0.4301 -0.0624
  400TMC3    O1 5984   0.077   2.998  16.413  0.2678  0.4749 -0.1501
  400TMC3    O2 5985   4.267   2.858  16.234 -0.5999 -0.6244 -0.2965
  401MPD2     C 5986   2.538   2.108   0.752  0.5259 -0.2883 -0.4387
  401MPD2    C1 5987   2.649   2.070   0.828 -0.2001  0.4280 -0.0190
  401MPD2    C2 5988   2.691   1.940   0.823 -0.4714  0.1974  0.1142
  401MPD2    C3 5989   2.627   1.848   0.742 -0.8163  0.3252 -0.0098
  401MPD2    C4 5990   2.512   1.887   0.674 -0.4022  0.3929  0.6214
  401MPD2    C5 5991   2.468   2.017   0.679  0.2247  0.3831  0.2533
  401MPD2     H 5992   2.769   1.904   0.889  1.1379 -0.7614 -2.3254
  401MPD2    H1 5993   2.447   1.825   0.614 -0.1059 -0.9784  1.7217
  401MPD2    H2 5994   2.491   2.206   0.753  0.3523 -0.3671 -0.6809
  401MPD2    H3 5995   2.378   2.047   0.627 -0.9245 -2.8728  0.3374
  401MPD2     N 5996   2.658   1.711   0.754 -0.5022  0.0251  0.3434
  401MPD2    H5 5997   2.732   1.687   0.819  0.2333  0.2334 -0.4296
  401MPD2    N1 5998   2.722   2.167   0.905 -0.1760 -0.0254 -0.2720
  401MPD2    H7 5999   2.781   2.117   0.970 -0.8204  0.6293  0.8108
  402TMC3    C1 6000   2.702   1.496   0.679  0.1361 -0.4624 -0.2950
  402TMC3    C2 6001   2.750   1.460   0.801  0.0372 -0.2130  0.4512
  402TMC3    C3 6002   2.825   1.343   0.808  0.0735  0.2932  0.3348
  402TMC3    C4 6003   2.739   1.431   0.568  0.7649  0.0281 -0.1715
  402TMC3    C5 6004   2.816   1.324   0.574 -0.7995  0.6365 -0.0815
  402TMC3    C6 6005   2.861   1.280   0.697  0.1896 -0.7364  0.5400
  402TMC3     C 6006   2.627   1.618   0.657  0.4030 -0.2378  0.1987
  402TMC3     O 6007   2.566   1.634   0.549 -0.8789 -0.7087  0.7091
  402TMC3     H 6008   2.730   1.517   0.891  0.7150 -0.4202  0.7334
  402TMC3    H1 6009   2.706   1.467   0.472  1.2090 -1.4138 -0.8627
  402TMC3    H2 6010   2.934   1.200   0.705  2.2447  1.0833 -0.1133
  402TMC3    C7 6011   2.878   1.281   0.451  0.1668 -0.0208  0.4722
  402TMC3    C8 6012   2.884   1.294   0.930  0.1218 -0.1520 -0.1823
  402TMC3    O1 6013   2.858   1.359   0.359  0.1372  0.0169 -0.2260
  402TMC3    O2 6014   2.985   1.232   0.916 -0.2851 -0.7229 -0.6581
  403MPD2     C 6015   1.111   0.156  13.215 -0.1822  0.1620 -0.2613
  403MPD2    C1 6016   1.128   0.089  13.334  0.6277 -0.1276 -0.3045
  403MPD2    C2 6017   1.220   0.139  13.421  0.1032 -0.1326 -0.1486
  403MPD2    C3 6018   1.298   0.248  13.394 -0.0874  0.1613 -0.5789
  403MPD2    C4 6019   1.277   0.315  13.275  0.4586  0.0647  0.2527
  403MPD2    C5 6020   1.183   0.269  13.194 -0.1937 -0.5986 -0.5153
  403MPD2     H 6021   1.242   0.077  13.507  3.5944 -2.6789 -2.8598
  403MPD2    H1 6022   1.349   0.396  13.263 -0.0680  0.8548  2.5995
  403MPD2    H2 6023   1.046   0.124  13.134  0.8217  0.7349 -1.2946
  403MPD2    H3 6024   1.169   0.338  13.111 -1.4783  0.5527  0.6386
  403MPD2     N 6025   1.397   0.286  13.481 -0.3431 -0.2349  0.3381
  403MPD2    H5 6026   1.432   0.216  13.546 -0.9070 -0.6032  0.2404
  403MPD2    N1 6027   1.048   4.707  13.343  0.3925  0.0330  0.5643
  403MPD2    H7 6028   1.007   4.680  13.254 -1.4671 -0.5488  1.6069
  404TMC3    C1 6029   0.987   4.497  13.449  0.4385 -0.2238 -0.5621
  404TMC3    C2 6030   0.992   4.412  13.562 -0.2978 -0.0582  0.3231
  404TMC3    C3 6031   0.982   4.274  13.543  0.2265 -0.1945  0.1711
  404TMC3    C4 6032   0.966   4.446  13.323 -0.1930  0.7871  0.4118
  404TMC3    C5 6033   0.958   4.311  13.312  0.5068  0.0193 -0.4110
  404TMC3    C6 6034   0.965   4.227  13.419 -0.4544  0.5610  0.5079
  404TMC3     C 6035   1.044   4.633  13.460 -0.1839  0.8511 -0.3172
  404TMC3     O 6036   1.071   4.669  13.575  0.2654  0.1983 -0.3950
  404TMC3     H 6037   1.025   4.444  13.660  0.8349  2.3409 -0.8629
  404TMC3    H1 6038   0.967   4.499  13.229 -2.6148  0.2020  0.0650
  404TMC3    H2 6039   0.979   4.123  13.395 -0.2498  0.5239  0.7924
  404TMC3    C7 6040   0.979   4.250  13.182 -0.0159  0.7367  0.1552
  404TMC3    C8 6041   1.022   4.176  13.641  0.7217 -0.2795 -0.6449
  404TMC3    O1 6042   1.080   4.180  13.178  0.6571  0.4075  0.3288
  404TMC3    O2 6043   1.055   4.071  13.592 -0.1655 -0.7564 -0.3129
  405MPD2     C 6044   1.643   0.786  14.461  0.3271 -0.1579 -0.0735
  405MPD2    C1 6045   1.623   0.681  14.372 -0.4160  0.4620  0.2079
  405MPD2    C2 6046   1.514   0.697  14.281  0.2672  0.1299 -0.0813
  405MPD2    C3 6047   1.435   0.806  14.272 -0.7146 -0.4548  0.8624
  405MPD2    C4 6048   1.462   0.910  14.367  0.0665 -0.0711 -0.5299
  405MPD2    C5 6049   1.554   0.894  14.467 -0.0054 -0.7982  0.0638
  405MPD2     H 6050   1.489   0.609  14.223 -0.0399 -0.4184  0.8927
  405MPD2    H1 6051   1.394   0.994  14.374  0.0056 -0.0485 -1.4608
  405MPD2    H2 6052   1.712   0.786  14.545 -1.7266 -0.2422  1.6014
  405MPD2    H3 6053   1.567   0.976  14.536 -0.3752  0.6347 -1.5846
  405MPD2     N 6054   1.334   0.810  14.173 -0.6596  0.3146 -0.4994
  405MPD2    H5 6055   1.317   0.720  14.128 -0.1652 -0.3213  0.5767
  405MPD2    N1 6056   1.694   0.566  14.388  0.5073  0.3860 -0.2256
  405MPD2    H7 6057   1.747   0.552  14.474  0.5753 -2.6013 -0.7336
  406TMC3    C1 6058   0.932   0.867  13.967  0.4266 -0.2700  0.5199
  406TMC3    C2 6059   0.955   0.755  13.885 -0.3400  0.2925 -0.0856
  406TMC3    C3 6060   1.084   0.717  13.884  0.0121 -0.6392 -0.2221
  406TMC3    C4 6061   1.012   0.919  14.064  0.3013  0.5165  0.0815
  406TMC3    C5 6062   1.136   0.874  14.055 -0.2861 -1.4953 -0.5954
  406TMC3    C6 6063   1.176   0.781  13.962 -0.0992  0.3129  0.4349
  406TMC3     C 6064   0.792   0.896  13.978  0.1133  0.0569 -0.4072
  406TMC3     O 6065   0.716   0.898  13.881 -0.2203  0.0252  0.3635
  406TMC3     H 6066   0.876   0.717  13.821 -0.6014 -1.2714  1.1865
  406TMC3    H1 6067   0.997   0.989  14.145  0.1758 -0.2675  0.7301
  406TMC3    H2 6068   1.278   0.745  13.957  0.4314  1.7619  0.8074
  406TMC3    C7 6069   1.238   0.906  14.156 -0.2039  0.7474 -0.1084
  406TMC3    C8 6070   1.108   0.579  13.833 -0.1958  0.2521  1.1600
  406TMC3    O1 6071   1.220   1.007  14.221  0.0932  0.0124  0.3695
  406TMC3    O2 6072   1.040   0.522  13.748  0.0967  0.6669 -0.2201
  407MPD2     C 6073   3.763   2.080   9.750 -0.7370 -0.3133  0.2634
  407MPD2    C1 6074   3.881   2.106   9.820  0.1913  0.8634  0.5955
  407MPD2    C2 6075   3.888   2.189   9.933 -0.8790  0.2603 -0.0666
  407MPD2    C3 6076   3.769   2.251   9.973  0.0526 -0.7090 -0.0942
  407MPD2    C4 6077   3.656   2.231   9.893 -0.1678  0.6566 -0.8733
  407MPD2    C5 6078   3.652   2.149   9.781  0.5878  0.1361 -0.6035
  407MPD2     H 6079   3.985   2.209   9.977 -0.6029  0.6007 -0.8316
  407MPD2    H1 6080   3.565   2.283   9.922  1.5456  2.4866  1.2382
  407MPD2    H2 6081   3.758   2.022   9.659  1.3734 -0.2911  0.1260
  407MPD2    H3 6082   3.563   2.147   9.719  0.5390 -2.0654 -0.4730
  407MPD2     N 6083   3.764   2.345  10.076  0.3068  0.9823  0.4549
  407MPD2    H5 6084   3.679   2.399  10.078  0.6698  1.5574  0.2711
  407MPD2    N1 6085   4.003   2.046   9.784 -0.1864  0.1840  0.1667
  407MPD2    H7 6086   4.084   2.074   9.839 -0.2593 -0.8207  0.7906
  408TMC3    C1 6087   4.167   1.948   9.638  0.1454  0.1556 -0.5802
  408TMC3    C2 6088   4.208   1.828   9.585  0.3402  0.5389 -0.3208
  408TMC3    C3 6089   4.329   1.815   9.528  0.0431 -0.7015 -0.6195
  408TMC3    C4 6090   4.236   2.065   9.627  1.3938  0.1032 -0.7941
  408TMC3    C5 6091   4.359   2.054   9.564 -0.5979 -0.0133 -0.1471
  408TMC3    C6 6092   4.405   1.932   9.518 -0.2739  0.0549 -0.3323
  408TMC3     C 6093   4.027   1.965   9.677  0.3923 -0.3364  0.0281
  408TMC3     O 6094   3.939   1.926   9.600 -0.0872 -0.2918 -0.2712
  408TMC3     H 6095   4.141   1.745   9.605 -0.1333  1.1359  0.5632
  408TMC3    H1 6096   4.186   2.160   9.642  1.6132 -0.0194  0.6891
  408TMC3    H2 6097   4.498   1.929   9.462 -0.3997  0.6954 -0.5782
  408TMC3    C7 6098   4.431   2.170   9.520  0.2856  0.3304  0.0782
  408TMC3    C8 6099   4.394   1.681   9.536  0.2797  0.1944  0.3229
  408TMC3    O1 6100   4.542   2.161   9.462  0.0225  0.0105 -0.1973
  408TMC3    O2 6101   4.309   1.591   9.529  0.1685  0.3223 -0.3647
  409MPD2     C 6102   3.101   2.521  16.822 -0.1506 -0.0481 -0.1536
  409MPD2    C1 6103   3.222   2.455  16.829 -0.5105  0.2366  0.2632
  409MPD2    C2 6104   3.328   2.513  16.764 -0.2396 -0.3721  0.2360
  409MPD2    C3 6105   3.321   2.628  16.689  0.0485 -0.3699 -0.0857
  409MPD2    C4 6106   3.194   2.690  16.679 -0.4047  0.3359  0.6972
  409MPD2    C5 6107   3.091   2.634  16.746  0.3005  0.2985 -0.4114
  409MPD2     H 6108   3.421   2.457  16.762 -1.0210 -1.6040 -0.8468
  409MPD2    H1 6109   3.185   2.783  16.624 -1.7819 -0.7722 -0.9999
  409MPD2    H2 6110   3.011   2.487  16.871  0.3144  0.6827  1.2073
  409MPD2    H3 6111   2.994   2.684  16.750  1.8508  2.8971  3.6198
  409MPD2     N 6112   3.427   2.690  16.612 -0.1823  0.1618  0.3962
  409MPD2    H5 6113   3.412   2.785  16.579  1.4617 -0.0478 -0.9788
  409MPD2    N1 6114   3.242   2.336  16.909  0.1748  0.2470 -0.2970
  409MPD2    H7 6115   3.326   2.280  16.903 -0.2940 -0.9031  3.5121
  410TMC3    C1 6116   3.639   2.703  16.495  0.3794 -0.1612  0.0807
  410TMC3    C2 6117   3.772   2.693  16.521 -0.1027  0.0725  0.4664
  410TMC3    C3 6118   3.856   2.766  16.446  0.4045 -0.1412 -1.1878
  410TMC3    C4 6119   3.581   2.789  16.405  0.0782  0.0497  0.2805
  410TMC3    C5 6120   3.672   2.860  16.332 -0.2488  0.0481 -0.2090
  410TMC3    C6 6121   3.812   2.852  16.351  0.7399  0.0499 -0.5781
  410TMC3     C 6122   3.555   2.632  16.592 -0.5882  0.2668  0.6838
  410TMC3     O 6123   3.593   2.537  16.653  0.1458  0.7050  0.6790
  410TMC3     H 6124   3.812   2.625  16.595  2.5930 -0.5380 -1.5452
  410TMC3    H1 6125   3.475   2.796  16.384 -0.0914 -0.4647  0.9722
  410TMC3    H2 6126   3.879   2.907  16.286 -1.0060  1.8160 -0.8644
  410TMC3    C7 6127   3.627   2.915  16.206  0.1437  0.0613  0.0171
  410TMC3    C8 6128   3.999   2.762  16.471 -0.6140  0.3957 -0.1778
  410TMC3    O1 6129   3.534   2.859  16.147  0.5598  0.2617 -0.1017
  410TMC3    O2 6130   4.070   2.862  16.467  1.4821  0.4780  0.6738
  411MPD2     C 6131   3.659   3.189  14.170 -0.0342 -0.0530 -0.2371
  411MPD2    C1 6132   3.632   3.275  14.275  0.6161  0.3114  0.1872
  411MPD2    C2 6133   3.535   3.237  14.364 -0.1207  0.3768 -0.1464
  411MPD2    C3 6134   3.480   3.112  14.351  0.6285 -0.1027  0.0029
  411MPD2    C4 6135   3.521   3.018  14.255  0.5428  0.2187  0.1755
  411MPD2    C5 6136   3.607   3.064  14.157 -0.0610 -0.4365  0.6328
  411MPD2     H 6137   3.499   3.311  14.435 -0.4520  0.2091 -0.1402
  411MPD2    H1 6138   3.472   2.924  14.236  0.4308  0.7332 -2.0784
  411MPD2    H2 6139   3.734   3.225  14.100  0.0687  0.8108  0.3173
  411MPD2    H3 6140   3.631   3.010  14.067  0.3997  0.4705  0.2153
  411MPD2     N 6141   3.374   3.064  14.435  0.6722  0.1929  0.0678
  411MPD2    H5 6142   3.365   2.964  14.418  0.2877  0.2452 -0.0408
  411MPD2    N1 6143   3.687   3.403  14.270 -0.1558  0.5372 -0.0414
  411MPD2    H7 6144   3.730   3.442  14.187 -0.6746  0.0560 -0.5337
  412TMC3    C1 6145   3.189   3.060  14.566 -0.1308  0.0837 -0.0231
  412TMC3    C2 6146   3.078   3.123  14.544 -0.0077  0.3248  0.5085
  412TMC3    C3 6147   2.989   3.046  14.478  0.2936  0.5618 -0.1771
  412TMC3    C4 6148   3.205   2.925  14.557 -0.0857  0.1048 -0.0357
  412TMC3    C5 6149   3.111   2.846  14.496  1.0276  0.4601  0.2259
  412TMC3    C6 6150   3.000   2.909  14.468  0.0919 -0.7903  0.8811
  412TMC3     C 6151   3.306   3.131  14.534  0.2039  0.5006 -0.7002
  412TMC3     O 6152   3.309   3.255  14.555  0.1091  0.3240 -0.2264
  412TMC3     H 6153   3.076   3.231  14.536 -0.4075  0.2304 -0.7608
  412TMC3    H1 6154   3.297   2.877  14.589 -1.0728 -1.6991  0.0636
  412TMC3    H2 6155   2.934   2.863  14.395  0.3612 -0.0318  0.1442
  412TMC3    C7 6156   3.165   2.762  14.387 -0.2023 -0.2448 -0.0537
  412TMC3    C8 6157   2.957   3.107  14.350 -0.4981  0.3375 -0.4452
  412TMC3    O1 6158   3.241   2.676  14.423  0.2693 -0.4333  0.4177
  412TMC3    O2 6159   2.987   3.043  14.250 -0.1433  0.0359  0.3767
  413MPD2     C 6160   0.968   1.964  15.405 -0.4876 -0.7451 -0.2528
  413MPD2    C1 6161   0.884   1.892  15.321 -0.3648 -0.3417  0.3782
  413MPD2    C2 6162   0.914   1.762  15.288 -0.0325 -0.9469  0.0648
  413MPD2    C3 6163   1.036   1.709  15.326 -0.2055  0.0331  0.2018
  413MPD2    C4 6164   1.118   1.784  15.410  0.0624 -0.6817  0.8430
  413MPD2    C5 6165   1.087   1.910  15.455  0.4958 -0.7353 -0.3730
  413MPD2     H 6166   0.844   1.711  15.222 -0.1786  1.7465 -1.8484
  413MPD2    H1 6167   1.207   1.733  15.445  2.2930  0.5097 -3.0849
  413MPD2    H2 6168   0.934   2.058  15.446  1.4684  0.6110 -1.7605
  413MPD2    H3 6169   1.154   1.958  15.525 -0.0050  1.0309 -1.1020
  413MPD2     N 6170   1.072   1.578  15.280 -0.0477  0.2616  0.3797
  413MPD2    H5 6171   1.006   1.536  15.216  0.0520 -1.2017  1.2458
  413MPD2    N1 6172   0.762   1.959  15.285 -0.1853 -0.4921 -0.6103
  413MPD2    H7 6173   0.734   2.045  15.332  0.3231 -0.8872  0.4285
  414TMC3    C1 6174   1.186   1.392  15.238  0.2171 -0.1788 -0.2596
  414TMC3    C2 6175   1.235   1.280  15.300 -0.5740 -0.2824 -0.0085
  414TMC3    C3 6176   1.223   1.159  15.241 -0.1723  0.4270 -0.6060
  414TMC3    C4 6177   1.142   1.390  15.110  0.3617  0.0057 -0.2516
  414TMC3    C5 6178   1.152   1.271  15.045  0.3124 -0.6632 -0.2762
  414TMC3    C6 6179   1.192   1.158  15.105 -0.8978 -0.4851 -0.1174
  414TMC3     C 6180   1.186   1.514  15.317  0.2804 -0.2171 -0.1081
  414TMC3     O 6181   1.252   1.515  15.419  0.1461  0.3133 -0.0968
  414TMC3     H 6182   1.249   1.286  15.407  2.0556 -0.3916 -0.3420
  414TMC3    H1 6183   1.106   1.476  15.054 -0.2080 -0.4756 -0.6209
  414TMC3    H2 6184   1.189   1.062  15.055 -0.1281 -1.2098  1.2171
  414TMC3    C7 6185   1.152   1.287  14.901 -0.7382  0.8005 -0.8775
  414TMC3    C8 6186   1.328   1.060  15.270  0.1960 -0.5634  0.6484
  414TMC3    O1 6187   1.065   1.353  14.848 -0.1618 -0.1008  0.5600
  414TMC3    O2 6188   1.353   0.972  15.185 -0.3353  0.8703  0.1589
  415TMC3    C1 6189   1.347   4.011   9.757 -0.5590 -0.1704  0.6802
  415TMC3    C2 6190   1.400   4.127   9.812 -0.1212  0.3131 -0.0497
  415TMC3    C3 6191   1.504   4.187   9.747 -0.0432 -0.3649  0.1589
  415TMC3    C4 6192   1.393   3.949   9.646 -0.0846  0.1875 -0.6147
  415TMC3    C5 6193   1.487   4.016   9.580 -0.4716  0.7518 -1.0765
  415TMC3    C6 6194   1.543   4.135   9.623  0.1373 -0.9561 -0.0149
  415TMC3     C 6195   1.246   3.920   9.820  0.1618  0.0004  1.4153
  415TMC3     O 6196   1.227   3.810   9.775 -0.0235 -0.9237 -0.2195
  415TMC3     H 6197   1.372   4.156   9.913  2.3316 -2.1225  1.3205
  415TMC3    H1 6198   1.317   3.891   9.596 -0.1933 -0.6524  0.5158
  415TMC3    H2 6199   1.618   4.188   9.565  0.6838  1.4483  2.8298
  415TMC3    C7 6200   1.499   3.980   9.441  0.9783  0.4479 -0.5919
  415TMC3    C8 6201   1.543   4.322   9.781 -0.1604  0.1853  0.0577
  415TMC3    O1 6202   1.503   4.076   9.365  0.1425 -0.7240 -0.2904
  415TMC3    O2 6203   1.468   4.385   9.854  0.4394  0.3594  0.9129
  416MPD2     C 6204   3.085   3.419  11.760 -0.1030  0.0696 -1.1057
  416MPD2    C1 6205   2.961   3.381  11.717 -1.0611  0.5581 -0.8276
  416MPD2    C2 6206   2.935   3.256  11.651  0.0207 -0.0908  0.3935
  416MPD2    C3 6207   3.040   3.167  11.628 -0.0609 -0.5079  0.1647
  416MPD2    C4 6208   3.155   3.204  11.692  0.3112 -0.5697  1.5018
  416MPD2    C5 6209   3.181   3.329  11.738 -0.6465 -0.2896  0.4806
  416MPD2     H 6210   2.837   3.229  11.615  0.5989  0.1135 -1.3393
  416MPD2    H1 6211   3.236   3.132  11.691  0.1679 -0.7260  1.0386
  416MPD2    H2 6212   3.114   3.517  11.796  0.5799 -0.5328 -0.0158
  416MPD2    H3 6213   3.280   3.346  11.781 -2.0795  0.1821  3.6128
  416MPD2     N 6214   3.031   3.044  11.559  0.0306 -0.0049 -1.0614
  416MPD2    H5 6215   3.121   2.997  11.558  0.0738  0.0778 -1.0856
  416MPD2    N1 6216   2.858   3.476  11.746 -0.1029 -0.0175 -0.2993
  416MPD2    H7 6217   2.889   3.563  11.788 -0.7869 -0.7890  1.7726
  417TMC3    C1 6218   2.652   3.588  11.731 -0.3635  0.1190 -0.0073
  417TMC3    C2 6219   2.672   3.641  11.860 -0.0333  0.0588 -0.0953
  417TMC3    C3 6220   2.596   3.757  11.891  0.2633 -0.6858 -0.1903
  417TMC3    C4 6221   2.565   3.643  11.643 -0.1467 -0.6453 -0.4637
  417TMC3    C5 6222   2.486   3.741  11.688 -0.3436  0.0459  1.3105
  417TMC3    C6 6223   2.505   3.809  11.803 -0.2006  0.0253 -0.0427
  417TMC3     C 6224   2.731   3.466  11.707  0.1692  0.1013 -0.2749
  417TMC3     O 6225   2.671   3.376  11.656 -0.1584 -0.3200  0.3467
  417TMC3     H 6226   2.745   3.602  11.930  1.2061  4.1602  0.9021
  417TMC3    H1 6227   2.551   3.603  11.543 -1.5063  1.3432 -1.0761
  417TMC3    H2 6228   2.469   3.911  11.814  0.6039  0.2095  0.9339
  417TMC3    C7 6229   2.396   3.790  11.596 -0.3850  0.6725 -0.0008
  417TMC3    C8 6230   2.612   3.821  12.019 -0.0929  0.1701  0.3712
  417TMC3    O1 6231   2.424   3.772  11.481 -0.1805  0.0246 -0.1730
  417TMC3    O2 6232   2.531   3.916  12.040 -0.6262  0.2988  0.4026
  418TMC3    C1 6233   1.888   4.627   0.079 -0.7890 -0.7487 -0.0585
  418TMC3    C2 6234   1.753   4.629   0.035  0.1850  0.3280  0.5406
  418TMC3    C3 6235   1.662   4.596   0.129 -0.3778  1.1533 -0.0090
  418TMC3    C4 6236   1.924   4.613   0.211  0.0404  0.4804  1.2146
  418TMC3    C5 6237   1.823   4.585   0.301 -0.2864  0.0566 -0.5071
  418TMC3    C6 6238   1.693   4.570   0.264 -0.0723  0.4812 -0.7271
  418TMC3     C 6239   1.981   4.611  17.681  0.2573  0.5764  0.0785
  418TMC3     O 6240   1.958   4.664  17.574 -0.2250 -0.2759 -0.0871
  418TMC3     H 6241   1.723   4.620  17.642 -0.2026  0.8103  0.6092
  418TMC3    H1 6242   2.029   4.622   0.236  1.0457 -0.2355 -2.7432
  418TMC3    H2 6243   1.621   4.518   0.327  2.6447  0.7413  2.5880
  418TMC3    C7 6244   1.859   4.512   0.422  0.1397 -0.3928 -0.0827
  418TMC3    C8 6245   1.563   4.509   0.083 -0.0486 -0.1028 -0.1324
  418TMC3    O1 6246   1.787   4.420   0.463 -0.1809 -0.5211  0.3640
  418TMC3    O2 6247   1.453   4.561   0.050 -0.2084  0.6632 -0.2679
  419MPD2     C 6248   0.138   3.185  12.184 -0.0887  0.1257  0.5259
  419MPD2    C1 6249   0.022   3.260  12.208 -0.3344 -0.1856 -0.4477
  419MPD2    C2 6250   4.692   3.274  12.332  0.0709 -1.0085  0.3101
  419MPD2    C3 6251   0.027   3.211  12.437  0.2469  1.0057  0.4413
  419MPD2    C4 6252   0.136   3.133  12.413 -0.0141  0.2712  0.0471
  419MPD2    C5 6253   0.188   3.126  12.291  0.2395 -0.5148  0.3391
  419MPD2     H 6254   4.600   3.330  12.346 -0.6500 -2.1057 -0.0297
  419MPD2    H1 6255   0.180   3.075  12.494 -1.1568  0.5433  0.8545
  419MPD2    H2 6256   0.178   3.169  12.085 -1.9598  0.5520 -0.2964
  419MPD2    H3 6257   0.277   3.065  12.279 -1.0188 -2.2752 -0.0290
  419MPD2     N 6258   4.706   3.235  12.562  0.3635 -0.2507  0.3166
  419MPD2    H5 6259   4.608   3.261  12.567  0.8379  1.2541  1.7378
  419MPD2    N1 6260   4.695   3.343  12.111  0.3211 -0.5771  0.4332
  419MPD2    H7 6261   4.613   3.396  12.138  0.0927 -0.9539  0.4815
  420TMC3    C1 6262   4.702   3.242  12.794  0.5776  0.4409 -0.0108
  420TMC3    C2 6263   4.581   3.297  12.793 -0.0836 -0.0607  0.0790
  420TMC3    C3 6264   4.503   3.293  12.902  0.3362 -0.5919  0.3533
  420TMC3    C4 6265   0.029   3.185  12.902  0.5799  0.0712 -0.1768
  420TMC3    C5 6266   4.676   3.186  13.016  0.1691  0.1138  0.0685
  420TMC3    C6 6267   4.542   3.221  13.010 -0.7870  0.0013  0.8753
  420TMC3     C 6268   0.053   3.229  12.673 -0.2847 -0.4939  0.1401
  420TMC3     O 6269   0.172   3.221  12.680  1.0057 -0.6190  0.8811
  420TMC3     H 6270   4.529   3.353  12.716  0.7239  1.2055  0.4605
  420TMC3    H1 6271   0.134   3.160  12.904  0.4211 -0.6773 -1.5081
  420TMC3    H2 6272   4.473   3.214  13.094 -1.4909  0.4683  0.3343
  420TMC3    C7 6273   4.724   3.263  13.131  0.5478  0.3541 -0.3859
  420TMC3    C8 6274   4.431   3.414  12.941  0.4314  0.8842  0.4940
  420TMC3    O1 6275   4.634   3.287  13.209 -0.3141 -0.0616 -0.4194
  420TMC3    O2 6276   4.403   3.489  12.849 -0.3694 -0.6975  0.3164
  421TMC3    C1 6277   1.535   0.425  13.610 -0.0703  0.5261  0.2039
  421TMC3    C2 6278   1.527   0.537  13.693  0.1677  0.9066 -0.0316
  421TMC3    C3 6279   1.613   0.547  13.799  0.8897  0.5074 -0.0983
  421TMC3    C4 6280   1.622   0.321  13.639  0.3357 -0.1019  0.6929
  421TMC3    C5 6281   1.702   0.337  13.754 -0.7540  0.5616 -1.0170
  421TMC3    C6 6282   1.702   0.449  13.832 -0.2037  0.2430  0.0068
  421TMC3     C 6283   1.437   0.411  13.508 -0.4899 -0.1815  0.0175
  421TMC3     O 6284   1.390   0.517  13.458 -0.5276  0.4313  0.3363
  421TMC3     H 6285   1.458   0.620  13.683  1.1398  1.6255 -0.7120
  421TMC3    H1 6286   1.623   0.232  13.578 -1.3818  0.8730 -0.7866
  421TMC3    H2 6287   1.761   0.446  13.923  1.5311 -0.2687 -1.1259
  421TMC3    C7 6288   1.785   0.223  13.799  0.6094  0.3847 -0.9805
  421TMC3    C8 6289   1.611   0.669  13.883 -0.4407  0.0248  0.4440
  421TMC3    O1 6290   1.895   0.242  13.857  0.0785 -0.1361  0.2972
  421TMC3    O2 6291   1.513   0.738  13.873  0.6312  0.6903  0.9382
  422TMC3    C1 6292   4.091   1.459  12.604  0.0829  0.0566 -0.2813
  422TMC3    C2 6293   4.071   1.596  12.607 -0.3614  0.0812  0.1638
  422TMC3    C3 6294   3.967   1.645  12.676  0.0206  0.6148  0.8047
  422TMC3    C4 6295   3.998   1.374  12.657 -0.3384 -0.4152 -0.1341
  422TMC3    C5 6296   3.892   1.432  12.728 -0.2220  0.6646 -0.3815
  422TMC3    C6 6297   3.878   1.567  12.737 -0.5452  0.4160  0.1781
  422TMC3     C 6298   4.194   1.413  12.516  0.1980  0.2014  0.0237
  422TMC3     O 6299   4.266   1.493  12.462 -0.0542  0.0167  0.2217
  422TMC3     H 6300   4.141   1.664  12.561 -0.3175  0.4380  0.7489
  422TMC3    H1 6301   4.002   1.266  12.655 -0.4180 -0.3531 -3.5350
  422TMC3    H2 6302   3.812   1.603  12.815 -1.1302  1.9517 -0.9994
  422TMC3    C7 6303   3.824   1.344  12.822 -0.1408 -0.3402 -0.1325
  422TMC3    C8 6304   3.931   1.789  12.664  0.2752 -0.2151  0.4693
  422TMC3    O1 6305   3.876   1.243  12.859  0.2506 -0.3725  0.3401
  422TMC3    O2 6306   4.019   1.865  12.627 -0.5947  0.0117 -0.0901
  423MPD2     C 6307   0.602   2.694  17.684 -0.1742  0.5452 -0.2353
  423MPD2    C1 6308   0.641   2.576   0.033 -0.7002  0.0617 -0.2580
  423MPD2    C2 6309   0.590   2.460  17.683 -0.1174  0.4105 -0.1630
  423MPD2    C3 6310   0.519   2.458  17.559  0.4103 -0.0059  0.1701
  423MPD2    C4 6311   0.501   2.576  17.496 -0.7782 -0.4270  0.0006
  423MPD2    C5 6312   0.534   2.692  17.566 -0.1399  0.0311  0.3333
  423MPD2     H 6313   0.606   2.361   0.011 -0.2579  0.6021  0.3822
  423MPD2    H1 6314   0.439   2.573  17.407  2.3972  2.1327 -2.3238
  423MPD2    H2 6315   0.626   2.790   0.018 -1.3628  0.9179 -0.4021
  423MPD2    H3 6316   0.513   2.790  17.524 -1.7119 -0.0862  0.8197
  423MPD2     N 6317   0.477   2.344  17.484  0.7326  0.8169 -0.1551
  423MPD2    H5 6318   0.412   2.358  17.408  0.0363 -1.1083  0.0894
  423MPD2    N1 6319   0.720   2.566   0.153  0.0387  0.4602 -0.4288
  423MPD2    H7 6320   0.733   2.473   0.192  0.2253  0.7878  0.2932
  424TMC3    C1 6321   0.865   2.634   0.326  0.3865 -0.2451 -0.7596
  424TMC3    C2 6322   0.919   2.506   0.323 -0.2779 -0.8169  0.6501
  424TMC3    C3 6323   0.969   2.456   0.442 -0.2077 -0.0051  0.1534
  424TMC3    C4 6324   0.847   2.699   0.436  0.0192 -0.5726  0.0873
  424TMC3    C5 6325   0.888   2.648   0.554 -0.4193  0.5590  0.4141
  424TMC3    C6 6326   0.952   2.529   0.561  0.2978  0.0558 -0.1479
  424TMC3     C 6327   0.786   2.673   0.210 -0.3503 -0.5482 -0.0143
  424TMC3     O 6328   0.782   2.788   0.181 -0.1495 -0.0378 -0.0198
  424TMC3     H 6329   0.938   2.455   0.229  0.9549  0.2642  0.3119
  424TMC3    H1 6330   0.787   2.789   0.433  2.2126  0.8574 -0.8860
  424TMC3    H2 6331   0.999   2.491   0.651  0.2038  0.7153  0.1757
  424TMC3    C7 6332   0.896   2.740   0.659 -0.0775  0.1736 -0.4082
  424TMC3    C8 6333   0.984   2.313   0.454  0.4292  0.0769  0.1106
  424TMC3    O1 6334   0.876   2.857   0.625 -0.2911  0.6016  0.3955
  424TMC3    O2 6335   0.965   2.274   0.570  0.8574  0.1450  0.2945
  425MPD2     C 6336   4.505   1.778  17.554 -0.5551  0.0942  0.1647
  425MPD2    C1 6337   4.424   1.719  17.454 -0.1493 -0.1719 -0.3952
  425MPD2    C2 6338   4.296   1.769  17.443  0.3411 -0.3405 -0.5330
  425MPD2    C3 6339   4.250   1.865  17.530  0.9992 -0.4983  0.1364
  425MPD2    C4 6340   4.329   1.912  17.634 -0.1896  0.2176  0.0203
  425MPD2    C5 6341   4.455   1.866  17.648 -0.4485  0.9009  0.2973
  425MPD2     H 6342   4.227   1.729  17.370 -0.2653 -1.7674  0.8436
  425MPD2    H1 6343   4.294   1.980   0.001  0.1433 -1.4251  1.5962
  425MPD2    H2 6344   4.610   1.750  17.562 -0.4749 -0.5937 -3.1542
  425MPD2    H3 6345   4.521   1.897   0.017 -0.5875  1.5504  0.1600
  425MPD2     N 6346   4.118   1.901  17.515  0.0081 -0.2980  0.1324
  425MPD2    H5 6347   4.061   1.875  17.435  0.4572  0.2226 -0.3561
  425MPD2    N1 6348   4.471   1.613  17.376 -0.5413 -0.3036 -0.0980
  425MPD2    H7 6349   4.552   1.563  17.409 -0.2567  0.5839  0.5359
  426TMC3    C1 6350   4.449   1.412  17.266  0.2362  0.0486  0.0533
  426TMC3    C2 6351   4.426   1.359  17.142  0.0888 -0.2935 -0.2137
  426TMC3    C3 6352   4.442   1.222  17.127 -0.3842 -0.0057 -0.1857
  426TMC3    C4 6353   4.506   1.336  17.367  0.2350  0.8749  0.0628
  426TMC3    C5 6354   4.511   1.201  17.352 -0.2292  0.1210 -0.2618
  426TMC3    C6 6355   4.483   1.138  17.231 -0.4430  0.3361 -0.3081
  426TMC3     C 6356   4.398   1.542  17.287 -0.2264 -1.2806  0.2900
  426TMC3     O 6357   4.313   1.588  17.214 -0.5400  0.2875 -0.2617
  426TMC3     H 6358   4.376   1.419  17.067  1.0654 -1.9083 -2.1559
  426TMC3    H1 6359   4.529   1.377  17.465 -0.0130  0.7821  0.1599
  426TMC3    H2 6360   4.493   1.032  17.208  1.7277  0.3894  0.3732
  426TMC3    C7 6361   4.519   1.104  17.459  0.4211 -0.0682 -0.0605
  426TMC3    C8 6362   4.372   1.141  17.029  0.5841 -0.3216  0.3030
  426TMC3    O1 6363   4.525   0.988  17.431  0.0601  0.0175  0.2352
  426TMC3    O2 6364   4.427   1.039  16.993 -0.3754  0.0744  0.2361
  427MPD2     C 6365   3.002   3.974  15.133  0.9658  0.5027  0.2412
  427MPD2    C1 6366   2.946   3.851  15.133 -0.7631  0.2396  0.2879
  427MPD2    C2 6367   2.816   3.841  15.178 -0.3868 -0.8321  0.2950
  427MPD2    C3 6368   2.738   3.957  15.191  0.8477  0.3881  0.2425
  427MPD2    C4 6369   2.795   4.084  15.184 -0.7933  0.6105 -0.0060
  427MPD2    C5 6370   2.926   4.087  15.155  0.5254 -0.5142  0.0991
  427MPD2     H 6371   2.773   3.745  15.204 -0.5637 -0.8678 -0.1410
  427MPD2    H1 6372   2.750   4.182  15.190 -0.7574  0.5999  0.4476
  427MPD2    H2 6373   3.104   3.991  15.102  1.5956 -0.1785  1.9150
  427MPD2    H3 6374   2.972   4.182  15.132 -0.8436 -0.0288 -0.6667
  427MPD2     N 6375   2.604   3.946  15.226 -0.5070  0.2462  0.3448
  427MPD2    H5 6376   2.562   4.035  15.252 -0.2481  0.4157  0.1772
  427MPD2    N1 6377   3.028   3.738  15.096  0.0792  0.2266 -0.1481
  427MPD2    H7 6378   3.127   3.753  15.079  0.4453 -0.3589  1.4239
  428TMC3    C1 6379   3.093   3.519  15.021  0.1573  0.6898  0.7536
  428TMC3    C2 6380   3.062   3.397  14.965  0.1821 -0.0463 -0.0660
  428TMC3    C3 6381   3.171   3.321  14.923  0.3504  0.7416  0.6114
  428TMC3    C4 6382   3.223   3.556  15.048 -0.1826  0.0791  0.3151
  428TMC3    C5 6383   3.321   3.467  15.020 -0.0587  0.5794 -0.7964
  428TMC3    C6 6384   3.305   3.356  14.945 -0.3062 -0.0702  0.9021
  428TMC3     C 6385   2.982   3.615  15.056 -0.1911  0.6686 -0.1509
  428TMC3     O 6386   2.865   3.584  15.045  0.3194  0.6544  0.3963
  428TMC3     H 6387   2.963   3.390  14.922  0.0921  1.0354 -0.0361
  428TMC3    H1 6388   3.253   3.650  15.093  0.6796  0.1078 -0.3190
  428TMC3    H2 6389   3.385   3.287  14.921 -0.5437  0.4821 -1.4041
  428TMC3    C7 6390   3.452   3.511  15.048 -0.0314 -0.6271 -0.8431
  428TMC3    C8 6391   3.156   3.179  14.893  0.0071 -0.5780 -0.0973
  428TMC3    O1 6392   3.477   3.580  15.150  0.6505  0.2298  0.2542
  428TMC3    O2 6393   3.253   3.110  14.887 -0.2241 -0.0794 -0.1083
  429MPD2     C 6394   3.948   3.187  17.616  0.2333  0.1469  0.3430
  429MPD2    C1 6395   3.982   3.114  17.507 -0.1374 -0.2554  0.7780
  429MPD2    C2 6396   4.016   3.180  17.388 -0.2077  0.0258  0.0360
  429MPD2    C3 6397   4.017   3.316  17.383 -0.9203  0.6336 -0.5958
  429MPD2    C4 6398   3.993   3.390  17.497  0.5777 -0.0627 -0.1473
  429MPD2    C5 6399   3.949   3.327  17.610 -0.8837 -0.0799 -0.6065
  429MPD2     H 6400   4.057   3.125  17.304  1.0694  0.7443  0.1947
  429MPD2    H1 6401   3.985   3.498  17.499 -3.0030 -0.3599  1.5041
  429MPD2    H2 6402   3.910   3.134  17.703  0.4337 -1.4086 -0.5236
  429MPD2    H3 6403   3.920   3.387  17.695 -2.1364  0.3032 -1.2974
  429MPD2     N 6404   4.045   3.368  17.256 -0.2767  0.0085  0.0892
  429MPD2    H5 6405   4.075   3.302  17.184  0.6855  1.5551 -0.9431
  429MPD2    N1 6406   3.973   2.966  17.508 -0.0288  0.1270 -0.8744
  429MPD2    H7 6407   3.991   2.936  17.412 -0.8089  0.4870 -1.1331
  430TMC3    C1 6408   4.091   3.517  17.084 -0.3339 -0.1995  0.2441
  430TMC3    C2 6409   4.065   3.640  17.022 -0.5665  0.6971  0.6569
  430TMC3    C3 6410   4.129   3.672  16.909 -0.3010 -0.3871 -0.2404
  430TMC3    C4 6411   4.185   3.426  17.030 -0.6180 -0.1987  0.1989
  430TMC3    C5 6412   4.238   3.467  16.909  0.5909 -0.1994  0.0899
  430TMC3    C6 6413   4.217   3.587  16.848 -0.0406 -0.5851  0.3910
  430TMC3     C 6414   4.038   3.504  17.219 -0.1310 -0.0519  0.2396
  430TMC3     O 6415   3.970   3.594  17.266 -0.3093 -1.1964  0.2436
  430TMC3     H 6416   3.996   3.709  17.068 -1.4452  0.1305  0.1800
  430TMC3    H1 6417   4.197   3.325  17.066  1.1185  0.3577  1.1923
  430TMC3    H2 6418   4.250   3.604  16.747 -1.8258  1.9246  0.2405
  430TMC3    C7 6419   4.328   3.368  16.845 -0.0992  0.2070 -0.1177
  430TMC3    C8 6420   4.079   3.752  16.801 -0.3050  0.1233  0.0501
  430TMC3    O1 6421   4.303   3.251  16.867  0.2996  0.1417 -0.0713
  430TMC3    O2 6422   3.972   3.726  16.751 -0.5051 -0.0520  0.4307
  431MPD2     C 6423   4.633   4.034  12.493 -0.0096  0.1320  0.4767
  431MPD2    C1 6424   4.725   4.055  12.390 -0.0593 -0.7260  0.6503
  431MPD2    C2 6425   4.699   4.001  12.272  0.7268 -0.0803  0.1441
  431MPD2    C3 6426   4.598   3.911  12.254  0.7912 -0.4359 -0.6316
  431MPD2    C4 6427   4.509   3.889  12.357  0.1434 -0.2080 -1.0914
  431MPD2    C5 6428   4.526   3.955  12.472 -0.2458  0.0936  0.2635
  431MPD2     H 6429   0.051   4.018  12.200 -0.7325  2.1276 -0.9600
  431MPD2    H1 6430   4.438   3.807  12.348  1.5342 -1.4045 -1.2324
  431MPD2    H2 6431   4.654   4.073  12.592  1.6513 -3.3936  1.5170
  431MPD2    H3 6432   4.451   3.936  12.548 -0.2395  0.2758  0.3150
  431MPD2     N 6433   4.601   3.823  12.145  0.5168  0.5728 -0.3218
  431MPD2    H5 6434   4.533   3.749  12.149 -0.6892  1.6542 -0.7550
  431MPD2    N1 6435   0.121   4.136  12.398 -0.4900 -0.2157  0.2917
  431MPD2    H7 6436   0.189   4.133  12.323  0.1612  0.2724  0.8524
  432TMC3    C1 6437   4.689   3.717  11.951  0.4083 -0.3765  0.7753
  432TMC3    C2 6438   4.702   3.737  11.812  0.6835 -0.0292  0.1968
  432TMC3    C3 6439   0.001   3.629  11.736 -0.2807 -0.3177  0.8695
  432TMC3    C4 6440   4.686   3.595  12.007 -0.6532  0.2284  0.4861
  432TMC3    C5 6441   4.707   3.487  11.923  0.6132 -0.5776  0.6166
  432TMC3    C6 6442   0.003   3.500  11.787  0.2970 -0.0105 -0.5465
  432TMC3     C 6443   4.680   3.835  12.029  0.2751  0.6422  0.3755
  432TMC3     O 6444   0.019   3.932  11.985 -0.6246  0.1504  0.1201
  432TMC3     H 6445   4.693   3.836  11.769  2.9342  0.2763  0.4330
  432TMC3    H1 6446   4.689   3.589  12.115 -1.8391 -2.6397  0.3521
  432TMC3    H2 6447   0.004   3.411  11.726 -2.7134  0.9258 -1.9316
  432TMC3    C7 6448   0.020   3.362  11.984  0.1310  0.0562  0.0709
  432TMC3    C8 6449   0.072   3.657  11.616  0.5484  0.7857 -0.0300
  432TMC3    O1 6450   0.098   3.294  11.918  0.2023  0.4700  0.5479
  432TMC3    O2 6451   0.036   3.757  11.556 -0.0206  0.5839 -0.3474
  433MPD2     C 6452   3.659   2.312  10.936 -0.0719 -0.3439  0.1680
  433MPD2    C1 6453   3.727   2.193  10.948 -0.3184  0.0071  0.0074
  433MPD2    C2 6454   3.785   2.169  11.071  0.0753 -0.1082 -0.1514
  433MPD2    C3 6455   3.787   2.268  11.174 -0.2544  0.4416 -0.2553
  433MPD2    C4 6456   3.743   2.395  11.150 -0.1405  0.0183 -0.5310
  433MPD2    C5 6457   3.670   2.413  11.033  0.1847 -0.3078  0.4003
  433MPD2     H 6458   3.829   2.073  11.094 -2.6394 -1.0768  0.9260
  433MPD2    H1 6459   3.753   2.477  11.220 -0.4904 -0.5820  0.2390
  433MPD2    H2 6460   3.609   2.332  10.842 -0.3694  2.7610  0.9882
  433MPD2    H3 6461   3.627   2.509  11.007  1.1738  0.2657  0.8768
  433MPD2     N 6462   3.848   2.228  11.299 -0.8016 -0.0942 -0.5800
  433MPD2    H5 6463   3.886   2.134  11.302  1.3733  0.6618 -3.4843
  433MPD2    N1 6464   3.738   2.098  10.843 -0.1046  0.0929  0.0514
  433MPD2    H7 6465   3.708   2.125  10.750 -1.3953 -1.0041  0.1403
  434TMC3    C1 6466   3.823   1.906  10.725  0.1308  0.4868  0.1679
  434TMC3    C2 6467   3.921   1.813  10.735  0.5351  0.2929  0.2281
  434TMC3    C3 6468   4.032   1.818  10.661 -0.9487 -0.2819 -0.2251
  434TMC3    C4 6469   3.845   2.004  10.632 -0.4425  0.2816  0.2514
  434TMC3    C5 6470   3.948   2.000  10.545 -0.2922 -0.0064  0.0091
  434TMC3    C6 6471   4.053   1.915  10.567 -0.3859  0.1423  0.1888
  434TMC3     C 6472   3.782   1.962  10.854 -0.0712  0.0520 -0.1250
  434TMC3     O 6473   3.817   1.896  10.953  0.0919  0.1028  0.7773
  434TMC3     H 6474   3.920   1.735  10.810  1.6199  0.4835  0.4302
  434TMC3    H1 6475   3.756   2.055  10.595  0.4100  0.5395 -1.4395
  434TMC3    H2 6476   4.136   1.917  10.497 -0.2926  0.4930  0.3064
  434TMC3    C7 6477   3.953   2.098  10.445  0.4187 -0.2606  0.4454
  434TMC3    C8 6478   4.151   1.743  10.699  0.2811  0.3018 -0.4269
  434TMC3    O1 6479   3.998   2.206  10.484  0.1316  0.5674  0.5770
  434TMC3    O2 6480   4.116   1.656  10.774 -0.2019 -0.2729 -0.5901
  435MPD2     C 6481   1.571   2.510  15.712 -0.7223  0.1733  0.0996
  435MPD2    C1 6482   1.443   2.502  15.753  0.2070 -0.1397 -0.0110
  435MPD2    C2 6483   1.406   2.412  15.844  0.4638 -0.2541  0.1966
  435MPD2    C3 6484   1.491   2.316  15.895  0.3375 -0.0565  0.6322
  435MPD2    C4 6485   1.627   2.321  15.853  0.2678  0.8021  0.3854
  435MPD2    C5 6486   1.661   2.414  15.758  0.7369 -1.2285 -0.0983
  435MPD2     H 6487   1.302   2.408  15.873  0.7757  0.9060  1.4579
  435MPD2    H1 6488   1.702   2.263  15.904 -0.0952 -0.4466 -0.4887
  435MPD2    H2 6489   1.598   2.583  15.636 -0.0403 -0.9176 -0.7037
  435MPD2    H3 6490   1.764   2.422  15.724  0.0742  0.6509 -1.6952
  435MPD2     N 6491   1.438   2.212  15.977  0.1493 -0.0628 -0.0292
  435MPD2    H5 6492   1.339   2.217  15.998  0.4187  2.1049  0.7197
  435MPD2    N1 6493   1.347   2.596  15.701 -0.0218  0.2259  0.7415
  435MPD2    H7 6494   1.250   2.584  15.729 -0.7071  2.8868 -0.4905
  436TMC3    C1 6495   1.026   2.762  15.518 -0.3966  0.2854 -0.9744
  436TMC3    C2 6496   1.136   2.694  15.567 -0.5147  0.1570  0.0068
  436TMC3    C3 6497   1.250   2.769  15.579  0.0029 -0.0912 -0.0753
  436TMC3    C4 6498   1.033   2.899  15.487  0.2357  0.7976  0.5061
  436TMC3    C5 6499   1.150   2.961  15.504  0.0645 -0.8197 -0.8914
  436TMC3    C6 6500   1.256   2.895  15.540 -0.6201 -0.1694  0.5724
  436TMC3     C 6501   0.895   2.704  15.511 -0.4875  0.2027 -0.1851
  436TMC3     O 6502   0.892   2.593  15.464  0.0816 -0.4672  0.0266
  436TMC3     H 6503   1.132   2.586  15.581  0.5022  0.3091  1.4121
  436TMC3    H1 6504   0.953   2.947  15.432  1.4492  1.5629 -0.5958
  436TMC3    H2 6505   1.347   2.954  15.547  0.8205 -2.2599 -0.5626
  436TMC3    C7 6506   1.155   3.097  15.454  0.2488  0.5539  0.3304
  436TMC3    C8 6507   1.375   2.707  15.620  0.0438 -0.0795  0.1028
  436TMC3    O1 6508   1.055   3.160  15.472 -0.5481  0.1041 -0.2341
  436TMC3    O2 6509   1.478   2.764  15.595  0.4749 -0.1508 -0.1561
  437TMC3    C1 6510   4.126   0.003  12.939  0.1969  0.2253 -0.6994
  437TMC3    C2 6511   3.993   0.046  12.934  0.2030 -0.3389 -0.2417
  437TMC3    C3 6512   3.956   0.097  12.816 -0.2324 -0.1268 -0.0355
  437TMC3    C4 6513   4.214   0.014  12.834 -0.0265  0.8705 -0.6329
  437TMC3    C5 6514   4.173   0.094  12.731  0.0750 -0.2233 -0.6122
  437TMC3    C6 6515   4.049   0.134  12.714  0.4064  0.0465 -0.1009
  437TMC3     C 6516   4.146   4.632  13.047 -0.3306  0.4812 -0.4147
  437TMC3     O 6517   4.076   4.636  13.143  0.0284  0.1315 -0.2536
  437TMC3     H 6518   3.932   0.044  13.024 -1.7604  0.6648 -1.5542
  437TMC3    H1 6519   4.311   4.694  12.843 -1.3380 -1.9676 -1.1580
  437TMC3    H2 6520   4.026   0.194  12.628  0.8370  1.6426  0.9045
  437TMC3    C7 6521   4.267   0.112  12.619 -0.4270 -0.1623  0.2625
  437TMC3    C8 6522   3.821   0.157  12.819 -0.6230 -0.6675  0.0317
  437TMC3    O1 6523   4.231   0.149  12.512 -0.1038  0.2142  0.5090
  437TMC3    O2 6524   3.733   0.097  12.881 -0.0714 -0.0533 -0.2389
  438MPD2     C 6525   2.045   0.312  16.387 -0.0263  0.0514 -0.5003
  438MPD2    C1 6526   2.116   0.262  16.490  0.1576 -1.2619  0.6103
  438MPD2    C2 6527   2.073   0.291  16.614  0.3727  0.1933  0.8970
  438MPD2    C3 6528   1.962   0.369  16.644 -0.3730  0.5948  0.4575
  438MPD2    C4 6529   1.890   0.418  16.536 -0.2164 -0.0104  0.3518
  438MPD2    C5 6530   1.930   0.391  16.406 -0.2448  0.2975 -0.4089
  438MPD2     H 6531   2.123   0.241  16.696 -1.7077 -0.2588  1.8869
  438MPD2    H1 6532   1.797   0.473  16.541  0.1196  0.5700  0.3357
  438MPD2    H2 6533   2.072   0.309  16.282 -0.6264  0.6981 -0.6714
  438MPD2    H3 6534   1.863   0.423  16.328  0.3974 -1.6440 -1.7410
  438MPD2     N 6535   1.925   0.385  16.778 -0.2403  0.0676  0.3479
  438MPD2    H5 6536   1.992   0.339  16.840  0.6289 -1.2247 -1.5398
  438MPD2    N1 6537   2.225   0.175  16.485 -0.1037  0.4310 -0.6410
  438MPD2    H7 6538   2.274   0.158  16.573 -0.5314  1.1574 -0.2557
  439TMC3    C1 6539   2.395   0.048  16.385 -0.4809 -0.2892 -0.3459
  439TMC3    C2 6540   2.464   0.013  16.270 -0.3777  0.6904  0.1384
  439TMC3    C3 6541   2.554   4.636  16.273  0.1878  0.2536 -0.2420
  439TMC3    C4 6542   2.425   4.720  16.509  0.1414  0.1811  0.2749
  439TMC3    C5 6543   2.513   4.612  16.505 -0.1441  0.6046  0.8254
  439TMC3    C6 6544   2.577   4.569  16.388 -0.1183  0.1956 -0.1640
  439TMC3     C 6545   2.278   0.129  16.371 -0.3126 -0.2922 -0.0286
  439TMC3     O 6546   2.239   0.154  16.254 -0.7113  0.3599 -0.0459
  439TMC3     H 6547   2.464   0.075  16.181  0.6234 -1.0306 -1.0606
  439TMC3    H1 6548   2.389   0.031  16.604  2.2392  1.7924  0.4197
  439TMC3    H2 6549   2.664   4.504  16.394 -1.1903 -1.2825 -0.6633
  439TMC3    C7 6550   2.571   4.561  16.630 -0.2518  0.0602  0.3042
  439TMC3    C8 6551   2.618   4.585  16.149  0.3609  0.5592 -0.3871
  439TMC3    O1 6552   2.689   4.536  16.628  0.9086  0.1384  0.0509
  439TMC3    O2 6553   2.704   4.501  16.164 -0.1264 -0.3249 -0.1459
  440MPD2     C 6554   1.256   0.724  14.632 -0.1164  0.4551 -0.5760
  440MPD2    C1 6555   1.275   0.769  14.759  1.0618 -0.3590  0.1035
  440MPD2    C2 6556   1.392   0.724  14.824 -0.9418  0.4344 -0.1889
  440MPD2    C3 6557   1.481   0.636  14.759 -0.5640 -0.0223  0.0686
  440MPD2    C4 6558   1.450   0.584  14.636 -0.0681 -0.0138  0.1259
  440MPD2    C5 6559   1.340   0.632  14.574  0.1275  0.5111 -0.0995
  440MPD2     H 6560   1.418   0.756  14.924 -1.3913 -0.8604  0.3432
  440MPD2    H1 6561   1.512   0.513  14.582  0.1255 -0.1960  0.5953
  440MPD2    H2 6562   1.169   0.742  14.570  0.6679 -0.4757 -1.9550
  440MPD2    H3 6563   1.321   0.588  14.477  1.2307  3.5772 -1.7243
  440MPD2     N 6564   1.606   0.592  14.813  0.0650  0.2417  0.5162
  440MPD2    H5 6565   1.653   0.507  14.782  1.0287  0.3834  1.5865
  440MPD2    N1 6566   1.172   0.840  14.825 -0.4741  0.4547 -0.2424
  440MPD2    H7 6567   1.181   0.844  14.926 -1.1041 -0.8429 -0.1375
  441TMC3    C1 6568   1.788   0.605  14.962 -0.1565  0.3843 -0.2793
  441TMC3    C2 6569   1.862   0.701  15.022 -0.5997  0.0050  0.5779
  441TMC3    C3 6570   1.913   0.692  15.148 -0.2551 -0.4110 -0.2644
  441TMC3    C4 6571   1.764   0.493  15.030  0.0629 -0.6167 -0.0978
  441TMC3    C5 6572   1.819   0.479  15.156  0.5900 -0.2231 -0.0257
  441TMC3    C6 6573   1.900   0.571  15.215 -0.1859 -0.7032 -0.2014
  441TMC3     C 6574   1.666   0.660  14.918 -0.0700  0.0221  0.8118
  441TMC3     O 6575   1.642   0.767  14.962 -0.2492 -0.3608 -0.3574
  441TMC3     H 6576   1.877   0.795  14.970  1.2738 -0.5109  0.1648
  441TMC3    H1 6577   1.686   0.424  14.999 -0.7930  0.2792  0.0582
  441TMC3    H2 6578   1.923   0.575  15.321 -0.4037 -0.2684 -0.1728
  441TMC3    C7 6579   1.763   0.371  15.241  0.3903 -0.1182 -0.3100
  441TMC3    C8 6580   1.920   0.808  15.233 -0.3833 -0.4933  0.6424
  441TMC3    O1 6581   1.694   0.296  15.176 -0.0430 -0.4582  0.0234
  441TMC3    O2 6582   1.990   0.801  15.333  0.2184  0.1043 -0.5670
  442MPD2     C 6583   3.824   1.229  16.483 -0.6819 -0.0436 -0.1892
  442MPD2    C1 6584   3.718   1.150  16.510  0.1313 -0.2180 -0.4645
  442MPD2    C2 6585   3.714   1.027  16.449 -0.1626  0.2410  0.1098
  442MPD2    C3 6586   3.810   0.986  16.362  0.4949 -0.4973  0.1413
  442MPD2    C4 6587   3.913   1.068  16.326 -0.5047  0.1871 -0.0954
  442MPD2    C5 6588   3.912   1.191  16.385 -0.0112  0.2680 -0.1869
  442MPD2     H 6589   3.633   0.962  16.481  1.1070 -1.5163 -0.2470
  442MPD2    H1 6590   3.997   1.041  16.263 -1.1673  0.3370 -1.0463
  442MPD2    H2 6591   3.846   1.329  16.521 -0.9852  0.5227 -1.5054
  442MPD2    H3 6592   3.996   1.255  16.362  0.6398 -0.0878  1.1604
  442MPD2     N 6593   3.811   0.860  16.292 -0.0884  0.1940 -0.3772
  442MPD2    H5 6594   3.872   0.855  16.211 -1.0972 -1.0789 -1.0581
  442MPD2    N1 6595   3.618   1.192  16.608  0.2069  0.4557  0.4996
  442MPD2    H7 6596   3.558   1.115  16.636 -0.2787 -0.1706 -2.2491
  443TMC3    C1 6597   3.502   1.320  16.765 -0.3371  0.3930  0.0922
  443TMC3    C2 6598   3.428   1.438  16.772  0.2920 -0.3495  0.8987
  443TMC3    C3 6599   3.305   1.420  16.829 -0.0300 -0.2996  0.3309
  443TMC3    C4 6600   3.480   1.210  16.839  0.0010  0.0989  0.5615
  443TMC3    C5 6601   3.368   1.215  16.921 -0.1113 -0.7636 -0.1640
  443TMC3    C6 6602   3.276   1.311  16.903  0.2142 -0.5182  0.8207
  443TMC3     C 6603   3.610   1.316  16.670  0.1081  0.0795 -1.3074
  443TMC3     O 6604   3.664   1.421  16.642  0.1575 -0.2468 -0.1006
  443TMC3     H 6605   3.451   1.522  16.707 -1.2388 -1.0695 -0.6000
  443TMC3    H1 6606   3.536   1.118  16.830  2.7942  2.1243 -2.9882
  443TMC3    H2 6607   3.176   1.293  16.941 -0.4595 -1.2855 -1.3132
  443TMC3    C7 6608   3.343   1.122  17.029 -0.1221  0.5478 -0.4619
  443TMC3    C8 6609   3.208   1.524  16.825 -0.2525 -0.2674 -0.3074
  443TMC3    O1 6610   3.406   1.019  17.024  0.1175  0.5835  0.2424
  443TMC3    O2 6611   3.161   1.552  16.933  0.6722  0.4035 -0.2192
  444MPD2     C 6612   4.103   0.801  16.997  0.6207 -0.4160 -0.2705
  444MPD2    C1 6613   3.978   0.754  16.945  0.6936 -0.2040  0.0053
  444MPD2    C2 6614   3.980   0.660  16.836 -0.3996 -0.4110 -0.2058
  444MPD2    C3 6615   4.099   0.626  16.778 -0.6220  0.1541  1.0336
  444MPD2    C4 6616   4.219   0.678  16.835 -0.1058  0.0734  0.0120
  444MPD2    C5 6617   4.220   0.760  16.944 -0.9648 -0.2404 -0.6675
  444MPD2     H 6618   3.881   0.628  16.804 -1.0603  0.2705  1.1800
  444MPD2    H1 6619   4.312   0.644  16.792  0.1254 -0.8793  1.2492
  444MPD2    H2 6620   4.117   0.869  17.080 -0.9705  1.0963 -1.2473
  444MPD2    H3 6621   4.311   0.788  16.995 -0.3785  0.1004 -1.8993
  444MPD2     N 6622   4.098   0.531  16.669  0.1810 -0.4329  0.6473
  444MPD2    H5 6623   4.007   0.497  16.641 -0.3496  0.9456  0.6917
  444MPD2    N1 6624   3.852   0.787  17.011 -0.4949  0.9477 -0.4008
  444MPD2    H7 6625   3.767   0.741  16.980 -1.1329  0.6178  1.8228
  445TMC3    C1 6626   4.165   0.380  16.510 -0.2948 -0.3520 -0.5004
  445TMC3    C2 6627   4.038   0.370  16.464  0.0641 -0.1899 -0.3419
  445TMC3    C3 6628   4.010   0.263  16.377 -0.0822  1.0915 -0.1196
  445TMC3    C4 6629   4.267   0.305  16.464 -0.3536 -0.6675 -0.6206
  445TMC3    C5 6630   4.237   0.217  16.360 -0.0470 -0.2424  0.1573
  445TMC3    C6 6631   4.110   0.191  16.324 -0.6397 -0.3199 -0.5589
  445TMC3     C 6632   4.208   0.482  16.605 -0.3511 -0.3151  0.2819
  445TMC3     O 6633   4.325   0.500  16.626  0.3905  0.3455  0.3445
  445TMC3     H 6634   3.947   0.416  16.502  0.5870  0.4796  0.0936
  445TMC3    H1 6635   4.365   0.313  16.509 -1.7582  1.7040  2.0562
  445TMC3    H2 6636   4.096   0.122  16.242 -0.8444 -0.3582 -0.4915
  445TMC3    C7 6637   4.315   0.097  16.344  0.1948 -0.0172 -0.1209
  445TMC3    C8 6638   3.878   0.200  16.397  1.0362 -0.9531  0.6406
  445TMC3    O1 6639   4.264   4.716  16.307  0.4534  0.1014 -0.2438
  445TMC3    O2 6640   3.786   0.274  16.427  0.4813 -0.4527 -0.3085
  446MPD2     C 6641   3.790   1.360  11.090 -0.0635  0.2107 -0.3826
  446MPD2    C1 6642   3.749   1.471  11.016  0.1178 -0.6996  0.5140
  446MPD2    C2 6643   3.843   1.576  11.010  0.7241 -0.2730  0.4839
  446MPD2    C3 6644   3.962   1.572  11.082 -0.5862  0.0285  0.6006
  446MPD2    C4 6645   3.993   1.460  11.153 -0.4777  1.0696  0.0054
  446MPD2    C5 6646   3.906   1.353  11.159  0.1954  0.5743  0.4097
  446MPD2     H 6647   3.816   1.669  10.962 -0.3382 -0.9333 -0.1906
  446MPD2    H1 6648   4.088   1.454  11.204  0.2035 -0.6485 -1.4761
  446MPD2    H2 6649   3.723   1.277  11.114 -0.4592  0.8280  0.6619
  446MPD2    H3 6650   3.928   1.263  11.214 -0.6154  1.1052  1.6035
  446MPD2     N 6651   4.042   1.685  11.075 -0.4147 -0.2696 -0.3545
  446MPD2    H5 6652   4.010   1.756  11.009  0.4219  0.2380 -0.2201
  446MPD2    N1 6653   3.627   1.462  10.940  0.2236  0.1643  0.0858
  446MPD2    H7 6654   3.588   1.369  10.947  1.1371 -0.3817 -2.0994
  447TMC3    C1 6655   4.222   1.836  11.093 -0.5938 -0.0208  0.2118
  447TMC3    C2 6656   4.142   1.929  11.031  0.2258  0.3799  0.1771
  447TMC3    C3 6657   4.193   2.057  11.022 -0.3881 -0.4290 -0.0451
  447TMC3    C4 6658   4.344   1.867  11.134  0.0262 -0.3131  0.0149
  447TMC3    C5 6659   4.393   1.987  11.108 -0.4635  0.6830  0.3023
  447TMC3    C6 6660   4.317   2.086  11.059  0.7848 -0.0224 -0.1282
  447TMC3     C 6661   4.165   1.705  11.136  0.4234  0.5697  0.9712
  447TMC3     O 6662   4.228   1.633  11.210 -0.2674 -0.5585  0.0166
  447TMC3     H 6663   4.052   1.912  10.973  0.8929 -1.8481 -0.2221
  447TMC3    H1 6664   4.410   1.797  11.185  0.9177 -0.2290 -1.0245
  447TMC3    H2 6665   4.361   2.181  11.031  1.8601 -0.0030  1.6164
  447TMC3    C7 6666   4.539   1.986  11.095  0.1900 -0.1213 -0.0777
  447TMC3    C8 6667   4.125   2.153  10.935  0.6470 -0.3866 -0.0545
  447TMC3    O1 6668   4.607   1.913  11.162 -0.0942 -0.0992 -0.4790
  447TMC3    O2 6669   4.081   2.104  10.831  0.4752 -0.3371 -0.7212
  448TMC3    C1 6670   1.981   1.773  16.760 -1.1381  0.2225 -0.1537
  448TMC3    C2 6671   1.948   1.655  16.708  0.0675  0.0247 -0.4003
  448TMC3    C3 6672   2.039   1.554  16.727  0.1128  0.2341 -0.5704
  448TMC3    C4 6673   2.097   1.800  16.832  0.1747  0.2488 -0.2862
  448TMC3    C5 6674   2.173   1.693  16.856  0.0016 -0.3975 -0.6220
  448TMC3    C6 6675   2.149   1.570  16.805 -0.4682 -0.2314 -0.1633
  448TMC3     C 6676   1.894   1.881  16.737  0.7356  0.0719 -0.7960
  448TMC3     O 6677   1.838   1.888  16.632  0.6569 -0.1008 -0.2407
  448TMC3     H 6678   1.846   1.644  16.673  0.7664 -3.0726 -1.4941
  448TMC3    H1 6679   2.124   1.898  16.867  1.2901  0.0934 -0.7129
  448TMC3    H2 6680   2.212   1.487  16.835  1.8148  1.5236 -0.0664
  448TMC3    C7 6681   2.291   1.729  16.938  0.0155  0.6422 -0.4460
  448TMC3    C8 6682   1.984   1.415  16.707 -0.3968  0.1634  0.1267
  448TMC3    O1 6683   2.335   1.841  16.942 -0.3351  0.0467 -0.4856
  448TMC3    O2 6684   2.048   1.326  16.764  0.2720  0.2505 -0.6872
  449MPD2     C 6685   3.250   4.473  13.540  0.3109 -0.5307  0.1750
  449MPD2    C1 6686   3.203   4.594  13.583 -0.3961 -0.0513 -0.0357
  449MPD2    C2 6687   3.069   4.603  13.619  0.1104  0.1866  0.4531
  449MPD2    C3 6688   2.976   4.505  13.602 -0.8706 -0.3048  0.2264
  449MPD2    C4 6689   3.030   4.387  13.555  0.2276  0.0011 -0.4195
  449MPD2    C5 6690   3.161   4.367  13.523  0.1227 -0.4187 -0.5188
  449MPD2     H 6691   3.022   4.691  13.662  2.0281  1.1655  0.5964
  449MPD2    H1 6692   2.964   4.303  13.539 -0.7962  0.4768  1.3024
  449MPD2    H2 6693   3.353   4.447  13.515  0.6085 -0.0883  0.9551
  449MPD2    H3 6694   3.205   4.274  13.488  0.2030 -0.3323 -0.6501
  449MPD2     N 6695   2.841   4.531  13.617 -0.7857  0.2308  0.0983
  449MPD2    H5 6696   2.819   4.630  13.629 -0.8085  0.1134  0.9952
  449MPD2    N1 6697   3.281   4.701  13.618 -0.2098 -0.4631  0.2173
  449MPD2    H7 6698   3.224   0.055  13.638 -0.1261 -0.6878  1.4090
  450TMC3    C1 6699   3.427   0.133  13.598 -0.0877 -0.6114  1.1451
  450TMC3    C2 6700   3.483   0.172  13.477  0.1582  0.2011  0.6350
  450TMC3    C3 6701   3.430   0.288  13.423 -0.8327  0.9513  0.9379
  450TMC3    C4 6702   3.319   0.203  13.655 -0.4800 -0.4150  0.4570
  450TMC3    C5 6703   3.266   0.309  13.586 -0.0295 -0.1178  0.4586
  450TMC3    C6 6704   3.319   0.357  13.468  0.1262  0.4170  0.0687
  450TMC3     C 6705   3.413   4.713  13.594 -0.0704 -0.0610 -0.3594
  450TMC3     O 6706   3.495   4.629  13.555  0.3143  1.1267 -0.2254
  450TMC3     H 6707   3.552   0.105  13.427 -0.6912 -1.4860  1.7042
  450TMC3    H1 6708   3.283   0.173  13.753  0.3797  1.7273  1.4171
  450TMC3    H2 6709   3.292   0.448  13.416 -0.6207  1.2749  1.9259
  450TMC3    C7 6710   3.128   0.330  13.621 -0.4479 -0.3416 -0.3911
  450TMC3    C8 6711   3.523   0.361  13.328 -0.5761 -0.1090  0.4059
  450TMC3    O1 6712   3.081   0.230  13.679 -0.6172 -0.4376 -0.8628
  450TMC3    O2 6713   3.486   0.466  13.275 -0.5020  0.0787  0.2440
  451MPD2     C 6714   0.874   4.050   1.034 -0.3452 -0.9077  0.5078
  451MPD2    C1 6715   0.782   4.044   1.134  0.8895 -0.4584 -0.1137
  451MPD2    C2 6716   0.777   3.939   1.222  0.1224  0.0629 -0.2731
  451MPD2    C3 6717   0.879   3.839   1.213 -0.4518 -0.2646  0.1207
  451MPD2    C4 6718   0.980   3.854   1.117  0.1313  0.7164  0.0781
  451MPD2    C5 6719   0.972   3.954   1.022  0.0324  0.2939 -0.3508
  451MPD2     H 6720   0.697   3.921   1.293 -1.2028 -0.0154 -1.7688
  451MPD2    H1 6721   1.065   3.787   1.114  0.3719  0.9085  2.5334
  451MPD2    H2 6722   0.887   4.127   0.959  0.4230 -1.0623  0.4865
  451MPD2    H3 6723   1.054   3.983   0.958  0.8987  0.8780  1.0284
  451MPD2     N 6724   0.897   3.735   1.307  0.0467  0.2117  0.7649
  451MPD2    H5 6725   0.977   3.673   1.292 -2.5630 -3.3659  1.6788
  451MPD2    N1 6726   0.678   4.142   1.128  0.3767  0.2634  0.3559
  451MPD2    H7 6727   0.707   4.228   1.082  2.0130 -0.5948 -0.2345
  452TMC3    C1 6728   0.867   3.602   1.506 -0.0963 -0.2298  0.0040
  452TMC3    C2 6729   0.815   3.593   1.629  0.4532 -0.2567  0.5276
  452TMC3    C3 6730   0.828   3.472   1.690 -0.0619  0.0186  0.5590
  452TMC3    C4 6731   0.923   3.498   1.440 -0.3330 -0.3211 -0.2761
  452TMC3    C5 6732   0.940   3.379   1.504 -0.2253  0.1689 -0.4582
  452TMC3    C6 6733   0.884   3.365   1.627 -0.0707 -0.2043 -0.0241
  452TMC3     C 6734   0.834   3.722   1.433 -0.4801  0.0962  0.3309
  452TMC3     O 6735   0.756   3.803   1.483  0.0280  0.0796  0.7863
  452TMC3     H 6736   0.760   3.676   1.672 -2.7231 -2.2817  0.4107
  452TMC3    H1 6737   0.944   3.493   1.334 -0.9724  0.5757 -0.4397
  452TMC3    H2 6738   0.885   3.268   1.677  0.2362 -0.1994 -0.0206
  452TMC3    C7 6739   0.984   3.262   1.429  0.3075 -0.6202 -0.2441
  452TMC3    C8 6740   0.828   3.459   1.841  0.2750  0.3072  0.5213
  452TMC3    O1 6741   0.998   3.276   1.306  0.1019 -0.0132 -0.4328
  452TMC3    O2 6742   0.867   3.350   1.880 -0.5100  0.2922 -0.1856
  453TMC3    C1 6743   1.339   1.344  11.631 -0.3741 -0.2376  0.6213
  453TMC3    C2 6744   1.209   1.308  11.681  0.1514 -0.1271 -0.5227
  453TMC3    C3 6745   1.145   1.222  11.601 -0.0018  0.0680 -0.0988
  453TMC3    C4 6746   1.398   1.281  11.518 -0.6776 -0.2150 -0.2089
  453TMC3    C5 6747   1.329   1.191  11.449  0.3108 -0.4117 -0.4990
  453TMC3    C6 6748   1.203   1.156  11.494 -1.0694 -0.1296 -0.8282
  453TMC3     C 6749   1.434   1.398  11.722 -0.0385  0.1724  0.2493
  453TMC3     O 6750   1.550   1.376  11.689  0.1975  0.5041  0.3052
  453TMC3     H 6751   1.168   1.338  11.777  0.4430  1.0509 -0.7556
  453TMC3    H1 6752   1.500   1.307  11.494 -0.1815 -0.7974  1.2679
  453TMC3    H2 6753   1.150   1.070  11.455  0.4341 -0.3704 -2.3188
  453TMC3    C7 6754   1.388   1.099  11.351 -0.2358  0.8994  0.0368
  453TMC3    C8 6755   1.043   1.141  11.664 -0.5539 -0.1023 -0.0008
  453TMC3    O1 6756   1.324   1.001  11.315  0.0610  0.0983 -0.0675
  453TMC3    O2 6757   0.935   1.190  11.677  0.4084 -0.2342 -0.4397
  454MPD2     C 6758   0.070   0.427  16.083 -0.6681 -0.2938  0.5409
  454MPD2    C1 6759   4.723   0.477  15.976 -0.4364  0.2132  0.4080
  454MPD2    C2 6760   4.656   0.594  15.990 -0.2132  0.0318  0.4858
  454MPD2    C3 6761   4.666   0.671  16.111  0.3935 -0.1469  0.2179
  454MPD2    C4 6762   0.013   0.614  16.217  0.0195  0.0442 -0.3865
  454MPD2    C5 6763   0.076   0.493  16.203 -0.3985  0.3213  0.7322
  454MPD2     H 6764   4.585   0.621  15.913  0.2107  0.6830  0.3185
  454MPD2    H1 6765   0.016   0.654  16.317 -2.1526  2.2238 -1.1808
  454MPD2    H2 6766   0.113   0.328  16.073 -0.1959 -0.1278  0.9477
  454MPD2    H3 6767   0.135   0.458  16.286 -0.6016 -1.5508  0.0806
  454MPD2     N 6768   4.576   0.788  16.122 -1.1902 -0.0186  0.4309
  454MPD2    H5 6769   4.515   0.819  16.046 -0.0704 -0.6540 -0.7163
  454MPD2    N1 6770   4.685   0.405  15.861 -0.0537  0.2076 -0.2067
  454MPD2    H7 6771   4.632   0.454  15.789  1.1974 -0.3576 -1.5129
  455TMC3    C1 6772   4.431   0.913  16.239  0.0851  0.5837 -0.7557
  455TMC3    C2 6773   4.403   0.945  16.361 -0.2553 -0.4561 -0.2104
  455TMC3    C3 6774   4.281   0.917  16.409  0.4821  1.0274 -0.0239
  455TMC3    C4 6775   4.343   0.839  16.165 -0.1726 -0.3542 -0.0209
  455TMC3    C5 6776   4.227   0.804  16.213 -0.1318 -0.4633 -0.2847
  455TMC3    C6 6777   4.192   0.847  16.338  0.6382  0.2548 -0.2627
  455TMC3     C 6778   4.564   0.873  16.223  0.3321  0.7811  0.5753
  455TMC3     O 6779   4.642   0.885  16.315  0.7314  0.0574  0.3596
  455TMC3     H 6780   4.474   0.988  16.431  1.1985 -2.5596 -0.4058
  455TMC3    H1 6781   4.351   0.813  16.060  0.0252  0.8301 -0.3067
  455TMC3    H2 6782   4.109   0.796  16.386 -0.3725  0.4681 -1.7803
  455TMC3    C7 6783   4.188   0.670  16.176 -0.1774  0.2562 -0.7214
  455TMC3    C8 6784   4.269   0.949  16.551 -0.3295 -0.4679  0.1825
  455TMC3    O1 6785   4.074   0.627  16.204  0.2957 -0.4704  0.1597
  455TMC3    O2 6786   4.367   0.953  16.619 -0.2794  0.3394 -0.4250
  456MPD2     C 6787   2.410   0.640  15.949 -1.2688 -0.3106  0.5205
  456MPD2    C1 6788   2.451   0.535  16.028  0.0391  0.1674 -1.3489
  456MPD2    C2 6789   2.419   0.535  16.165  0.2875 -0.1440  0.0500
  456MPD2    C3 6790   2.340   0.638  16.221 -0.8519 -0.5407  0.5435
  456MPD2    C4 6791   2.304   0.740  16.143 -0.9349 -0.1678  0.9071
  456MPD2    C5 6792   2.329   0.738  16.009  0.7232 -0.6639 -0.1919
  456MPD2     H 6793   2.465   0.458  16.226  1.3751  0.7685  0.3707
  456MPD2    H1 6794   2.249   0.823  16.188  0.6673  0.7405  1.1749
  456MPD2    H2 6795   2.447   0.649  15.848 -4.3270  1.3281 -0.4592
  456MPD2    H3 6796   2.301   0.825  15.951  1.0121 -0.4393  0.0095
  456MPD2     N 6797   2.298   0.622  16.355 -0.3953  0.0864 -0.2643
  456MPD2    H5 6798   2.339   0.548  16.412  0.2443  0.4231 -0.2893
  456MPD2    N1 6799   2.539   0.439  15.963 -0.4484 -0.3409 -0.0145
  456MPD2    H7 6800   2.561   0.459  15.866 -2.9544  0.0803 -0.5143
  457TMC3    C1 6801   2.145   0.655  16.537  0.6972  0.5292  0.5833
  457TMC3    C2 6802   2.022   0.706  16.563 -0.0670 -0.5124 -1.0238
  457TMC3    C3 6803   1.998   0.767  16.685  0.4639 -0.1423  0.4335
  457TMC3    C4 6804   2.241   0.632  16.633 -0.1929 -0.0463  0.0863
  457TMC3    C5 6805   2.210   0.693  16.755 -0.0093 -0.2758  0.0710
  457TMC3    C6 6806   2.094   0.762  16.781  0.0290 -0.2467  0.0945
  457TMC3     C 6807   2.193   0.693  16.405  0.1230 -0.4612  0.8143
  457TMC3     O 6808   2.108   0.745  16.336  0.4514  0.0752 -0.2450
  457TMC3     H 6809   1.944   0.712  16.488  0.0666  0.5122 -1.0896
  457TMC3    H1 6810   2.338   0.588  16.611 -0.5520  0.3573 -2.2801
  457TMC3    H2 6811   2.085   0.801  16.882 -0.2494  0.7596 -0.3197
  457TMC3    C7 6812   2.290   0.654  16.873 -0.2960 -0.4114 -0.0103
  457TMC3    C8 6813   1.926   0.893  16.693 -0.4295 -0.7259  0.5947
  457TMC3    O1 6814   2.237   0.633  16.981  0.5568 -0.0956 -0.1047
  457TMC3    O2 6815   1.967   0.957  16.789 -0.3379 -0.0867  0.1475
  458MPD2     C 6816   4.727   0.095  12.401 -0.5558  0.4674 -0.7407
  458MPD2    C1 6817   0.000   0.039  12.526  0.0427 -0.0813  0.2851
  458MPD2    C2 6818   4.622   0.025  12.608  0.5088 -0.2478  0.0586
  458MPD2    C3 6819   4.503   0.077  12.563 -0.3046 -0.0404 -0.6367
  458MPD2    C4 6820   4.497   0.124  12.434  0.5987 -0.8384  0.1100
  458MPD2    C5 6821   4.606   0.123  12.352 -0.3324  0.3862 -0.1029
  458MPD2     H 6822   4.621   0.000  12.714  1.5988  0.2383  0.1722
  458MPD2    H1 6823   4.404   0.147  12.383  1.0687 -0.3175 -0.5242
  458MPD2    H2 6824   0.088   0.094  12.339 -0.1232  3.0634 -0.1535
  458MPD2    H3 6825   4.597   0.155  12.249 -3.3279 -0.4476 -0.0954
  458MPD2     N 6826   4.397   0.083  12.654 -0.0431 -0.1899  0.1689
  458MPD2    H5 6827   4.424   0.067  12.750  1.7722 -0.5059 -0.3836
  458MPD2    N1 6828   0.129   4.723  12.572  0.4006  0.2595 -0.1256
  458MPD2    H7 6829   0.210   0.031  12.522 -1.4542 -0.6924 -3.8082
  459TMC3    C1 6830   0.272   4.691  12.756 -0.3996  0.6123  0.2722
  459TMC3    C2 6831   0.361   0.053  12.700 -0.1350 -0.2050 -0.0307
  459TMC3    C3 6832   0.480   0.075  12.762 -0.1341 -0.1452 -0.4088
  459TMC3    C4 6833   0.294   4.632  12.873 -0.3979  0.7053 -0.4563
  459TMC3    C5 6834   0.408   4.671  12.940 -0.4821 -0.9044 -0.2563
  459TMC3    C6 6835   0.500   0.034  12.894 -0.3320 -0.1361  0.6361
  459TMC3     C 6836   0.154   4.658  12.689 -0.3609 -0.6076  0.0183
  459TMC3     O 6837   0.098   4.563  12.739  0.6061  0.3203 -0.2939
  459TMC3     H 6838   0.340   0.087  12.600  0.1880  0.5017  0.1409
  459TMC3    H1 6839   0.221   4.566  12.919 -1.2543  2.3899  0.5861
  459TMC3    H2 6840   0.597   0.040  12.940 -0.3796  0.8806  0.6017
  459TMC3    C7 6841   0.419   4.607  13.068 -0.1421 -0.0234 -0.4828
  459TMC3    C8 6842   0.596   0.111  12.689 -0.8451  0.1789 -0.3555
  459TMC3    O1 6843   0.377   4.490  13.075 -0.3256  0.0921 -0.1822
  459TMC3    O2 6844   0.706   0.112  12.746  0.0556 -0.3240 -0.3925
  460MPD2     C 6845   4.045   2.496  11.020 -0.0703  0.1374  0.0024
  460MPD2    C1 6846   4.039   2.384  10.944 -0.5766  0.1330 -0.2341
  460MPD2    C2 6847   3.989   2.387  10.812  0.0832  0.6579  0.1116
  460MPD2    C3 6848   3.934   2.504  10.764 -0.7280  0.0159  0.6723
  460MPD2    C4 6849   3.923   2.610  10.851 -0.4756 -0.5528  0.1628
  460MPD2    C5 6850   3.973   2.607  10.977 -0.4213 -0.3780  0.2402
  460MPD2     H 6851   3.988   2.300  10.748  3.0009  1.7351 -1.4144
  460MPD2    H1 6852   3.878   2.704  10.823 -0.5152 -0.5146  0.3512
  460MPD2    H2 6853   4.103   2.494  11.111 -0.0451  2.7032  0.0257
  460MPD2    H3 6854   3.978   2.701  11.031 -1.2904  0.6844 -1.5151
  460MPD2     N 6855   3.886   2.505  10.633  0.1051 -0.3707  0.6138
  460MPD2    H5 6856   3.899   2.421  10.577 -0.5259  0.0893 -0.2192
  460MPD2    N1 6857   4.097   2.273  11.002  0.0357  0.6895  0.3884
  460MPD2    H7 6858   4.137   2.275  11.095  0.2431 -0.0824  0.3168
  461TMC3    C1 6859   3.790   2.593  10.436  0.7212  0.2959  0.6939
  461TMC3    C2 6860   3.850   2.492  10.363  0.5198 -0.7650 -0.0525
  461TMC3    C3 6861   3.833   2.490  10.230 -0.9264  0.3008 -0.7056
  461TMC3    C4 6862   3.717   2.689  10.371  0.0566  0.2540 -0.2725
  461TMC3    C5 6863   3.717   2.690  10.235  0.0157 -0.9120 -0.2268
  461TMC3    C6 6864   3.766   2.591  10.159 -0.3437 -0.0985  0.5645
  461TMC3     C 6865   3.837   2.622  10.570 -1.0023 -0.4357  0.3074
  461TMC3     O 6866   3.805   2.735  10.616  0.5548 -0.0773 -0.6582
  461TMC3     H 6867   3.896   2.405  10.409 -1.4174 -1.8603 -0.2146
  461TMC3    H1 6868   3.680   2.778  10.421  1.0534  0.4927  0.0297
  461TMC3    H2 6869   3.730   2.581  10.057  0.6358  0.2741  0.1906
  461TMC3    C7 6870   3.651   2.800  10.157  0.8140  0.8722 -0.0397
  461TMC3    C8 6871   3.865   2.367  10.162  0.4270 -0.6096 -0.6779
  461TMC3    O1 6872   3.558   2.860  10.213 -1.1662 -0.3088  0.4367
  461TMC3    O2 6873   3.962   2.303  10.194  0.2348 -0.3725  0.4940
  462TMC3    C1 6874   4.445   3.183  17.348  0.3817  0.0095 -0.6970
  462TMC3    C2 6875   4.402   3.118  17.246  0.5071 -0.6072 -0.3818
  462TMC3    C3 6876   4.368   2.982  17.256 -0.1416  1.3515  0.6816
  462TMC3    C4 6877   4.448   3.134  17.473 -0.4712 -0.3425  0.9927
  462TMC3    C5 6878   4.394   3.011  17.481 -0.3748 -0.2839 -0.2408
  462TMC3    C6 6879   4.358   2.930  17.379  1.1182 -0.3736  0.1981
  462TMC3     C 6880   4.431   3.326  17.339 -0.0857 -0.2024 -0.0578
  462TMC3     O 6881   4.354   3.382  17.417 -0.2552  0.2119 -0.5479
  462TMC3     H 6882   4.401   3.158  17.145 -2.1287 -1.8993 -0.8675
  462TMC3    H1 6883   4.489   3.188  17.557  0.4869 -2.1488  1.7006
  462TMC3    H2 6884   4.327   2.827  17.392 -0.0168 -0.2090 -1.1899
  462TMC3    C7 6885   4.334   2.978  17.606  0.1877  0.0088  0.7004
  462TMC3    C8 6886   4.294   2.926  17.151  0.2411 -0.9251  0.4780
  462TMC3    O1 6887   4.264   2.877  17.611 -0.3349  0.5231  0.6776
  462TMC3    O2 6888   4.220   3.010  17.100  0.2003 -0.0437  0.4077
  463MPD2     C 6889   1.019   1.774   1.108  0.7113  0.5744  0.0467
  463MPD2    C1 6890   1.039   1.892   1.174 -0.2279 -0.3819 -0.2819
  463MPD2    C2 6891   1.161   1.933   1.212  0.1524 -0.1955 -0.4362
  463MPD2    C3 6892   1.276   1.858   1.189 -0.6242 -0.2863  0.2701
  463MPD2    C4 6893   1.253   1.736   1.128 -0.0014  0.0211 -0.3812
  463MPD2    C5 6894   1.130   1.698   1.081 -0.7034  0.2233  0.2691
  463MPD2     H 6895   1.161   2.026   1.267  3.2187 -0.4536  0.0451
  463MPD2    H1 6896   1.345   1.679   1.119 -2.0286 -3.5076  1.5664
  463MPD2    H2 6897   0.918   1.748   1.081  0.9055 -1.8841  1.7182
  463MPD2    H3 6898   1.119   1.603   1.029  1.4570 -0.2885  0.7447
  463MPD2     N 6899   1.406   1.894   1.236 -0.3937 -0.1293 -0.3785
  463MPD2    H5 6900   1.488   1.836   1.220 -2.4337 -2.1507 -3.2775
  463MPD2    N1 6901   0.928   1.981   1.199 -0.6075  0.4634 -0.0672
  463MPD2    H7 6902   0.951   2.068   1.246 -0.1436  0.8716 -1.0305
  464TMC3    C1 6903   0.706   2.052   1.218  0.2270  0.2861 -0.1404
  464TMC3    C2 6904   0.748   2.180   1.216 -0.8550 -0.0845  0.4405
  464TMC3    C3 6905   0.656   2.272   1.258  1.0128  0.5289 -0.3152
  464TMC3    C4 6906   0.579   2.025   1.251  0.1077  0.5441  0.4155
  464TMC3    C5 6907   0.490   2.120   1.294 -0.1578  0.2926  0.7128
  464TMC3    C6 6908   0.525   2.249   1.298 -0.2687  0.0859  0.8655
  464TMC3     C 6909   0.796   1.946   1.186  0.1321  0.1381  0.0497
  464TMC3     O 6910   0.738   1.854   1.132 -0.1050 -0.2310 -0.2667
  464TMC3     H 6911   0.849   2.211   1.192 -1.0461 -0.6423 -1.0728
  464TMC3    H1 6912   0.562   1.919   1.264  1.2342  0.4541  1.1655
  464TMC3    H2 6913   0.456   2.317   1.346 -0.3927 -0.7669  1.9187
  464TMC3    C7 6914   0.380   2.087   1.379  0.0683 -0.1975  0.6323
  464TMC3    C8 6915   0.660   2.398   1.183 -0.2940 -0.3001  0.1996
  464TMC3    O1 6916   0.360   2.144   1.490  0.1624 -0.0006  0.8127
  464TMC3    O2 6917   0.733   2.405   1.087 -0.0819 -0.0403 -0.4447
  465MPD2     C 6918   1.489   0.390  16.481 -0.1669 -0.1231 -0.1978
  465MPD2    C1 6919   1.359   0.388  16.525  0.0069 -0.5096  0.1690
  465MPD2    C2 6920   1.264   0.414  16.426 -0.6630 -0.4383  0.5436
  465MPD2    C3 6921   1.299   0.445  16.293  0.1902 -1.1480  0.3581
  465MPD2    C4 6922   1.431   0.443  16.260  0.4319  0.1130 -0.6593
  465MPD2    C5 6923   1.519   0.405  16.350 -0.1295  0.6700 -0.2641
  465MPD2     H 6924   1.158   0.424  16.446 -0.5289 -0.4348  1.2670
  465MPD2    H1 6925   1.468   0.456  16.159  1.0750  2.5469 -0.0908
  465MPD2    H2 6926   1.571   0.371  16.549  0.9269  2.7374 -0.7145
  465MPD2    H3 6927   1.623   0.398  16.321  0.0490  1.6393  0.1562
  465MPD2     N 6928   1.194   0.477  16.202 -0.4833  0.3335 -0.3039
  465MPD2    H5 6929   1.095   0.471  16.221 -0.4620  1.0624  0.0313
  465MPD2    N1 6930   1.321   0.372  16.665  1.0092  0.0846 -1.0409
  465MPD2    H7 6931   1.223   0.379  16.687  1.1409 -0.3911 -0.3313
  466TMC3    C1 6932   0.870   0.545  16.027 -0.5834  0.7960  0.5357
  466TMC3    C2 6933   0.858   0.676  15.989  0.5497  0.1868  0.2374
  466TMC3    C3 6934   0.970   0.742  15.946 -0.5582 -0.9423  0.6869
  466TMC3    C4 6935   0.993   0.482  16.021 -0.5598  0.0438 -0.2648
  466TMC3    C5 6936   1.102   0.552  15.994  0.2352 -0.2249  0.6194
  466TMC3    C6 6937   1.094   0.679  15.949  0.4937 -0.1559  0.1549
  466TMC3     C 6938   0.788   0.495  16.130 -0.1112  0.3950 -0.1594
  466TMC3     O 6939   0.841   0.408  16.196  0.2675  0.0472 -0.4195
  466TMC3     H 6940   0.766   0.732  15.989 -0.0955 -0.8759  0.2911
  466TMC3    H1 6941   1.005   0.377  16.047 -2.4298 -0.5223 -1.6234
  466TMC3    H2 6942   1.185   0.729  15.918  0.4189 -1.7096 -2.5407
  466TMC3    C7 6943   1.224   0.519  16.072  0.1693  0.5861 -0.0190
  466TMC3    C8 6944   0.982   0.889  15.934  0.3820  0.1758  0.2316
  466TMC3    O1 6945   1.330   0.560  16.028 -0.1861 -0.2274 -0.6310
  466TMC3    O2 6946   1.086   0.935  15.887  0.4222 -0.3997  0.1832
  467TMC3    C1 6947   2.113   4.268  13.494 -0.6392  0.3911  0.0187
  467TMC3    C2 6948   2.115   4.337  13.373 -0.0482 -0.0198 -0.2223
  467TMC3    C3 6949   2.037   4.284  13.274 -0.0520 -0.4049 -0.9263
  467TMC3    C4 6950   2.034   4.158  13.514 -0.4601  0.2600 -0.1560
  467TMC3    C5 6951   1.952   4.113  13.409 -0.1764 -0.2026  0.5404
  467TMC3    C6 6952   1.949   4.182  13.295  0.4001  0.2624  0.1405
  467TMC3     C 6953   2.219   4.310  13.586 -0.4572  0.6908  0.2498
  467TMC3     O 6954   2.299   4.394  13.546 -0.1062  0.4205  0.2867
  467TMC3     H 6955   2.187   4.415  13.354 -1.2032  0.6125 -2.0477
  467TMC3    H1 6956   2.047   4.093  13.600  1.8514 -0.0200 -0.7144
  467TMC3    H2 6957   1.883   4.147  13.216  2.0586 -0.4032 -0.9519
  467TMC3    C7 6958   1.886   3.987  13.423 -0.3465 -0.5484 -0.0912
  467TMC3    C8 6959   2.032   4.362  13.149  0.1828 -0.0427 -0.1786
  467TMC3    O1 6960   1.857   3.919  13.321  0.1564 -0.4576  0.0335
  467TMC3    O2 6961   2.058   4.484  13.160  0.1802  0.0262 -0.0992
  468MPD2     C 6962   1.622   1.906  10.478  0.4353  0.5246  0.4126
  468MPD2    C1 6963   1.617   1.875  10.616 -0.1919  0.3564 -0.4067
  468MPD2    C2 6964   1.621   1.738  10.655 -0.3392  0.3797  0.1044
  468MPD2    C3 6965   1.625   1.641  10.551  0.2034  0.2632  0.6780
  468MPD2    C4 6966   1.654   1.676  10.421 -0.0282  0.2652  0.4736
  468MPD2    C5 6967   1.654   1.811  10.385 -0.6250  0.1185  0.5083
  468MPD2     H 6968   1.617   1.708  10.759  0.8684 -0.5705 -0.1189
  468MPD2    H1 6969   1.669   1.604  10.341 -0.1733 -0.4255  1.0652
  468MPD2    H2 6970   1.616   2.006  10.434  1.6776  0.7638  0.7961
  468MPD2    H3 6971   1.687   1.838  10.285 -0.2210  0.5703  0.7657
  468MPD2     N 6972   1.599   1.499  10.579 -0.2187  0.3548  0.1008
  468MPD2    H5 6973   1.603   1.437  10.498 -1.2446 -0.7343  0.8746
  468MPD2    N1 6974   1.601   1.978  10.715 -0.2130 -0.3652  0.2057
  468MPD2    H7 6975   1.602   1.944  10.811 -1.3585  0.8160  0.6380
  469TMC3    C1 6976   1.559   2.191  10.808 -0.1177  0.2787 -0.6264
  469TMC3    C2 6977   1.639   2.159  10.912  0.1847 -0.4587 -0.9860
  469TMC3    C3 6978   1.659   2.247  11.013  0.1468 -0.1754  0.0680
  469TMC3    C4 6979   1.477   2.303  10.809  0.4688 -0.4438  0.3296
  469TMC3    C5 6980   1.501   2.388  10.916 -0.6614  0.1287 -0.4688
  469TMC3    C6 6981   1.595   2.369  11.014  0.1266 -1.5614 -0.0158
  469TMC3     C 6982   1.563   2.110  10.688 -0.0296 -0.6207  0.1382
  469TMC3     O 6983   1.546   2.166  10.579 -0.4098  0.1514  0.1488
  469TMC3     H 6984   1.704   2.072  10.910  0.3860 -0.2839 -2.3331
  469TMC3    H1 6985   1.408   2.335  10.732 -2.6638 -0.4839  3.1611
  469TMC3    H2 6986   1.627   2.444  11.085  1.7421 -0.8717 -1.4705
  469TMC3    C7 6987   1.389   2.482  10.944  0.8946  0.5686 -0.5759
  469TMC3    C8 6988   1.774   2.223  11.106  0.4833 -0.1528  0.1316
  469TMC3    O1 6989   1.292   2.458  10.869 -0.0179 -0.2363 -0.0567
  469TMC3    O2 6990   1.827   2.113  11.090  0.0818 -0.3615 -0.1123
  470TMC3    C1 6991   3.972   3.755   1.035  0.0446 -0.5096 -0.1875
  470TMC3    C2 6992   4.026   3.797   0.918 -0.4867 -0.3406 -0.1430
  470TMC3    C3 6993   4.158   3.834   0.929 -0.2452  0.3050 -0.1848
  470TMC3    C4 6994   4.038   3.734   1.152  0.0389 -0.1902 -0.1340
  470TMC3    C5 6995   4.165   3.782   1.155  0.2194 -0.8691  0.0861
  470TMC3    C6 6996   4.227   3.817   1.044 -0.1801  0.4446  0.8548
  470TMC3     C 6997   3.832   3.716   1.033  0.6137 -0.5386 -0.2816
  470TMC3     O 6998   3.761   3.765   1.124  0.0967 -1.0197 -0.0406
  470TMC3     H 6999   3.964   3.829   0.835 -0.1419 -2.5963 -1.2917
  470TMC3    H1 7000   3.989   3.685   1.235  3.0044 -0.0735  1.6996
  470TMC3    H2 7001   4.324   3.865   1.053  0.5926 -1.0805  0.6636
  470TMC3    C7 7002   4.213   3.839   1.275  0.3361 -0.1776  0.4341
  470TMC3    C8 7003   4.181   3.958   0.850 -0.8578 -0.3952  0.5506
  470TMC3    O1 7004   4.331   3.865   1.289 -0.3938  0.0667 -0.0119
  470TMC3    O2 7005   4.084   4.028   0.828 -0.3884 -0.5584 -0.2604
  471MPD2     C 7006   4.253   4.004  16.384  1.2092  0.4832  0.5285
  471MPD2    C1 7007   4.154   3.907  16.401 -0.4578 -0.2414 -0.3046
  471MPD2    C2 7008   4.134   3.855  16.529 -0.3235 -0.3088  0.1645
  471MPD2    C3 7009   4.196   3.906  16.639  0.1606 -0.6219  0.2273
  471MPD2    C4 7010   4.305   3.991  16.617 -0.5905  0.1220 -0.2263
  471MPD2    C5 7011   4.331   4.042  16.490 -0.8546  0.3040 -0.3328
  471MPD2     H 7012   4.055   3.781  16.538  1.3348 -2.3540 -2.2072
  471MPD2    H1 7013   4.365   4.030  16.698  1.0402 -0.5514 -1.1070
  471MPD2    H2 7014   4.286   4.046  16.290  2.1697  1.6671  1.3929
  471MPD2    H3 7015   4.415   4.109  16.482 -0.1176 -0.4499  1.0811
  471MPD2     N 7016   4.170   3.851  16.768  0.3456 -0.0759  0.2368
  471MPD2    H5 7017   4.242   3.873  16.837  0.5527  1.0037 -0.3317
  471MPD2    N1 7018   4.072   3.859  16.292  0.0783  0.0255 -0.0232
  471MPD2    H7 7019   4.010   3.780  16.307 -0.1253  0.2562  0.3690
  472TMC3    C1 7020   4.014   3.830  16.063  0.6396  0.0322  0.0166
  472TMC3    C2 7021   3.939   3.907  15.978 -0.4194  0.5319 -0.0539
  472TMC3    C3 7022   3.831   3.846  15.915 -0.5636 -0.2115 -0.1840
  472TMC3    C4 7023   4.008   3.698  16.079 -0.9135  0.5402  0.2693
  472TMC3    C5 7024   3.905   3.639  16.007  0.2566  0.1834 -0.2474
  472TMC3    C6 7025   3.812   3.710  15.929  0.6198 -0.3816 -0.4136
  472TMC3     C 7026   4.078   3.907  16.161 -0.3064  0.1900 -0.9449
  472TMC3     O 7027   4.138   4.000  16.107  0.1925 -0.3119 -0.0033
  472TMC3     H 7028   3.934   4.015  15.984 -1.7107  0.4656  0.0708
  472TMC3    H1 7029   4.093   3.649  16.127 -0.4318  0.3626 -0.7669
  472TMC3    H2 7030   3.731   3.656  15.883  0.0977 -0.2885  0.4044
  472TMC3    C7 7031   3.888   3.495  16.024  0.7316  0.3771 -0.9087
  472TMC3    C8 7032   3.709   3.923  15.897  0.6195  0.0213  0.1484
  472TMC3    O1 7033   3.947   3.443  16.121 -0.1993 -0.2995  0.4053
  472TMC3    O2 7034   3.694   4.017  15.819  0.9412  0.2117 -0.4969
  473MPD2     C 7035   3.903   1.392  13.754  0.3639  0.4155  0.3927
  473MPD2    C1 7036   3.864   1.503  13.678  0.3111 -0.6070 -0.2758
  473MPD2    C2 7037   3.908   1.626  13.726 -0.5912  0.4116 -0.1089
  473MPD2    C3 7038   3.987   1.642  13.841  0.0507  0.6771  0.1374
  473MPD2    C4 7039   4.030   1.533  13.908 -0.6612 -0.3338 -0.3822
  473MPD2    C5 7040   3.978   1.412  13.869  0.0999  0.0669 -0.6406
  473MPD2     H 7041   3.875   1.716  13.676 -0.6197  1.6345  2.1183
  473MPD2    H1 7042   4.095   1.526  13.994 -2.0856  1.1999  0.8171
  473MPD2    H2 7043   3.873   1.292  13.727  2.9323 -0.3913  0.5729
  473MPD2    H3 7044   4.009   1.322  13.920 -1.0267 -0.1808 -0.3892
  473MPD2     N 7045   4.025   1.769  13.889 -0.5140 -0.3837  0.1321
  473MPD2    H5 7046   4.082   1.764  13.973 -0.2368 -0.0602 -0.0383
  473MPD2    N1 7047   3.769   1.509  13.572 -0.2551 -0.1698  0.3206
  473MPD2    H7 7048   3.754   1.598  13.527 -0.1606  1.7494  4.1091
  474TMC3    C1 7049   4.060   2.001  13.915  0.2266  0.1220 -0.7647
  474TMC3    C2 7050   3.971   2.101  13.958  0.8061 -0.1170  0.3220
  474TMC3    C3 7051   4.014   2.186  14.059 -1.0322 -0.6393  0.4158
  474TMC3    C4 7052   4.184   1.978  13.974  0.0539 -0.3327  0.2966
  474TMC3    C5 7053   4.204   2.057  14.084 -0.3995 -0.1546 -0.2401
  474TMC3    C6 7054   4.130   2.163  14.127 -0.1778 -0.4169 -0.0422
  474TMC3     C 7055   4.002   1.894  13.839  0.0666 -0.3054  0.4239
  474TMC3     O 7056   3.925   1.934  13.753 -0.3468 -0.5497  0.8570
  474TMC3     H 7057   3.878   2.113  13.903  0.5879  1.0565  0.9480
  474TMC3    H1 7058   4.249   1.897  13.942  0.0107 -0.0230 -0.5723
  474TMC3    H2 7059   4.165   2.237  14.198 -0.6881  1.0840 -1.3658
  474TMC3    C7 7060   4.332   2.039  14.140 -0.4067 -0.0021 -0.6721
  474TMC3    C8 7061   3.924   2.299  14.091 -0.3937 -0.1067 -0.1341
  474TMC3    O1 7062   4.418   2.019  14.053 -0.2917 -0.4196 -0.2038
  474TMC3    O2 7063   3.806   2.277  14.054 -0.1637  0.0336 -0.4548
  475MPD2     C 7064   2.576   4.217  10.350 -0.2674  0.1887 -0.9248
  475MPD2    C1 7065   2.595   4.354  10.375 -0.6964  0.3155 -0.2094
  475MPD2    C2 7066   2.490   4.430  10.419 -0.2763 -0.4591 -0.3583
  475MPD2    C3 7067   2.359   4.384  10.442 -0.0262  0.1116  0.7275
  475MPD2    C4 7068   2.345   4.246  10.436 -0.2191 -0.9713  0.0425
  475MPD2    C5 7069   2.452   4.172  10.395 -0.7652 -0.5174  0.0584
  475MPD2     H 7070   2.514   4.531  10.453  2.2705 -1.1163 -0.2036
  475MPD2    H1 7071   2.255   4.192  10.463 -1.5642  0.6139 -1.3327
  475MPD2    H2 7072   2.653   4.145  10.325 -0.2945 -0.2296  0.1836
  475MPD2    H3 7073   2.433   4.065  10.401 -0.1275 -0.5799  0.8877
  475MPD2     N 7074   2.259   4.475  10.475 -0.6784 -0.0792  0.9341
  475MPD2    H5 7075   2.286   4.570  10.497  2.3084 -0.4270 -1.2402
  475MPD2    N1 7076   2.722   4.410  10.349  0.6357  0.7010 -0.0334
  475MPD2    H7 7077   2.791   4.340  10.325  0.8759  1.3967 -1.3935
  476TMC3    C1 7078   2.897   4.563  10.337 -0.0732 -0.0588  0.3849
  476TMC3    C2 7079   2.897   4.594  10.208 -0.8707 -0.4262  0.4385
  476TMC3    C3 7080   2.939   4.720  10.177  0.2227  0.1343 -0.0786
  476TMC3    C4 7081   2.950   4.651  10.431  0.2145  0.1772  0.0714
  476TMC3    C5 7082   3.016   0.030  10.387 -0.4019 -0.2467 -1.0412
  476TMC3    C6 7083   3.009   0.073  10.262  0.2435 -0.9145  0.8670
  476TMC3     C 7084   2.760   4.538  10.374  0.5381  0.3776  0.2023
  476TMC3     O 7085   2.691   4.639  10.374 -0.1177  0.7793  0.3780
  476TMC3     H 7086   2.847   4.522  10.145 -0.9733 -1.3281  1.5525
  476TMC3    H1 7087   2.937   4.635  10.537 -1.2216  1.0626  0.0257
  476TMC3    H2 7088   3.059   0.166  10.235  0.7302 -1.3883  0.1213
  476TMC3    C7 7089   3.067   0.126  10.479  0.3393  0.0277 -1.1415
  476TMC3    C8 7090   2.872   0.062  10.064 -0.7709 -0.4559  0.4277
  476TMC3    O1 7091   3.178   0.173  10.457  0.2482 -0.3402 -0.3253
  476TMC3    O2 7092   2.907   0.178  10.046 -0.1342 -0.1785 -0.4835
  477MPD2     C 7093   0.137   1.573  11.723  0.7768  0.0753  0.0465
  477MPD2    C1 7094   0.102   1.443  11.688  0.2675 -0.1934  0.0509
  477MPD2    C2 7095   0.153   1.346  11.775 -1.0246  0.5531 -0.2266
  477MPD2    C3 7096   0.221   1.382  11.893 -0.6358 -0.1269  1.1601
  477MPD2    C4 7097   0.248   1.512  11.923 -0.0054 -0.1879 -0.0414
  477MPD2    C5 7098   0.213   1.608  11.831 -0.3299  0.4381  0.2790
  477MPD2     H 7099   0.134   1.241  11.753 -2.8898  0.6084  1.0628
  477MPD2    H1 7100   0.310   1.540  12.007  1.4481 -2.5381 -0.3313
  477MPD2    H2 7101   0.109   1.655  11.658  0.5511 -2.2760 -2.7807
  477MPD2    H3 7102   0.262   1.702  11.853 -0.5870  0.3553  1.2284
  477MPD2     N 7103   0.257   1.279  11.981 -0.0843  0.3618  1.0863
  477MPD2    H5 7104   0.243   1.186  11.944 -2.2428  1.3059 -0.5186
  477MPD2    N1 7105   0.021   1.428  11.576  0.1331  0.1106  0.8610
  477MPD2    H7 7106   0.007   1.512  11.521 -1.9634 -1.6945 -1.3341
  478TMC3    C1 7107   4.601   1.326  11.425 -0.0210 -0.3816  0.2063
  478TMC3    C2 7108   4.477   1.271  11.426  0.4921 -0.3640  0.0438
  478TMC3    C3 7109   4.384   1.305  11.326 -0.0135 -0.1159 -0.3604
  478TMC3    C4 7110   4.630   1.416  11.329 -0.3320  0.1003 -0.4491
  478TMC3    C5 7111   4.536   1.450  11.233 -0.2143 -0.1697  0.5393
  478TMC3    C6 7112   4.408   1.392  11.220  0.0576 -0.8429  0.2786
  478TMC3     C 7113   4.673   1.316  11.549 -0.5649 -0.3170 -0.1894
  478TMC3     O 7114   4.651   1.227  11.630  0.8312  0.0164  0.1214
  478TMC3     H 7115   4.448   1.211  11.511  1.6067 -0.0415  0.6602
  478TMC3    H1 7116   0.006   1.449  11.328 -0.6610  1.2908  3.1752
  478TMC3    H2 7117   4.328   1.425  11.155 -0.0045 -0.5813  0.4877
  478TMC3    C7 7118   4.587   1.541  11.133  0.0336  0.1467 -0.6545
  478TMC3    C8 7119   4.249   1.296  11.376 -0.2170  0.0564 -0.0760
  478TMC3    O1 7120   4.702   1.579  11.147  0.6344  0.0024 -0.6576
  478TMC3    O2 7121   4.215   1.192  11.438 -0.3997 -0.9806 -0.9026
  479MPD2     C 7122   3.713   3.572  14.798 -0.4873  0.6346  0.1848
  479MPD2    C1 7123   3.653   3.563  14.922 -0.3007 -0.9698  1.0986
  479MPD2    C2 7124   3.727   3.599  15.041 -0.2748  0.4411  0.7015
  479MPD2    C3 7125   3.840   3.680  15.027 -0.1344 -0.2748 -0.1876
  479MPD2    C4 7126   3.897   3.683  14.905  0.2493 -0.2147 -0.3287
  479MPD2    C5 7127   3.840   3.623  14.794 -0.5197 -0.0258  0.0175
  479MPD2     H 7128   3.692   3.584  15.142  3.8630  1.5810  2.2853
  479MPD2    H1 7129   3.987   3.743  14.895  0.8164 -0.5829  2.5280
  479MPD2    H2 7130   3.662   3.542  14.707 -1.5153  1.9898  0.2977
  479MPD2    H3 7131   3.896   3.640  14.703 -1.1060 -1.1421 -0.5514
  479MPD2     N 7132   3.905   3.747  15.133  0.3107  0.1996  0.3920
  479MPD2    H5 7133   4.001   3.774  15.112 -0.4414  1.0127 -2.0605
  479MPD2    N1 7134   3.525   3.503  14.937  0.1185 -0.0762 -0.1315
  479MPD2    H7 7135   3.478   3.482  14.849  0.3178  2.4563 -0.8296
  480TMC3    C1 7136   3.560   3.736  15.463  0.3030  0.2590  0.2071
  480TMC3    C2 7137   3.469   3.810  15.381  0.3336  0.5537  0.3038
  480TMC3    C3 7138   3.514   3.856  15.261  0.4325  0.5051  0.0649
  480TMC3    C4 7139   3.685   3.707  15.421 -0.1762 -0.0597  0.9198
  480TMC3    C5 7140   3.727   3.757  15.297 -0.0556 -0.3131 -0.2807
  480TMC3    C6 7141   3.647   3.836  15.222  0.3211  0.4822 -0.1197
  480TMC3     C 7142   3.507   3.669  15.581 -0.0700 -0.6075  0.0868
  480TMC3     O 7143   3.582   3.591  15.641 -0.2099 -0.9398  0.1227
  480TMC3     H 7144   3.366   3.824  15.411  0.1284 -2.6652  1.0909
  480TMC3    H1 7145   3.753   3.661  15.493 -0.6061  1.2659  2.1643
  480TMC3    H2 7146   3.691   3.872  15.129  0.0348  3.0068  0.7354
  480TMC3    C7 7147   3.869   3.755  15.269  0.4141  0.4906 -0.0081
  480TMC3    C8 7148   3.414   3.862  15.156 -0.3386  0.0395  0.5477
  480TMC3    O1 7149   3.952   3.770  15.360 -0.2383  0.1910 -0.1783
  480TMC3    O2 7150   3.296   3.860  15.184 -0.8746  0.3167  0.0006
  481MPD2     C 7151   0.658   3.442  14.160  0.0815  0.1536 -0.2950
  481MPD2    C1 7152   0.533   3.384  14.182 -0.1570 -0.4083 -0.2739
  481MPD2    C2 7153   0.529   3.293  14.295  0.2392  0.2139  0.5733
  481MPD2    C3 7154   0.631   3.276  14.380  0.3522 -0.4033  0.0590
  481MPD2    C4 7155   0.752   3.331  14.347  0.2260 -0.0565  0.4202
  481MPD2    C5 7156   0.768   3.410  14.237 -0.3503 -0.6353 -0.6092
  481MPD2     H 7157   0.433   3.247  14.314  1.3839 -2.5582 -0.4686
  481MPD2    H1 7158   0.842   3.311  14.403 -0.8126 -0.9625  1.7875
  481MPD2    H2 7159   0.677   3.513  14.080 -0.6052 -0.7993 -1.3038
  481MPD2    H3 7160   0.859   3.461  14.208  0.0143 -0.9218  0.0329
  481MPD2     N 7161   0.628   3.202  14.497 -0.0789 -0.6139 -0.4591
  481MPD2    H5 7162   0.720   3.170  14.525 -0.4155 -0.8308  0.4079
  481MPD2    N1 7163   0.431   3.393  14.082 -0.2524  0.5385  0.2521
  481MPD2    H7 7164   0.454   3.450  14.002 -0.4351 -1.7299 -1.4120
  482TMC3    C1 7165   0.218   3.362  13.997  0.1077 -0.3727 -0.9503
  482TMC3    C2 7166   0.096   3.304  14.007 -0.3835 -0.1304 -0.1097
  482TMC3    C3 7167   4.719   3.332  13.917  0.1150 -0.2946 -0.1136
  482TMC3    C4 7168   0.241   3.452  13.898 -0.2866 -0.8964  0.4916
  482TMC3    C5 7169   0.136   3.473  13.807  0.4845 -0.7067  0.1434
  482TMC3    C6 7170   0.019   3.415  13.813  0.3854 -0.8778 -0.0339
  482TMC3     C 7171   0.318   3.315  14.081  0.3730  0.0787  0.0406
  482TMC3     O 7172   0.305   3.198  14.119  0.3250  0.6624 -0.2785
  482TMC3     H 7173   0.085   3.228  14.083  1.0941  1.7494  1.9969
  482TMC3    H1 7174   0.343   3.483  13.875 -0.7340 -0.3676 -0.8227
  482TMC3    H2 7175   4.668   3.452  13.747  2.8629  0.1578 -2.3788
  482TMC3    C7 7176   0.183   3.532  13.679 -0.4529  0.6738 -0.1947
  482TMC3    C8 7177   4.610   3.231  13.905 -0.1979  0.1666  0.4299
  482TMC3    O1 7178   0.276   3.608  13.696 -0.0747  0.3957  0.0769
  482TMC3    O2 7179   4.639   3.117  13.941  0.3495 -0.1653 -0.1051
  483TMC3    C1 7180   2.819   2.378   0.960 -0.1690 -0.1768  0.3108
  483TMC3    C2 7181   2.861   2.501   0.904 -0.8819  0.4704 -0.4881
  483TMC3    C3 7182   2.968   2.561   0.970  0.1512  0.5399 -0.0694
  483TMC3    C4 7183   2.875   2.329   1.077 -0.2638  0.3222 -0.7936
  483TMC3    C5 7184   2.975   2.402   1.144  0.0129 -0.4292 -0.1170
  483TMC3    C6 7185   3.027   2.512   1.083  0.5106  0.3179  0.3427
  483TMC3     C 7186   2.722   2.299   0.885 -0.1419 -0.3653  1.1730
  483TMC3     O 7187   2.650   2.364   0.815 -0.5075  0.2997  0.5111
  483TMC3     H 7188   2.819   2.547   0.815 -1.5176  0.9313  0.0484
  483TMC3    H1 7189   2.816   2.247   1.118 -0.6807  0.6947 -0.6434
  483TMC3    H2 7190   3.112   2.560   1.130  0.7760  1.0957 -0.9456
  483TMC3    C7 7191   3.052   2.324   1.237  0.0537  0.2570  0.1722
  483TMC3    C8 7192   3.046   2.657   0.896  0.0331  0.5053 -0.4899
  483TMC3    O1 7193   3.176   2.339   1.239 -0.3926  0.2344 -0.4894
  483TMC3    O2 7194   3.032   2.650   0.774  0.1863  0.2004 -0.0786
  484MPD2     C 7195   0.605   0.159  12.325 -0.4415  0.3370 -0.7403
  484MPD2    C1 7196   0.661   0.151  12.452  0.7032  0.6286  0.0883
  484MPD2    C2 7197   0.796   0.176  12.473 -0.2941  0.1886  0.3626
  484MPD2    C3 7198   0.871   0.227  12.363  0.1520 -1.0310  0.4195
  484MPD2    C4 7199   0.801   0.244  12.243 -0.4675  0.2472  0.3702
  484MPD2    C5 7200   0.670   0.223  12.229  0.1006 -0.2743  0.3620
  484MPD2     H 7201   0.847   0.158  12.567  0.5742  1.8691  0.2165
  484MPD2    H1 7202   0.848   0.288  12.155  1.3737  1.4336  1.9331
  484MPD2    H2 7203   0.504   0.128  12.304 -0.4762  1.2923 -1.9530
  484MPD2    H3 7204   0.627   0.251  12.134 -0.6022  0.8576  1.0176
  484MPD2     N 7205   1.011   0.251  12.378 -0.1318 -0.1147 -0.4751
  484MPD2    H5 7206   1.051   0.231  12.470 -0.6311 -1.5523 -0.5693
  484MPD2    N1 7207   0.569   0.124  12.549  0.0032  0.1067 -0.1645
  484MPD2    H7 7208   0.474   0.124  12.514  1.0803 -1.0667 -3.1436
  485TMC3    C1 7209   1.225   0.321  12.321  0.4840  0.5972  0.3408
  485TMC3    C2 7210   1.271   0.240  12.421  0.3442  0.1582  0.0192
  485TMC3    C3 7211   1.408   0.234  12.431 -0.2574 -0.4035 -0.8371
  485TMC3    C4 7212   1.306   0.369  12.225  0.5458  0.6761 -0.1311
  485TMC3    C5 7213   1.440   0.362  12.237 -0.2145  0.2637  0.0069
  485TMC3    C6 7214   1.487   0.296  12.342  0.7711  0.4058  0.1931
  485TMC3     C 7215   1.086   0.317  12.285 -0.3186  0.2631  0.2689
  485TMC3     O 7216   1.053   0.376  12.187 -0.4544 -0.6140  0.3022
  485TMC3     H 7217   1.207   0.179  12.484 -0.0662 -0.7843 -1.3079
  485TMC3    H1 7218   1.268   0.411  12.133 -1.9348 -0.8215  0.1959
  485TMC3    H2 7219   1.594   0.286  12.359  0.6013 -1.4404  0.2176
  485TMC3    C7 7220   1.509   0.330  12.116 -0.7217 -0.5416 -0.9148
  485TMC3    C8 7221   1.462   0.103  12.451  0.2503  0.2982 -0.3543
  485TMC3    O1 7222   1.493   0.407  12.017 -0.5088 -0.9216 -0.3624
  485TMC3    O2 7223   1.483   0.048  12.345 -0.2720 -0.5973  0.1465
  486MPD2     C 7224   2.726   3.974  13.187  0.6561  0.6208  0.2697
  486MPD2    C1 7225   2.726   3.987  13.053  0.4277  0.4556  0.2011
  486MPD2    C2 7226   2.732   4.115  13.006 -0.1873  0.1219  0.5219
  486MPD2    C3 7227   2.743   4.224  13.086 -0.1465  0.2492  0.2977
  486MPD2    C4 7228   2.759   4.209  13.222  0.2378 -0.7278  0.1046
  486MPD2    C5 7229   2.742   4.080  13.270 -0.4480 -0.3745 -0.4318
  486MPD2     H 7230   2.743   4.125  12.899  0.0556 -1.3845  0.4144
  486MPD2    H1 7231   2.782   4.287  13.294  1.2806  0.5080 -1.5811
  486MPD2    H2 7232   2.723   3.880  13.240  1.6456  0.2441 -0.3331
  486MPD2    H3 7233   2.748   4.061  13.376 -0.7157 -0.6426 -0.4657
  486MPD2     N 7234   2.738   4.353  13.026  0.0183 -0.5066  0.5338
  486MPD2    H5 7235   2.739   4.357  12.925  4.3020 -0.6332  0.5592
  486MPD2    N1 7236   2.720   3.869  12.967 -1.1831  0.2180 -0.5007
  486MPD2    H7 7237   2.726   3.774  13.001  2.1763  0.1327 -1.3437
  487TMC3    C1 7238   2.682   3.736  12.775 -0.7666  0.3799 -0.3235
  487TMC3    C2 7239   2.562   3.713  12.705  0.3900  0.1074 -0.7515
  487TMC3    C3 7240   2.540   3.583  12.675  0.3303  0.1013 -0.2405
  487TMC3    C4 7241   2.786   3.646  12.794 -0.2431 -0.1060 -0.4339
  487TMC3    C5 7242   2.751   3.516  12.759 -0.7311 -0.7527  0.1378
  487TMC3    C6 7243   2.632   3.483  12.690 -0.1963 -0.1945 -0.2035
  487TMC3     C 7244   2.696   3.869  12.832  0.6839 -0.7985 -0.2858
  487TMC3     O 7245   2.670   3.963  12.761 -0.0446 -0.0010  0.6824
  487TMC3     H 7246   2.482   3.785  12.688  2.3050  2.3918 -0.1530
  487TMC3    H1 7247   2.882   3.670  12.837  0.4295 -1.8264 -0.9655
  487TMC3    H2 7248   2.607   3.379  12.676 -2.5075  0.4005 -0.4890
  487TMC3    C7 7249   2.846   3.413  12.785 -0.0331  0.1743 -1.1789
  487TMC3    C8 7250   2.409   3.548  12.735  0.0772 -0.1949  0.8643
  487TMC3    O1 7251   2.857   3.328  12.694  0.4167  0.2334  0.1809
  487TMC3    O2 7252   2.363   3.632  12.812  0.0102  0.3369 -0.1488
  488MPD2     C 7253   3.233   0.422  16.449  0.1228 -0.0395 -0.2567
  488MPD2    C1 7254   3.257   0.530  16.526 -0.0555  0.5426 -0.7514
  488MPD2    C2 7255   3.232   0.528  16.665  0.2644 -0.2721  0.6937
  488MPD2    C3 7256   3.164   0.427  16.726  0.1157  0.6035  0.3530
  488MPD2    C4 7257   3.166   0.310  16.652 -0.1335 -0.4978 -0.4554
  488MPD2    C5 7258   3.202   0.307  16.519 -0.0149 -0.3305 -0.4036
  488MPD2     H 7259   3.241   0.619  16.723  0.3697  0.5933 -0.6530
  488MPD2    H1 7260   3.118   0.222  16.692  0.8205 -1.4710 -1.4392
  488MPD2    H2 7261   3.261   0.421  16.345  0.5932  2.4800 -0.1591
  488MPD2    H3 7262   3.207   0.210  16.471  0.8236  0.3193 -1.6343
  488MPD2     N 7263   3.124   0.438  16.860  0.4543  0.4766  0.3212
  488MPD2    H5 7264   3.135   0.532  16.897 -2.0565  0.7192  0.4451
  488MPD2    N1 7265   3.309   0.658  16.464 -0.2591 -0.4845  0.2440
  488MPD2    H7 7266   3.313   0.737  16.528 -0.6904 -1.9792  2.1503
  489TMC3    C1 7267   3.052   0.375  17.071  0.2295  0.3212 -0.5422
  489TMC3    C2 7268   3.144   0.462  17.121 -0.2652 -0.3295 -0.1774
  489TMC3    C3 7269   3.113   0.515  17.241 -1.0607  0.3472  0.1832
  489TMC3    C4 7270   2.947   0.324  17.143  0.7494  0.0831  0.0655
  489TMC3    C5 7271   2.921   0.382  17.262 -0.2620  0.3694  0.1519
  489TMC3    C6 7272   3.001   0.482  17.310  0.1126  0.1012  0.1139
  489TMC3     C 7273   3.067   0.340  16.930  0.4453  0.4580  0.7926
  489TMC3     O 7274   3.031   0.225  16.901  0.3279  0.0586  0.2041
  489TMC3     H 7275   3.238   0.486  17.072  0.0732 -1.2076  0.0406
  489TMC3    H1 7276   2.888   0.247  17.094  0.7726  0.1468 -0.0614
  489TMC3    H2 7277   2.977   0.536  17.401 -0.4420  0.5179 -0.2772
  489TMC3    C7 7278   2.798   0.328  17.328  0.2651  0.8381 -0.1003
  489TMC3    C8 7279   3.170   0.651  17.261 -0.7273 -0.6655 -0.2187
  489TMC3    O1 7280   2.804   0.319  17.448 -0.5077 -0.4461  0.0125
  489TMC3    O2 7281   3.270   0.671  17.197  0.2976 -0.2760  0.1539
  490MPD2     C 7282   3.987   0.525  17.186  0.4997  0.1529  0.2657
  490MPD2    C1 7283   3.972   0.394  17.228 -0.9752 -0.8109  0.5367
  490MPD2    C2 7284   4.062   0.326  17.314 -0.1013 -0.3900  0.1567
  490MPD2    C3 7285   4.171   0.397  17.362 -0.4491  0.3896 -0.0702
  490MPD2    C4 7286   4.185   0.532  17.322 -0.0134 -0.7320 -0.2868
  490MPD2    C5 7287   4.092   0.590  17.238 -0.0595  0.4060 -0.0232
  490MPD2     H 7288   4.026   0.229  17.344 -1.7765 -0.5654 -2.3947
  490MPD2    H1 7289   4.267   0.588  17.364 -0.6985  1.5611 -2.0019
  490MPD2    H2 7290   3.929   0.579  17.113  0.6431  0.3640  0.3083
  490MPD2    H3 7291   4.107   0.695  17.215 -0.8256  0.1387 -1.6901
  490MPD2     N 7292   4.262   0.343  17.455 -0.2630 -0.1179  0.3900
  490MPD2    H5 7293   4.329   0.408  17.496  1.2767 -0.6226 -1.3220
  490MPD2    N1 7294   3.871   0.313  17.174 -0.2577 -0.3348 -0.6451
  490MPD2    H7 7295   3.863   0.224  17.223  0.8431  0.3028  0.7206
  491TMC3    C1 7296   3.710   0.233  17.034  0.5455 -0.2350 -0.3541
  491TMC3    C2 7297   3.637   0.179  17.134  0.1135 -0.0916  0.4238
  491TMC3    C3 7298   3.599   0.051  17.126  0.4187  0.0679  0.1283
  491TMC3    C4 7299   3.743   0.165  16.920  0.6856  1.0442  0.4762
  491TMC3    C5 7300   3.692   0.036  16.913 -0.6069 -0.1810 -0.1717
  491TMC3    C6 7301   3.620   4.705  17.013  0.3700  0.4697 -0.4378
  491TMC3     C 7302   3.800   0.338  17.060 -0.2857 -0.7036 -0.0964
  491TMC3     O 7303   3.841   0.412  16.970  0.2722  0.2993 -0.0796
  491TMC3     H 7304   3.623   0.244  17.220 -3.0238  1.6794 -1.4018
  491TMC3    H1 7305   3.803   0.204  16.838 -0.8441  1.3708 -0.4917
  491TMC3    H2 7306   3.556   4.620  16.994 -0.3813  1.5209 -2.6856
  491TMC3    C7 7307   3.766   4.669  16.837 -0.7983  0.2057  0.1554
  491TMC3    C8 7308   3.583   4.697  17.247 -0.7738 -0.8065  0.2523
  491TMC3    O1 7309   3.716   4.559  16.823 -0.0201 -0.6565  0.1898
  491TMC3    O2 7310   3.571   0.029  17.349  0.5473  0.4487 -0.0067
  492MPD2     C 7311   4.409   0.429  11.834 -0.6357  0.7943 -0.0545
  492MPD2    C1 7312   4.334   0.336  11.764 -0.8974 -0.1046  0.7384
  492MPD2    C2 7313   4.248   0.250  11.827  0.6102 -0.4388 -0.1976
  492MPD2    C3 7314   4.240   0.254  11.965 -0.5918 -0.3319 -0.4826
  492MPD2    C4 7315   4.313   0.344  12.040 -0.0161 -0.0204  1.1031
  492MPD2    C5 7316   4.399   0.424  11.969 -0.2171 -0.2032 -0.0759
  492MPD2     H 7317   4.183   0.183  11.774  1.2594  0.9172 -2.7008
  492MPD2    H1 7318   4.308   0.355  12.148  2.4935  0.1589  1.2045
  492MPD2    H2 7319   4.476   0.500  11.786  1.8397 -1.3777  0.1927
  492MPD2    H3 7320   4.469   0.494  12.013  1.5430 -2.5177  0.8426
  492MPD2     N 7321   4.146   0.169  12.034  0.4877 -0.1529 -0.5826
  492MPD2    H5 7322   4.144   0.167  12.135 -0.0652  1.3256 -0.5756
  492MPD2    N1 7323   4.371   0.329  11.624 -0.7805  0.3642 -0.2388
  492MPD2    H7 7324   4.414   0.408  11.576 -0.2762 -0.6510 -1.4467
  493TMC3    C1 7325   4.358   0.253  11.401 -0.4519  0.0216 -0.6778
  493TMC3    C2 7326   4.448   0.346  11.367  0.0174 -0.2990 -0.3668
  493TMC3    C3 7327   4.464   0.378  11.239 -0.3441  0.5689 -0.1360
  493TMC3    C4 7328   4.287   0.175  11.311 -0.4277 -0.2634  0.1931
  493TMC3    C5 7329   4.315   0.197  11.179  0.1309 -0.0094  1.0358
  493TMC3    C6 7330   4.400   0.302  11.145 -0.0693 -0.3016 -0.2932
  493TMC3     C 7331   4.320   0.231  11.543 -0.5516 -0.3344 -0.0265
  493TMC3     O 7332   4.260   0.123  11.564  0.4363  0.2923 -0.1908
  493TMC3     H 7333   4.514   0.392  11.439  0.8176  2.1751 -2.6517
  493TMC3    H1 7334   4.217   0.099  11.344 -1.3349  0.1417 -0.7714
  493TMC3    H2 7335   4.430   0.317  11.041  0.8968 -2.7431 -0.3543
  493TMC3    C7 7336   4.250   0.125  11.072 -0.3517 -0.1564 -0.0140
  493TMC3    C8 7337   4.599   0.424  11.208 -0.4059  0.1580 -0.0594
  493TMC3    O1 7338   4.242   0.186  10.966 -0.1475 -0.5492 -0.2571
  493TMC3    O2 7339   4.681   0.369  11.278  0.1881  0.3262  0.4009
  494TMC3    C1 7340   0.215   1.955   0.168  0.0299 -0.3013 -0.2381
  494TMC3    C2 7341   0.249   1.862   0.257  0.4798  0.1233  0.4766
  494TMC3    C3 7342   0.253   1.732   0.216 -0.4106  0.2321 -0.7233
  494TMC3    C4 7343   0.188   1.920   0.040  0.2681  0.2130 -1.4676
  494TMC3    C5 7344   0.172   1.790   0.005  0.5968  0.1462  0.6527
  494TMC3    C6 7345   0.201   1.698   0.096  0.3422  0.4587 -0.3391
  494TMC3     C 7346   0.250   2.099   0.205 -0.2462  0.5062 -0.1013
  494TMC3     O 7347   0.307   2.128   0.309 -0.7305  0.1166  1.0680
  494TMC3     H 7348   0.284   1.875   0.359 -0.5006  0.2514  0.7997
  494TMC3    H1 7349   0.146   1.994  17.683  0.0692  1.8828  0.5208
  494TMC3    H2 7350   0.173   1.595   0.078  1.6687  0.4969 -2.7206
  494TMC3    C7 7351   0.157   1.769  17.577  0.0954  0.2641  0.1668
  494TMC3    C8 7352   0.287   1.630   0.310  0.2464 -0.3800 -0.3844
  494TMC3    O1 7353   0.172   1.869  17.509  0.0951  0.0815  0.1761
  494TMC3    O2 7354   0.261   1.650   0.428 -0.3241 -0.0619  0.0343
  495TMC3    C1 7355   3.695   3.620  14.336  1.0024  0.2199  0.1964
  495TMC3    C2 7356   3.618   3.657  14.230 -0.1473 -0.5813 -0.6162
  495TMC3    C3 7357   3.585   3.790  14.232  0.2475 -0.1209 -0.0102
  495TMC3    C4 7358   3.722   3.705  14.443 -0.4707  0.2910  0.1535
  495TMC3    C5 7359   3.689   3.834  14.433  0.2037 -0.6343 -0.2361
  495TMC3    C6 7360   3.620   3.875  14.329  0.2613  0.8602  0.3382
  495TMC3     C 7361   3.686   3.482  14.375  0.6674 -0.5916 -0.6304
  495TMC3     O 7362   3.680   3.444  14.490 -0.5402 -0.7480 -0.1311
  495TMC3     H 7363   3.561   3.587  14.171  0.2132 -1.7057  0.3823
  495TMC3    H1 7364   3.764   3.655  14.530  3.1565  1.4815 -0.8944
  495TMC3    H2 7365   3.601   3.982  14.330  1.8284  1.1512 -0.0822
  495TMC3    C7 7366   3.642   3.893  14.560 -0.3202 -0.1940 -0.5480
  495TMC3    C8 7367   3.461   3.823  14.165  0.1917  0.0397  0.5060
  495TMC3    O1 7368   3.729   3.903  14.644  0.9119 -0.4007  0.6397
  495TMC3    O2 7369   3.399   3.913  14.223 -0.0610 -0.3308  0.0579
  496MPD2     C 7370   1.552   3.888  15.823 -0.0295  0.4127  1.2384
  496MPD2    C1 7371   1.465   3.851  15.722 -0.4779 -0.1652  0.1345
  496MPD2    C2 7372   1.336   3.886  15.738  0.3372  0.0111  0.2045
  496MPD2    C3 7373   1.284   3.953  15.846  0.1182  0.0646  0.0520
  496MPD2    C4 7374   1.371   3.982  15.947 -0.3934  0.4402  0.2338
  496MPD2    C5 7375   1.502   3.950  15.934 -0.2705 -0.6897 -0.4243
  496MPD2     H 7376   1.266   3.850  15.663  0.9787 -2.0165  0.5621
  496MPD2    H1 7377   1.332   4.035  16.033 -0.7083  1.0836 -0.3011
  496MPD2    H2 7378   1.656   3.860  15.819  0.0246  0.4351  2.3799
  496MPD2    H3 7379   1.571   3.968  16.016 -0.9195  1.5988 -0.4047
  496MPD2     N 7380   1.147   3.983  15.867  0.2025  0.2984 -0.3809
  496MPD2    H5 7381   1.120   4.026  15.955  4.2205 -1.8488  1.9239
  496MPD2    N1 7382   1.513   3.768  15.616  0.2596  0.3145 -0.3594
  496MPD2    H7 7383   1.595   3.710  15.627  0.2969  0.6774  1.3011
  497TMC3    C1 7384   0.905   3.962  15.829  0.3208  0.5214 -0.3294
  497TMC3    C2 7385   0.808   3.905  15.747 -0.2584  0.3464 -0.4770
  497TMC3    C3 7386   0.678   3.913  15.796  0.2007 -0.1705  0.6903
  497TMC3    C4 7387   0.873   4.029  15.944 -0.5427 -0.3320  0.0466
  497TMC3    C5 7388   0.739   4.041  15.983 -0.2507 -0.2350 -0.2726
  497TMC3    C6 7389   0.638   3.983  15.908 -0.3473  0.5665 -0.1122
  497TMC3     C 7390   1.047   3.964  15.775 -0.1392 -0.1447  0.6024
  497TMC3     O 7391   1.062   3.952  15.650  0.0988 -0.0294  0.3527
  497TMC3     H 7392   0.844   3.840  15.669 -0.7632 -0.0457 -0.3834
  497TMC3    H1 7393   0.948   4.084  16.000 -1.9270  1.4457  0.1522
  497TMC3    H2 7394   0.533   3.985  15.934 -0.8194 -0.6614 -1.9009
  497TMC3    C7 7395   0.703   4.117  16.090 -0.2056 -0.1046  0.6271
  497TMC3    C8 7396   0.573   3.833  15.729 -0.6815  0.6176 -0.4995
  497TMC3    O1 7397   0.587   4.156  16.090 -0.4369  0.6683  1.1185
  497TMC3    O2 7398   0.461   3.829  15.784 -0.1783 -0.0566  0.7126
  498MPD2     C 7399   1.876   4.706   9.831 -0.0326  0.5240 -1.4167
  498MPD2    C1 7400   1.937   4.602   9.756  0.1001  0.0426 -0.0415
  498MPD2    C2 7401   1.877   4.484   9.730  0.4315  0.1879  0.2502
  498MPD2    C3 7402   1.746   4.468   9.770 -0.0873 -0.0049  0.6364
  498MPD2    C4 7403   1.680   4.568   9.840 -0.3079  0.0773 -0.5052
  498MPD2    C5 7404   1.750   4.678   9.877 -0.8995  0.2512  0.3299
  498MPD2     H 7405   1.926   4.413   9.665  1.4420  0.9393  0.1850
  498MPD2    H1 7406   1.574   4.570   9.865 -0.5006 -0.5343 -1.2687
  498MPD2    H2 7407   1.924   0.070   9.861  2.4158 -0.6598 -1.7443
  498MPD2    H3 7408   1.688   0.030   9.916 -2.0926  1.1746 -3.5079
  498MPD2     N 7409   1.673   4.346   9.737  0.2067 -0.1874 -0.2389
  498MPD2    H5 7410   1.714   4.264   9.693  0.2677 -0.1813 -0.1937
  498MPD2    N1 7411   2.066   4.612   9.712  0.2297 -0.3595 -0.5683
  498MPD2    H7 7412   2.109   4.531   9.669 -0.8052 -0.2429 -1.8495
  499TMC3    C1 7413   2.269   0.019   9.684 -0.5379 -0.2991  0.1187
  499TMC3    C2 7414   2.345   4.638   9.701 -0.0304  0.1197  0.4474
  499TMC3    C3 7415   2.473   4.639   9.648  0.5586  0.2939 -0.4994
  499TMC3    C4 7416   2.317   0.125   9.608  0.2388  0.0421  0.3713
  499TMC3    C5 7417   2.444   0.119   9.553 -0.2764  0.5408 -0.6044
  499TMC3    C6 7418   2.523   0.009   9.568  0.2492  0.1464  0.2877
  499TMC3     C 7419   2.127   0.010   9.711  0.6821  0.0565  0.1117
  499TMC3     O 7420   2.077   0.123   9.716  0.0075 -0.3037  0.2296
  499TMC3     H 7421   2.315   4.541   9.737  0.5553  0.5053  1.9583
  499TMC3    H1 7422   2.252   0.210   9.594 -0.7731 -0.8776 -0.5521
  499TMC3    H2 7423   2.628   0.027   9.550  0.0713 -1.2353 -2.1230
  499TMC3    C7 7424   2.489   0.235   9.480  0.1107  0.6646  0.4333
  499TMC3    C8 7425   2.546   4.524   9.682 -0.2821 -0.3763 -0.4786
  499TMC3    O1 7426   2.438   0.345   9.511  0.2854 -0.6686  0.1107
  499TMC3    O2 7427   2.513   4.465   9.781 -0.3522 -0.0519  0.1177
  500MPD2     C 7428   3.320   1.084  10.649  0.4447  0.2408  0.3024
  500MPD2    C1 7429   3.376   1.136  10.530  0.2318  0.4873  0.1299
  500MPD2    C2 7430   3.295   1.132  10.416  0.4521 -0.3826  0.1347
  500MPD2    C3 7431   3.161   1.093  10.418 -0.2786  0.5531  0.2080
  500MPD2    C4 7432   3.107   1.043  10.536  0.2613  0.5664  0.7716
  500MPD2    C5 7433   3.193   1.039  10.651 -0.5457  0.8634  0.0995
  500MPD2     H 7434   3.325   1.186  10.328 -0.5341 -0.3370 -0.1713
  500MPD2    H1 7435   3.006   1.006  10.549  0.6140 -0.1848  1.4030
  500MPD2    H2 7436   3.376   1.068  10.740 -1.3148  1.4094  1.5802
  500MPD2    H3 7437   3.154   0.988  10.738  2.0909 -0.3396  0.5766
  500MPD2     N 7438   3.085   1.093  10.301  0.4332  0.3269  0.1111
  500MPD2    H5 7439   2.991   1.058  10.311  0.5901  0.4060  1.8545
  500MPD2    N1 7440   3.508   1.192  10.518 -0.4383 -0.3089  0.8488
  500MPD2    H7 7441   3.532   1.242  10.433  0.7645  0.4696  1.6489
  501TMC3    C1 7442   3.740   1.242  10.586 -0.3433 -0.3044 -0.2150
  501TMC3    C2 7443   3.744   1.355  10.511  0.0771  0.2658 -0.3561
  501TMC3    C3 7444   3.861   1.427  10.515  0.1417  0.3068  0.5731
  501TMC3    C4 7445   3.844   1.196  10.659  0.0176  0.1373  0.1716
  501TMC3    C5 7446   3.958   1.270  10.663 -0.1281  0.2930  0.1189
  501TMC3    C6 7447   3.966   1.392  10.595 -0.4753 -0.0875 -0.0508
  501TMC3     C 7448   3.612   1.172  10.604 -0.1497  0.2503  0.0851
  501TMC3     O 7449   3.621   1.089  10.692 -0.5988 -0.2960 -0.4292
  501TMC3     H 7450   3.653   1.393  10.465  2.6120  4.8626 -1.6152
  501TMC3    H1 7451   3.846   1.100  10.711  0.9474  0.9044  1.5600
  501TMC3    H2 7452   4.062   1.443  10.600 -1.3494  1.6716 -1.1539
  501TMC3    C7 7453   4.075   1.220  10.725 -0.5086  0.1888  0.1051
  501TMC3    C8 7454   3.879   1.551  10.446  0.5654 -0.0785 -0.0324
  501TMC3    O1 7455   4.060   1.123  10.801 -0.6060 -0.4614  0.2225
  501TMC3    O2 7456   3.988   1.605  10.466  0.4358 -0.3445 -0.1945
  502TMC3    C1 7457   3.155   4.637  14.732  0.9022 -0.4699  0.6687
  502TMC3    C2 7458   3.079   4.727  14.664 -0.7640  0.4312  1.0140
  502TMC3    C3 7459   2.947   4.702  14.653  0.1433 -0.2023 -0.2660
  502TMC3    C4 7460   3.104   4.521  14.774  0.0138 -0.3966  0.4221
  502TMC3    C5 7461   2.971   4.494  14.762 -0.6391  0.7149 -0.5556
  502TMC3    C6 7462   2.891   4.582  14.685  0.0442  0.0207  0.6518
  502TMC3     C 7463   3.260   4.706  14.808 -0.1519  0.3724 -0.3273
  502TMC3     O 7464   3.321   0.075  14.758  0.5444 -0.2031  0.6938
  502TMC3     H 7465   3.129   0.091  14.633 -0.9860  0.1207 -0.2567
  502TMC3    H1 7466   3.159   4.453  14.838 -1.2150 -2.3368 -0.5803
  502TMC3    H2 7467   2.783   4.569  14.686 -0.0168  0.6214  1.9120
  502TMC3    C7 7468   2.925   4.472  14.899 -0.1200  0.9947 -0.2348
  502TMC3    C8 7469   2.851   0.082  14.651 -0.4211 -0.1120 -0.5507
  502TMC3    O1 7470   3.010   4.463  14.988 -0.6787 -0.0497  0.0736
  502TMC3    O2 7471   2.731   0.052  14.635 -0.1625  0.0313  0.1252
  503MPD2     C 7472   0.177   0.430  16.903  0.5872 -0.0398  0.2088
  503MPD2    C1 7473   0.301   0.488  16.940 -0.1112 -0.3358  0.1672
  503MPD2    C2 7474   0.406   0.407  16.980 -0.4055 -0.4025 -0.0538
  503MPD2    C3 7475   0.388   0.275  16.981 -0.4591 -0.5875  0.3769
  503MPD2    C4 7476   0.261   0.224  16.964 -0.3346  0.0728  0.0149
  503MPD2    C5 7477   0.157   0.297  16.927  0.2382 -0.2431 -0.2839
  503MPD2     H 7478   0.504   0.449  17.002 -0.9448  0.7050  0.2573
  503MPD2    H1 7479   0.236   0.119  16.969  1.7218 -0.4437 -0.7702
  503MPD2    H2 7480   0.091   0.493  16.880 -0.6974 -1.8774  0.0297
  503MPD2    H3 7481   0.054   0.268  16.909 -0.3558  1.1540  0.8891
  503MPD2     N 7482   0.489   0.180  17.004  0.0724 -0.3328  0.2832
  503MPD2    H5 7483   0.467   0.082  17.002 -3.2890  0.4750 -1.4536
  503MPD2    N1 7484   0.319   0.626  16.939 -0.3834 -0.2705 -0.2522
  503MPD2    H7 7485   0.392   0.661  16.999 -1.7325 -1.0248  1.8201
  504TMC3    C1 7486   0.704   0.123  17.060 -0.2577  0.2028 -0.2366
  504TMC3    C2 7487   0.661   0.053  17.172 -1.1332  0.3238  0.5600
  504TMC3    C3 7488   0.752   4.702  17.236 -0.3131 -0.2232 -0.0986
  504TMC3    C4 7489   0.827   0.117  17.017  0.4934  0.6757 -0.7766
  504TMC3    C5 7490   0.910   0.015  17.063  0.0609 -0.1609 -0.0935
  504TMC3    C6 7491   0.872   4.677  17.181 -0.1089 -0.0097 -0.1265
  504TMC3     C 7492   0.623   0.217  17.003 -0.4019 -0.1187  0.6370
  504TMC3     O 7493   0.677   0.316  16.961 -0.3280 -0.0465 -0.0613
  504TMC3     H 7494   0.557   0.046  17.199 -1.5333 -0.0528 -1.0939
  504TMC3    H1 7495   0.849   0.166  16.923  0.1944  1.9268 -0.1803
  504TMC3    H2 7496   0.926   4.592  17.222  1.1764  0.8446 -0.0509
  504TMC3    C7 7497   1.047   0.017  16.999 -0.3885  1.0346  0.2551
  504TMC3    C8 7498   0.710   4.673  17.375  0.6487  0.3668 -0.1679
  504TMC3    O1 7499   1.089   0.119  16.943 -0.0536  0.3270 -0.6128
  504TMC3    O2 7500   0.596   4.705  17.410 -0.1573 -0.1951  0.1063
  505MPD2     C 7501   0.740   3.213   9.379  0.4121 -0.3886 -0.3780
  505MPD2    C1 7502   0.862   3.160   9.417  0.2133  0.2838 -0.5925
  505MPD2    C2 7503   0.892   3.143   9.552  0.4930  0.3137  0.2755
  505MPD2    C3 7504   0.805   3.185   9.649 -1.0492  0.0485  0.1542
  505MPD2    C4 7505   0.680   3.230   9.608 -0.3540  0.5565 -0.7696
  505MPD2    C5 7506   0.654   3.250   9.478 -0.4519 -0.8977  0.1299
  505MPD2     H 7507   0.981   3.097   9.594  0.6745  1.0538  0.7017
  505MPD2    H1 7508   0.601   3.253   9.678 -0.6320 -1.3393 -0.4571
  505MPD2    H2 7509   0.707   3.244   9.280  0.5173 -0.5166 -0.4541
  505MPD2    H3 7510   0.560   3.294   9.449 -0.4647 -0.7799  0.3532
  505MPD2     N 7511   0.844   3.175   9.782 -0.1939  0.2490  0.0925
  505MPD2    H5 7512   0.933   3.127   9.796  1.0722  2.5602 -0.0404
  505MPD2    N1 7513   0.956   3.126   9.315  0.0473  0.2244 -0.2692
  505MPD2    H7 7514   0.935   3.158   9.221 -2.0164  0.7376  0.3740
  506TMC3    C1 7515   1.179   3.062   9.226  0.4422  0.8265 -0.2000
  506TMC3    C2 7516   1.205   3.187   9.177 -0.4046 -0.7486 -0.0266
  506TMC3    C3 7517   1.333   3.225   9.140  1.0527  1.0022 -0.1232
  506TMC3    C4 7518   1.287   2.986   9.263 -0.9015 -0.0101  0.0883
  506TMC3    C5 7519   1.414   3.028   9.245 -0.1492  0.1404  0.3269
  506TMC3    C6 7520   1.436   3.144   9.179 -0.5622  0.2037  0.9456
  506TMC3     C 7521   1.081   3.062   9.336  0.8518 -0.6554  0.7117
  506TMC3     O 7522   1.123   3.013   9.441  0.4651  0.3416  0.2571
  506TMC3     H 7523   1.127   3.248   9.135  1.1762  1.4552  0.2686
  506TMC3    H1 7524   1.271   2.883   9.294 -0.7356 -0.0376  0.0784
  506TMC3    H2 7525   1.535   3.185   9.162 -0.7384 -0.3376 -1.3835
  506TMC3    C7 7526   1.487   3.030   9.360 -0.1824 -0.3683 -0.3152
  506TMC3    C8 7527   1.359   3.357   9.096 -0.4301  0.0729  0.0683
  506TMC3    O1 7528   1.603   3.070   9.351 -0.6454 -0.0407 -0.2834
  506TMC3    O2 7529   1.299   3.383   8.995  0.3599  0.5151 -0.1516
  507TMC3    C1 7530   1.667   0.209  14.482  0.0288 -0.2731 -0.6604
  507TMC3    C2 7531   1.627   0.121  14.385  1.1739  0.6118 -0.5842
  507TMC3    C3 7532   1.664   0.149  14.257  0.5780 -0.3842 -0.0126
  507TMC3    C4 7533   1.742   0.324  14.451 -0.2195  0.9010  0.4693
  507TMC3    C5 7534   1.777   0.351  14.326  0.1251 -0.6690  0.1358
  507TMC3    C6 7535   1.750   0.255  14.228 -0.5331  0.5035  0.9017
  507TMC3     C 7536   1.585   0.220  14.603 -0.0898  0.6852 -0.7104
  507TMC3     O 7537   1.615   0.318  14.666 -0.5702 -0.3168  0.5923
  507TMC3     H 7538   1.544   0.053  14.398  0.2918  1.8589  0.3892
  507TMC3    H1 7539   1.776   0.386  14.533  1.1121 -1.3424  1.6175
  507TMC3    H2 7540   1.780   0.273  14.126 -2.3771 -4.4151 -0.5020
  507TMC3    C7 7541   1.707   0.471  14.289 -1.1105  0.3170 -0.2779
  507TMC3    C8 7542   1.574   0.108  14.149 -0.5206 -0.0405 -0.3399
  507TMC3    O1 7543   1.645   0.452  14.181 -0.0696  0.1702  0.1043
  507TMC3    O2 7544   1.509   0.003  14.154 -0.4603  0.7942 -0.3560
  508MPD2     C 7545   2.459   2.301  16.021  0.0616  0.3402  0.1667
  508MPD2    C1 7546   2.412   2.428  16.034  0.0689 -0.4063 -0.2391
  508MPD2    C2 7547   2.412   2.501  15.917 -0.3928 -0.7317  0.0054
  508MPD2    C3 7548   2.456   2.458  15.794  0.2991 -0.3921  0.2548
  508MPD2    C4 7549   2.500   2.330  15.780  0.0889 -0.1264 -0.3260
  508MPD2    C5 7550   2.505   2.251  15.898  0.5163  0.3498 -0.4153
  508MPD2     H 7551   2.378   2.604  15.918  0.2463 -0.5445  2.6744
  508MPD2    H1 7552   2.502   2.270  15.690  0.4211 -1.1021  0.3320
  508MPD2    H2 7553   2.461   2.238  16.110 -1.1235 -1.0128 -0.7589
  508MPD2    H3 7554   2.544   2.150  15.897  1.2712  0.6377 -0.1488
  508MPD2     N 7555   2.443   2.541  15.686  0.5240 -0.1611 -0.2581
  508MPD2    H5 7556   2.418   2.637  15.707  4.5639  0.4101  1.8908
  508MPD2    N1 7557   2.380   2.484  16.156  0.0975  0.4310 -1.1745
  508MPD2    H7 7558   2.383   2.585  16.166 -0.6984  0.1636  1.7430
  509TMC3    C1 7559   2.341   2.807  15.403  0.3592  0.0086 -0.4602
  509TMC3    C2 7560   2.456   2.862  15.356 -0.0406  0.0676 -0.3509
  509TMC3    C3 7561   2.568   2.794  15.366 -0.1240  0.8942 -0.3793
  509TMC3    C4 7562   2.338   2.685  15.465 -0.1903 -0.5505 -0.6550
  509TMC3    C5 7563   2.455   2.610  15.466 -0.3091 -0.7975  0.2248
  509TMC3    C6 7564   2.573   2.670  15.417  0.1764 -0.1971 -0.0184
  509TMC3     C 7565   2.216   2.877  15.394 -0.3324  0.2839 -0.0766
  509TMC3     O 7566   2.111   2.810  15.388 -0.5360  0.3692 -0.8180
  509TMC3     H 7567   2.445   2.952  15.296 -0.5547 -0.6451 -1.3383
  509TMC3    H1 7568   2.249   2.639  15.506 -0.9950  1.3716 -0.2821
  509TMC3    H2 7569   2.663   2.609  15.421 -0.1872 -0.6106  1.6574
  509TMC3    C7 7570   2.480   2.502  15.557 -0.6139 -0.3462  0.0191
  509TMC3    C8 7571   2.702   2.852  15.336  0.1362 -0.5446  0.6663
  509TMC3    O1 7572   2.530   2.405  15.506  0.3694  0.2299 -1.0244
  509TMC3    O2 7573   2.795   2.776  15.325  0.3100 -0.2758 -0.1817
  510MPD2     C 7574   0.237   4.508  14.837 -0.3016 -0.4275  0.6572
  510MPD2    C1 7575   0.302   4.398  14.898 -0.0196  0.1723  0.1854
  510MPD2    C2 7576   0.425   4.365  14.860  0.5148  0.1416  0.1238
  510MPD2    C3 7577   0.468   4.425  14.743  0.9043 -0.8867 -0.0008
  510MPD2    C4 7578   0.392   4.505  14.663 -0.5053 -0.7884 -0.4245
  510MPD2    C5 7579   0.273   4.551  14.710 -0.7937  0.0003  0.0364
  510MPD2     H 7580   0.483   4.300  14.924  0.0238  0.0095  0.4358
  510MPD2    H1 7581   0.422   4.537  14.564 -2.4485 -2.1968 -1.4822
  510MPD2    H2 7582   0.139   4.541  14.869  0.8609  1.4534  2.2667
  510MPD2    H3 7583   0.211   4.610  14.644  1.3988  2.6817  0.3839
  510MPD2     N 7584   0.593   4.376  14.703 -0.1480 -0.0385 -0.7278
  510MPD2    H5 7585   0.651   4.340  14.778  1.0794  0.9763 -1.2019
  510MPD2    N1 7586   0.224   4.333  15.001  0.6280 -0.4342  0.7393
  510MPD2    H7 7587   0.129   4.366  15.010  2.3329  4.7046 -0.3539
  511TMC3    C1 7588   0.152   4.136  15.113  0.0949  0.0109 -0.5846
  511TMC3    C2 7589   0.048   4.206  15.170  0.2291  0.1505 -0.3082
  511TMC3    C3 7590   4.660   4.142  15.200 -1.0678 -0.0455  0.8777
  511TMC3    C4 7591   0.146   3.999  15.099 -0.1036  0.5411  0.4626
  511TMC3    C5 7592   0.033   3.932  15.138  0.8079 -0.5006 -0.1795
  511TMC3    C6 7593   4.650   4.001  15.189  0.2913 -0.7933 -0.7819
  511TMC3     C 7594   0.257   4.204  15.045 -0.5544 -0.0525  0.4875
  511TMC3     O 7595   0.360   4.139  15.024 -0.1549  0.1358 -0.0997
  511TMC3     H 7596   0.063   4.311  15.193  1.5259 -0.5603  2.1756
  511TMC3    H1 7597   0.236   3.950  15.063  0.1334 -0.0504  1.8429
  511TMC3    H2 7598   4.553   3.955  15.175  1.2789 -2.4359 -2.1626
  511TMC3    C7 7599   0.013   3.802  15.089 -0.5699 -0.1878 -0.1979
  511TMC3    C8 7600   4.552   4.224  15.259  0.4113  0.9168  0.0372
  511TMC3    O1 7601   0.075   3.777  14.987  0.2766 -0.0637  0.4041
  511TMC3    O2 7602   4.561   4.344  15.244 -0.2058  0.5298  0.1344
  512TMC3    C1 7603   3.322   3.616  13.165 -0.1201 -0.5763 -0.2462
  512TMC3    C2 7604   3.383   3.540  13.261  0.4745  0.2329  0.4841
  512TMC3    C3 7605   3.432   3.416  13.235 -0.1839 -0.2979 -0.1431
  512TMC3    C4 7606   3.311   3.566  13.036 -0.0856  0.1115 -0.0253
  512TMC3    C5 7607   3.361   3.441  13.010  0.2567 -0.3609  0.4980
  512TMC3    C6 7608   3.413   3.358  13.107  0.5231 -0.3613  0.3488
  512TMC3     C 7609   3.320   3.764  13.196  0.5513 -0.3136  0.7854
  512TMC3     O 7610   3.347   3.801  13.311  0.2025  0.5357  0.7187
  512TMC3     H 7611   3.380   3.580  13.361  0.4679 -1.7031  1.2646
  512TMC3    H1 7612   3.268   3.623  12.954  1.2021  0.7085 -0.2717
  512TMC3    H2 7613   3.456   3.260  13.090 -1.0584 -0.5482 -2.5498
  512TMC3    C7 7614   3.369   3.406  12.868 -0.0480  1.6356 -0.1153
  512TMC3    C8 7615   3.524   3.358  13.323 -0.8031  0.2514  0.7252
  512TMC3    O1 7616   3.299   3.469  12.795  0.9001 -0.5547 -0.5395
  512TMC3    O2 7617   3.554   3.240  13.309 -0.3947  0.4241 -0.4644
  513MPD2     C 7618   0.373   3.005  13.006 -0.6415 -0.0077  0.7395
  513MPD2    C1 7619   0.437   3.108  12.945 -0.4127  0.0851  0.2442
  513MPD2    C2 7620   0.486   3.208  13.021  0.1018 -0.1396  0.0534
  513MPD2    C3 7621   0.472   3.213  13.163  0.6201 -0.4891 -0.4306
  513MPD2    C4 7622   0.420   3.100  13.223 -0.5373  0.5283  0.5601
  513MPD2    C5 7623   0.368   2.999  13.144 -0.2728 -0.3474  0.0091
  513MPD2     H 7624   0.538   3.289  12.971  0.0005 -1.1485 -1.6771
  513MPD2    H1 7625   0.417   3.083  13.330 -0.7836  2.3248  0.8411
  513MPD2    H2 7626   0.342   2.923  12.942  1.5837 -2.2739  2.5910
  513MPD2    H3 7627   0.330   2.904  13.180  1.8065 -0.4105  2.0189
  513MPD2     N 7628   0.521   3.327  13.234  0.6120  0.0558  0.5579
  513MPD2    H5 7629   0.543   3.405  13.174 -1.1244 -0.8897 -1.3195
  513MPD2    N1 7630   0.452   3.101  12.802 -0.2729  0.0798  0.4743
  513MPD2    H7 7631   0.420   3.025  12.744 -0.6665  0.6122 -0.0035
  514TMC3    C1 7632   0.476   3.195  12.579 -0.2241  0.1767 -0.0745
  514TMC3    C2 7633   0.539   3.084  12.529  0.0868 -0.4099 -0.2924
  514TMC3    C3 7634   0.616   3.094  12.415  0.2280  0.3489  0.1649
  514TMC3    C4 7635   0.487   3.312  12.518 -0.1136 -0.4021 -0.2676
  514TMC3    C5 7636   0.582   3.329  12.422  0.1764 -0.3805  0.0708
  514TMC3    C6 7637   0.635   3.218  12.361 -0.6265  0.0302  0.5893
  514TMC3     C 7638   0.494   3.210  12.727  0.1094  0.3602  0.3864
  514TMC3     O 7639   0.526   3.323  12.762  0.3581 -0.1265 -0.6118
  514TMC3     H 7640   0.505   2.992  12.577  0.8377  0.1838  1.3579
  514TMC3    H1 7641   0.448   3.402  12.564  2.2114  1.8021 -2.6604
  514TMC3    H2 7642   0.706   3.238  12.282 -0.1476  0.5890  1.1626
  514TMC3    C7 7643   0.684   3.436  12.454  0.2713  0.4617 -0.2785
  514TMC3    C8 7644   0.594   2.997  12.314 -0.2777  0.6453 -0.0323
  514TMC3    O1 7645   0.769   3.460  12.370  0.1948 -0.1553  0.3015
  514TMC3    O2 7646   0.510   2.915  12.344  0.2202  0.0216  0.1216
  515MPD2     C 7647   3.945   0.701  14.276 -0.1618  0.7391 -0.7106
  515MPD2    C1 7648   3.975   0.573  14.314 -0.6317  0.4250  0.6612
  515MPD2    C2 7649   4.052   0.547  14.431  0.0945 -0.1100  0.5995
  515MPD2    C3 7650   4.103   0.658  14.497  0.3347  0.2340 -0.6362
  515MPD2    C4 7651   4.073   0.785  14.453 -0.1972  0.2343 -0.0642
  515MPD2    C5 7652   3.996   0.806  14.346  0.0769 -0.2102 -0.7977
  515MPD2     H 7653   4.067   0.443  14.456  0.0137  0.3197  2.4386
  515MPD2    H1 7654   4.118   0.874  14.496 -0.4137  1.6940 -2.8219
  515MPD2    H2 7655   3.882   0.717  14.189 -1.0647  0.7222 -0.0639
  515MPD2    H3 7656   3.971   0.907  14.315 -1.1446 -0.3955 -0.4259
  515MPD2     N 7657   4.201   0.655  14.602  0.0458 -0.4124  0.1824
  515MPD2    H5 7658   4.235   0.740  14.646 -2.3274  0.6761 -0.0883
  515MPD2    N1 7659   3.937   0.460  14.245 -0.4578  0.4365  0.3838
  515MPD2    H7 7660   3.969   0.372  14.284 -0.3009 -0.0654 -0.8884
  516TMC3    C1 7661   3.822   0.315  14.090  0.1352 -0.1963  0.1205
  516TMC3    C2 7662   3.774   0.309  13.961 -0.1561 -0.0859  0.6654
  516TMC3    C3 7663   3.665   0.231  13.938 -0.1295 -0.9101 -0.4047
  516TMC3    C4 7664   3.782   0.230  14.190 -0.7833 -0.3051 -0.3570
  516TMC3    C5 7665   3.702   0.127  14.150 -0.7055 -0.1635  0.4570
  516TMC3    C6 7666   3.639   0.121  14.027 -0.0301 -0.4631  0.6397
  516TMC3     C 7667   3.854   0.454  14.134 -1.0755 -0.0948 -0.0825
  516TMC3     O 7668   3.803   0.541  14.065 -0.6727 -0.4871  0.7074
  516TMC3     H 7669   3.821   0.380  13.895 -1.2439 -0.4962 -0.5356
  516TMC3    H1 7670   3.806   0.249  14.294  0.4514  0.6071 -0.8066
  516TMC3    H2 7671   3.567   0.046  13.996 -0.1741  0.3920 -1.0802
  516TMC3    C7 7672   3.648   0.055  14.268 -0.0860 -0.1784 -0.1280
  516TMC3    C8 7673   3.553   0.290  13.875 -0.8468 -0.0272  0.1869
  516TMC3    O1 7674   3.699   0.078  14.374 -0.1219 -0.0315 -0.0811
  516TMC3    O2 7675   3.446   0.270  13.934 -0.0438 -0.0059 -0.2217
  517MPD2     C 7676   3.501   2.133   0.322  0.4199  0.4599  0.0869
  517MPD2    C1 7677   3.584   2.206   0.240  0.2275 -0.5802 -0.2316
  517MPD2    C2 7678   3.614   2.334   0.271 -0.5959  0.6425 -1.1451
  517MPD2    C3 7679   3.559   2.404   0.372 -0.2726 -0.3960  0.0155
  517MPD2    C4 7680   3.480   2.332   0.450  0.6803 -0.0847 -0.0021
  517MPD2    C5 7681   3.451   2.194   0.432  0.7318  0.4722  0.0357
  517MPD2     H 7682   3.691   2.381   0.212  0.2489  0.2657 -0.3461
  517MPD2    H1 7683   3.434   2.376   0.537  0.1556  1.7482 -1.2079
  517MPD2    H2 7684   3.490   2.026   0.312  4.4511  0.2409 -2.0498
  517MPD2    H3 7685   3.381   2.141   0.496  0.1741 -1.2361 -2.0077
  517MPD2     N 7686   3.584   2.544   0.404 -1.0826  0.5074  0.1165
  517MPD2    H5 7687   3.550   2.579   0.493 -0.9318 -1.3611  0.9042
  517MPD2    N1 7688   3.635   2.152   0.121  0.7356 -0.1972 -0.3605
  517MPD2    H7 7689   3.710   2.202   0.074 -0.0440  0.9083 -0.4335
  518TMC3    C1 7690   3.682   2.004  17.647 -0.3394  0.3043 -0.6585
  518TMC3    C2 7691   3.635   1.896  17.584 -0.1938  0.1390  0.0360
  518TMC3    C3 7692   3.724   1.812  17.520 -0.0826 -0.3496  0.0961
  518TMC3    C4 7693   3.816   2.035  17.642 -0.2654 -0.5063 -0.5922
  518TMC3    C5 7694   3.904   1.958  17.569 -0.2061 -0.2666  0.9348
  518TMC3    C6 7695   3.855   1.846  17.507  0.7643  0.7005 -0.0791
  518TMC3     C 7696   3.615   2.026   0.064 -0.4288  0.4895 -0.5644
  518TMC3     O 7697   3.542   1.939   0.103 -0.3002  0.3182  0.4220
  518TMC3     H 7698   3.528   1.879  17.594 -0.3164  0.8081 -0.1428
  518TMC3    H1 7699   3.850   2.119  17.701  2.0458 -2.1053  0.3385
  518TMC3    H2 7700   3.924   1.775  17.465 -0.7168 -0.7358 -0.0746
  518TMC3    C7 7701   4.039   1.973  17.604  0.1719  0.8671 -0.1556
  518TMC3    C8 7702   3.681   1.675  17.488  0.5306  0.1414 -0.2083
  518TMC3    O1 7703   4.064   2.025  17.710 -0.6086 -0.0988  0.0462
  518TMC3    O2 7704   3.773   1.606  17.437 -0.0225 -0.1554  0.2824
  519MPD2     C 7705   0.684   0.480  14.655 -0.0048  0.4868  0.4413
  519MPD2    C1 7706   0.636   0.529  14.532 -0.2404  0.5679 -0.3041
  519MPD2    C2 7707   0.700   0.494  14.417 -0.8526 -0.2484 -0.1193
  519MPD2    C3 7708   0.800   0.396  14.415 -0.2976  0.7660 -0.1133
  519MPD2    C4 7709   0.827   0.335  14.535  0.0770  0.3166 -0.7090
  519MPD2    C5 7710   0.770   0.373  14.647 -0.1759  1.0306  0.1200
  519MPD2     H 7711   0.659   0.539  14.328 -2.6843 -1.7100  0.0002
  519MPD2    H1 7712   0.904   0.258  14.534 -0.9599 -0.7325  0.0369
  519MPD2    H2 7713   0.640   0.519  14.746 -0.6446  0.6984  0.0477
  519MPD2    H3 7714   0.812   0.336  14.740 -2.3756  0.6679  0.9696
  519MPD2     N 7715   0.858   0.338  14.297 -1.0863  0.0112  0.4074
  519MPD2    H5 7716   0.904   0.248  14.305 -1.4570 -0.3039 -1.1407
  519MPD2    N1 7717   0.525   0.620  14.541  0.3988 -0.1922 -0.6958
  519MPD2    H7 7718   0.478   0.611  14.631 -0.3621 -0.4599 -1.1141
  520TMC3    C1 7719   0.874   0.304  14.069 -0.2876  0.1735 -0.1543
  520TMC3    C2 7720   0.822   0.326  13.946 -0.2382  0.1868  0.1173
  520TMC3    C3 7721   0.861   0.243  13.847  0.0997 -0.0369  0.5788
  520TMC3    C4 7722   0.960   0.194  14.086 -0.1729  0.4116 -0.1794
  520TMC3    C5 7723   1.009   0.121  13.977 -1.5027  0.5932 -0.2105
  520TMC3    C6 7724   0.950   0.141  13.856  0.4399 -0.2067  0.4963
  520TMC3     C 7725   0.828   0.388  14.170 -0.2700  0.1986 -0.6432
  520TMC3     O 7726   0.770   0.492  14.151  0.1251 -0.0015  0.4565
  520TMC3     H 7727   0.774   0.420  13.922  1.0533  0.7406 -0.2991
  520TMC3    H1 7728   1.009   0.183  14.183  0.1496 -1.8940 -0.5989
  520TMC3    H2 7729   0.972   0.079  13.770  0.3015  1.0828 -0.4668
  520TMC3    C7 7730   1.083   0.005  14.012  0.3537  0.5866 -0.0801
  520TMC3    C8 7731   0.787   0.247  13.726  0.6305 -0.1829  0.4756
  520TMC3    O1 7732   1.114   4.724  14.130 -0.1931  0.1503 -0.7142
  520TMC3    O2 7733   0.843   0.208  13.623  0.1990 -0.5142  0.4059
  521MPD2     C 7734   0.945   3.058  17.573 -0.1358 -0.2270  0.1656
  521MPD2    C1 7735   0.912   3.038  17.441  0.0644 -0.0815 -0.2281
  521MPD2    C2 7736   1.010   3.046  17.345 -0.3934 -0.3529 -0.0773
  521MPD2    C3 7737   1.141   3.032  17.379 -0.7149 -1.4032 -0.2789
  521MPD2    C4 7738   1.173   3.042  17.512 -0.1548  0.1987  0.2711
  521MPD2    C5 7739   1.076   3.060  17.604 -0.1063  0.0292  0.5206
  521MPD2     H 7740   0.982   3.054  17.240  0.2387 -0.8284 -0.2907
  521MPD2    H1 7741   1.276   3.043  17.544  0.4964  2.0869 -1.8667
  521MPD2    H2 7742   0.869   3.054  17.649 -0.9440 -1.3006 -0.7001
  521MPD2    H3 7743   1.102   3.068  17.709  2.7955 -0.8987 -0.1435
  521MPD2     N 7744   1.243   3.027  17.270  0.8864 -0.0838  0.2380
  521MPD2    H5 7745   1.203   3.009  17.179  0.4121  0.4547  0.3409
  521MPD2    N1 7746   0.779   3.001  17.417  0.1085  0.8001 -0.2191
  521MPD2    H7 7747   0.713   3.003  17.494  0.0311  0.0919 -0.2669
  522TMC3    C1 7748   1.452   2.968  17.174 -0.1258 -0.0122 -0.3285
  522TMC3    C2 7749   1.566   2.894  17.195 -0.0320 -1.4721 -0.2887
  522TMC3    C3 7750   1.661   2.882  17.097  0.3235 -0.0259 -0.2011
  522TMC3    C4 7751   1.435   3.050  17.065  0.8931 -0.2074  0.4829
  522TMC3    C5 7752   1.547   3.050  16.975  0.8343  1.0144  0.2467
  522TMC3    C6 7753   1.657   2.966  16.982 -0.7171 -0.1306  0.2661
  522TMC3     C 7754   1.374   3.006  17.295  0.0925  0.2159  0.1774
  522TMC3     O 7755   1.436   3.007  17.398  0.6878  0.0144  0.9122
  522TMC3     H 7756   1.578   2.858  17.297 -2.8227 -1.9630 -0.1148
  522TMC3    H1 7757   1.353   3.121  17.059  0.6654 -0.5053  0.0668
  522TMC3    H2 7758   1.741   2.985  16.917 -0.7696 -1.2908 -0.1435
  522TMC3    C7 7759   1.568   3.171  16.901  0.8686 -0.0998 -0.5565
  522TMC3    C8 7760   1.792   2.853  17.142  0.2896  0.3144 -0.0321
  522TMC3    O1 7761   1.684   3.214  16.902  0.4952  0.2205 -0.4653
  522TMC3    O2 7762   1.817   2.826  17.259 -0.2856 -0.1834  0.3112
  523MPD2     C 7763   3.718   2.870   9.803 -0.2677  0.2365  0.0516
  523MPD2    C1 7764   3.646   2.878   9.916  0.4321 -0.4917  0.5263
  523MPD2    C2 7765   3.522   2.944   9.916  0.7765  0.1991  1.0675
  523MPD2    C3 7766   3.464   2.982   9.801 -0.2403  0.0022  0.2106
  523MPD2    C4 7767   3.537   2.973   9.681 -0.3088  0.3455  0.4181
  523MPD2    C5 7768   3.664   2.916   9.683 -0.2003  1.2378 -0.5113
  523MPD2     H 7769   3.469   2.943  10.010  0.3848  0.6522  0.8521
  523MPD2    H1 7770   3.500   3.011   9.587  0.5436  0.6475  0.2041
  523MPD2    H2 7771   3.811   2.815   9.793 -1.0226 -0.9442 -0.4447
  523MPD2    H3 7772   3.720   2.913   9.591 -1.5195 -0.6528 -1.2474
  523MPD2     N 7773   3.331   3.027   9.788  0.0509  0.6413  0.2415
  523MPD2    H5 7774   3.303   3.037   9.691  2.0145 -2.4716 -0.6273
  523MPD2    N1 7775   3.701   2.810  10.031  0.0334  0.1607 -0.6401
  523MPD2    H7 7776   3.788   2.759  10.024  0.2969  0.6996 -1.2381
  524TMC3    C1 7777   3.120   3.100   9.842 -0.0655 -0.3647 -0.1850
  524TMC3    C2 7778   3.086   3.092   9.710  0.8207  0.1219 -0.2183
  524TMC3    C3 7779   2.982   3.170   9.661 -0.5259 -0.0902 -0.4592
  524TMC3    C4 7780   3.052   3.184   9.930 -0.4599 -0.5923  0.0893
  524TMC3    C5 7781   2.949   3.257   9.876 -0.5089  0.0652  0.4891
  524TMC3    C6 7782   2.918   3.259   9.743  0.4340 -0.3133  1.2229
  524TMC3     C 7783   3.245   3.051   9.891  0.0612  0.3407 -0.6634
  524TMC3     O 7784   3.268   3.061  10.012 -0.0533  0.3715 -0.4350
  524TMC3     H 7785   3.131   3.015   9.648  2.5446  0.3395  0.7317
  524TMC3    H1 7786   3.088   3.195  10.032  0.2421  2.0599 -0.4587
  524TMC3    H2 7787   2.832   3.318   9.714  0.9320  0.0166  0.4143
  524TMC3    C7 7788   2.895   3.369   9.959  0.5341  0.2914 -0.3729
  524TMC3    C8 7789   2.911   3.133   9.532 -0.3807 -0.6531  0.3460
  524TMC3    O1 7790   2.868   3.355  10.076  0.0572  0.2085  0.1686
  524TMC3    O2 7791   2.785   3.138   9.535  0.0066 -0.5205  0.2068
  525MPD2     C 7792   1.864   4.480  14.472  0.2940 -0.3345  0.4869
  525MPD2    C1 7793   1.995   4.485  14.515  0.3841 -0.0888 -0.4841
  525MPD2    C2 7794   2.090   4.561  14.447 -0.0120 -0.2326 -0.1418
  525MPD2    C3 7795   2.046   4.651  14.350  0.0965 -0.4548 -0.1504
  525MPD2    C4 7796   1.915   4.649  14.304 -0.7316 -0.4656 -0.3204
  525MPD2    C5 7797   1.831   4.553  14.362  0.1688  0.2870  0.5664
  525MPD2     H 7798   2.189   4.569  14.490 -0.0470  1.4142 -0.3870
  525MPD2    H1 7799   1.888   4.710  14.220  0.8882  0.8851  0.1503
  525MPD2    H2 7800   1.790   4.418  14.520 -1.3248  1.9872  0.9691
  525MPD2    H3 7801   1.730   4.544  14.323  1.2899 -0.1750 -2.2146
  525MPD2     N 7802   2.124   0.025  14.295  0.1125  0.1448 -0.3058
  525MPD2    H5 7803   2.077   0.082  14.225  2.8491  1.2391 -1.2461
  525MPD2    N1 7804   2.030   4.426  14.641 -0.2649 -0.2863  0.3049
  525MPD2    H7 7805   2.131   4.422  14.653 -0.0034  0.2977 -1.7402
  526TMC3    C1 7806   2.016   4.342  14.866  0.5689 -0.5423  0.4094
  526TMC3    C2 7807   1.937   4.287  14.964 -0.7987  0.3084  0.4022
  526TMC3    C3 7808   2.003   4.217  15.065  0.2948 -1.1398  0.5974
  526TMC3    C4 7809   2.157   4.346  14.874 -0.2956  0.4900 -0.2473
  526TMC3    C5 7810   2.218   4.289  14.984  0.1532  0.2266 -0.0313
  526TMC3    C6 7811   2.140   4.213  15.071 -1.0143 -0.1891  0.2973
  526TMC3     C 7812   1.948   4.386  14.739  0.1613  0.2158  0.2117
  526TMC3     O 7813   1.824   4.397  14.740  0.5946 -0.2925  0.0493
  526TMC3     H 7814   1.829   4.293  14.969 -0.7958  0.5410  0.1924
  526TMC3    H1 7815   2.209   4.420  14.814 -0.6654  0.4646 -0.5986
  526TMC3    H2 7816   2.178   4.168  15.162  1.0751 -0.9667 -0.9524
  526TMC3    C7 7817   2.358   4.256  14.976 -0.4607  0.4359 -0.0348
  526TMC3    C8 7818   1.934   4.211  15.194 -0.2701  0.3057 -0.5132
  526TMC3    O1 7819   2.405   4.207  15.077  0.5603  0.1511  0.8505
  526TMC3    O2 7820   1.973   4.130  15.277  0.4073 -0.3867  0.1316
  527MPD2     C 7821   0.831   2.844   1.152 -0.3115  0.1887 -1.0635
  527MPD2    C1 7822   0.877   2.717   1.140  0.0145  0.8222 -0.3193
  527MPD2    C2 7823   0.898   2.668   1.016 -0.8635 -0.2724  0.1782
  527MPD2    C3 7824   0.886   2.744   0.903 -0.2250 -0.5149  0.6379
  527MPD2    C4 7825   0.859   2.879   0.917 -0.3193  0.0184  0.0745
  527MPD2    C5 7826   0.813   2.919   1.043 -0.3381  0.3844  0.7680
  527MPD2     H 7827   0.940   2.570   0.999  1.2833  0.2965  2.1984
  527MPD2    H1 7828   0.834   2.942   0.832  1.3306  1.2141  0.4749
  527MPD2    H2 7829   0.793   2.882   1.247 -0.2806  1.6402 -1.6350
  527MPD2    H3 7830   0.772   3.018   1.058 -1.4716  0.3396 -1.9939
  527MPD2     N 7831   0.888   2.678   0.777  0.0745 -0.0896  0.3482
  527MPD2    H5 7832   0.894   2.577   0.790 -1.9449 -0.3162 -0.5115
  527MPD2    N1 7833   0.902   2.636   1.258 -0.2200 -0.0708 -0.4493
  527MPD2    H7 7834   0.941   2.544   1.241 -2.5640 -0.9115 -1.2144
  528TMC3    C1 7835   0.922   2.573   1.491  0.4740 -0.3180 -0.6136
  528TMC3    C2 7836   0.953   2.620   1.617 -0.4891 -0.0808 -0.1746
  528TMC3    C3 7837   1.006   2.533   1.702 -0.5281  0.4900 -0.5588
  528TMC3    C4 7838   0.939   2.440   1.453 -0.0274  0.3592 -0.7598
  528TMC3    C5 7839   0.997   2.358   1.546 -0.0157 -0.2984  0.4694
  528TMC3    C6 7840   1.032   2.402   1.674 -0.6305 -0.6365 -0.0246
  528TMC3     C 7841   0.889   2.676   1.391 -0.2811 -0.4195 -0.2018
  528TMC3     O 7842   0.859   2.786   1.437 -0.0689 -0.0556  0.3488
  528TMC3     H 7843   0.933   2.719   1.655 -5.3030 -0.4536 -1.7958
  528TMC3    H1 7844   0.912   2.404   1.355 -0.3053  1.5610 -1.1241
  528TMC3    H2 7845   1.077   2.331   1.742 -0.1909 -1.0302 -0.7221
  528TMC3    C7 7846   1.014   2.216   1.504 -0.4253  0.0292 -0.1613
  528TMC3    C8 7847   1.009   2.573   1.844 -0.0782 -1.0395  0.3335
  528TMC3    O1 7848   0.934   2.158   1.430  0.1053 -0.2629  0.5097
  528TMC3    O2 7849   1.030   2.692   1.872 -0.2272 -0.3996 -0.2758
  529MPD2     C 7850   2.486   1.271   0.442 -0.0992  0.8484  0.2937
  529MPD2    C1 7851   2.559   1.159   0.420 -0.0942 -0.0136 -0.1964
  529MPD2    C2 7852   2.584   1.125   0.295  0.0964  0.2815  0.3161
  529MPD2    C3 7853   2.532   1.199   0.188  0.9041  0.1334  0.8853
  529MPD2    C4 7854   2.455   1.310   0.211  0.3990  0.3914  0.6133
  529MPD2    C5 7855   2.433   1.347   0.340  0.5615 -0.4463  0.0834
  529MPD2     H 7856   2.645   1.038   0.281 -1.3910 -0.7656  0.3262
  529MPD2    H1 7857   2.424   1.373   0.128  0.6283 -0.7598 -0.3287
  529MPD2    H2 7858   2.475   1.303   0.545  0.6831 -0.6690  0.8474
  529MPD2    H3 7859   2.370   1.432   0.362  0.5453  0.2920 -2.7550
  529MPD2     N 7860   2.570   1.175   0.053  0.6053 -0.0385 -0.3864
  529MPD2    H5 7861   2.559   1.248  17.694  0.8489  0.1438 -0.2339
  529MPD2    N1 7862   2.598   1.076   0.530 -0.3702 -0.0566 -0.5437
  529MPD2    H7 7863   2.639   0.986   0.509 -0.5484 -0.2783  0.0373
  530TMC3    C1 7864   2.619   0.969   0.746  0.5453  0.0483 -0.0208
  530TMC3    C2 7865   2.652   1.010   0.873  0.0156  0.1404 -0.8501
  530TMC3    C3 7866   2.636   0.916   0.966 -0.4078 -0.7351  0.5504
  530TMC3    C4 7867   2.572   0.845   0.707  0.8344  0.3053  0.3551
  530TMC3    C5 7868   2.566   0.754   0.810  0.4939 -0.5860 -0.2901
  530TMC3    C6 7869   2.585   0.791   0.943 -0.4385  0.6671 -0.7790
  530TMC3     C 7870   2.577   1.088   0.666 -0.1187  0.0743  0.2146
  530TMC3     O 7871   2.534   1.183   0.733 -0.7744  0.0316  0.0320
  530TMC3     H 7872   2.673   1.110   0.911  1.8834 -0.4657 -0.3043
  530TMC3    H1 7873   2.550   0.818   0.605 -0.1622  1.4329  0.2751
  530TMC3    H2 7874   2.573   0.722   1.025  1.7096 -0.8304 -1.7133
  530TMC3    C7 7875   2.526   0.624   0.783 -0.2863 -0.0658 -0.5274
  530TMC3    C8 7876   2.675   0.948   1.102 -0.6569  0.0179 -0.2925
  530TMC3    O1 7877   2.522   0.589   0.665 -0.6358  0.2564  0.4076
  530TMC3    O2 7878   2.594   1.024   1.148 -0.1255 -0.1495 -0.1350
  531MPD2     C 7879   0.971   3.653  12.819  0.4181 -0.3593 -0.5248
  531MPD2    C1 7880   0.859   3.601  12.876  0.8814 -0.0750  0.6499
  531MPD2    C2 7881   0.765   3.540  12.798  0.5277 -0.0018 -0.1270
  531MPD2    C3 7882   0.784   3.534  12.661 -0.1530 -0.2734  0.1637
  531MPD2    C4 7883   0.889   3.602  12.605 -0.4759 -0.2888  0.6301
  531MPD2    C5 7884   0.983   3.656  12.685  0.1505  0.4478 -0.9852
  531MPD2     H 7885   0.680   3.490  12.844  1.0741 -0.4904  0.3418
  531MPD2    H1 7886   0.915   3.602  12.500 -0.0788  1.0776  0.7257
  531MPD2    H2 7887   1.057   3.696  12.869 -0.3598  1.4777 -0.7828
  531MPD2    H3 7888   1.056   3.714  12.629 -0.3868  0.9654 -1.1501
  531MPD2     N 7889   0.683   3.468  12.590  0.3386 -0.1350 -0.0200
  531MPD2    H5 7890   0.613   3.421  12.646 -0.6958  0.3345 -0.9185
  531MPD2    N1 7891   0.851   3.592  13.013  0.2045 -0.3989 -0.5743
  531MPD2    H7 7892   0.939   3.595  13.063  0.5408  0.4621 -1.2039
  532TMC3    C1 7893   0.747   3.582  13.234 -0.9408  0.6687  0.4494
  532TMC3    C2 7894   0.629   3.539  13.290  0.1193 -0.3582 -0.2085
  532TMC3    C3 7895   0.630   3.451  13.397  0.6003 -0.6164  0.4617
  532TMC3    C4 7896   0.865   3.555  13.301  0.5927 -0.1016 -0.0075
  532TMC3    C5 7897   0.859   3.487  13.423 -0.1032 -0.0829 -0.4547
  532TMC3    C6 7898   0.743   3.433  13.475  0.4387 -0.2163  0.4940
  532TMC3     C 7899   0.736   3.585  13.085  0.1906 -0.2034  0.2838
  532TMC3     O 7900   0.620   3.567  13.044 -0.1004 -0.0879 -0.2736
  532TMC3     H 7901   0.533   3.571  13.253 -0.1055 -3.1205 -2.0260
  532TMC3    H1 7902   0.957   3.602  13.269  0.3996  1.3036  1.4981
  532TMC3    H2 7903   0.752   3.366  13.560  2.4316 -0.4432  0.1070
  532TMC3    C7 7904   0.987   3.459  13.495 -0.1774 -0.4612  0.2344
  532TMC3    C8 7905   0.549   3.335  13.369  1.2215 -0.1546  0.3275
  532TMC3    O1 7906   0.993   3.452  13.617 -0.2032  0.3384 -0.0913
  532TMC3    O2 7907   0.541   3.248  13.455 -0.0735  0.0769  0.6392
  533TMC3    C1 7908   2.292   0.190  14.286  0.2883 -0.4228 -0.7457
  533TMC3    C2 7909   2.424   0.218  14.275  0.3150 -0.3245 -0.3312
  533TMC3    C3 7910   2.453   0.351  14.286 -0.4473 -0.0601 -0.1669
  533TMC3    C4 7911   2.200   0.280  14.317 -0.1806 -0.1887  0.0325
  533TMC3    C5 7912   2.236   0.407  14.346  1.1578 -0.3664  0.4221
  533TMC3    C6 7913   2.365   0.446  14.321 -0.8003 -0.0634  0.0566
  533TMC3     C 7914   2.257   0.056  14.316  0.2179 -0.1884  0.0177
  533TMC3     O 7915   2.347   4.726  14.374 -0.1426 -0.0862  0.2693
  533TMC3     H 7916   2.501   0.145  14.255  1.6030  0.9116  0.1202
  533TMC3    H1 7917   2.102   0.240  14.339  0.5430 -0.4735  2.7596
  533TMC3    H2 7918   2.382   0.553  14.317  2.7057 -0.7194 -1.8200
  533TMC3    C7 7919   2.170   0.448  14.472  0.1526 -0.2411 -0.0618
  533TMC3    C8 7920   2.593   0.394  14.296  0.3515  0.8466  0.1531
  533TMC3    O1 7921   2.074   0.386  14.506  0.5077 -0.5221 -0.4822
  533TMC3    O2 7922   2.599   0.513  14.315 -0.6384 -0.1425 -0.1995
  534MPD2     C 7923   0.170   1.936   1.523 -0.4617  0.3596  0.0004
  534MPD2    C1 7924   0.194   1.930   1.387  0.6378  0.2682 -0.1702
  534MPD2    C2 7925   0.116   1.842   1.309  0.0047 -0.1355  0.3406
  534MPD2    C3 7926   0.007   1.773   1.363 -0.1045 -0.0267 -0.2340
  534MPD2    C4 7927   4.711   1.788   1.500  0.4127  0.6342 -0.3249
  534MPD2    C5 7928   0.068   1.867   1.574  0.3196 -0.2615  0.2740
  534MPD2     H 7929   0.137   1.837   1.203  1.7726  0.8244  0.6567
  534MPD2    H1 7930   4.638   1.728   1.553  2.2279 -0.7160  0.6509
  534MPD2    H2 7931   0.219   2.003   1.593  0.8127  0.4363 -0.9628
  534MPD2    H3 7932   0.046   1.884   1.679  0.4322 -0.5451  0.3451
  534MPD2     N 7933   4.662   1.666   1.302 -0.0153  0.3995 -0.2467
  534MPD2    H5 7934   4.599   1.610   1.358  0.2137 -0.4508 -0.8266
  534MPD2    N1 7935   0.293   1.999   1.319 -0.1536 -0.4254  0.3245
  534MPD2    H7 7936   0.301   1.973   1.221  1.4635 -0.5943  0.4989
  535TMC3    C1 7937   4.568   1.548   1.121 -0.3468 -0.0573  0.1796
  535TMC3    C2 7938   4.452   1.526   1.191 -0.2952 -0.5622  0.2672
  535TMC3    C3 7939   4.373   1.421   1.148  0.5649 -0.2655 -0.5161
  535TMC3    C4 7940   4.590   1.487   1.004  0.0833  0.3305  0.1933
  535TMC3    C5 7941   4.511   1.386   0.964 -0.2064  0.7294  0.6340
  535TMC3    C6 7942   4.398   1.359   1.029  0.6172  0.8456  0.3914
  535TMC3     C 7943   4.661   1.649   1.164  0.3220  0.2947 -0.0520
  535TMC3     O 7944   0.001   1.707   1.080 -0.4746 -0.1206 -0.2417
  535TMC3     H 7945   4.438   1.587   1.279 -1.3721  1.0339 -1.0167
  535TMC3    H1 7946   4.689   1.507   0.965 -0.1902  0.9924 -0.1775
  535TMC3    H2 7947   4.338   1.276   0.992  1.0629  1.6711 -2.1888
  535TMC3    C7 7948   4.516   1.352   0.825  0.3633  0.4256  0.5844
  535TMC3    C8 7949   4.258   1.380   1.220  0.2295  0.6640 -0.2291
  535TMC3    O1 7950   4.494   1.240   0.785  0.8628 -0.2797 -0.6874
  535TMC3    O2 7951   4.192   1.289   1.176 -0.5562  0.0011  0.3550
  536MPD2     C 7952   3.962   4.291  15.991  0.7316 -0.4355  0.0564
  536MPD2    C1 7953   3.841   4.270  16.053 -0.4099  0.0084 -0.5547
  536MPD2    C2 7954   3.719   4.322  16.006 -0.2597 -0.2024 -0.2966
  536MPD2    C3 7955   3.712   4.379  15.879  0.1872 -0.7746  0.0736
  536MPD2    C4 7956   3.833   4.384  15.808  0.6380 -0.5573  0.4971
  536MPD2    C5 7957   3.954   4.355  15.869  0.0387 -0.1317  0.7901
  536MPD2     H 7958   3.622   4.303  16.050 -0.6204 -0.5990 -1.2573
  536MPD2    H1 7959   3.838   4.440  15.715  1.5028 -2.6781 -0.7327
  536MPD2    H2 7960   4.058   4.258  16.029  1.2719  1.9189  0.7565
  536MPD2    H3 7961   4.042   4.362  15.806 -0.8803 -0.9841 -0.5906
  536MPD2     N 7962   3.592   4.423  15.813  0.4546  0.2619  0.3525
  536MPD2    H5 7963   3.602   4.448  15.715 -0.5988  0.3644  0.2706
  536MPD2    N1 7964   3.849   4.196  16.173  0.2105 -0.0944  0.1429
  536MPD2    H7 7965   3.942   4.177  16.209  0.2688 -0.2239 -0.0767
  537TMC3    C1 7966   3.784   4.067  16.369 -0.1290 -0.2545 -0.5106
  537TMC3    C2 7967   3.888   4.127  16.432  0.4271 -0.2903  0.4489
  537TMC3    C3 7968   3.909   4.098  16.564 -0.8706 -0.2596 -0.5352
  537TMC3    C4 7969   3.702   3.979  16.426 -0.3006 -0.0412 -0.9263
  537TMC3    C5 7970   3.742   3.933  16.549  0.1454 -0.1239 -0.3675
  537TMC3    C6 7971   3.831   4.006  16.622 -0.2060 -0.4906  0.4915
  537TMC3     C 7972   3.744   4.128  16.236  0.5736 -0.7416  0.4465
  537TMC3     O 7973   3.626   4.136  16.217 -0.4048  0.4282  0.5385
  537TMC3     H 7974   3.950   4.208  16.395  0.2205 -0.9173 -1.2648
  537TMC3    H1 7975   3.610   3.946  16.380 -1.9881  0.8909  1.7944
  537TMC3    H2 7976   3.842   3.982  16.728  0.6282  0.7635  0.6886
  537TMC3    C7 7977   3.627   3.877  16.627 -0.3450 -0.3655  0.3284
  537TMC3    C8 7978   3.951   4.208  16.651  0.2770 -0.0591 -0.4161
  537TMC3    O1 7979   3.515   3.897  16.586 -0.2300  0.3705  0.2365
  537TMC3    O2 7980   3.882   4.226  16.750  0.2789  0.6311  0.2625
  538TMC3    C1 7981   4.451   3.133  10.531  0.0302  0.4512  0.2184
  538TMC3    C2 7982   4.499   3.030  10.456  0.3330  0.0849  0.2247
  538TMC3    C3 7983   4.418   2.999  10.355 -0.7131  0.4156  0.0924
  538TMC3    C4 7984   4.331   3.192  10.513 -0.0411 -0.7908 -0.3597
  538TMC3    C5 7985   4.254   3.160  10.409 -0.4897 -0.2949 -0.3108
  538TMC3    C6 7986   4.297   3.064  10.328 -0.3856 -0.3746 -0.2966
  538TMC3     C 7987   4.501   3.158  10.668 -1.2258  0.0056 -0.1066
  538TMC3     O 7988   4.486   3.270  10.713  0.4902 -0.2137  0.2377
  538TMC3     H 7989   4.588   2.977  10.487  0.2097  0.1641  0.7224
  538TMC3    H1 7990   4.281   3.255  10.586 -0.1681  0.1462 -1.2560
  538TMC3    H2 7991   4.237   3.026  10.245 -1.1332  2.0346 -0.8658
  538TMC3    C7 7992   4.114   3.197  10.411  0.3251  0.1082  0.3384
  538TMC3    C8 7993   4.436   2.869  10.286 -0.6697  0.1395 -0.1902
  538TMC3    O1 7994   4.058   3.217  10.520  0.1599  0.0719  0.1527
  538TMC3    O2 7995   4.339   2.815  10.230 -0.2913 -0.1366 -0.1781
  539MPD2     C 7996   4.025   1.374  11.564 -0.0152  0.0213  0.2895
  539MPD2    C1 7997   4.110   1.463  11.493  0.2532 -0.5900  0.1626
  539MPD2    C2 7998   4.097   1.599  11.505  0.0942 -0.2445 -0.0057
  539MPD2    C3 7999   3.988   1.651  11.569 -0.4385 -0.3379  0.2277
  539MPD2    C4 8000   3.905   1.560  11.639 -0.4137  0.8319 -0.7535
  539MPD2    C5 8001   3.922   1.425  11.643  0.0398 -0.2303  0.6143
  539MPD2     H 8002   4.167   1.671  11.463 -2.0862  1.8453 -0.0645
  539MPD2    H1 8003   3.819   1.604  11.687  0.2896 -0.0410  1.2903
  539MPD2    H2 8004   4.016   1.266  11.569 -0.5434  0.0228 -0.7085
  539MPD2    H3 8005   3.847   1.366  11.694  0.2848  0.3838  1.6747
  539MPD2     N 8006   3.965   1.788  11.586 -0.1618 -0.3307 -0.7083
  539MPD2    H5 8007   3.905   1.818  11.662 -0.1579 -1.2714 -0.3376
  539MPD2    N1 8008   4.215   1.424  11.411  0.4745  0.3730 -0.3439
  539MPD2    H7 8009   4.250   1.499  11.353 -2.0652  1.1188 -0.9040
  540TMC3    C1 8010   4.003   2.015  11.572  0.4332  0.4121 -0.1078
  540TMC3    C2 8011   4.002   2.114  11.480  0.1058 -0.0323 -0.2061
  540TMC3    C3 8012   3.940   2.234  11.517  0.1057 -0.2608  0.3097
  540TMC3    C4 8013   3.954   2.025  11.698  0.4506 -0.3518  0.2172
  540TMC3    C5 8014   3.921   2.152  11.735 -0.4694  0.1274 -0.6689
  540TMC3    C6 8015   3.908   2.253  11.646 -0.5898 -0.1523  0.6954
  540TMC3     C 8016   4.038   1.886  11.519  0.4920 -0.0903 -0.1091
  540TMC3     O 8017   4.110   1.887  11.425  0.4185 -0.0219 -0.6538
  540TMC3     H 8018   4.049   2.104  11.383 -0.7410 -1.3803 -0.4893
  540TMC3    H1 8019   3.960   1.944  11.770 -1.5982  0.3322  1.1551
  540TMC3    H2 8020   3.877   2.352  11.677 -1.0836 -0.4195  1.0544
  540TMC3    C7 8021   3.857   2.184  11.866 -0.2519 -0.6502 -0.5072
  540TMC3    C8 8022   3.876   2.311  11.410 -0.0619  0.8386  0.4858
  540TMC3    O1 8023   3.779   2.275  11.874  0.2754  0.1464 -0.4410
  540TMC3    O2 8024   3.857   2.430  11.432  0.0675 -1.1011  0.7371
  541MPD2     C 8025   2.334   4.010  13.385  0.1323  0.1897  0.5473
  541MPD2    C1 8026   2.270   3.947  13.276  0.3887 -0.3387  0.1624
  541MPD2    C2 8027   2.284   3.998  13.148  0.1579  0.0419 -0.8181
  541MPD2    C3 8028   2.373   4.105  13.130 -0.1031  0.7140  0.0201
  541MPD2    C4 8029   2.424   4.173  13.245  0.1291 -0.0191  0.2331
  541MPD2    C5 8030   2.413   4.118  13.372  0.5770 -1.0919  0.2550
  541MPD2     H 8031   2.242   3.957  13.057 -1.6327  0.3602 -0.1344
  541MPD2    H1 8032   2.490   4.257  13.226 -1.1742  1.2383  1.2476
  541MPD2    H2 8033   2.317   3.958  13.479  0.1482  0.1158  0.5098
  541MPD2    H3 8034   2.455   4.159  13.464 -0.2080  2.6617 -1.0653
  541MPD2     N 8035   2.406   4.159  13.005  0.0680  0.2706  0.0498
  541MPD2    H5 8036   2.459   4.244  12.990  2.3333 -0.8542  1.6901
  541MPD2    N1 8037   2.191   3.839  13.314 -0.2486 -0.2772 -0.2879
  541MPD2    H7 8038   2.195   3.819  13.413 -1.9454 -0.3973 -0.2316
  542TMC3    C1 8039   2.406   4.188  12.776  0.1660  0.1944 -0.5218
  542TMC3    C2 8040   2.434   4.131  12.657  0.0781 -0.0039  0.3818
  542TMC3    C3 8041   2.500   4.210  12.570  0.6185  0.5627  0.3434
  542TMC3    C4 8042   2.422   4.325  12.804 -0.0394  0.6434  0.3839
  542TMC3    C5 8043   2.477   4.400  12.707  0.2313 -0.2387  1.2638
  542TMC3    C6 8044   2.528   4.344  12.593 -0.0016 -0.0123 -0.2893
  542TMC3     C 8045   2.360   4.102  12.882  1.1517 -0.2875 -0.1144
  542TMC3     O 8046   2.337   3.987  12.851 -0.0803  0.5707  0.0898
  542TMC3     H 8047   2.424   4.025  12.637 -2.1757  0.2656  0.0195
  542TMC3    H1 8048   2.359   4.365  12.883  1.9153 -3.9825  4.2508
  542TMC3    H2 8049   2.553   4.403  12.506  0.4277  0.8943  0.4555
  542TMC3    C7 8050   2.490   4.536  12.736 -0.3817  0.4507 -0.5455
  542TMC3    C8 8051   2.569   4.155  12.460  0.1766 -0.5588 -0.2464
  542TMC3    O1 8052   2.437   4.567  12.838  0.3154  0.7937 -0.3829
  542TMC3    O2 8053   2.589   4.224  12.362 -0.2614  0.2116 -0.3601
  543TMC3    C1 8054   1.770   0.387  16.953  0.4971  0.4690  0.1772
  543TMC3    C2 8055   1.792   0.260  16.983 -0.4665  0.6040  0.1532
  543TMC3    C3 8056   1.760   0.220  17.108 -0.3365 -0.5048 -0.1684
  543TMC3    C4 8057   1.707   0.476  17.038  0.1389  0.1627  0.2887
  543TMC3    C5 8058   1.686   0.434  17.166  0.0067  0.2231  0.3688
  543TMC3    C6 8059   1.707   0.306  17.202 -0.8714  0.0818 -0.0582
  543TMC3     C 8060   1.811   0.439  16.823  1.0170 -0.3318 -0.2260
  543TMC3     O 8061   1.735   0.515  16.770 -0.1414  0.3136 -0.0714
  543TMC3     H 8062   1.831   0.184  16.917 -2.6690  0.8819 -1.4557
  543TMC3    H1 8063   1.703   0.576  16.997 -0.2563 -0.6525 -1.6655
  543TMC3    H2 8064   1.694   0.276  17.306 -1.0105  0.8880  0.1530
  543TMC3    C7 8065   1.682   0.529  17.277 -0.3433 -0.1415 -0.4798
  543TMC3    C8 8066   1.795   0.092  17.157  0.2244  0.4559 -0.1918
  543TMC3    O1 8067   1.717   0.488  17.387 -0.0303 -0.5370 -0.2175
  543TMC3    O2 8068   1.880   0.038  17.085  0.0075 -0.6348 -0.7738
  544MPD2     C 8069   1.668   4.399  17.410  0.5112  0.1574  0.2593
  544MPD2    C1 8070   1.781   4.427  17.333 -0.3916  0.0138 -0.0726
  544MPD2    C2 8071   1.804   4.553  17.289  0.2005  0.2543  0.1947
  544MPD2    C3 8072   1.703   4.649  17.307  0.3906  0.2409  0.4969
  544MPD2    C4 8073   1.595   4.626  17.390  1.5720  0.2608  0.3919
  544MPD2    C5 8074   1.581   4.505  17.445  0.4601  0.8070 -0.7089
  544MPD2     H 8075   1.902   4.574  17.248  0.4316 -0.0017  0.6206
  544MPD2    H1 8076   1.512   4.694  17.406  0.0839 -1.1437 -1.4520
  544MPD2    H2 8077   1.659   4.302  17.459  1.2589  0.7691  1.6081
  544MPD2    H3 8078   1.497   4.495  17.512  2.2292 -1.5783  1.1602
  544MPD2     N 8079   1.703   0.048  17.242  0.2225  0.1289  0.1989
  544MPD2    H5 8080   1.625   0.114  17.249 -0.8220 -0.8994 -1.8667
  544MPD2    N1 8081   1.878   4.325  17.320 -0.0378 -0.1114 -0.3435
  544MPD2    H7 8082   1.852   4.236  17.363 -0.6759  1.0294  1.6174
  545TMC3    C1 8083   2.064   4.197  17.232 -0.0399  0.1115 -0.0982
  545TMC3    C2 8084   2.158   4.191  17.138 -0.2116  0.2417 -0.0841
  545TMC3    C3 8085   2.258   4.094  17.150  0.2283  0.2447 -0.3017
  545TMC3    C4 8086   2.069   4.117  17.343  0.9281  0.1034 -0.1967
  545TMC3    C5 8087   2.165   4.022  17.349  0.3425 -0.3714  0.2984
  545TMC3    C6 8088   2.263   4.005  17.256 -0.0597  0.1558  0.0618
  545TMC3     C 8089   1.992   4.329  17.243  0.3966  0.2695  0.2126
  545TMC3     O 8090   2.034   4.402  17.156  0.1112  0.5412 -0.0735
  545TMC3     H 8091   2.173   4.272  17.068  0.7165  1.4446  1.5396
  545TMC3    H1 8092   1.997   4.133  17.423  0.0858 -0.4952 -0.8292
  545TMC3    H2 8093   2.319   3.912  17.249 -1.4470 -0.7375  0.8355
  545TMC3    C7 8094   2.149   3.930  17.456 -0.2704  0.0270 -0.0408
  545TMC3    C8 8095   2.381   4.095  17.081 -0.5775 -0.6641 -0.3356
  545TMC3    O1 8096   2.038   3.925  17.512 -0.0965 -0.1578  0.8060
  545TMC3    O2 8097   2.479   4.045  17.136  0.3591  0.3340  0.0647
  546MPD2     C 8098   3.295   0.236  17.642 -0.2920  0.3980  0.7737
  546MPD2    C1 8099   3.310   0.232  17.503 -0.2912  0.3658 -0.6992
  546MPD2    C2 8100   3.380   0.335  17.441  0.4269  0.2281 -0.2450
  546MPD2    C3 8101   3.406   0.449  17.511  0.5612 -0.2041 -0.1060
  546MPD2    C4 8102   3.387   0.450  17.645 -0.4167 -0.1100  0.2524
  546MPD2    C5 8103   3.329   0.349   0.003 -0.9707 -0.2574  0.2202
  546MPD2     H 8104   3.401   0.326  17.335 -2.5443  0.1028 -0.8396
  546MPD2    H1 8105   3.404   0.542  17.699  1.0498 -0.0930 -0.2631
  546MPD2    H2 8106   3.231   0.163  17.689  0.2218  0.0865  0.9883
  546MPD2    H3 8107   3.305   0.354   0.109 -0.8356  0.4998  0.2190
  546MPD2     N 8108   3.474   0.563  17.466  0.1924 -1.6245 -0.5651
  546MPD2    H5 8109   3.489   0.642  17.527 -2.8560 -1.6533  0.2287
  546MPD2    N1 8110   3.260   0.126  17.430  0.4638  0.0210 -0.9600
  546MPD2    H7 8111   3.209   0.059  17.486 -1.9349  1.6327 -1.2368
  547TMC3    C1 8112   3.177   4.701  17.274  0.0286  0.5671  0.1956
  547TMC3    C2 8113   3.088   4.688  17.167 -0.5646  0.3755  0.1684
  547TMC3    C3 8114   3.013   4.571  17.173 -0.1884  0.3219  0.0651
  547TMC3    C4 8115   3.193   4.608  17.368 -0.4722  0.7070  0.1941
  547TMC3    C5 8116   3.119   4.493  17.375  0.4370  0.3795  0.0517
  547TMC3    C6 8117   3.026   4.476  17.276  0.0190  1.1226  0.5048
  547TMC3     C 8118   3.239   0.107  17.294  0.4887  0.4086 -0.3615
  547TMC3     O 8119   3.247   0.182  17.196  0.1527 -0.4687  0.8730
  547TMC3     H 8120   3.079   0.034  17.088 -0.8071  2.3569  2.0332
  547TMC3    H1 8121   3.260   4.610  17.454 -0.5954 -0.0186  0.3119
  547TMC3    H2 8122   2.961   4.389  17.277  2.7446 -0.9078  0.8527
  547TMC3    C7 8123   3.085   4.433  17.504 -0.0208 -0.8140  0.7108
  547TMC3    C8 8124   2.908   4.562  17.078  0.2013  0.3552  0.1059
  547TMC3    O1 8125   3.074   4.514  17.594 -0.5304 -0.4928  0.6907
  547TMC3    O2 8126   2.921   4.627  16.975  0.7353 -0.2267 -0.4220
  548MPD2     C 8127   3.336   0.767  12.443 -0.5618  0.2686  0.0030
  548MPD2    C1 8128   3.249   0.713  12.543 -0.2018  0.2981 -0.1612
  548MPD2    C2 8129   3.275   0.585  12.582  0.0722 -0.4105  0.1444
  548MPD2    C3 8130   3.366   0.506  12.518 -1.0094  0.3324 -0.1302
  548MPD2    C4 8131   3.436   0.551  12.414 -0.2303  0.0306 -0.9336
  548MPD2    C5 8132   3.427   0.685  12.377 -0.4058  0.0155  0.5409
  548MPD2     H 8133   3.211   0.541  12.658 -0.8669 -1.9169 -1.4978
  548MPD2    H1 8134   3.495   0.487  12.350  1.9756  0.9217  0.2065
  548MPD2    H2 8135   3.330   0.866  12.399 -2.3805  1.1734  2.2750
  548MPD2    H3 8136   3.470   0.709  12.281  0.1544  1.1719  1.0813
  548MPD2     N 8137   3.372   0.371  12.547  0.4932  0.2809 -0.6072
  548MPD2    H5 8138   3.310   0.352  12.625 -0.2768 -0.4641 -1.4052
  548MPD2    N1 8139   3.147   0.794  12.600 -0.7832 -0.1157  0.1948
  548MPD2    H7 8140   3.140   0.892  12.575 -0.5406  0.1175  1.0488
  549TMC3    C1 8141   2.952   0.856  12.722 -0.0626 -0.0198 -0.8457
  549TMC3    C2 8142   2.875   0.917  12.624  0.0920  0.0453  0.6005
  549TMC3    C3 8143   2.748   0.956  12.660  0.5151  0.2397 -0.3637
  549TMC3    C4 8144   2.904   0.843  12.850 -0.2292  0.0968  0.5365
  549TMC3    C5 8145   2.784   0.893  12.880 -0.1929 -1.1895  0.4664
  549TMC3    C6 8146   2.698   0.951  12.789 -0.0214  0.3293 -0.5092
  549TMC3     C 8147   3.056   0.754  12.692 -0.0192 -0.7981 -0.2654
  549TMC3     O 8148   3.043   0.650  12.759 -0.4000  0.1240  0.6113
  549TMC3     H 8149   2.909   0.899  12.523 -1.9566 -0.6564  0.0389
  549TMC3    H1 8150   2.973   0.821  12.931 -1.5862 -1.2385  1.3341
  549TMC3    H2 8151   2.593   0.967  12.807 -0.2942 -0.3815 -1.4648
  549TMC3    C7 8152   2.714   0.836  12.998  0.4999  0.4092 -0.0848
  549TMC3    C8 8153   2.675   1.043  12.568  0.7646 -0.3057  0.2870
  549TMC3    O1 8154   2.602   0.873  13.028  0.0998  0.1428  0.5592
  549TMC3    O2 8155   2.556   1.017  12.550  0.7873  0.3487  0.3376
  550TMC3    C1 8156   1.414   3.234  12.432 -0.1341 -0.1760  0.4414
  550TMC3    C2 8157   1.385   3.343  12.501  0.0752  0.4267  0.0043
  550TMC3    C3 8158   1.288   3.428  12.454 -0.4949 -0.3335 -0.0816
  550TMC3    C4 8159   1.353   3.207  12.308 -0.3952 -0.0454  0.8370
  550TMC3    C5 8160   1.261   3.296  12.264  0.2146 -0.2037 -0.8990
  550TMC3    C6 8161   1.218   3.398  12.340  0.1736  0.1030  0.4889
  550TMC3     C 8162   1.548   3.184  12.460 -0.2943  0.3347 -0.0025
  550TMC3     O 8163   1.609   3.220  12.558 -0.3860  0.4171 -0.1524
  550TMC3     H 8164   1.439   3.373  12.590  1.1321  1.5972 -1.0266
  550TMC3    H1 8165   1.345   3.108  12.264 -2.0919 -1.2721  3.8993
  550TMC3    H2 8166   1.153   3.468  12.289  1.9253  0.1280 -1.6893
  550TMC3    C7 8167   1.214   3.286  12.129  0.0805  0.1380  0.1952
  550TMC3    C8 8168   1.269   3.561  12.493  0.7318  0.1051 -0.9472
  550TMC3    O1 8169   1.092   3.311  12.112  0.2035  0.1883  0.5072
  550TMC3    O2 8170   1.198   3.632  12.420  0.2919  0.3356 -0.0252
  551TMC3    C1 8171   4.352   1.074  13.346  0.9188  0.2088 -0.3237
  551TMC3    C2 8172   4.476   1.092  13.298  0.1217  0.0610 -0.0640
  551TMC3    C3 8173   4.553   1.184  13.367 -0.6984  0.6750  0.0212
  551TMC3    C4 8174   4.310   1.137  13.465 -0.5895 -0.1390  0.2971
  551TMC3    C5 8175   4.396   1.222  13.525  0.1467  0.4206  0.1777
  551TMC3    C6 8176   4.515   1.251  13.478  0.1049 -0.7640  0.1216
  551TMC3     C 8177   4.246   1.017  13.256  0.1501  0.2301  0.2193
  551TMC3     O 8178   4.262   1.028  13.137 -0.3878  0.6988 -0.1113
  551TMC3     H 8179   4.520   1.041  13.213 -2.0994 -0.6530 -0.7803
  551TMC3    H1 8180   4.217   1.128  13.520  0.1385  0.9173  1.6678
  551TMC3    H2 8181   4.583   1.316  13.531 -1.9628 -0.1947  2.0700
  551TMC3    C7 8182   4.346   1.309  13.627 -0.5162  0.7111 -0.7014
  551TMC3    C8 8183   4.657   1.249  13.290 -0.1404  0.4621 -0.0998
  551TMC3    O1 8184   4.352   1.275  13.745  0.4124  0.4007 -0.2638
  551TMC3    O2 8185   0.007   1.183  13.225 -0.0206 -0.4634 -0.3599
  552MPD2     C 8186   1.115   3.301  14.169  0.4342 -0.3207 -0.4560
  552MPD2    C1 8187   1.232   3.251  14.109  0.2261 -0.1398 -0.2088
  552MPD2    C2 8188   1.354   3.261  14.173  0.8726  0.2575 -0.0087
  552MPD2    C3 8189   1.366   3.324  14.293 -0.0091  0.0364 -0.0553
  552MPD2    C4 8190   1.250   3.379  14.355  0.6500  0.4938 -0.3814
  552MPD2    C5 8191   1.133   3.369  14.285  0.2205  0.1684 -0.0051
  552MPD2     H 8192   1.444   3.222  14.127 -0.4891 -2.1950 -0.5830
  552MPD2    H1 8193   1.259   3.422  14.454 -2.2762  2.6444 -1.0583
  552MPD2    H2 8194   1.013   3.290  14.134  0.4364 -0.5841 -0.3766
  552MPD2    H3 8195   1.053   3.408  14.348  0.7170 -0.4045  0.9735
  552MPD2     N 8196   1.494   3.328  14.360 -0.4503  0.1186  0.0824
  552MPD2    H5 8197   1.571   3.278  14.315  0.5772  2.5601 -0.8961
  552MPD2    N1 8198   1.238   3.192  13.981  0.1498 -0.6705 -0.4434
  552MPD2    H7 8199   1.321   3.139  13.956  1.5016 -0.0872  2.8455
  553TMC3    C1 8200   1.145   3.089  13.781 -0.8966 -0.0709 -0.2643
  553TMC3    C2 8201   1.063   3.093  13.673  1.0452 -0.0013  0.1292
  553TMC3    C3 8202   1.077   3.002  13.573 -0.3358 -0.0940  0.3155
  553TMC3    C4 8203   1.248   2.985  13.799  0.0566  0.4523  0.3554
  553TMC3    C5 8204   1.240   2.891  13.704 -0.1273  0.6390  0.1781
  553TMC3    C6 8205   1.160   2.895  13.595  0.5579  0.1393 -0.7030
  553TMC3     C 8206   1.133   3.185  13.888 -0.6827 -0.3929  0.0889
  553TMC3     O 8207   1.027   3.248  13.875 -0.1409 -0.4125  0.0841
  553TMC3     H 8208   1.000   3.179  13.652  1.4967  0.4943  0.7956
  553TMC3    H1 8209   1.290   2.960  13.895 -1.1635 -0.6854  0.5962
  553TMC3    H2 8210   1.166   2.817  13.521  0.9025 -3.2430  2.8796
  553TMC3    C7 8211   1.314   2.766  13.725 -0.0154  0.0088  0.1118
  553TMC3    C8 8212   1.091   3.050  13.434  0.2207 -0.3408  0.1870
  553TMC3    O1 8213   1.253   2.668  13.690  0.1424 -0.6589 -0.7428
  553TMC3    O2 8214   1.205   3.041  13.394 -0.4102  0.2778 -0.2691
  554TMC3    C1 8215   2.803   2.198  11.329  1.0460  0.6018 -0.1542
  554TMC3    C2 8216   2.725   2.174  11.220 -0.2182  0.0298 -0.4223
  554TMC3    C3 8217   2.730   2.258  11.113 -0.3648  0.2860  0.6165
  554TMC3    C4 8218   2.885   2.303  11.332 -0.2928  0.0901  0.4929
  554TMC3    C5 8219   2.884   2.388  11.224 -0.5542 -0.9833  0.7787
  554TMC3    C6 8220   2.804   2.367  11.115 -0.5679  0.2201  0.0240
  554TMC3     C 8221   2.792   2.113  11.444 -0.2909  0.4101 -0.1676
  554TMC3     O 8222   2.694   2.038  11.445  0.0123 -0.5367 -0.5692
  554TMC3     H 8223   2.666   2.083  11.209  0.4863 -0.3002 -1.4566
  554TMC3    H1 8224   2.933   2.330  11.426 -2.6360 -2.1462  2.3096
  554TMC3    H2 8225   2.817   2.429  11.026 -2.2816  0.1462 -0.2881
  554TMC3    C7 8226   2.980   2.491  11.199  0.8458  0.5869 -0.0477
  554TMC3    C8 8227   2.690   2.211  10.981  0.4778 -0.1327  0.0341
  554TMC3    O1 8228   2.948   2.586  11.132 -0.3605 -0.1871 -0.5835
  554TMC3    O2 8229   2.663   2.297  10.895  0.3456 -0.3101 -0.1090
  555TMC3    C1 8230   2.397   1.802  15.361 -0.0118 -0.1128 -0.1932
  555TMC3    C2 8231   2.400   1.872  15.473 -0.0867  0.5776 -0.4611
  555TMC3    C3 8232   2.402   1.805  15.592 -0.5179 -0.4670  0.0851
  555TMC3    C4 8233   2.381   1.669  15.359  0.2837 -0.3657 -0.2663
  555TMC3    C5 8234   2.388   1.605  15.479 -0.4804 -0.3418  0.4037
  555TMC3    C6 8235   2.392   1.672  15.597 -0.5188 -0.1661  0.2105
  555TMC3     C 8236   2.379   1.866  15.229  0.2169 -0.1370 -0.2279
  555TMC3     O 8237   2.287   1.827  15.155 -0.1038 -0.0051  0.3541
  555TMC3     H 8238   2.403   1.980  15.479  0.6680  0.4350  1.8825
  555TMC3    H1 8239   2.360   1.621  15.264  1.2632  1.2698 -1.3144
  555TMC3    H2 8240   2.374   1.608  15.683 -1.2831 -1.6566 -1.0688
  555TMC3    C7 8241   2.344   1.470  15.485 -0.4261 -0.1566  0.5748
  555TMC3    C8 8242   2.365   1.877  15.714 -0.4778 -0.0302  0.6734
  555TMC3    O1 8243   2.282   1.426  15.585  0.4644 -0.3822 -0.2438
  555TMC3    O2 8244   2.323   1.992  15.698 -0.3552  0.4189 -0.2383
  556MPD2     C 8245   0.894   3.289  10.545  0.2938  0.4041 -0.0226
  556MPD2    C1 8246   0.773   3.245  10.589  0.8122 -0.3850  0.3484
  556MPD2    C2 8247   0.723   3.126  10.538  0.8899 -0.2409  0.2648
  556MPD2    C3 8248   0.794   3.060  10.445  0.6144  0.0858 -0.1554
  556MPD2    C4 8249   0.920   3.100  10.404  0.8567 -0.3772 -0.2259
  556MPD2    C5 8250   0.966   3.210  10.461 -0.0373 -0.2211  0.2162
  556MPD2     H 8251   0.623   3.092  10.566  0.0742  1.0576 -1.0477
  556MPD2    H1 8252   0.987   3.054  10.333  1.4099 -0.3043  0.2514
  556MPD2    H2 8253   0.938   3.375  10.594  1.1179 -0.0707  0.0818
  556MPD2    H3 8254   1.066   3.240  10.430 -0.3493 -0.2402 -0.8137
  556MPD2     N 8255   0.730   2.948  10.397  0.3125  0.6543  0.2297
  556MPD2    H5 8256   0.642   2.923  10.441  1.8461 -1.0124  2.3457
  556MPD2    N1 8257   0.697   3.319  10.685  0.5320  0.3181  0.1293
  556MPD2    H7 8258   0.607   3.274  10.702  0.2595  0.8604  0.1062
  557TMC3    C1 8259   0.689   2.748  10.271  0.4171  0.4227 -0.0979
  557TMC3    C2 8260   0.743   2.643  10.209 -0.3129  1.0586  0.4733
  557TMC3    C3 8261   0.661   2.541  10.178  0.4261  0.0316  0.2296
  557TMC3    C4 8262   0.551   2.765  10.283  0.2004 -0.1074  0.4929
  557TMC3    C5 8263   0.473   2.659  10.251  0.5608 -0.1125 -0.3313
  557TMC3    C6 8264   0.525   2.541  10.199  0.0279  0.7107  0.3929
  557TMC3     C 8265   0.771   2.865  10.295  0.3509  0.6413 -0.0290
  557TMC3     O 8266   0.885   2.861  10.245 -0.4240  0.5016  0.7823
  557TMC3     H 8267   0.850   2.626  10.203 -0.7956 -0.8311 -2.7595
  557TMC3    H1 8268   0.515   2.863  10.310 -1.5725 -1.0393  1.5173
  557TMC3    H2 8269   0.467   2.457  10.162 -0.6807  1.2810  0.2174
  557TMC3    C7 8270   0.334   2.697  10.228 -0.7037 -0.3703  0.3667
  557TMC3    C8 8271   0.728   2.451  10.093 -0.3294 -0.4201 -0.1522
  557TMC3    O1 8272   0.309   2.815  10.227 -0.5878  0.1296 -0.2740
  557TMC3    O2 8273   0.816   2.499  10.028  0.6331  0.2669  0.6477
  558TMC3    C1 8274   3.019   1.090  10.081  0.4454 -0.0458 -0.5899
  558TMC3    C2 8275   2.903   1.040  10.121 -0.0013  0.4475  0.3765
  558TMC3    C3 8276   2.800   1.049  10.034  0.3181 -0.0931  0.3609
  558TMC3    C4 8277   3.035   1.148   9.961 -0.4514 -0.0597 -0.7765
  558TMC3    C5 8278   2.930   1.161   9.876 -0.1128  0.9153  0.1549
  558TMC3    C6 8279   2.808   1.105   9.913  0.0664 -0.5476 -0.5933
  558TMC3     C 8280   3.131   1.100  10.173 -0.6390  0.2933  0.2463
  558TMC3     O 8281   3.241   1.124  10.124  0.1038 -0.1467  0.4820
  558TMC3     H 8282   2.890   0.990  10.216 -1.6754 -1.0036 -0.6167
  558TMC3    H1 8283   3.126   1.201   9.935  0.4749 -1.1659  0.1589
  558TMC3    H2 8284   2.722   1.120   9.849 -0.6559  0.5907  0.6369
  558TMC3    C7 8285   2.925   1.274   9.777  0.3045  0.3187 -0.1405
  558TMC3    C8 8286   2.660   1.038  10.078 -0.1374 -0.3995  0.0765
  558TMC3    O1 8287   3.002   1.365   9.782  0.3973  0.3896  0.1655
  558TMC3    O2 8288   2.571   1.055   9.996  0.2532 -0.9855 -0.1799
  559MPD2     C 8289   2.945   1.438  10.102  0.1583  0.8773 -0.2772
  559MPD2    C1 8290   2.880   1.461  10.218  0.6729 -0.4927  0.1450
  559MPD2    C2 8291   2.955   1.482  10.330  0.1269  0.4564 -0.0677
  559MPD2    C3 8292   3.094   1.479  10.324 -0.2239  0.7059  0.7283
  559MPD2    C4 8293   3.162   1.462  10.207  0.0115  0.0930 -0.1203
  559MPD2    C5 8294   3.082   1.440  10.091  0.0016 -0.2091 -0.1321
  559MPD2     H 8295   2.912   1.493  10.429  1.1069  0.3369  0.3721
  559MPD2    H1 8296   3.270   1.472  10.200 -0.0984  1.2140 -0.2261
  559MPD2    H2 8297   2.895   1.432  10.005  0.7331  0.7023 -0.5589
  559MPD2    H3 8298   3.137   1.429   9.999  0.0299  0.1335 -0.1527
  559MPD2     N 8299   3.152   1.503  10.451 -0.0046 -0.3734  0.3346
  559MPD2    H5 8300   3.088   1.511  10.529  0.4999 -1.2734  0.8448
  559MPD2    N1 8301   2.743   1.453  10.216 -0.4797  0.1682 -0.2005
  559MPD2    H7 8302   2.703   1.449  10.123  0.2971  0.1019 -0.5312
  560TMC3    C1 8303   3.306   1.497  10.621 -0.1014  0.5095 -0.3167
  560TMC3    C2 8304   3.217   1.425  10.699  0.0347 -0.0193 -0.1451
  560TMC3    C3 8305   3.260   1.378  10.822  0.3332  0.0788 -0.7680
  560TMC3    C4 8306   3.421   1.534  10.669  0.2316  0.4975 -0.2382
  560TMC3    C5 8307   3.463   1.493  10.793  0.9074  0.6249  0.2888
  560TMC3    C6 8308   3.382   1.415  10.873 -0.7407 -0.6036 -0.7418
  560TMC3     C 8309   3.289   1.507  10.480 -0.1440 -0.0509 -0.4513
  560TMC3     O 8310   3.382   1.481  10.408 -0.5093  0.3375  0.1069
  560TMC3     H 8311   3.119   1.391  10.666 -0.3998  2.1376 -1.0803
  560TMC3    H1 8312   3.496   1.575  10.602  0.6843 -2.3801 -1.4995
  560TMC3    H2 8313   3.415   1.376  10.968  1.5053  2.5304 -0.2465
  560TMC3    C7 8314   3.581   1.551  10.846 -0.0060  0.1123  0.4295
  560TMC3    C8 8315   3.171   1.291  10.887  0.1661  0.2676  0.2865
  560TMC3    O1 8316   3.621   1.662  10.809 -0.0160  0.1632 -0.2717
  560TMC3    O2 8317   3.049   1.303  10.865  0.4179 -0.2508  0.2616
  561TMC3    C1 8318   0.912   0.552  11.281  0.7018 -0.4448  0.5856
  561TMC3    C2 8319   0.813   0.513  11.367  0.4538  0.4692 -0.8282
  561TMC3    C3 8320   0.757   0.607  11.454 -0.0333  0.4947  0.4132
  561TMC3    C4 8321   0.949   0.685  11.269 -0.2608 -0.2474  0.3980
  561TMC3    C5 8322   0.893   0.775  11.349 -0.1278 -0.4693  0.0750
  561TMC3    C6 8323   0.810   0.739  11.454 -0.2555  0.3641  0.1633
  561TMC3     C 8324   0.966   0.447  11.202 -0.6629 -0.2398 -0.1996
  561TMC3     O 8325   0.893   0.363  11.155 -0.3261  0.1692 -0.3792
  561TMC3     H 8326   0.791   0.407  11.375  0.6064  0.5210  0.3080
  561TMC3    H1 8327   1.022   0.712  11.193  1.1250 -1.7874  1.1670
  561TMC3    H2 8328   0.783   0.815  11.527  0.3881  0.1609  0.6062
  561TMC3    C7 8329   0.912   0.920  11.330 -0.6356  0.7974 -0.9367
  561TMC3    C8 8330   0.670   0.547  11.553 -0.3683 -0.5337 -0.2005
  561TMC3    O1 8331   0.853   1.005  11.399  0.6825  0.2091  0.2041
  561TMC3    O2 8332   0.657   0.426  11.553  0.0348  0.0203  0.2544
  562TMC3    C1 8333   2.019   2.122  16.353  0.1256 -0.3809  0.4876
  562TMC3    C2 8334   2.009   2.242  16.290  0.1922  0.0736  0.4937
  562TMC3    C3 8335   1.996   2.237  16.154 -0.0439 -0.0331  0.2189
  562TMC3    C4 8336   2.015   2.004  16.298 -0.1871 -0.2439  0.2211
  562TMC3    C5 8337   1.984   1.998  16.166  0.3767 -0.2821 -0.4327
  562TMC3    C6 8338   1.983   2.118  16.092 -0.0777 -0.2945  0.3280
  562TMC3     C 8339   2.059   2.115  16.487 -0.5184  0.4749  0.1944
  562TMC3     O 8340   2.136   2.022  16.507 -0.2699 -0.1072  0.1747
  562TMC3     H 8341   2.024   2.335  16.343  1.7088  0.9724 -1.5127
  562TMC3    H1 8342   1.977   1.925  16.361  0.3057 -0.8643 -0.2599
  562TMC3    H2 8343   1.970   2.111  15.985 -0.4194 -0.0009  0.3492
  562TMC3    C7 8344   1.959   1.873  16.105 -0.5204  0.2252  0.5489
  562TMC3    C8 8345   2.026   2.365  16.091 -0.2908  0.9242 -0.1503
  562TMC3    O1 8346   1.920   1.864  15.991  0.3939  0.3220  0.1243
  562TMC3    O2 8347   2.038   2.459  16.167  0.2686 -0.1832 -0.2902
  563MPD2     C 8348   0.423   2.670  15.199  0.2075 -0.1905 -0.5570
  563MPD2    C1 8349   0.329   2.769  15.212 -0.0773 -0.3252  0.2924
  563MPD2    C2 8350   0.367   2.896  15.262  0.4594 -0.0892  0.3114
  563MPD2    C3 8351   0.494   2.918  15.293 -0.0663  0.1553 -1.8569
  563MPD2    C4 8352   0.592   2.821  15.268 -0.4991  0.4348 -0.0055
  563MPD2    C5 8353   0.551   2.692  15.237 -0.0023  0.0852 -0.1602
  563MPD2     H 8354   0.287   2.965  15.289 -0.3431 -1.1049  0.5104
  563MPD2    H1 8355   0.692   2.833  15.306 -0.4263  0.9861 -0.3688
  563MPD2    H2 8356   0.393   2.570  15.172  1.9112 -1.3796  2.0435
  563MPD2    H3 8357   0.619   2.608  15.247  0.2368  0.3516  0.4310
  563MPD2     N 8358   0.517   3.037  15.362 -0.5902  0.0843 -0.3160
  563MPD2    H5 8359   0.439   3.092  15.397  0.3948 -0.2083  2.4086
  563MPD2    N1 8360   0.192   2.743  15.185  1.2338 -0.1781  0.3506
  563MPD2    H7 8361   0.172   2.644  15.171  0.8655 -0.0151 -0.2669
  564TMC3    C1 8362   4.683   2.763  15.169  0.1653  0.3400  0.3564
  564TMC3    C2 8363   4.670   2.633  15.215  0.5139 -0.5460 -0.4935
  564TMC3    C3 8364   4.552   2.589  15.257  0.0533 -0.2685 -0.4288
  564TMC3    C4 8365   4.574   2.852  15.186 -0.6190  0.0219  0.2771
  564TMC3    C5 8366   4.465   2.808  15.258 -0.0686 -0.2589 -0.0949
  564TMC3    C6 8367   4.447   2.669  15.280 -0.1339  0.3828 -0.1423
  564TMC3     C 8368   0.086   2.826  15.171  0.0487  0.7476 -0.3728
  564TMC3     O 8369   0.089   2.946  15.159  0.6956 -0.3949 -0.0002
  564TMC3     H 8370   0.025   2.562  15.212  2.1285  1.3487 -0.8204
  564TMC3    H1 8371   4.589   2.955  15.154  2.5212 -0.1881  1.0833
  564TMC3    H2 8372   4.365   2.625  15.335 -0.3864  0.5743 -0.3719
  564TMC3    C7 8373   4.455   2.880  15.385  0.1965 -0.4767  0.1078
  564TMC3    C8 8374   4.558   2.478  15.351 -0.2968  0.1539  0.0424
  564TMC3    O1 8375   4.538   2.966  15.405  0.1894  0.2486  0.1328
  564TMC3    O2 8376   4.508   2.506  15.458 -0.0751 -0.3134  0.2121
  565TMC3    C1 8377   4.226   0.457  10.432  0.3860 -0.1630 -0.3693
  565TMC3    C2 8378   4.192   0.376  10.322 -0.1660  0.3315  0.1775
  565TMC3    C3 8379   4.076   0.313  10.327 -0.7818 -0.3051 -0.9183
  565TMC3    C4 8380   4.145   0.479  10.538 -0.0396 -0.3897 -0.1128
  565TMC3    C5 8381   4.024   0.415  10.535  0.4994  0.3179 -0.2433
  565TMC3    C6 8382   3.989   0.331  10.431 -0.0378  0.3681  0.4832
  565TMC3     C 8383   4.362   0.498  10.452  0.2188 -0.4989 -1.0090
  565TMC3     O 8384   4.413   0.558  10.358  0.2437  0.1982 -0.1478
  565TMC3     H 8385   4.262   0.367  10.240 -3.1801  0.6870 -2.4532
  565TMC3    H1 8386   4.173   0.551  10.614 -0.4335 -2.3412  1.8567
  565TMC3    H2 8387   3.905   0.262  10.438 -0.9068  1.5230  1.4095
  565TMC3    C7 8388   3.979   0.385  10.672 -0.2502 -0.4475 -0.1021
  565TMC3    C8 8389   4.062   0.210  10.225 -0.3612 -0.0380 -0.1416
  565TMC3    O1 8390   4.061   0.422  10.754 -0.4418  0.8227 -0.0241
  565TMC3    O2 8391   4.146   0.122  10.225 -0.0158  0.3706  0.2562
  566MPD2     C 8392   1.801   1.758  14.658  0.5668  1.1748  0.0248
  566MPD2    C1 8393   1.870   1.846  14.572  0.3082 -0.2728 -0.1227
  566MPD2    C2 8394   1.842   1.846  14.441 -0.0518  0.0417 -0.9837
  566MPD2    C3 8395   1.748   1.760  14.387 -0.1542 -0.4705 -0.8863
  566MPD2    C4 8396   1.675   1.675  14.466  0.0199 -0.2901 -0.2013
  566MPD2    C5 8397   1.704   1.680  14.601 -0.2131 -0.0458 -0.2329
  566MPD2     H 8398   1.902   1.900  14.368 -2.1642  2.0714 -1.2056
  566MPD2    H1 8399   1.600   1.606  14.429  0.8257  0.4977 -3.2482
  566MPD2    H2 8400   1.827   1.737  14.761  0.1687  1.4343  0.1792
  566MPD2    H3 8401   1.652   1.609  14.665 -0.5803  0.1508 -0.3177
  566MPD2     N 8402   1.725   1.755  14.249  0.1510  0.3679 -0.3143
  566MPD2    H5 8403   1.679   1.671  14.213  0.7031  0.3001 -0.8509
  566MPD2    N1 8404   1.988   1.905  14.622  0.4775 -0.4381  0.1578
  566MPD2    H7 8405   2.016   1.879  14.716 -0.3098 -1.2473  0.1649
  567TMC3    C1 8406   2.212   1.975  14.603 -0.5351 -0.3693 -0.7162
  567TMC3    C2 8407   2.297   2.046  14.527 -0.0157 -0.2493 -0.1198
  567TMC3    C3 8408   2.420   1.987  14.498  0.0464 -0.0360 -0.0865
  567TMC3    C4 8409   2.248   1.857  14.667 -0.5103  0.0316  0.0325
  567TMC3    C5 8410   2.372   1.808  14.638 -0.0199  0.0476 -0.0440
  567TMC3    C6 8411   2.462   1.864  14.557  0.0939  0.3560 -0.1712
  567TMC3     C 8412   2.077   1.975  14.542 -0.0209  0.6673  0.5150
  567TMC3     O 8413   2.072   2.030  14.432 -0.5806 -0.0742  0.2279
  567TMC3     H 8414   2.263   2.141  14.487  0.2185 -0.7940 -1.6080
  567TMC3    H1 8415   2.178   1.794  14.719 -0.7972  0.0745 -0.3008
  567TMC3    H2 8416   2.558   1.814  14.544  0.2129  0.2412  1.1975
  567TMC3    C7 8417   2.411   1.681  14.705 -0.6416 -0.1228 -1.2167
  567TMC3    C8 8418   2.498   2.041  14.385 -0.0615  0.4528  0.3800
  567TMC3    O1 8419   2.495   1.619  14.643 -0.5278 -0.4901  0.2400
  567TMC3    O2 8420   2.445   2.130  14.322 -0.1000  0.3049 -0.4972
  568MPD2     C 8421   3.629   1.654  16.325  0.4721  0.4881 -0.1165
  568MPD2    C1 8422   3.762   1.660  16.306  0.7246 -0.5782  0.4019
  568MPD2    C2 8423   3.811   1.698  16.182 -0.0286  0.0344  0.7781
  568MPD2    C3 8424   3.731   1.751  16.085  0.0642  0.3998  0.4967
  568MPD2    C4 8425   3.597   1.758  16.114 -0.8590  0.1556 -0.1530
  568MPD2    C5 8426   3.543   1.710  16.228 -0.4947  0.8109 -0.1483
  568MPD2     H 8427   3.919   1.699  16.168 -0.2618 -0.9343 -1.0400
  568MPD2    H1 8428   3.534   1.798  16.036 -1.8531  0.7472  0.9420
  568MPD2    H2 8429   3.594   1.609  16.418 -1.5017  2.0602 -0.0854
  568MPD2    H3 8430   3.436   1.708  16.243 -0.3558 -2.2386  0.2977
  568MPD2     N 8431   3.781   1.811  15.962 -0.2734  0.2955 -0.2559
  568MPD2    H5 8432   3.716   1.865  15.906 -1.2653  0.0976  0.7078
  568MPD2    N1 8433   3.836   1.614  16.416 -0.1224  0.0089 -0.0065
  568MPD2    H7 8434   3.789   1.611  16.506  1.7210  1.4293  1.0312
  569TMC3    C1 8435   3.939   1.913  15.818 -0.7032  0.2825  1.5111
  569TMC3    C2 8436   3.889   2.041  15.840 -0.2090  0.0070 -0.0694
  569TMC3    C3 8437   3.965   2.137  15.794  0.3253 -0.1592 -0.8198
  569TMC3    C4 8438   4.064   1.895  15.762  0.0139 -0.8882 -0.5283
  569TMC3    C5 8439   4.139   2.006  15.724  0.2912  0.9005  0.4391
  569TMC3    C6 8440   4.084   2.126  15.733 -0.1916 -0.4698  0.1976
  569TMC3     C 8441   3.910   1.814  15.921  0.6114  0.7710 -0.1263
  569TMC3     O 8442   4.007   1.752  15.963 -0.6525  0.7452 -0.1977
  569TMC3     H 8443   3.796   2.067  15.889 -0.4771  0.0368 -0.5931
  569TMC3    H1 8444   4.101   1.795  15.743  3.6131  0.4607 -0.7619
  569TMC3    H2 8445   4.128   2.212  15.685  1.9728 -1.4504  0.4296
  569TMC3    C7 8446   4.235   1.979  15.614  0.4491  0.4723  0.0257
  569TMC3    C8 8447   3.928   2.269  15.835 -0.6428  0.1016  0.2389
  569TMC3    O1 8448   4.260   1.862  15.587  0.0741 -0.3178  0.1512
  569TMC3    O2 8449   3.810   2.292  15.853 -0.3233  0.1371 -0.1488
  570TMC3    C1 8450   3.372   0.815  16.301  0.2583 -0.3393 -0.2965
  570TMC3    C2 8451   3.426   0.845  16.176  0.7900  0.1102  0.4213
  570TMC3    C3 8452   3.436   0.970  16.126  0.8039  0.0703 -0.0262
  570TMC3    C4 8453   3.318   0.919  16.376 -0.2067  0.5118 -0.4345
  570TMC3    C5 8454   3.326   1.043  16.324  0.3487 -0.1495  0.6958
  570TMC3    C6 8455   3.389   1.074  16.208 -0.2436  0.2448 -0.3634
  570TMC3     C 8456   3.352   0.676  16.339  0.2359  0.2125  0.7977
  570TMC3     O 8457   3.369   0.595  16.249 -0.1229  0.2488 -0.2389
  570TMC3     H 8458   3.476   0.765  16.123  0.1410 -0.0991  0.1137
  570TMC3    H1 8459   3.266   0.908  16.470 -1.9282 -2.0853 -1.6911
  570TMC3    H2 8460   3.392   1.174  16.166 -1.2869  1.4151  2.3877
  570TMC3    C7 8461   3.286   1.145  16.417  0.0684 -0.1143 -0.1134
  570TMC3    C8 8462   3.513   1.008  16.014  0.3495  0.9823 -0.2031
  570TMC3    O1 8463   3.314   1.123  16.534  0.4677  0.1825  0.3056
  570TMC3    O2 8464   3.561   1.120  16.019 -0.3165  0.0833  0.0796
  571MPD2     C 8465   0.922   2.508  17.454  0.4323  0.1300 -0.3994
  571MPD2    C1 8466   0.951   2.437  17.564 -0.3784 -0.0227  0.4809
  571MPD2    C2 8467   1.037   2.488  17.658 -0.3389  0.3881 -0.1646
  571MPD2    C3 8468   1.083   2.612  17.637  0.5249  0.0821  0.6771
  571MPD2    C4 8469   1.072   2.678  17.519  0.2950 -0.5509  0.5495
  571MPD2    C5 8470   0.982   2.628  17.429 -0.1547  0.6101  0.5539
  571MPD2     H 8471   1.047   2.435   0.042 -2.4410 -0.4897 -0.4276
  571MPD2    H1 8472   1.126   2.770  17.498  1.2357 -0.7035  2.2943
  571MPD2    H2 8473   0.846   2.471  17.387  0.1298 -0.3115  0.1890
  571MPD2    H3 8474   0.958   2.688  17.342  1.4390 -0.0311 -0.3395
  571MPD2     N 8475   1.171   2.672   0.017  0.8323 -0.1019 -0.9758
  571MPD2    H5 8476   1.223   2.748  17.685 -0.4564  1.9730  1.2045
  571MPD2    N1 8477   0.896   2.309  17.566 -0.5959 -0.3542  0.7632
  571MPD2    H7 8478   0.869   2.270  17.476  0.2883 -2.9591  1.6424
  572TMC3    C1 8479   1.298   2.703   0.221 -0.2498  0.4103 -0.4904
  572TMC3    C2 8480   1.350   2.655   0.335 -0.1676 -0.3391 -0.2012
  572TMC3    C3 8481   1.458   2.735   0.384  0.1446  0.6028  0.0648
  572TMC3    C4 8482   1.331   2.826   0.176  0.0596 -0.1624 -0.0744
  572TMC3    C5 8483   1.442   2.893   0.219 -0.4634 -1.0762  0.1160
  572TMC3    C6 8484   1.509   2.850   0.329 -0.0641 -1.0361  0.8491
  572TMC3     C 8485   1.211   2.614   0.138 -0.1568 -0.4330 -0.4283
  572TMC3     O 8486   1.203   2.501   0.181  0.8907  0.0636  0.3673
  572TMC3     H 8487   1.335   2.551   0.363  1.6259  0.3099  3.2166
  572TMC3    H1 8488   1.274   2.873   0.096 -1.9989 -4.0458 -0.8783
  572TMC3    H2 8489   1.604   2.892   0.359  1.4294 -3.4217 -0.5461
  572TMC3    C7 8490   1.498   2.999   0.143  0.0580  0.4981 -0.1469
  572TMC3    C8 8491   1.542   2.684   0.489  0.5506  0.3988 -0.4309
  572TMC3    O1 8492   1.441   3.015   0.036 -0.7993 -0.2321  0.5196
  572TMC3    O2 8493   1.550   2.559   0.498 -0.3462 -0.6881  0.1128
  573MPD2     C 8494   2.555   3.564   1.017  0.0968 -0.0148  0.2708
  573MPD2    C1 8495   2.681   3.608   0.980  0.4657 -0.3655 -0.1869
  573MPD2    C2 8496   2.731   3.563   0.864 -0.0820  0.4744  0.3544
  573MPD2    C3 8497   2.653   3.479   0.778 -0.6142 -0.4595 -0.7141
  573MPD2    C4 8498   2.537   3.430   0.824 -0.4901 -0.0041  0.1392
  573MPD2    C5 8499   2.480   3.477   0.938  0.0679 -0.1380 -0.2335
  573MPD2     H 8500   2.823   3.613   0.837 -0.8193  1.8465  0.3749
  573MPD2    H1 8501   2.478   3.351   0.778 -1.7153  1.9479 -1.6318
  573MPD2    H2 8502   2.508   3.598   1.109  3.2915  2.0450  1.1355
  573MPD2    H3 8503   2.378   3.461   0.971 -0.6223 -0.4459 -2.5272
  573MPD2     N 8504   2.696   3.450   0.647 -0.2749  0.1328  0.5387
  573MPD2    H5 8505   2.627   3.395   0.597 -0.8871  0.0945  1.4377
  573MPD2    N1 8506   2.758   3.682   1.070 -0.1381 -0.0788  0.3674
  573MPD2    H7 8507   2.706   3.729   1.144 -1.6614 -2.0857  0.5701
  574TMC3    C1 8508   2.794   3.508   0.449  0.5512 -0.3271 -0.4680
  574TMC3    C2 8509   2.668   3.518   0.390 -0.1422 -0.0450 -0.4263
  574TMC3    C3 8510   2.670   3.521   0.253  0.1007 -0.5300  0.7305
  574TMC3    C4 8511   2.907   3.524   0.380 -0.7656  0.1537  0.1095
  574TMC3    C5 8512   2.902   3.529   0.241 -0.9168 -0.2402  0.2371
  574TMC3    C6 8513   2.783   3.505   0.176 -0.0317  0.4293  0.4155
  574TMC3     C 8514   2.806   3.507   0.587 -0.1883 -0.6152  0.2306
  574TMC3     O 8515   2.905   3.564   0.633 -0.5294 -0.5059  0.8218
  574TMC3     H 8516   2.579   3.515   0.451 -0.7899  0.1746 -1.3555
  574TMC3    H1 8517   3.002   3.533   0.432 -0.5590  0.2953 -0.2926
  574TMC3    H2 8518   2.781   3.502   0.067 -0.4366 -1.1914  0.4656
  574TMC3    C7 8519   3.024   3.539   0.170  0.5255 -0.9347  0.1917
  574TMC3    C8 8520   2.541   3.499   0.193  0.0452  0.1221 -0.4144
  574TMC3    O1 8521   3.123   3.500   0.233 -0.4440 -0.3210 -0.1988
  574TMC3    O2 8522   2.461   3.432   0.260 -0.2552 -0.4387  0.1583
  575TMC3    C1 8523   4.054   4.108   9.905  0.2899 -0.2331  0.1023
  575TMC3    C2 8524   3.972   4.072   9.802  0.2583 -0.1737  0.4626
  575TMC3    C3 8525   3.902   4.171   9.735 -0.0017  0.2197 -0.1594
  575TMC3    C4 8526   4.064   4.236   9.941  0.8968  0.3807 -0.3552
  575TMC3    C5 8527   3.997   4.338   9.875  0.2892 -0.2629  0.6216
  575TMC3    C6 8528   3.909   4.299   9.776 -0.0110 -0.4819 -0.5934
  575TMC3     C 8529   4.148   4.015   9.960  0.3423  0.5686  0.2604
  575TMC3     O 8530   4.158   3.910   9.900  0.4821 -0.1083 -0.5924
  575TMC3     H 8531   3.970   3.968   9.769 -0.9695 -0.2109  0.6326
  575TMC3    H1 8532   4.138   4.263  10.015 -1.3573 -0.1237  2.1068
  575TMC3    H2 8533   3.856   4.377   9.723 -0.0035  0.3383  0.6065
  575TMC3    C7 8534   3.992   4.464   9.952  0.2415 -0.0431 -1.1533
  575TMC3    C8 8535   3.806   4.120   9.634 -0.6018  0.4129  0.8314
  575TMC3    O1 8536   4.086   4.477  10.031 -0.3272 -0.0209 -0.3021
  575TMC3    O2 8537   3.799   4.001   9.616 -0.1222 -0.1724  0.2261
  576MPD2     C 8538   0.085   1.094  12.791  0.6999  0.3930  0.3199
  576MPD2    C1 8539   0.087   1.177  12.681  0.2834 -0.0293 -1.0709
  576MPD2    C2 8540   0.008   1.286  12.688 -0.0118 -0.1028  0.1779
  576MPD2    C3 8541   4.656   1.303  12.797  0.7266  0.2254 -0.1561
  576MPD2    C4 8542   4.660   1.218  12.910  1.0560  0.8646  0.2021
  576MPD2    C5 8543   0.018   1.113  12.909  0.0808 -0.1894  0.4541
  576MPD2     H 8544   4.724   1.339  12.594  1.8891 -0.2363 -0.1236
  576MPD2    H1 8545   4.595   1.208  12.996  3.1986 -0.3710  1.6706
  576MPD2    H2 8546   0.146   1.005  12.796  1.9208  1.1984 -0.1893
  576MPD2    H3 8547   0.015   1.044  12.992 -1.7979 -0.6625 -0.0169
  576MPD2     N 8548   4.567   1.410  12.794 -0.6907  0.4126  0.1201
  576MPD2    H5 8549   4.567   1.475  12.716  0.1504  0.5159  0.2023
  576MPD2    N1 8550   0.169   1.163  12.566 -0.2458  0.7325 -0.0527
  576MPD2    H7 8551   0.156   1.239  12.501 -0.7529 -0.2088 -1.0375
  577TMC3    C1 8552   0.291   1.062  12.399  0.0333 -0.5792 -0.1163
  577TMC3    C2 8553   0.299   0.943  12.339  0.0459 -0.2866  0.1264
  577TMC3    C3 8554   0.329   0.931  12.206  0.3088  0.2454 -1.2715
  577TMC3    C4 8555   0.314   1.173  12.328 -0.2676 -0.0555 -0.1440
  577TMC3    C5 8556   0.333   1.166  12.186  0.1140 -0.1582  0.1019
  577TMC3    C6 8557   0.338   1.041  12.121  0.7179 -0.7086  0.0664
  577TMC3     C 8558   0.245   1.061  12.538 -0.3674 -0.5171  0.1496
  577TMC3     O 8559   0.265   0.956  12.602 -0.0857  0.2269  0.1469
  577TMC3     H 8560   0.290   0.862  12.410  1.4784  0.1209  0.7723
  577TMC3    H1 8561   0.317   1.268  12.381  0.1303  0.4391 -1.0436
  577TMC3    H2 8562   0.327   1.030  12.014 -0.4161 -0.2498  0.1411
  577TMC3    C7 8563   0.311   1.293  12.108  0.0720 -0.4392  0.4527
  577TMC3    C8 8564   0.336   0.797  12.151 -0.7143  0.4519 -1.0656
  577TMC3    O1 8565   0.340   1.394  12.175 -0.3476  0.2352 -0.7352
  577TMC3    O2 8566   0.324   0.704  12.235  0.2339  0.1657  0.5335
  578MPD2     C 8567   2.795   1.413   1.267 -0.5175 -0.4980  0.0369
  578MPD2    C1 8568   2.871   1.351   1.171  1.0138 -0.1719 -0.2691
  578MPD2    C2 8569   2.986   1.288   1.209 -0.1617  0.4561 -0.6891
  578MPD2    C3 8570   3.027   1.288   1.341 -0.3160  0.2839 -0.4756
  578MPD2    C4 8571   2.950   1.345   1.438  0.1773  1.2164 -0.1782
  578MPD2    C5 8572   2.828   1.395   1.397 -0.6150  0.6981  0.0461
  578MPD2     H 8573   3.062   1.247   1.143 -1.1206 -0.8503 -1.0019
  578MPD2    H1 8574   2.979   1.344   1.542  3.8532 -0.9070 -1.2103
  578MPD2    H2 8575   2.708   1.471   1.241 -0.3561 -0.6233 -0.7874
  578MPD2    H3 8576   2.768   1.435   1.478  0.8003  0.7339  1.0715
  578MPD2     N 8577   3.147   1.222   1.367 -0.2452  0.1170  0.0522
  578MPD2    H5 8578   3.185   1.158   1.298  0.1330  1.2830 -0.8217
  578MPD2    N1 8579   2.825   1.353   1.040  0.3387 -0.4416  0.3408
  578MPD2    H7 8580   2.738   1.401   1.019  1.3753  1.4064  0.3080
  579TMC3    C1 8581   3.356   1.179   1.477  0.2012 -0.0082 -0.2545
  579TMC3    C2 8582   3.459   1.256   1.517  0.6065  0.1001  0.2146
  579TMC3    C3 8583   3.585   1.213   1.491 -0.3602  0.3665  0.4068
  579TMC3    C4 8584   3.368   1.070   1.401  0.0176 -0.1610  0.0342
  579TMC3    C5 8585   3.495   1.029   1.374 -0.2783  0.4267  0.1708
  579TMC3    C6 8586   3.607   1.096   1.424  0.2117  0.3788 -0.3093
  579TMC3     C 8587   3.230   1.244   1.478  0.0401 -0.0472  0.0716
  579TMC3     O 8588   3.212   1.328   1.569 -0.5806  0.9229  0.4422
  579TMC3     H 8589   3.432   1.351   1.563  1.4482  0.7243 -0.5772
  579TMC3    H1 8590   3.279   1.010   1.384 -0.2074 -0.0619  0.8598
  579TMC3    H2 8591   3.705   1.059   1.399 -0.3033 -0.1043 -1.6252
  579TMC3    C7 8592   3.522   0.909   1.291 -0.4502  0.5479 -0.0914
  579TMC3    C8 8593   3.693   1.286   1.548  0.6403 -0.5988  0.0231
  579TMC3    O1 8594   3.623   0.843   1.321 -0.2785  0.4814  0.4631
  579TMC3    O2 8595   3.653   1.372   1.624 -1.0241 -0.6904  0.4576
  580TMC3    C1 8596   2.958   0.774  12.250 -0.4792  0.1525  0.5132
  580TMC3    C2 8597   3.082   0.797  12.196 -0.4651  0.0623  0.4878
  580TMC3    C3 8598   3.169   0.705  12.167 -0.1032  0.2096  0.4798
  580TMC3    C4 8599   2.926   0.641  12.273 -0.1426  0.2112 -0.6719
  580TMC3    C5 8600   3.026   0.543  12.259 -0.2239 -0.4196 -0.2193
  580TMC3    C6 8601   3.145   0.571  12.190  0.1807  0.1434 -0.4270
  580TMC3     C 8602   2.862   0.836  12.163  0.7288 -0.8508 -0.4175
  580TMC3     O 8603   2.792   0.760  12.098  0.1593  0.0194  0.6172
  580TMC3     H 8604   3.110   0.896  12.161  0.8392 -0.6434 -0.4554
  580TMC3    H1 8605   2.830   0.609  12.313  0.4645 -2.0925 -1.0599
  580TMC3    H2 8606   3.214   0.489  12.171 -0.5302 -0.4056 -0.6450
  580TMC3    C7 8607   3.022   0.436  12.352 -0.2442 -0.4346 -0.2475
  580TMC3    C8 8608   3.271   0.731  12.073 -0.1471 -0.6916  0.0407
  580TMC3    O1 8609   2.936   0.440  12.437 -0.7538 -0.3056 -0.0930
  580TMC3    O2 8610   3.310   0.845  12.065 -0.1993  0.3882 -0.2284
  581MPD2     C 8611   1.004   0.026  15.071  0.8183  0.5814 -0.9921
  581MPD2    C1 8612   0.900   4.665  15.047 -0.2923  0.1887  0.0453
  581MPD2    C2 8613   0.775   4.710  14.993 -0.2076 -0.2982  0.1870
  581MPD2    C3 8614   0.758   0.124  14.990 -0.5574 -1.1280 -0.2867
  581MPD2    C4 8615   0.856   0.215  15.019 -0.0361  0.4372 -0.5932
  581MPD2    C5 8616   0.974   0.164  15.068  0.0643  0.2236  0.2854
  581MPD2     H 8617   0.687   4.654  14.966 -0.5514  0.5729 -0.5152
  581MPD2    H1 8618   0.850   0.321  15.002  2.4187  0.9429  1.8194
  581MPD2    H2 8619   1.105   0.006  15.105 -0.0864 -1.1025  0.7482
  581MPD2    H3 8620   1.051   0.236  15.094 -0.5815  0.3335  1.9162
  581MPD2     N 8621   0.628   0.164  14.944  0.3812 -0.0436 -0.4439
  581MPD2    H5 8622   0.569   0.085  14.921 -1.3986 -0.4184  5.3452
  581MPD2    N1 8623   0.917   4.535  15.086  0.5742  0.2287 -1.0904
  581MPD2    H7 8624   1.009   4.514  15.124 -0.0754 -1.3249 -0.3669
  582TMC3    C1 8625   0.858   4.347  15.208 -0.3566 -0.3737 -0.3036
  582TMC3    C2 8626   0.911   4.404  15.318  0.4701 -0.4475 -0.7957
  582TMC3    C3 8627   0.923   4.328  15.428 -0.4584  0.2607 -0.0104
  582TMC3    C4 8628   0.825   4.214  15.208 -0.0541 -0.2745  0.2557
  582TMC3    C5 8629   0.848   4.139  15.317 -0.5498  0.6353 -0.0179
  582TMC3    C6 8630   0.891   4.198  15.431 -0.6805  0.0861  0.6751
  582TMC3     C 8631   0.826   4.426  15.095  0.5533 -0.6281 -0.5101
  582TMC3     O 8632   0.715   4.409  15.048 -0.5538  0.1483 -0.1804
  582TMC3     H 8633   0.940   4.507  15.332  1.1537  0.0205 -5.5193
  582TMC3    H1 8634   0.786   4.166  15.119  1.7809 -2.6185  0.7253
  582TMC3    H2 8635   0.901   4.137  15.520  2.0344 -0.9621 -0.3644
  582TMC3    C7 8636   0.738   4.051  15.351 -0.1957 -0.2632 -0.4210
  582TMC3    C8 8637   0.908   4.395  15.551  0.3068  0.2365  0.6780
  582TMC3    O1 8638   0.744   3.943  15.416  0.0705 -0.3288 -0.1392
  582TMC3    O2 8639   0.846   4.498  15.551 -0.1645  0.2681 -0.0303
  583MPD2     C 8640   4.677   1.693  16.133 -0.4458  0.1560  0.0539
  583MPD2    C1 8641   0.040   1.801  16.151 -0.3106  0.2478  0.8050
  583MPD2    C2 8642   0.047   1.859  16.277  0.1154  0.1837 -0.8162
  583MPD2    C3 8643   4.707   1.806  16.378 -0.0930  0.4981 -0.0317
  583MPD2    C4 8644   4.620   1.694  16.360  0.1510 -0.1137  0.0447
  583MPD2    C5 8645   4.610   1.641  16.235  0.3417  0.7778  0.5827
  583MPD2     H 8646   0.117   1.940  16.289 -0.5583  0.7895 -0.9700
  583MPD2    H1 8647   4.556   1.663  16.442 -0.7242  0.8643 -0.2688
  583MPD2    H2 8648   4.671   1.649  16.034 -2.1306  0.4333  0.0391
  583MPD2    H3 8649   4.534   1.567  16.209  0.3652  1.2048 -0.7135
  583MPD2     N 8650   0.015   1.867  16.503  0.1510  0.2502 -0.4093
  583MPD2    H5 8651   0.093   1.930  16.493  0.3821 -0.0813 -0.7079
  583MPD2    N1 8652   0.126   1.857  16.051  0.5589  0.0923  0.6836
  583MPD2    H7 8653   0.192   1.925  16.087 -0.4940  0.8274  1.2284
  584TMC3    C1 8654   0.025   1.915  16.728  0.5297  0.4541  0.3148
  584TMC3    C2 8655   0.092   2.022  16.692  0.1514  0.3151  0.5661
  584TMC3    C3 8656   0.167   2.081  16.784 -0.4694  0.2751  0.0764
  584TMC3    C4 8657   0.039   1.860  16.844 -0.6495 -0.0588 -0.7218
  584TMC3    C5 8658   0.129   1.910  16.934 -0.5679 -0.3846  0.0271
  584TMC3    C6 8659   0.191   2.033  16.909 -0.3331 -0.7042  0.4692
  584TMC3     C 8660   4.687   1.839  16.625  0.1761 -0.2295  0.5284
  584TMC3     O 8661   4.589   1.773  16.650  0.5479 -0.8651 -0.2673
  584TMC3     H 8662   0.061   2.074  16.602 -0.9674 -0.3950  0.5491
  584TMC3    H1 8663   4.724   1.760  16.853  2.2755 -1.2664 -0.1336
  584TMC3    H2 8664   0.263   2.070  16.981 -1.3431 -0.1844  1.2070
  584TMC3    C7 8665   0.146   1.847  17.065  0.0860  0.6110 -0.7809
  584TMC3    C8 8666   0.249   2.185  16.725 -0.1218  0.1616  0.0542
  584TMC3    O1 8667   0.191   1.930  17.142 -0.1020 -0.1266 -0.0006
  584TMC3    O2 8668   0.240   2.205  16.604  0.1398  0.5673  0.0703
  585MPD2     C 8669   4.649   0.651   0.448  0.1327 -0.6151  0.7200
  585MPD2    C1 8670   4.710   0.661   0.327  0.2459 -0.3162  0.5735
  585MPD2    C2 8671   4.706   0.548   0.242  0.4587 -0.6803  0.3268
  585MPD2    C3 8672   4.618   0.449   0.270  0.5406  0.4703 -0.4226
  585MPD2    C4 8673   4.565   0.434   0.402  0.9164 -0.1572 -0.2179
  585MPD2    C5 8674   4.594   0.534   0.490  0.4802 -0.9429  0.6291
  585MPD2     H 8675   0.011   0.552   0.138 -0.6517 -1.0210 -0.0322
  585MPD2    H1 8676   4.509   0.351   0.444 -1.3567  0.6588 -1.6555
  585MPD2    H2 8677   4.665   0.728   0.523 -1.1772  0.8842 -0.5465
  585MPD2    H3 8678   4.559   0.529   0.592  3.1801  1.9438  1.6962
  585MPD2     N 8679   4.586   0.345   0.177  0.6457 -0.5673 -1.0532
  585MPD2    H5 8680   4.513   0.282   0.209 -0.7649  0.1274 -2.8888
  585MPD2    N1 8681   0.050   0.788   0.302 -0.3606 -0.3880  0.0291
  585MPD2    H7 8682   0.050   0.861   0.373  2.9237 -1.5010  1.1643
  586TMC3    C1 8683   4.563   0.230  17.685 -0.4090  0.3360  0.4425
  586TMC3    C2 8684   4.633   0.127  17.632 -0.0175  0.0057 -0.0770
  586TMC3    C3 8685   4.571   0.049  17.537  0.4079  0.0279  0.6491
  586TMC3    C4 8686   4.435   0.251  17.649 -0.1327 -0.1566 -0.5294
  586TMC3    C5 8687   4.376   0.177  17.557  0.2460 -0.1527 -0.1745
  586TMC3    C6 8688   4.440   0.073  17.497  0.6601 -0.1361 -0.5135
  586TMC3     C 8689   4.633   0.329   0.045 -0.3128  0.8137  0.1787
  586TMC3     O 8690   0.001   0.368  17.687 -0.8663 -0.4737 -0.4455
  586TMC3     H 8691   0.007   0.104  17.662  0.0038  1.4535  0.9732
  586TMC3    H1 8692   4.375   0.329  17.695 -1.0892 -0.1694 -1.7868
  586TMC3    H2 8693   4.398   4.722  17.435 -0.4913 -0.8193  1.1420
  586TMC3    C7 8694   4.256   0.213  17.485  0.2549 -0.0549 -0.1008
  586TMC3    C8 8695   4.660   4.705  17.453 -0.2926 -0.7048 -0.7055
  586TMC3    O1 8696   4.206   0.120  17.429 -0.3094  0.2877 -0.1654
  586TMC3    O2 8697   0.028   4.653  17.507 -0.0391  0.4893 -0.7391
  587TMC3    C1 8698   2.176   3.944  16.727 -0.4273  0.7797  0.6825
  587TMC3    C2 8699   2.167   4.017  16.614  0.2003  0.2135  0.6160
  587TMC3    C3 8700   2.262   4.000  16.518  0.3658  0.0100 -0.3029
  587TMC3    C4 8701   2.278   3.856  16.748  0.4621  0.3686 -0.3167
  587TMC3    C5 8702   2.361   3.830  16.641 -0.5010  0.6274 -0.2316
  587TMC3    C6 8703   2.364   3.906  16.534 -0.1716 -0.6038 -0.0288
  587TMC3     C 8704   2.081   3.950  16.838  0.0182 -0.3660  0.2066
  587TMC3     O 8705   2.113   3.881  16.932  0.3805  0.7223  0.0051
  587TMC3     H 8706   2.085   4.086  16.597 -1.7263 -2.2071  0.0582
  587TMC3    H1 8707   2.284   3.798  16.839 -1.3829 -0.1228 -0.5129
  587TMC3    H2 8708   2.443   3.900  16.461  1.2381  0.0629  1.4494
  587TMC3    C7 8709   2.466   3.741  16.659  0.4192 -0.1198  0.6133
  587TMC3    C8 8710   2.272   4.083  16.400 -0.2857 -0.4833 -0.8257
  587TMC3    O1 8711   2.540   3.735  16.562 -0.1089 -0.2889 -0.3951
  587TMC3    O2 8712   2.373   4.071  16.330 -0.3729  0.2568  0.0094
  588TMC3    C1 8713   4.448   1.931   9.938  0.4323 -0.5128 -0.9743
  588TMC3    C2 8714   4.413   1.804   9.900  0.1161  0.1149 -0.0062
  588TMC3    C3 8715   4.495   1.702   9.935  0.6313 -0.8208 -1.1064
  588TMC3    C4 8716   4.570   1.962   9.998  0.3316  0.0086 -0.7606
  588TMC3    C5 8717   4.668   1.864  10.009  0.2562  0.2888 -0.0703
  588TMC3    C6 8718   4.624   1.732   9.980  0.0273 -0.4216 -0.1051
  588TMC3     C 8719   4.351   2.043   9.925 -0.0293  0.4488  0.1552
  588TMC3     O 8720   4.232   2.031   9.947 -0.8245 -0.3700 -0.2410
  588TMC3     H 8721   4.315   1.777   9.862 -1.7756  3.2521  2.6794
  588TMC3    H1 8722   4.585   2.065  10.031 -2.1304  0.2894 -0.5223
  588TMC3    H2 8723   4.692   1.648   9.989 -0.2797 -0.8197 -1.4117
  588TMC3    C7 8724   0.078   1.901   9.985  0.1425  0.2176 -0.4147
  588TMC3    C8 8725   4.433   1.564   9.936  0.1049 -0.3089  0.2081
  588TMC3    O1 8726   0.149   1.817   9.920 -0.0634  0.0261  0.6053
  588TMC3    O2 8727   4.350   1.535   9.852 -0.4628  0.0795 -0.0826
  589TMC3    C1 8728   3.974   4.633   1.299  0.6696 -0.2337  0.7661
  589TMC3    C2 8729   4.081   4.674   1.380 -0.4131  0.4459 -0.4127
  589TMC3    C3 8730   4.209   4.644   1.340  0.0178  0.6154  0.2670
  589TMC3    C4 8731   3.990   4.567   1.185 -0.1538  0.1578  0.7647
  589TMC3    C5 8732   4.120   4.529   1.160 -0.0246  0.0359 -1.2550
  589TMC3    C6 8733   4.219   4.554   1.243  0.2573 -0.1544 -0.3096
  589TMC3     C 8734   3.836   4.658   1.342  0.4998  0.1040 -0.4329
  589TMC3     O 8735   3.752   4.599   1.273 -0.4140 -0.5956  0.0824
  589TMC3     H 8736   4.074   0.004   1.472 -2.4707 -1.3593  0.5596
  589TMC3    H1 8737   3.910   4.521   1.128 -0.7445  0.2874  1.4803
  589TMC3    H2 8738   4.314   4.506   1.219 -0.4873 -1.9370  0.2782
  589TMC3    C7 8739   4.144   4.446   1.043  0.1800 -0.0327  0.1870
  589TMC3    C8 8740   4.304   4.642   1.450  0.5912  0.2517  0.0682
  589TMC3    O1 8741   4.055   4.381   0.993  0.7008  0.4497  0.1610
  589TMC3    O2 8742   4.272   4.658   1.565 -0.2987  0.1693  0.3829
  590MPD2     C 8743   2.834   2.903  16.750 -0.4454 -0.3387 -0.0110
  590MPD2    C1 8744   2.812   2.836  16.630  0.3386 -0.1604  0.3070
  590MPD2    C2 8745   2.900   2.857  16.523  0.6408  0.6680  0.1228
  590MPD2    C3 8746   3.002   2.952  16.532  0.4587  0.0901  0.4629
  590MPD2    C4 8747   3.025   3.011  16.653 -0.1350  0.0062 -0.1905
  590MPD2    C5 8748   2.945   2.984  16.755 -0.1496  0.3905 -0.1869
  590MPD2     H 8749   2.888   2.818  16.423 -0.8492  1.1453  0.1255
  590MPD2    H1 8750   3.108   3.078  16.674 -0.2677 -0.2612  1.1688
  590MPD2    H2 8751   2.781   2.882  16.842  2.1025  0.4976  1.6225
  590MPD2    H3 8752   2.970   3.030  16.851  2.0312 -0.9708 -0.1195
  590MPD2     N 8753   3.074   2.978  16.415  0.5934 -0.1087  0.8621
  590MPD2    H5 8754   3.045   2.936  16.327  1.0881 -2.0453  1.6188
  590MPD2    N1 8755   2.704   2.746  16.625  0.6628  0.4116 -0.2021
  590MPD2    H7 8756   2.652   2.733  16.710  1.6086  0.0050  0.3177
  591TMC3    C1 8757   3.219   3.090  16.274  0.1832  0.0953 -0.2289
  591TMC3    C2 8758   3.188   3.003  16.168  1.3716  0.2491  0.0415
  591TMC3    C3 8759   3.239   3.032  16.042 -1.1849  0.5605 -0.5034
  591TMC3    C4 8760   3.292   3.201  16.253 -0.2070 -0.6375 -0.0128
  591TMC3    C5 8761   3.328   3.230  16.129  0.3290 -0.1994 -0.0982
  591TMC3    C6 8762   3.313   3.150  16.018 -0.0970  0.3854  0.1631
  591TMC3     C 8763   3.177   3.072  16.406  0.1421 -0.2159 -0.7956
  591TMC3     O 8764   3.232   3.136  16.497  0.2176  0.1350 -0.1202
  591TMC3     H 8765   3.130   2.913  16.181 -0.2122  1.5374  1.9434
  591TMC3    H1 8766   3.314   3.276  16.328  2.6245 -0.8841 -0.5698
  591TMC3    H2 8767   3.327   3.181  15.915  1.1703  1.1283  0.5690
  591TMC3    C7 8768   3.297   3.368  16.102 -0.4731  0.4660 -0.5127
  591TMC3    C8 8769   3.231   2.927  15.928 -0.4609 -0.8577  0.1464
  591TMC3    O1 8770   3.223   3.418  16.189  0.4081 -0.0943 -0.0268
  591TMC3    O2 8771   3.207   2.812  15.965  0.3373  0.4963 -0.6585
  592MPD2     C 8772   3.648   4.658  11.473 -0.2656  0.4585  0.1627
  592MPD2    C1 8773   3.610   4.679  11.609 -0.4967 -1.0151  0.0696
  592MPD2    C2 8774   3.484   4.634  11.646  0.0415  0.0250  0.5834
  592MPD2    C3 8775   3.402   4.559  11.562 -1.0173  0.1032  0.3927
  592MPD2    C4 8776   3.441   4.544  11.436  0.0109  0.3936 -0.7166
  592MPD2    C5 8777   3.559   4.592  11.391 -0.7419  0.0505 -0.0198
  592MPD2     H 8778   3.445   4.661  11.744  1.1905  0.8630  0.8105
  592MPD2    H1 8779   3.382   4.498  11.358 -1.7746 -0.9049  1.3800
  592MPD2    H2 8780   3.739   4.692  11.426 -0.7690  0.8876 -0.4969
  592MPD2    H3 8781   3.587   4.573  11.288  1.5175  0.3022  0.5442
  592MPD2     N 8782   3.276   4.512  11.615 -0.1706 -0.3282  0.3235
  592MPD2    H5 8783   3.260   4.532  11.713  0.0751 -1.0603  0.5080
  592MPD2    N1 8784   3.694   0.032  11.692 -0.3016 -0.4079 -0.0337
  592MPD2    H7 8785   3.782   0.062  11.653 -0.8723  1.9171  0.4883
  593TMC3    C1 8786   3.744   0.205  11.855 -0.1185 -0.6763 -0.2835
  593TMC3    C2 8787   3.718   0.266  11.975  0.1341  0.0902 -0.5161
  593TMC3    C3 8788   3.800   0.365  12.016 -0.1303 -0.0873  0.1664
  593TMC3    C4 8789   3.849   0.247  11.769 -0.8399 -0.0293 -0.4503
  593TMC3    C5 8790   3.921   0.355  11.810  0.1111 -0.0670 -0.8492
  593TMC3    C6 8791   3.888   0.420  11.927  0.2213 -0.2621  0.1396
  593TMC3     C 8792   3.659   0.088  11.816  0.0731  0.5982 -1.2903
  593TMC3     O 8793   3.557   0.076  11.881 -0.4804  0.5079 -0.0186
  593TMC3     H 8794   3.637   0.225  12.035  1.3804 -0.4125  0.8048
  593TMC3    H1 8795   3.868   0.193  11.677  0.2732 -1.5190  0.6636
  593TMC3    H2 8796   3.944   0.509  11.956 -1.0393  1.0129 -1.3682
  593TMC3    C7 8797   4.013   0.431  11.717 -0.5380  0.4551  0.2492
  593TMC3    C8 8798   3.777   0.445  12.137  0.2831  0.4145  0.3169
  593TMC3    O1 8799   4.074   0.526  11.760 -0.4785 -0.1136  0.3594
  593TMC3    O2 8800   3.667   0.460  12.183  0.5282 -0.6366  0.0540
  594MPD2     C 8801   1.985   3.538  14.005 -0.2701 -0.6250 -0.2657
  594MPD2    C1 8802   2.019   3.541  14.137 -0.4733 -0.3328 -0.0128
  594MPD2    C2 8803   2.140   3.600  14.181  0.0444  0.1707  0.5356
  594MPD2    C3 8804   2.236   3.640  14.088 -0.3314 -0.1231 -0.5765
  594MPD2    C4 8805   2.195   3.623  13.953  0.2321  0.5845  0.6359
  594MPD2    C5 8806   2.073   3.578  13.910  0.6092 -0.2669 -0.5929
  594MPD2     H 8807   2.151   3.628  14.285 -0.4838 -0.8163  0.8650
  594MPD2    H1 8808   2.257   3.652  13.869 -0.6819  1.0454  0.1131
  594MPD2    H2 8809   1.902   3.476  13.974 -0.8796 -1.0155  2.1796
  594MPD2    H3 8810   2.057   3.561  13.804  1.6042  0.8268 -0.9146
  594MPD2     N 8811   2.354   3.705  14.136 -0.2674  0.6409 -0.1784
  594MPD2    H5 8812   2.358   3.725  14.236  0.9732  0.1204 -0.1203
  594MPD2    N1 8813   1.935   3.487  14.235  0.3291  0.2688 -0.0922
  594MPD2    H7 8814   1.848   3.458  14.190 -1.0574  2.2247  1.3420
  595TMC3    C1 8815   2.778   3.878  14.132  0.2843  0.3320 -0.0197
  595TMC3    C2 8816   2.675   3.822  14.058  0.7687  0.2212  0.0755
  595TMC3    C3 8817   2.553   3.825  14.116  0.0187  0.1348 -0.0400
  595TMC3    C4 8818   2.750   3.949  14.250  0.1461  1.3094 -0.0437
  595TMC3    C5 8819   2.626   3.956  14.295  0.1686 -0.7343 -0.2199
  595TMC3    C6 8820   2.520   3.884  14.236  0.0711 -0.5845 -0.0489
  595TMC3     C 8821   2.922   3.858  14.100 -0.3475 -0.1981  0.4568
  595TMC3     O 8822   2.996   3.873  14.196  1.0675  0.0016 -0.1046
  595TMC3     H 8823   2.697   3.782  13.960  0.3852  1.6543 -0.5864
  595TMC3    H1 8824   2.827   4.002  14.305 -1.0532 -0.1639  3.0679
  595TMC3    H2 8825   2.422   3.877  14.282 -0.3689  0.2542 -0.8618
  595TMC3    C7 8826   2.580   4.029  14.415 -0.4736  0.4114 -0.2768
  595TMC3    C8 8827   2.448   3.751  14.046  0.3689  0.1149 -0.6066
  595TMC3    O1 8828   2.459   4.014  14.446  0.3907  0.2186  0.1519
  595TMC3    O2 8829   2.467   3.717  13.929  0.3753 -0.0573  0.4222
  596MPD2     C 8830   0.948   1.128  16.565  0.4048 -0.5195 -0.2640
  596MPD2    C1 8831   1.030   1.233  16.558 -0.1940 -0.1292 -0.3915
  596MPD2    C2 8832   1.067   1.286  16.430  0.3715 -0.2184  0.3617
  596MPD2    C3 8833   1.030   1.222  16.319 -0.0134  0.2949 -0.4270
  596MPD2    C4 8834   0.937   1.122  16.326 -0.0311  0.6693 -0.1873
  596MPD2    C5 8835   0.895   1.083  16.444  0.1730  0.5450 -0.5822
  596MPD2     H 8836   1.133   1.371  16.421 -1.6494  1.0564 -2.4249
  596MPD2    H1 8837   0.899   1.082  16.233 -0.4445 -2.0036  1.1384
  596MPD2    H2 8838   0.929   1.078  16.659 -0.1567 -1.1091 -0.6931
  596MPD2    H3 8839   0.819   1.006  16.449 -1.8099  2.5483  0.2779
  596MPD2     N 8840   1.069   1.266  16.189  0.4653  0.2326  0.3506
  596MPD2    H5 8841   1.036   1.220  16.105 -0.9962 -0.6839  1.4176
  596MPD2    N1 8842   1.081   1.300  16.670 -0.3709 -0.0545  0.1373
  596MPD2    H7 8843   1.140   1.378  16.644  1.7966 -1.3109  1.3476
  597TMC3    C1 8844   1.117   1.380  16.880 -0.6381  0.0398 -0.3486
  597TMC3    C2 8845   1.216   1.330  16.959 -0.7928  0.1164  0.1823
  597TMC3    C3 8846   1.286   1.425  17.030  0.9732 -0.1824 -0.4318
  597TMC3    C4 8847   1.104   1.511  16.848  0.0175 -0.0956  0.4782
  597TMC3    C5 8848   1.176   1.601  16.932  0.1091 -0.8645  0.3798
  597TMC3    C6 8849   1.266   1.564  17.030  0.0287 -0.1511  0.0665
  597TMC3     C 8850   1.054   1.278  16.803  0.5524  0.0895 -0.5220
  597TMC3     O 8851   0.996   1.182  16.853 -0.7246  0.2319  0.1405
  597TMC3     H 8852   1.235   1.223  16.963 -1.0308 -0.0201 -2.7902
  597TMC3    H1 8853   1.030   1.538  16.773  1.1294 -0.3826 -0.7358
  597TMC3    H2 8854   1.315   1.640  17.090  2.4362  0.3985 -2.6308
  597TMC3    C7 8855   1.109   1.731  16.949 -1.0792 -0.5227  0.1968
  597TMC3    C8 8856   1.375   1.367  17.131 -0.3735  0.3316  0.1126
  597TMC3    O1 8857   1.125   1.790  17.053  0.1004  0.2099  0.2049
  597TMC3    O2 8858   1.419   1.253  17.120  0.6342  0.5494  0.0091
  598TMC3    C1 8859   4.239   3.221  15.647 -0.4896 -0.4047 -0.0088
  598TMC3    C2 8860   4.125   3.150  15.645 -0.3096 -0.2757  0.4343
  598TMC3    C3 8861   4.112   3.063  15.535  0.7251 -0.0830  0.1673
  598TMC3    C4 8862   4.313   3.253  15.538 -0.2928  0.5659 -0.2409
  598TMC3    C5 8863   4.275   3.187  15.421  0.2651 -0.4298  0.0460
  598TMC3    C6 8864   4.183   3.086  15.421  0.8151 -0.6108 -0.2252
  598TMC3     C 8865   4.265   3.287  15.777 -0.0441  0.0596  0.1563
  598TMC3     O 8866   4.216   3.231  15.876 -0.0093 -0.3977  0.0395
  598TMC3     H 8867   4.062   3.135  15.732 -1.2210 -2.4560 -0.5854
  598TMC3    H1 8868   4.402   3.314  15.548  1.6941 -2.4344  0.6590
  598TMC3    H2 8869   4.166   3.041  15.324  0.2415  0.2499 -0.5261
  598TMC3    C7 8870   4.343   3.221  15.294 -0.2680 -1.0943 -0.3690
  598TMC3    C8 8871   4.014   2.959  15.529  0.5414 -0.1763 -0.3489
  598TMC3    O1 8872   4.349   3.142  15.203 -0.2317 -0.6590  0.1731
  598TMC3    O2 8873   3.990   2.918  15.416  0.3394  0.4646 -0.1695
  599MPD2     C 8874   4.324   0.744  15.687  0.2277  0.2373 -0.4560
  599MPD2    C1 8875   4.273   0.615  15.700 -0.3824  0.0443 -0.1365
  599MPD2    C2 8876   4.141   0.592  15.742 -0.6766  0.4558 -0.3222
  599MPD2    C3 8877   4.066   0.703  15.783 -0.5555 -0.1153  0.6041
  599MPD2    C4 8878   4.124   0.826  15.777  0.3262 -0.3275  0.2574
  599MPD2    C5 8879   4.244   0.845  15.703  0.5821  0.2991 -0.1363
  599MPD2     H 8880   4.114   0.488  15.758 -1.9246  1.0022  1.1013
  599MPD2    H1 8881   4.076   0.916  15.814  0.9134 -0.5418  1.5414
  599MPD2    H2 8882   4.426   0.750  15.651  0.6356  0.2222  0.6915
  599MPD2    H3 8883   4.279   0.945  15.682  1.1662  0.1653  0.2113
  599MPD2     N 8884   3.941   0.685  15.852 -0.2019 -0.6662  1.0539
  599MPD2    H5 8885   3.908   0.768  15.901  3.9068  1.8981 -0.4652
  599MPD2    N1 8886   4.356   0.508  15.650  0.5551 -0.2193  0.3538
  599MPD2    H7 8887   4.448   0.537  15.619 -0.2847  2.9438  0.7808
  600TMC3    C1 8888   3.803   0.571  16.001  0.0406  0.4347  0.0370
  600TMC3    C2 8889   3.731   0.458  16.016  0.0139 -0.7220  0.7910
  600TMC3    C3 8890   3.648   0.443  16.125  0.9203  0.3273 -0.5245
  600TMC3    C4 8891   3.809   0.672  16.097  0.1180  0.2480 -0.2680
  600TMC3    C5 8892   3.726   0.653  16.207 -0.3756 -0.1974  0.1252
  600TMC3    C6 8893   3.651   0.534  16.229 -0.1006 -0.9881 -0.2603
  600TMC3     C 8894   3.889   0.565  15.882 -0.7662  0.1788  0.3274
  600TMC3     O 8895   3.917   0.457  15.832  0.5391 -0.5839  0.1756
  600TMC3     H 8896   3.731   0.373  15.949  0.1245  0.0874 -0.2309
  600TMC3    H1 8897   3.875   0.757  16.086  0.9064 -0.5860 -1.9595
  600TMC3    H2 8898   3.586   0.530  16.315 -0.3123 -1.0170 -0.4217
  600TMC3    C7 8899   3.726   0.754  16.312 -0.1063  0.2204  1.0456
  600TMC3    C8 8900   3.598   0.312  16.139 -0.2080 -0.3920  0.1101
  600TMC3    O1 8901   3.669   0.727  16.416  0.0894  0.1727  0.2058
  600TMC3    O2 8902   3.673   0.223  16.106 -0.1937  0.2112  0.2107
  601MPD2     C 8903   1.795   3.396   0.017  0.4804  0.2893 -0.2401
  601MPD2    C1 8904   1.675   3.354  17.685 -0.0530  0.4972  0.0459
  601MPD2    C2 8905   1.613   3.238   0.024  0.0342  0.6547 -0.4063
  601MPD2    C3 8906   1.665   3.177   0.135  0.0334 -0.5744  0.2515
  601MPD2    C4 8907   1.780   3.226   0.186  0.7513  0.0730 -0.4062
  601MPD2    C5 8908   1.856   3.324   0.122  0.0951 -0.0254 -0.5896
  601MPD2     H 8909   1.524   3.203  17.683 -1.0764  1.5046  0.9359
  601MPD2    H1 8910   1.832   3.187   0.273  0.1968 -1.1912 -0.6398
  601MPD2    H2 8911   1.844   3.481  17.681  1.1925 -0.7283 -1.3629
  601MPD2    H3 8912   1.947   3.365   0.164 -0.5941 -2.0190  2.7918
  601MPD2     N 8913   1.610   3.059   0.190 -0.5582 -0.1887  0.5513
  601MPD2    H5 8914   1.665   3.028   0.270  0.7875 -0.5204 -0.5202
  601MPD2    N1 8915   1.598   3.421  17.596 -0.0178 -0.1093 -0.2634
  601MPD2    H7 8916   1.504   3.384  17.584 -0.1132 -0.9055  3.0791
  602TMC3    C1 8917   1.522   3.590  17.441  0.1585  0.7078  0.0685
  602TMC3    C2 8918   1.520   3.725  17.429 -0.1694 -0.1045 -0.5327
  602TMC3    C3 8919   1.416   3.788  17.373 -0.4698  0.1228  0.6496
  602TMC3    C4 8920   1.412   3.520  17.417  0.4791  0.7468 -0.1383
  602TMC3    C5 8921   1.301   3.587  17.375  0.2634 -0.7968  0.0145
  602TMC3    C6 8922   1.300   3.721  17.347 -0.4263 -0.8056 -0.3007
  602TMC3     C 8923   1.636   3.532  17.522  0.0590 -0.2266  0.3625
  602TMC3     O 8924   1.739   3.607  17.532  0.0682 -0.1516 -0.2076
  602TMC3     H 8925   1.604   3.779  17.473 -1.9893 -0.7163  3.7073
  602TMC3    H1 8926   1.410   3.412  17.422  1.6589  0.8396  3.1483
  602TMC3    H2 8927   1.224   3.767  17.284 -0.7070  0.9621  1.2994
  602TMC3    C7 8928   1.171   3.520  17.355  0.4145  0.5223  1.4274
  602TMC3    C8 8929   1.422   3.932  17.373 -0.0121 -0.2062  0.1836
  602TMC3    O1 8930   1.165   3.405  17.314 -0.0428  0.4521 -0.3856
  602TMC3    O2 8931   1.523   3.998  17.389  0.5924 -0.3166  0.5474
  603TMC3    C1 8932   4.099   3.624  10.361 -0.1206 -0.0925 -0.8215
  603TMC3    C2 8933   4.141   3.596  10.492 -0.0984 -0.4832 -0.3570
  603TMC3    C3 8934   4.118   3.703  10.578 -0.0826 -0.0032  0.1566
  603TMC3    C4 8935   4.037   3.734  10.322 -0.5993 -0.1262 -0.5607
  603TMC3    C5 8936   3.996   3.819  10.422 -0.0881  0.1055  0.3705
  603TMC3    C6 8937   4.049   3.810  10.544  0.2226  0.8433 -0.0654
  603TMC3     C 8938   4.152   3.537  10.256 -0.2923  0.4401  0.0172
  603TMC3     O 8939   4.084   3.512  10.160 -0.2568  0.3796  0.0244
  603TMC3     H 8940   4.194   3.510  10.532  0.0985 -0.7843 -1.2873
  603TMC3    H1 8941   4.006   3.738  10.218  1.7930 -0.1231 -1.2790
  603TMC3    H2 8942   3.994   3.856  10.625 -2.6320 -2.7737  0.0376
  603TMC3    C7 8943   3.952   3.956  10.378 -0.2584 -0.1624  1.0043
  603TMC3    C8 8944   4.179   3.705  10.711  0.0119 -0.0147  0.4852
  603TMC3    O1 8945   3.981   4.045  10.451  0.5706  0.4694  0.2141
  603TMC3    O2 8946   4.167   3.603  10.783  0.3393 -0.5346  0.1128
  604MPD2     C 8947   0.411   2.666  15.656 -0.1867  0.1705  0.0497
  604MPD2    C1 8948   0.460   2.774  15.719  0.0250 -0.4520 -0.1983
  604MPD2    C2 8949   0.589   2.812  15.691  0.1952  0.2209 -0.0525
  604MPD2    C3 8950   0.664   2.733  15.606 -0.2459  0.0436  0.0679
  604MPD2    C4 8951   0.614   2.616  15.549  0.3159 -0.0707  0.3616
  604MPD2    C5 8952   0.483   2.594  15.571 -0.1262 -0.6893  0.0391
  604MPD2     H 8953   0.629   2.902  15.737  0.0860  0.8272 -1.1528
  604MPD2    H1 8954   0.674   2.544  15.495 -0.4576  1.5094 -2.5829
  604MPD2    H2 8955   0.309   2.636  15.679  0.1429  0.1701  1.5353
  604MPD2    H3 8956   0.444   2.504  15.524 -0.1044 -1.2099  1.0086
  604MPD2     N 8957   0.799   2.775  15.586 -0.2064 -0.5177 -0.0637
  604MPD2    H5 8958   0.827   2.860  15.634  1.0917 -1.5164  0.9445
  604MPD2    N1 8959   0.377   2.850  15.806 -0.5457  0.1372 -0.2297
  604MPD2    H7 8960   0.284   2.814  15.822 -1.4842  2.8090  0.4343
  605TMC3    C1 8961   0.292   3.035  15.936  0.5626  0.2536 -0.6102
  605TMC3    C2 8962   0.337   3.133  16.028 -0.3698  0.5029  0.0007
  605TMC3    C3 8963   0.237   3.184  16.107 -0.0634  0.1661  1.4978
  605TMC3    C4 8964   0.168   2.989  15.934  0.1052 -0.2256  0.5301
  605TMC3    C5 8965   0.075   3.044  16.019 -0.1235  0.2587  0.2334
  605TMC3    C6 8966   0.107   3.142  16.105 -0.1692  0.1650  0.0594
  605TMC3     C 8967   0.408   2.973  15.862  0.0851  0.4601  0.0322
  605TMC3     O 8968   0.513   3.042  15.855  0.0837 -0.5992 -0.0079
  605TMC3     H 8969   0.442   3.161  16.032  0.0621 -0.9227 -1.2994
  605TMC3    H1 8970   0.138   2.904  15.873 -0.3908 -0.8805  1.6813
  605TMC3    H2 8971   0.034   3.167  16.182 -2.3240  1.8253 -2.5216
  605TMC3    C7 8972   4.661   3.025  15.998 -0.6621  0.0269 -0.0903
  605TMC3    C8 8973   0.289   3.275  16.209  0.0605  0.6022 -0.2973
  605TMC3    O1 8974   4.586   3.070  16.078  0.1632 -0.4860 -0.3816
  605TMC3    O2 8975   0.408   3.266  16.245 -0.2856 -0.7057  0.0930
  606TMC3    C1 8976   1.697   1.521  17.017 -0.4653 -0.1210 -0.5684
  606TMC3    C2 8977   1.765   1.435  17.098  0.0639 -0.1976  1.1159
  606TMC3    C3 8978   1.788   1.310  17.046  0.1417  0.0267  0.4285
  606TMC3    C4 8979   1.654   1.486  16.893  0.0411  0.5782 -0.6021
  606TMC3    C5 8980   1.671   1.356  16.848 -1.3840  0.0906  0.7120
  606TMC3    C6 8981   1.739   1.271  16.925 -0.0047  0.2528 -0.0773
  606TMC3     C 8982   1.648   1.648  17.062 -0.1171  0.7330 -0.0631
  606TMC3     O 8983   1.549   1.698  17.009  0.7294  0.1463 -0.1271
  606TMC3     H 8984   1.804   1.459  17.196  0.9417  0.6968  0.5431
  606TMC3    H1 8985   1.588   1.547  16.833  1.8305  0.3912 -2.7597
  606TMC3    H2 8986   1.786   1.184  16.880 -0.8964 -0.5475  0.5427
  606TMC3    C7 8987   1.568   1.317  16.757 -0.1310  0.7055  0.3856
  606TMC3    C8 8988   1.896   1.230  17.101 -0.5358 -0.2778  0.1652
  606TMC3    O1 8989   1.531   1.393  16.671 -0.0799 -0.0171  0.0120
  606TMC3    O2 8990   1.981   1.287  17.171 -0.4643  0.0446  0.1611
  607MPD2     C 8991   3.607   4.214  12.132  0.1534  0.1629  0.0590
  607MPD2    C1 8992   3.735   4.241  12.178 -0.1912 -0.3408 -0.4502
  607MPD2    C2 8993   3.798   4.148  12.254  0.3824  0.1783  0.2575
  607MPD2    C3 8994   3.738   4.026  12.284  0.2738 -0.1160  0.5885
  607MPD2    C4 8995   3.608   3.999  12.238 -1.0800  0.3428  0.2749
  607MPD2    C5 8996   3.541   4.100  12.164  0.0024  0.1215  0.8208
  607MPD2     H 8997   3.893   4.179  12.296 -0.2439  1.6701  0.5883
  607MPD2    H1 8998   3.562   3.903  12.255  1.1171 -0.8355 -0.3551
  607MPD2    H2 8999   3.540   4.278  12.076 -1.0433 -0.6817  0.5275
  607MPD2    H3 9000   3.443   4.077  12.125  0.1292 -0.6286  0.9452
  607MPD2     N 9001   3.796   3.941  12.384  0.9535 -0.0968 -0.0331
  607MPD2    H5 9002   3.886   3.971  12.420 -0.5773 -0.6503  4.2323
  607MPD2    N1 9003   3.788   4.374  12.156  0.5433  0.1095 -0.0826
  607MPD2    H7 9004   3.870   4.402  12.209  0.0379  0.3143  0.5833
  608TMC3    C1 9005   3.791   4.589  12.094 -0.0693 -0.4207 -0.4409
  608TMC3    C2 9006   3.785   4.612  12.230 -0.6767 -0.6648 -0.6004
  608TMC3    C3 9007   3.877   4.692  12.282 -0.2021 -0.1933 -0.1311
  608TMC3    C4 9008   3.886   4.647  12.005  0.0432  0.2830  0.3599
  608TMC3    C5 9009   3.974   0.001  12.067 -0.3636 -0.3894  0.3248
  608TMC3    C6 9010   3.977   0.014  12.203 -0.3543 -0.0279 -0.5527
  608TMC3     C 9011   3.738   4.463  12.060 -0.1961  0.2649 -0.8212
  608TMC3     O 9012   3.663   4.452  11.965  0.7759 -0.5300  0.7223
  608TMC3     H 9013   3.701   4.573  12.286 -1.2605  1.3897 -0.0301
  608TMC3    H1 9014   3.878   4.624  11.900 -0.6203  2.5136 -0.0673
  608TMC3    H2 9015   4.053   0.063  12.264 -0.2428 -1.8890  0.8160
  608TMC3    C7 9016   4.060   0.081  11.976 -0.2280  0.6976  0.5049
  608TMC3    C8 9017   3.896   4.674  12.424  0.6508  0.1886 -0.3776
  608TMC3    O1 9018   4.055   0.042  11.860 -0.0197 -0.1849  0.0228
  608TMC3    O2 9019   3.857   0.034  12.503  0.2601  0.1113 -1.0262
  609TMC3    C1 9020   1.911   3.007   9.001 -0.6961  0.2189 -0.3841
  609TMC3    C2 9021   1.842   2.949   8.899  0.2229 -0.0315 -0.1388
  609TMC3    C3 9022   1.856   2.812   8.879  0.1349  1.0830 -1.0862
  609TMC3    C4 9023   1.988   2.943   9.090 -0.7674  0.5978  0.0838
  609TMC3    C5 9024   2.012   2.806   9.059 -0.5424 -0.3267 -0.6154
  609TMC3    C6 9025   1.945   2.736   8.956 -0.0223 -0.0574  0.3611
  609TMC3     C 9026   1.874   3.146   9.034  0.1416 -0.6177  0.1338
  609TMC3     O 9027   1.846   3.216   8.933 -0.0919  0.0239  0.4322
  609TMC3     H 9028   1.773   3.011   8.843 -1.2156  0.2830  1.9707
  609TMC3    H1 9029   2.041   2.998   9.167  0.5648 -1.4317  0.6228
  609TMC3    H2 9030   1.958   2.630   8.936  2.0618  0.5670 -1.6644
  609TMC3    C7 9031   2.122   2.739   9.130 -0.0428 -0.0149  0.1710
  609TMC3    C8 9032   1.759   2.741   8.812  0.2188  0.6329 -0.0711
  609TMC3    O1 9033   2.171   2.800   9.226 -0.4504 -0.4865 -0.1568
  609TMC3    O2 9034   1.750   2.621   8.835  0.3210 -0.1565  0.2525
  610TMC3    C1 9035   4.010   4.222  13.024 -0.3564  0.6785  0.4947
  610TMC3    C2 9036   4.053   4.302  12.927 -0.1781  0.1089 -0.0261
  610TMC3    C3 9037   4.167   4.260  12.854 -0.1679 -0.2184 -0.1158
  610TMC3    C4 9038   4.067   4.097  13.049  0.5322  0.0330  0.6433
  610TMC3    C5 9039   4.161   4.055  12.961  0.2386 -0.0134 -0.1533
  610TMC3    C6 9040   4.216   4.131  12.862  0.1263 -0.5637  0.4571
  610TMC3     C 9041   3.899   4.253  13.110  0.3900  0.2088 -0.4599
  610TMC3     O 9042   3.848   4.160  13.178  0.0631  0.1368 -0.7088
  610TMC3     H 9043   4.008   4.397  12.901 -0.5091  0.5165  1.9998
  610TMC3    H1 9044   4.038   4.037  13.135 -0.5100  0.3860  0.5379
  610TMC3    H2 9045   4.301   4.096  12.804  1.3711  0.8022  1.4505
  610TMC3    C7 9046   4.220   3.920  12.981  0.0370 -0.7319 -0.1594
  610TMC3    C8 9047   4.206   4.348  12.745 -0.3954 -0.7666  0.1051
  610TMC3    O1 9048   4.274   3.875  12.879 -0.0871  0.5805  0.5684
  610TMC3    O2 9049   4.162   4.463  12.757 -0.0259 -0.0822 -1.5195
  611MPD2     C 9050   3.346   3.509  10.066  0.5128 -0.0134  0.5019
  611MPD2    C1 9051   3.249   3.600  10.076 -0.1092 -0.0409 -0.4934
  611MPD2    C2 9052   3.244   3.693   9.973  0.4010  0.2911 -0.0692
  611MPD2    C3 9053   3.335   3.697   9.867  0.0741 -0.0870  0.1859
  611MPD2    C4 9054   3.428   3.599   9.860  0.4954  0.1739 -0.5703
  611MPD2    C5 9055   3.424   3.501   9.954 -0.1031 -0.7736 -0.1717
  611MPD2     H 9056   3.166   3.768   9.971  1.3183  1.2582  0.7999
  611MPD2    H1 9057   3.502   3.598   9.781  3.0246  1.0473  1.8095
  611MPD2    H2 9058   3.371   3.452  10.155  2.4440 -0.4607 -0.3314
  611MPD2    H3 9059   3.517   3.446   9.962 -0.5098 -1.5020 -0.4544
  611MPD2     N 9060   3.351   3.802   9.770 -0.4783  0.0641  0.5655
  611MPD2    H5 9061   3.429   3.797   9.706  0.9065  2.2178  2.0745
  611MPD2    N1 9062   3.150   3.603  10.185 -0.1137  0.2889  0.0963
  611MPD2    H7 9063   3.153   3.526  10.250  0.8078 -1.2966 -1.8119
  612TMC3    C1 9064   3.321   4.020   9.684  0.8120 -0.5772 -0.2238
  612TMC3    C2 9065   3.436   4.065   9.739 -0.2638 -0.6188  0.0927
  612TMC3    C3 9066   3.461   4.199   9.748 -0.0445 -0.3715  0.4874
  612TMC3    C4 9067   3.236   4.114   9.628  0.6604 -0.0820  0.5972
  612TMC3    C5 9068   3.269   4.247   9.628 -1.1940 -0.2227  0.4183
  612TMC3    C6 9069   3.373   4.289   9.699  0.5641  0.1199  0.1020
  612TMC3     C 9070   3.259   3.902   9.753 -0.0617 -0.5278  0.0113
  612TMC3     O 9071   3.147   3.915   9.801  0.0887 -0.3421  0.2869
  612TMC3     H 9072   3.501   3.992   9.787  0.8327  0.9341  0.9670
  612TMC3    H1 9073   3.142   4.083   9.584  0.6524  1.4403 -0.4733
  612TMC3    H2 9074   3.411   4.390   9.689  1.4275 -0.1813  0.2946
  612TMC3    C7 9075   3.217   4.341   9.528  0.0948 -0.5640 -0.1265
  612TMC3    C8 9076   3.554   4.249   9.843  0.0633 -0.6462  0.8696
  612TMC3    O1 9077   3.242   4.463   9.537  0.4128 -0.2808  0.3858
  612TMC3    O2 9078   3.599   4.362   9.827 -0.5437  0.2383  0.1293
  613MPD2     C 9079   2.870   1.291  16.922  0.6049 -0.0431  0.3700
  613MPD2    C1 9080   2.799   1.394  16.853 -0.0678  0.4944  0.8551
  613MPD2    C2 9081   2.670   1.350  16.810 -0.1993 -0.4563 -0.3794
  613MPD2    C3 9082   2.627   1.218  16.843 -0.0409  0.4206 -0.4459
  613MPD2    C4 9083   2.705   1.128  16.913 -0.3250  0.6058 -0.6269
  613MPD2    C5 9084   2.835   1.161  16.944  0.3810 -0.4087  0.3974
  613MPD2     H 9085   2.611   1.424  16.758  1.9319 -0.8750 -3.3735
  613MPD2    H1 9086   2.671   1.029  16.940  1.4388 -0.2742 -1.6172
  613MPD2    H2 9087   2.973   1.312  16.948  0.3818  0.4991  0.8095
  613MPD2    H3 9088   2.908   1.089  16.978  0.5838 -0.0198  0.7828
  613MPD2     N 9089   2.509   1.161  16.800  0.7450 -0.3956 -0.2711
  613MPD2    H5 9090   2.486   1.065  16.824  1.0184  0.2017  2.3685
  613MPD2    N1 9091   2.858   1.522  16.850 -0.0304 -1.0055  0.3891
  613MPD2    H7 9092   2.937   1.527  16.914 -1.9304  2.4742  2.4278
  614TMC3    C1 9093   2.780   1.592  16.634 -0.2027  0.3242  0.1411
  614TMC3    C2 9094   2.836   1.485  16.566 -0.4969  0.0367 -0.0232
  614TMC3    C3 9095   2.784   1.446  16.447 -0.4502 -0.2269  0.0952
  614TMC3    C4 9096   2.665   1.661  16.589 -0.1410 -0.1359  0.0301
  614TMC3    C5 9097   2.613   1.622  16.474 -0.0506 -0.0820 -1.1110
  614TMC3    C6 9098   2.672   1.517  16.402 -0.1487 -0.2597  0.4316
  614TMC3     C 9099   2.824   1.624  16.768 -0.1274  0.4376 -0.2487
  614TMC3     O 9100   2.862   1.741  16.782  0.0461 -0.8825  0.2325
  614TMC3     H 9101   2.925   1.434  16.602  0.4444  1.5846 -0.1489
  614TMC3    H1 9102   2.623   1.742  16.649  2.8818  0.3548  1.4691
  614TMC3    H2 9103   2.642   1.493  16.301 -0.8653 -0.0013  0.5874
  614TMC3    C7 9104   2.530   1.726  16.416 -1.5079 -0.4910 -0.6261
  614TMC3    C8 9105   2.783   1.306  16.421  0.2246 -0.7007  0.2616
  614TMC3    O1 9106   2.503   1.826  16.482  0.7120  0.0773 -0.1920
  614TMC3    O2 9107   2.817   1.234  16.513 -0.2830 -0.2760 -0.0793
  615MPD2     C 9108   1.768   3.021  16.629  0.3605  0.9366 -0.2419
  615MPD2    C1 9109   1.857   2.930  16.589  0.1242 -0.5729 -0.1868
  615MPD2    C2 9110   1.817   2.837  16.498 -0.7470  0.5460 -0.2380
  615MPD2    C3 9111   1.694   2.856  16.434 -0.0228 -0.8268 -0.1399
  615MPD2    C4 9112   1.611   2.955  16.479  0.1101 -0.8722  0.3242
  615MPD2    C5 9113   1.641   3.031  16.588 -0.6438  0.4598 -0.5957
  615MPD2     H 9114   1.885   2.757  16.473  0.4376  1.9558 -1.6161
  615MPD2    H1 9115   1.520   2.984  16.428 -0.2570  0.2198  1.5746
  615MPD2    H2 9116   1.787   3.087  16.713 -2.4150  0.2229  0.9546
  615MPD2    H3 9117   1.580   3.107  16.635  2.0245  1.1297  1.8402
  615MPD2     N 9118   1.648   2.776  16.322 -0.1009 -0.2627  0.0680
  615MPD2    H5 9119   1.562   2.803  16.275  0.9928  0.0876 -1.6931
  615MPD2    N1 9120   1.989   2.920  16.638 -0.0451 -0.3790 -0.2499
  615MPD2    H7 9121   2.043   2.837  16.616 -1.1086 -1.0978 -0.1368
  616TMC3    C1 9122   2.206   2.980  16.718 -0.1020  0.3233  0.3627
  616TMC3    C2 9123   2.266   2.980  16.595  0.1255  0.0960  0.5621
  616TMC3    C3 9124   2.403   3.000  16.599 -0.2976 -0.7506 -0.0440
  616TMC3    C4 9125   2.269   2.996  16.839 -0.2003 -0.8117 -0.0220
  616TMC3    C5 9126   2.406   2.991  16.838  0.4504  0.3269 -0.4733
  616TMC3    C6 9127   2.472   3.005  16.718 -0.2031 -0.1500 -0.7739
  616TMC3     C 9128   2.055   3.005  16.723 -0.0437  0.3395  0.2445
  616TMC3     O 9129   2.020   3.110  16.777  0.3914 -0.3123  0.5660
  616TMC3     H 9130   2.209   2.977  16.503  0.5479 -1.3654  0.3473
  616TMC3    H1 9131   2.205   3.001  16.926  0.5317  1.3275  0.3944
  616TMC3    H2 9132   2.581   3.008  16.715 -0.2494  0.5837 -1.4963
  616TMC3    C7 9133   2.485   3.028  16.950 -0.5092 -0.6168 -0.6805
  616TMC3    C8 9134   2.478   3.013  16.467  0.2296  0.4108 -0.6230
  616TMC3    O1 9135   2.608   3.033  16.940 -0.7049 -0.7390 -0.6208
  616TMC3    O2 9136   2.419   2.968  16.370  0.0848  0.3193 -0.1855
  617MPD2     C 9137   0.148   1.511  13.887  0.7539 -0.2433 -0.7469
  617MPD2    C1 9138   0.203   1.459  13.998 -0.1755 -0.1187 -0.5729
  617MPD2    C2 9139   0.136   1.375  14.082  0.5553 -0.3274 -0.6398
  617MPD2    C3 9140   0.006   1.346  14.055 -0.4337  0.0439 -0.3232
  617MPD2    C4 9141   4.675   1.401  13.946  0.4092 -0.2966  0.0305
  617MPD2    C5 9142   0.014   1.483  13.861  0.4565 -0.1542  0.0104
  617MPD2     H 9143   0.184   1.338  14.172 -0.3789  0.5802  0.2409
  617MPD2    H1 9144   4.570   1.385  13.922 -0.0299  1.1073  1.0773
  617MPD2    H2 9145   0.206   1.570  13.817  2.0607 -2.2544 -1.3522
  617MPD2    H3 9146   4.692   1.522  13.773  1.2679 -0.7107 -0.7012
  617MPD2     N 9147   4.655   1.261  14.127  0.2523  0.3480  0.6182
  617MPD2    H5 9148   4.561   1.249  14.089  0.0784  0.1248  1.1259
  617MPD2    N1 9149   0.337   1.502  14.013  0.4008 -0.2537  0.0757
  617MPD2    H7 9150   0.378   1.531  13.925 -2.7578  1.4715 -0.8136
  618TMC3    C1 9151   0.554   1.490  14.099  0.0800 -0.7426  0.0899
  618TMC3    C2 9152   0.600   1.380  14.024  0.0888 -0.4457 -0.3020
  618TMC3    C3 9153   0.741   1.372  14.016  0.0258 -0.3080  0.2238
  618TMC3    C4 9154   0.628   1.600  14.137  0.0692 -0.0034  0.6918
  618TMC3    C5 9155   0.761   1.587  14.111 -0.3854  0.2461 -0.0719
  618TMC3    C6 9156   0.816   1.478  14.059  0.2174  0.1853  0.8916
  618TMC3     C 9157   0.409   1.489  14.122 -0.6379  0.2669 -0.4281
  618TMC3     O 9158   0.372   1.458  14.237  0.2301 -0.2526 -0.1058
  618TMC3     H 9159   0.535   1.313  13.968  2.5168 -0.9586 -2.4850
  618TMC3    H1 9160   0.582   1.693  14.167 -2.6370 -0.4027 -2.2125
  618TMC3    H2 9161   0.923   1.469  14.054  0.3228  1.2570  1.0182
  618TMC3    C7 9162   0.821   1.709  14.075  0.6246  0.5081 -0.2168
  618TMC3    C8 9163   0.790   1.295  13.906  0.6325  0.0612 -0.5338
  618TMC3    O1 9164   0.797   1.803  14.151  0.2431  0.5396  0.3009
  618TMC3    O2 9165   0.715   1.267  13.815 -0.0418  0.8404  0.3658
  619MPD2     C 9166   1.453   2.781  13.229  0.3568  0.2804 -0.2397
  619MPD2    C1 9167   1.354   2.814  13.137 -0.1190 -0.7563  0.6794
  619MPD2    C2 9168   1.221   2.763  13.152  0.6170 -0.6651 -0.1022
  619MPD2    C3 9169   1.189   2.694  13.268 -0.0415  0.4220 -0.3173
  619MPD2    C4 9170   1.285   2.662  13.357 -0.0204  1.0903  0.2194
  619MPD2    C5 9171   1.416   2.705  13.335 -0.8277 -0.5395 -0.1214
  619MPD2     H 9172   1.141   2.787  13.083  1.9920  4.3784  0.0262
  619MPD2    H1 9173   1.266   2.613  13.451 -0.2687 -1.5680 -1.1922
  619MPD2    H2 9174   1.552   2.826  13.226  0.9013 -1.0271 -2.1814
  619MPD2    H3 9175   1.491   2.670  13.405  0.4351 -1.7428 -2.0672
  619MPD2     N 9176   1.064   2.647  13.299 -0.3939  0.2609  0.0185
  619MPD2    H5 9177   1.051   2.610  13.393  2.3554 -1.2720 -0.2041
  619MPD2    N1 9178   1.383   2.892  13.030 -0.0505 -0.8755 -0.3887
  619MPD2    H7 9179   1.300   2.898  12.970  1.3526 -0.1142 -2.2614
  620TMC3    C1 9180   1.490   3.064  12.909 -0.1765  0.5704 -0.0340
  620TMC3    C2 9181   1.374   3.064  12.839  0.3491  0.0627 -0.5203
  620TMC3    C3 9182   1.321   3.181  12.786  0.1505 -0.5135  0.0543
  620TMC3    C4 9183   1.543   3.180  12.950 -0.3739  0.7248 -0.3705
  620TMC3    C5 9184   1.476   3.293  12.929  0.0917 -0.0944  0.2921
  620TMC3    C6 9185   1.374   3.296  12.839 -0.0131 -0.3659  0.2185
  620TMC3     C 9186   1.503   2.960  13.014  0.5490  0.9536 -0.4547
  620TMC3     O 9187   1.609   2.962  13.071 -0.0305  0.1813  0.3551
  620TMC3     H 9188   1.332   2.977  12.789  1.0089 -0.7004  0.2698
  620TMC3    H1 9189   1.631   3.183  13.013 -0.1433  0.3443 -0.6777
  620TMC3    H2 9190   1.329   3.391  12.810 -1.4927 -0.9494  0.5912
  620TMC3    C7 9191   1.443   3.363  13.052  0.6018  0.3767  0.5953
  620TMC3    C8 9192   1.177   3.183  12.812  0.0137 -0.6721 -0.4108
  620TMC3    O1 9193   1.375   3.462  13.040  0.1811 -0.1044  0.0890
  620TMC3    O2 9194   1.104   3.259  12.748 -0.0248 -0.4844 -0.5823
  621MPD2     C 9195   1.887   2.340  10.068 -0.3305  0.2051 -0.0096
  621MPD2    C1 9196   1.966   2.376  10.169 -0.4061 -0.0992  0.6894
  621MPD2    C2 9197   2.061   2.472  10.141  0.4221 -0.2511 -0.7131
  621MPD2    C3 9198   2.061   2.547  10.021 -0.5784  0.0411  0.3079
  621MPD2    C4 9199   1.972   2.514   9.917  0.2124  0.0612  0.0515
  621MPD2    C5 9200   1.884   2.409   9.947 -0.4079  0.0293  0.1461
  621MPD2     H 9201   2.134   2.491  10.220  1.1031 -2.6593 -0.7644
  621MPD2    H1 9202   1.959   2.571   9.826 -2.5667  0.1427  0.4998
  621MPD2    H2 9203   1.809   2.268  10.092 -0.2693  0.0048 -0.4126
  621MPD2    H3 9204   1.817   2.372   9.870  1.6252  0.9976 -2.0854
  621MPD2     N 9205   2.158   2.654  10.017 -0.1847 -0.3254 -0.4168
  621MPD2    H5 9206   2.228   2.649  10.090 -0.6559 -0.2533  0.0326
  621MPD2    N1 9207   1.970   2.316  10.300 -0.0410  0.0329 -0.3186
  621MPD2    H7 9208   2.043   2.358  10.356 -0.4675  0.7212 -0.2730
  622TMC3    C1 9209   1.926   2.174  10.482 -0.2845  0.1219  0.0013
  622TMC3    C2 9210   1.968   2.277  10.565  0.0771  0.3225 -0.6163
  622TMC3    C3 9211   1.994   2.245  10.696 -0.1024  0.1378 -0.0713
  622TMC3    C4 9212   1.913   2.046  10.521  0.1762  0.3954 -0.3442
  622TMC3    C5 9213   1.950   2.020  10.649 -0.6382 -0.3501  0.2721
  622TMC3    C6 9214   1.995   2.117  10.736  0.0493  0.6792  0.4067
  622TMC3     C 9215   1.899   2.208  10.343  0.1364  0.8683 -0.6334
  622TMC3     O 9216   1.831   2.129  10.276  0.6293 -0.5375 -0.1815
  622TMC3     H 9217   1.970   2.381  10.533  0.5942  0.8013  0.9576
  622TMC3    H1 9218   1.871   1.980  10.446  0.2443 -0.8060  0.6943
  622TMC3    H2 9219   2.016   2.088  10.838 -0.4524 -1.1160 -0.0047
  622TMC3    C7 9220   1.949   1.882  10.701 -0.3759  0.2262 -0.3184
  622TMC3    C8 9221   1.979   2.342  10.803 -0.1391  0.0977 -0.7962
  622TMC3    O1 9222   1.953   1.853  10.821 -0.5932 -0.2244  0.2965
  622TMC3    O2 9223   2.031   2.321  10.915  0.1491  0.3216  0.5515
  623MPD2     C 9224   1.063   3.592  15.799 -0.3401 -0.5344  0.5800
  623MPD2    C1 9225   0.941   3.560  15.860 -0.7221  0.2589  0.0334
  623MPD2    C2 9226   0.922   3.595  15.991 -0.2758  0.3075 -0.7056
  623MPD2    C3 9227   1.032   3.654  16.062 -0.2944  0.1580  0.4376
  623MPD2    C4 9228   1.156   3.659  16.000  0.5472  0.6042  0.4621
  623MPD2    C5 9229   1.174   3.626  15.869 -0.4491  1.2618 -0.8325
  623MPD2     H 9230   0.824   3.583  16.035  0.0638  1.3736  0.3252
  623MPD2    H1 9231   1.243   3.697  16.053  1.2125  1.1625 -1.0092
  623MPD2    H2 9232   1.068   3.589  15.691  2.0428  0.0948  0.6824
  623MPD2    H3 9233   1.275   3.634  15.829 -0.0752 -1.6642 -0.5112
  623MPD2     N 9234   1.022   3.689  16.201 -0.2010 -0.1311  0.6138
  623MPD2    H5 9235   1.109   3.698  16.252 -0.7066  0.2769  1.4009
  623MPD2    N1 9236   0.836   3.490  15.788 -0.2271  0.5405 -0.7052
  623MPD2    H7 9237   0.759   3.451  15.841  0.7628 -0.8313 -0.2668
  624TMC3    C1 9238   0.961   3.564  16.543 -0.0227  0.2621 -0.3755
  624TMC3    C2 9239   0.832   3.536  16.566  0.1865 -0.8463 -0.6560
  624TMC3    C3 9240   0.740   3.624  16.519  0.7368 -0.3037  0.2662
  624TMC3    C4 9241   0.996   3.669  16.459  0.6710 -0.4288  0.0481
  624TMC3    C5 9242   0.896   3.743  16.402  0.1505 -0.6445 -0.3214
  624TMC3    C6 9243   0.769   3.727  16.434 -0.2374 -0.1637 -0.3942
  624TMC3     C 9244   1.062   3.483  16.601 -0.1902  0.0388  0.2091
  624TMC3     O 9245   1.029   3.410  16.692  0.2392  0.2693  0.2251
  624TMC3     H 9246   0.796   3.464  16.639  2.0506 -1.3946 -0.2781
  624TMC3    H1 9247   1.098   3.704  16.451  0.1572  0.8326 -1.1315
  624TMC3    H2 9248   0.685   3.774  16.383  1.6702  2.6350 -0.9435
  624TMC3    C7 9249   0.911   3.754  16.258  0.3145 -0.5686  0.0310
  624TMC3    C8 9250   0.609   3.564  16.512  0.6919 -0.4647  0.3149
  624TMC3    O1 9251   0.815   3.798  16.198 -0.4677  0.3713 -0.2284
  624TMC3    O2 9252   0.619   3.440  16.490  0.1464  0.1608  0.0214
  625MPD2     C 9253   1.459   3.758   0.521 -0.6403  0.1377  0.4645
  625MPD2    C1 9254   1.497   3.889   0.529 -0.0467  0.3326  0.4315
  625MPD2    C2 9255   1.600   3.920   0.615  0.2151 -0.2956  0.2840
  625MPD2    C3 9256   1.670   3.831   0.690 -0.1331  0.3393 -0.1639
  625MPD2    C4 9257   1.630   3.702   0.683  0.0546 -0.1878 -0.2293
  625MPD2    C5 9258   1.529   3.668   0.605 -0.4738  0.1640  0.3903
  625MPD2     H 9259   1.625   4.023   0.638 -3.3728  0.4071  0.9090
  625MPD2    H1 9260   1.675   3.621   0.740  1.5781 -1.4397 -3.2452
  625MPD2    H2 9261   1.371   3.727   0.467 -1.6037  0.9834  1.5466
  625MPD2    H3 9262   1.505   3.564   0.591 -0.9763  0.2951  0.2813
  625MPD2     N 9263   1.782   3.878   0.759 -0.4083  0.1793 -0.0509
  625MPD2    H5 9264   1.811   3.975   0.751  0.1394 -0.1504 -2.0872
  625MPD2    N1 9265   1.429   3.998   0.486  0.5477 -0.0991 -0.0556
  625MPD2    H7 9266   1.470   4.090   0.504  0.0547 -0.1087  1.0438
  626TMC3    C1 9267   1.266   4.129   0.378  0.2065  0.0898 -0.4343
  626TMC3    C2 9268   1.156   4.128   0.299 -0.6206  0.0529 -0.0886
  626TMC3    C3 9269   1.101   4.255   0.271  0.1297 -0.1198 -0.2790
  626TMC3    C4 9270   1.317   4.242   0.444 -0.4612 -0.0713  0.2624
  626TMC3    C5 9271   1.259   4.361   0.411  0.0515 -0.0734 -1.0202
  626TMC3    C6 9272   1.143   4.368   0.338 -0.1097 -0.1331  0.0992
  626TMC3     C 9273   1.310   3.997   0.421  0.2615  0.0893 -0.3204
  626TMC3     O 9274   1.243   3.897   0.390  0.5438  0.6460  0.6327
  626TMC3     H 9275   1.109   4.041   0.256 -1.3340  0.7739 -0.7773
  626TMC3    H1 9276   1.391   4.244   0.523 -1.3176 -1.5895  1.1129
  626TMC3    H2 9277   1.099   4.462   0.305  0.6100  0.4722  0.8769
  626TMC3    C7 9278   1.305   4.474   0.490 -0.6664  0.8338  0.1415
  626TMC3    C8 9279   0.970   4.256   0.211  0.3891 -0.2621 -0.3736
  626TMC3    O1 9280   1.423   4.471   0.532 -0.0168  0.2215  0.4043
  626TMC3    O2 9281   0.900   4.156   0.216 -0.0913  0.4440  0.4829
  627MPD2     C 9282   0.175   0.033  14.378  0.0559 -0.1208  0.9855
  627MPD2    C1 9283   0.103   0.040  14.494  0.5972  0.1221 -0.6768
  627MPD2    C2 9284   4.725   4.682  14.509 -0.4659  0.2189  0.5841
  627MPD2    C3 9285   4.692   4.588  14.406  0.5837  0.4455  0.1177
  627MPD2    C4 9286   0.047   4.595  14.291  0.0130 -0.5024  0.1668
  627MPD2    C5 9287   0.144   4.687  14.274  0.3808  0.2018  0.3842
  627MPD2     H 9288   4.668   4.674  14.600 -0.2761 -2.1934  0.4948
  627MPD2    H1 9289   0.025   4.529  14.207 -1.5374 -1.5697  1.4230
  627MPD2    H2 9290   0.255   0.102  14.353 -0.1722 -0.1543  0.1781
  627MPD2    H3 9291   0.201   4.705  14.184  2.4012  2.6786  2.1334
  627MPD2     N 9292   4.582   4.506  14.421 -0.1669  0.6945  0.1468
  627MPD2    H5 9293   4.515   4.535  14.491  0.3489  0.6848  0.6517
  627MPD2    N1 9294   0.135   0.128  14.602 -0.2651  0.0893  0.3395
  627MPD2    H7 9295   0.079   0.124  14.686 -0.7513 -1.9886 -0.0809
  628TMC3    C1 9296   0.274   0.261  14.745 -0.8412  0.1131 -0.9132
  628TMC3    C2 9297   0.404   0.235  14.792  0.4437 -0.4020 -0.4812
  628TMC3    C3 9298   0.437   0.298  14.911  0.2413  0.4066  0.1336
  628TMC3    C4 9299   0.187   0.337  14.819 -0.4775 -0.3966  0.5843
  628TMC3    C5 9300   0.236   0.397  14.934 -0.2352  0.5393  0.6943
  628TMC3    C6 9301   0.357   0.375  14.986  0.0702  0.1195  0.2836
  628TMC3     C 9302   0.247   0.207  14.609  0.1311  0.3994 -0.7292
  628TMC3     O 9303   0.342   0.197  14.534 -0.0954 -0.1130  0.5846
  628TMC3     H 9304   0.488   0.192  14.738  0.9436  0.7856 -0.6608
  628TMC3    H1 9305   0.094   0.351  14.765 -2.0754  1.2428  3.8393
  628TMC3    H2 9306   0.403   0.450  15.050 -0.1122  0.4824 -0.0126
  628TMC3    C7 9307   0.161   0.515  14.983  0.6215  0.5416  0.4747
  628TMC3    C8 9308   0.579   0.295  14.948  0.1312 -0.3367  0.5463
  628TMC3    O1 9309   0.187   0.544  15.097  0.1848 -0.3645 -0.0356
  628TMC3    O2 9310   0.625   0.396  14.995  0.1132 -0.9582  0.2272
  629MPD2     C 9311   2.865   3.249  16.205 -0.5308 -0.2401 -0.4011
  629MPD2    C1 9312   2.887   3.271  16.342  0.4222 -0.7934  0.2107
  629MPD2    C2 9313   2.794   3.211  16.429  0.0436  1.0971  1.2667
  629MPD2    C3 9314   2.679   3.146  16.390 -0.0758 -0.3241 -0.3479
  629MPD2    C4 9315   2.659   3.131  16.255  0.0039 -0.1123 -0.0086
  629MPD2    C5 9316   2.751   3.185  16.170 -0.3501 -0.0501 -0.2491
  629MPD2     H 9317   2.807   3.216  16.536  1.8067  1.3950  1.0375
  629MPD2    H1 9318   2.580   3.070  16.213  1.1907  0.1127 -2.5508
  629MPD2    H2 9319   2.929   3.299  16.133  0.0355  0.1163  0.3520
  629MPD2    H3 9320   2.731   3.178  16.064 -0.9657  2.4164 -0.2950
  629MPD2     N 9321   2.593   3.091  16.486  0.0559  0.0622  0.3051
  629MPD2    H5 9322   2.623   3.113  16.580 -2.0789 -1.6972  1.4091
  629MPD2    N1 9323   3.001   3.350  16.390  0.2234  0.2940  0.5775
  629MPD2    H7 9324   3.061   3.401  16.326 -0.5668  2.4439  1.5696
  630TMC3    C1 9325   3.150   3.456  16.541 -0.3988 -0.1325 -0.1984
  630TMC3    C2 9326   3.166   3.570  16.459 -0.2914 -0.2909 -0.5572
  630TMC3    C3 9327   3.287   3.629  16.467 -0.2906  0.5599 -0.3058
  630TMC3    C4 9328   3.233   3.422  16.647 -0.2772 -0.1431  1.0947
  630TMC3    C5 9329   3.351   3.481  16.643  0.0849 -0.5729  0.8251
  630TMC3    C6 9330   3.381   3.579  16.556  0.1449  0.6999  0.0129
  630TMC3     C 9331   3.032   3.366  16.520  0.0465 -0.3254  1.0134
  630TMC3     O 9332   2.990   3.311  16.618  0.1730  0.4039  0.4949
  630TMC3     H 9333   3.093   3.610  16.390 -1.8512 -0.2118  1.1476
  630TMC3    H1 9334   3.218   3.329  16.700 -1.8662 -0.8973 -0.6895
  630TMC3    H2 9335   3.472   3.636  16.567 -0.1336  0.7688  1.9706
  630TMC3    C7 9336   3.469   3.398  16.674  0.2265 -0.1202 -0.9499
  630TMC3    C8 9337   3.356   3.671  16.349 -0.1982 -0.2034  0.9164
  630TMC3    O1 9338   3.470   3.326  16.770 -0.1997 -0.0676 -0.6366
  630TMC3    O2 9339   3.462   3.610  16.332 -0.3743  1.2062 -0.5292
  631MPD2     C 9340   1.209   3.255  15.775  0.6536 -0.3816  0.0565
  631MPD2    C1 9341   1.338   3.227  15.723 -0.2544  0.4247  0.0578
  631MPD2    C2 9342   1.410   3.126  15.781  0.1529  0.2610 -0.9772
  631MPD2    C3 9343   1.352   3.043  15.872 -0.1754  0.6323 -0.4524
  631MPD2    C4 9344   1.220   3.060  15.919 -0.4936 -0.1184  0.7801
  631MPD2    C5 9345   1.150   3.169  15.879 -0.1306 -0.2167 -0.8214
  631MPD2     H 9346   1.511   3.115  15.743  0.2632 -2.3989  0.1326
  631MPD2    H1 9347   1.183   3.002  16.003 -0.9432  0.9478  1.3171
  631MPD2    H2 9348   1.145   3.327  15.724 -0.4844 -0.0598  1.9362
  631MPD2    H3 9349   1.049   3.189  15.910  0.2880  1.6605 -0.6705
  631MPD2     N 9350   1.436   2.938  15.914 -0.1004  0.0862  0.4206
  631MPD2    H5 9351   1.529   2.933  15.873  0.4784  1.3287  1.5964
  631MPD2    N1 9352   1.391   3.307  15.620  0.2427 -0.3256 -0.0460
  631MPD2    H7 9353   1.348   3.398  15.602  2.7170  0.6342 -1.0262
  632TMC3    C1 9354   1.535   3.390  15.468  0.9710  0.1064  0.5067
  632TMC3    C2 9355   1.503   3.515  15.521 -0.1203 -0.2310  0.0213
  632TMC3    C3 9356   1.505   3.623  15.439  0.1990 -0.2896 -0.1325
  632TMC3    C4 9357   1.570   3.382  15.335 -0.6048 -0.5469 -0.2061
  632TMC3    C5 9358   1.567   3.492  15.259  0.3243 -0.2776 -0.6978
  632TMC3    C6 9359   1.532   3.610  15.307  0.4048  0.0082 -0.5646
  632TMC3     C 9360   1.492   3.273  15.531 -0.0190 -0.4657  0.0793
  632TMC3     O 9361   1.531   3.168  15.485  0.0299 -0.3038  1.2302
  632TMC3     H 9362   1.473   3.533  15.623  1.1150  0.7916  0.1985
  632TMC3    H1 9363   1.603   3.290  15.289 -0.0383 -0.4857  0.0852
  632TMC3    H2 9364   1.527   3.699  15.246  2.5190  0.2537 -0.3686
  632TMC3    C7 9365   1.665   3.491  15.156 -0.3221  0.2444  0.6594
  632TMC3    C8 9366   1.451   3.744  15.499  0.5768  0.4697  0.5595
  632TMC3    O1 9367   1.750   3.403  15.151  0.1024 -0.5344 -0.0654
  632TMC3    O2 9368   1.352   3.797  15.452  0.0586 -0.5250 -0.7742
  633MPD2     C 9369   0.502   1.309  16.837  0.1879  0.2031  0.2712
  633MPD2    C1 9370   0.475   1.206  16.749 -0.0764  0.0156 -0.1135
  633MPD2    C2 9371   0.538   1.081  16.778 -0.0586 -0.3896  0.2621
  633MPD2    C3 9372   0.640   1.073  16.875  0.0460 -0.4391  0.7007
  633MPD2    C4 9373   0.673   1.175  16.947  0.4347 -0.7299 -0.4172
  633MPD2    C5 9374   0.603   1.295  16.937 -0.6005  0.2363  0.1847
  633MPD2     H 9375   0.504   0.993  16.726  1.6147 -1.1835  0.5252
  633MPD2    H1 9376   0.752   1.163  17.019  0.4881  0.8191 -0.2127
  633MPD2    H2 9377   0.448   1.403  16.840 -1.8792 -0.9342 -1.2367
  633MPD2    H3 9378   0.623   1.381  17.000 -0.0454  0.0676  0.2355
  633MPD2     N 9379   0.714   0.961  16.893  0.3533 -0.7049  0.2502
  633MPD2    H5 9380   0.805   0.975  16.936  0.8106  1.9988 -1.6306
  633MPD2    N1 9381   0.394   1.222  16.630 -0.2779 -0.1413 -0.2008
  633MPD2    H7 9382   0.372   1.140  16.576 -0.0657 -1.6443  1.9924
  634TMC3    C1 9383   0.277   1.327  16.458  0.1406 -0.0024  0.3130
  634TMC3    C2 9384   0.361   1.256  16.371 -0.1229 -0.2377  0.5138
  634TMC3    C3 9385   0.377   1.303  16.246 -0.5644 -0.3492 -0.2704
  634TMC3    C4 9386   0.226   1.450  16.422 -0.0327 -0.2116  0.7365
  634TMC3    C5 9387   0.264   1.501  16.300 -0.1292 -0.4825 -0.4475
  634TMC3    C6 9388   0.336   1.430  16.213 -0.6981 -0.1661 -0.5120
  634TMC3     C 9389   0.345   1.345  16.583  0.0082 -0.6050  0.4072
  634TMC3     O 9390   0.334   1.461  16.624 -0.3511 -0.1745 -0.1109
  634TMC3     H 9391   0.407   1.161  16.396  1.7913 -0.1018 -2.5942
  634TMC3    H1 9392   0.165   1.506  16.491 -0.1558  1.7191 -0.9400
  634TMC3    H2 9393   0.358   1.467  16.114  1.8315  1.9832  0.8742
  634TMC3    C7 9394   0.307   1.644  16.294 -0.1337  0.3192 -0.3422
  634TMC3    C8 9395   0.481   1.231  16.173 -0.2958 -0.7257  0.3110
  634TMC3    O1 9396   0.345   1.700  16.191 -0.8500  0.5037  0.7158
  634TMC3    O2 9397   0.467   1.110  16.184 -0.5072 -0.0288  0.6060
  635TMC3    C1 9398   0.834   2.101  17.650  0.2676 -0.4349  0.0557
  635TMC3    C2 9399   0.858   2.037  17.528  0.4553 -0.2875  0.3485
  635TMC3    C3 9400   0.828   1.903  17.518  0.9057 -0.2274  0.2898
  635TMC3    C4 9401   0.797   2.031   0.048  0.3357  0.8521 -0.3174
  635TMC3    C5 9402   0.780   1.890   0.037  0.8764 -0.2154  0.1214
  635TMC3    C6 9403   0.802   1.827  17.630  0.2403  0.3661 -0.0134
  635TMC3     C 9404   0.876   2.234  17.681 -0.0143 -0.6364  0.7512
  635TMC3     O 9405   0.897   2.271   0.088 -0.2155 -0.2268  0.0057
  635TMC3     H 9406   0.890   2.084  17.436 -0.3471 -2.9983 -1.3108
  635TMC3    H1 9407   0.798   2.077   0.146  2.8394 -0.0035  0.0495
  635TMC3    H2 9408   0.775   1.722  17.623  1.7731 -0.1651  2.2211
  635TMC3    C7 9409   0.738   1.805   0.151 -0.1830  0.0202 -0.0164
  635TMC3    C8 9410   0.834   1.841  17.386  0.5488  0.7055 -0.7827
  635TMC3    O1 9411   0.751   1.683   0.137 -0.1302 -0.8516  0.0292
  635TMC3    O2 9412   0.826   1.915  17.287  0.3945  0.3186  0.2275
  636MPD2     C 9413   1.948   1.575  16.067 -0.1048 -0.4385  0.0254
  636MPD2    C1 9414   2.014   1.634  16.161  0.0517  0.5053  0.0230
  636MPD2    C2 9415   2.093   1.553  16.241  0.0791 -0.7354  0.3845
  636MPD2    C3 9416   2.096   1.416  16.234 -0.0582 -0.7114 -0.6474
  636MPD2    C4 9417   2.020   1.359  16.139 -1.1118  0.4259 -0.4840
  636MPD2    C5 9418   1.941   1.442  16.061 -0.5886  0.2220 -0.1949
  636MPD2     H 9419   2.146   1.601  16.323 -0.0428  1.6097 -0.9220
  636MPD2    H1 9420   2.009   1.252  16.147 -0.5293  0.3619 -0.5411
  636MPD2    H2 9421   1.875   1.636  16.014 -0.6701 -0.4724  0.7564
  636MPD2    H3 9422   1.878   1.408  15.980 -0.2584 -1.7494  0.3604
  636MPD2     N 9423   2.171   1.344  16.331  0.1398  0.0431 -0.3019
  636MPD2    H5 9424   2.207   1.406  16.402 -0.8545  1.6630 -1.2136
  636MPD2    N1 9425   2.012   1.772  16.183 -0.3000 -0.1484  0.3708
  636MPD2    H7 9426   2.061   1.807  16.265 -1.3834  0.2329  0.8596
  637TMC3    C1 9427   2.296   1.170  16.425  0.1381  0.4857  0.6528
  637TMC3    C2 9428   2.263   1.189  16.556 -0.4079 -0.0763 -0.1627
  637TMC3    C3 9429   2.334   1.131  16.659  0.4387  0.1581 -0.6472
  637TMC3    C4 9430   2.376   1.065  16.387  0.0597  0.0587 -0.5056
  637TMC3    C5 9431   2.431   0.987  16.494  0.0768  0.5364  0.0147
  637TMC3    C6 9432   2.407   1.019  16.628  0.5245  0.8311 -0.3384
  637TMC3     C 9433   2.207   1.218  16.319 -0.2190 -0.2087  0.0757
  637TMC3     O 9434   2.202   1.137  16.228  0.1248  0.8202 -0.2977
  637TMC3     H 9435   2.202   1.277  16.571 -0.9612 -0.8117  1.7561
  637TMC3    H1 9436   2.415   1.051  16.286 -0.6629 -0.0974 -0.7630
  637TMC3    H2 9437   2.428   0.942  16.702  0.3676 -0.9698 -2.1742
  637TMC3    C7 9438   2.500   0.855  16.476  0.1861 -0.1529  0.5733
  637TMC3    C8 9439   2.411   1.223  16.732  0.2647 -1.0461  0.2881
  637TMC3    O1 9440   2.498   0.782  16.572  0.0138  0.0162  0.6868
  637TMC3    O2 9441   2.389   1.341  16.706 -0.1474 -0.1525  0.2929
  638MPD2     C 9442   2.320   0.629  14.762 -0.7086  0.3833 -0.1015
  638MPD2    C1 9443   2.233   0.545  14.688  0.4816 -0.0375  0.9971
  638MPD2    C2 9444   2.162   0.453  14.767 -0.2712  0.0087  0.0580
  638MPD2    C3 9445   2.175   0.457  14.903  0.0351  0.2745  0.1254
  638MPD2    C4 9446   2.233   0.556  14.973 -0.9872  0.5342 -1.2232
  638MPD2    C5 9447   2.317   0.638  14.901  0.2839  0.6134  0.0545
  638MPD2     H 9448   2.119   0.362  14.727 -0.3005 -0.2088  0.5885
  638MPD2    H1 9449   2.228   0.565  15.081  0.7406 -2.1561 -0.9131
  638MPD2    H2 9450   2.388   0.696  14.710 -0.2658  0.9903  1.2588
  638MPD2    H3 9451   2.383   0.709  14.952  0.7574  1.9266 -2.3799
  638MPD2     N 9452   2.127   0.346  14.972 -0.2469  0.1906 -0.3303
  638MPD2    H5 9453   2.074   0.280  14.916  1.7802 -0.6488 -1.2556
  638MPD2    N1 9454   2.239   0.543  14.547  0.3230  0.4270  0.4520
  638MPD2    H7 9455   2.297   0.616  14.508 -2.4765  2.1014 -0.5599
  639TMC3    C1 9456   2.124   0.183  15.129  0.0310 -0.3719 -0.5910
  639TMC3    C2 9457   1.996   0.141  15.113 -0.5774  0.3816  0.0767
  639TMC3    C3 9458   1.965   0.010  15.143 -0.2442  0.3034 -0.0225
  639TMC3    C4 9459   2.229   0.098  15.166 -0.4056  0.3572 -0.3079
  639TMC3    C5 9460   2.189   4.696  15.189  0.0056 -0.6184  0.4178
  639TMC3    C6 9461   2.064   4.648  15.189  0.0286  1.6235 -0.2958
  639TMC3     C 9462   2.170   0.314  15.101  0.2685 -0.8892 -0.1146
  639TMC3     O 9463   2.266   0.356  15.166  0.4117  0.0208  0.0285
  639TMC3     H 9464   1.924   0.210  15.070 -0.1525 -0.3525 -1.8199
  639TMC3    H1 9465   2.334   0.122  15.175 -0.6835  1.2728  0.5902
  639TMC3    H2 9466   2.057   4.541  15.203  1.5706  1.1590 -3.1188
  639TMC3    C7 9467   2.289   4.591  15.211  0.1292 -0.1210 -0.6412
  639TMC3    C8 9468   1.864   4.669  15.071  0.0818 -0.0096  0.4842
  639TMC3    O1 9469   2.282   4.516  15.306  0.4136 -0.3712  0.2796
  639TMC3    O2 9470   1.892   4.559  15.023 -0.4269 -0.0978 -0.1631
  640MPD2     C 9471   2.226   3.787  10.272 -0.8156 -0.0886 -0.1637
  640MPD2    C1 9472   2.258   3.855  10.161  0.0057  0.0680 -0.2858
  640MPD2    C2 9473   2.208   3.979  10.142  0.1074  0.0101 -0.2205
  640MPD2    C3 9474   2.134   4.040  10.237 -0.1435  0.1552  0.8535
  640MPD2    C4 9475   2.109   3.975  10.356 -0.1418  0.0429 -0.0745
  640MPD2    C5 9476   2.159   3.853  10.377  0.1461  0.0574 -0.4719
  640MPD2     H 9477   2.222   4.026  10.046 -1.2879  1.0893  0.1188
  640MPD2    H1 9478   2.058   4.029  10.435 -0.6886 -0.5081 -0.0533
  640MPD2    H2 9479   2.254   3.684  10.292 -0.5517  0.4513  2.3409
  640MPD2    H3 9480   2.149   3.804  10.473 -3.7379 -1.7543 -1.8112
  640MPD2     N 9481   2.067   4.166  10.216  0.4312  0.6517 -0.0209
  640MPD2    H5 9482   2.012   4.199  10.295  1.3278 -0.0833  0.9258
  640MPD2    N1 9483   2.335   3.785  10.064  0.5166 -0.1546  0.0246
  640MPD2    H7 9484   2.352   3.687  10.086 -1.2224 -0.3402  0.5779
  641TMC3    C1 9485   2.417   3.758   9.849 -0.0207 -0.0177 -0.7603
  641TMC3    C2 9486   2.421   3.625   9.877  0.7209  0.2747  0.2322
  641TMC3    C3 9487   2.450   3.552   9.765  0.0727 -0.1379 -0.2087
  641TMC3    C4 9488   2.426   3.806   9.725  0.0665  0.1022  0.5150
  641TMC3    C5 9489   2.432   3.719   9.615 -0.1472 -0.4953  0.4957
  641TMC3    C6 9490   2.445   3.590   9.632 -0.2651 -0.4198 -0.3213
  641TMC3     C 9491   2.394   3.848   9.959 -0.0187 -0.3370  0.1031
  641TMC3     O 9492   2.407   3.968   9.935 -0.7373  0.8456  0.4282
  641TMC3     H 9493   2.418   3.581   9.976  0.0721  2.1788  1.0715
  641TMC3    H1 9494   2.410   3.912   9.709 -0.5864  0.4227  3.2983
  641TMC3    H2 9495   2.434   3.522   9.548  3.3197  0.0200 -1.1525
  641TMC3    C7 9496   2.411   3.760   9.481  0.3980 -0.2043 -0.3207
  641TMC3    C8 9497   2.515   3.427   9.783  0.8645 -0.8912 -0.4451
  641TMC3    O1 9498   2.368   3.684   9.397  0.1243  0.3727  0.2635
  641TMC3    O2 9499   2.575   3.383   9.683 -0.4659 -0.2155  0.6947
  642TMC3    C1 9500   3.406   0.141  12.539 -0.2491  0.6011 -0.3445
  642TMC3    C2 9501   3.399   0.114  12.671  0.0435 -0.0514 -0.1462
  642TMC3    C3 9502   3.406   4.707  12.701  0.2339  0.8922 -0.1544
  642TMC3    C4 9503   3.416   0.043  12.439 -0.5958 -0.0752  0.1934
  642TMC3    C5 9504   3.416   4.644  12.478 -0.1580  0.6128  0.2630
  642TMC3    C6 9505   3.408   4.602  12.607  0.2882 -0.3461 -0.0055
  642TMC3     C 9506   3.451   0.272  12.496  0.3522 -0.3017 -0.7175
  642TMC3     O 9507   3.539   0.267  12.411 -0.2046 -0.2827 -0.3190
  642TMC3     H 9508   3.414   0.197  12.740 -0.8335  1.2192 -1.4913
  642TMC3    H1 9509   3.418   0.071  12.335  1.1271 -0.2490  0.1746
  642TMC3    H2 9510   3.423   4.499  12.639  0.0196 -1.0326 -2.1075
  642TMC3    C7 9511   3.421   4.537  12.375  0.4030 -0.2867  0.1199
  642TMC3    C8 9512   3.381   4.662  12.834  0.0256  0.6980  0.4960
  642TMC3    O1 9513   3.438   4.574  12.259 -0.3789 -0.0566 -0.0479
  642TMC3    O2 9514   3.389   4.542  12.851 -0.4034 -0.3433  0.1502
  643TMC3    C1 9515   2.743   4.365   0.587 -0.3456  0.0125  0.5636
  643TMC3    C2 9516   2.614   4.393   0.560  0.6389  0.7909 -0.0476
  643TMC3    C3 9517   2.579   4.407   0.431 -0.0978 -0.3756  0.4334
  643TMC3    C4 9518   2.832   4.325   0.487 -0.4170  0.3567  0.2001
  643TMC3    C5 9519   2.786   4.338   0.361 -0.7295 -0.5320  0.6328
  643TMC3    C6 9520   2.667   4.390   0.334 -0.3303  0.3916 -0.8463
  643TMC3     C 9521   2.804   4.410   0.711 -0.1875  0.5075  0.1171
  643TMC3     O 9522   2.729   4.480   0.784  0.0998 -0.4651 -0.3243
  643TMC3     H 9523   2.541   4.424   0.634  0.6983 -1.3204  0.9153
  643TMC3    H1 9524   2.930   4.281   0.500 -0.1630  0.0832 -2.7187
  643TMC3    H2 9525   2.640   4.418   0.233  0.3426  0.3428 -1.0386
  643TMC3    C7 9526   2.886   4.335   0.259 -0.1610  0.1712  0.2405
  643TMC3    C8 9527   2.469   4.504   0.401  0.6073  0.8085  0.5054
  643TMC3    O1 9528   2.879   4.422   0.174  0.7999  0.2698 -0.2034
  643TMC3    O2 9529   2.369   4.508   0.475  0.1774  0.0559 -0.5366
  644MPD2     C 9530   2.925   4.644   9.544 -0.0338 -0.6194  0.2369
  644MPD2    C1 9531   2.964   4.662   9.673  0.9022  0.7727 -0.0335
  644MPD2    C2 9532   2.975   0.058   9.718 -0.3578  0.4499  0.0570
  644MPD2    C3 9533   2.946   0.172   9.644  0.4706 -0.1644 -0.6953
  644MPD2    C4 9534   2.919   0.160   9.509 -0.1587 -0.5093  0.2095
  644MPD2    C5 9535   2.914   0.026   9.463 -0.1803  0.6405  0.6424
  644MPD2     H 9536   3.005   0.049   9.822  0.9392 -1.5591 -0.4924
  644MPD2    H1 9537   2.907   0.243   9.440 -0.9979  0.1144  1.1199
  644MPD2    H2 9538   2.898   4.545   9.510  0.3795  0.2726 -2.6543
  644MPD2    H3 9539   2.884   0.022   9.359  0.2113  0.5642  0.5346
  644MPD2     N 9540   2.952   0.297   9.711 -0.2299 -0.3391 -0.0719
  644MPD2    H5 9541   2.972   0.300   9.810 -0.9301 -1.9312  0.1196
  644MPD2    N1 9542   2.974   4.544   9.749 -0.5961 -0.4890 -0.1811
  644MPD2    H7 9543   2.939   4.459   9.706  2.8978 -2.3539  0.6660
  645TMC3    C1 9544   2.932   0.526   9.759  0.0842  0.0095 -0.5428
  645TMC3    C2 9545   2.927   0.503   9.897  0.6328 -0.0277 -0.2584
  645TMC3    C3 9546   2.961   0.600   9.986  1.0540 -0.6752  0.3876
  645TMC3    C4 9547   2.953   0.651   9.711  0.2382  0.6243 -0.1007
  645TMC3    C5 9548   2.995   0.743   9.797 -0.0755  0.7058  0.6178
  645TMC3    C6 9549   3.003   0.721   9.931  0.6836 -0.1575 -0.0220
  645TMC3     C 9550   2.900   0.416   9.665  0.3975 -0.0858  0.0902
  645TMC3     O 9551   2.882   0.447   9.550 -0.2183 -0.2012 -0.5250
  645TMC3     H 9552   2.887   0.407   9.928  2.5783 -0.3188  1.3238
  645TMC3    H1 9553   2.954   0.663   9.604  1.1779 -0.1356 -0.1853
  645TMC3    H2 9554   3.028   0.809   9.987  0.3805  0.6579 -1.1625
  645TMC3    C7 9555   3.055   0.861   9.739 -0.3770 -0.4695 -0.2060
  645TMC3    C8 9556   2.903   0.599  10.116 -0.3627  0.4307  0.2625
  645TMC3    O1 9557   2.974   0.928   9.674  0.5093 -0.1382 -0.3411
  645TMC3    O2 9558   2.914   0.700  10.182  0.8341 -0.1396 -0.3234
  646MPD2     C 9559   2.214   4.030  14.724 -0.2834 -0.2244 -0.4889
  646MPD2    C1 9560   2.121   3.970  14.813 -0.3369 -0.9083  0.0127
  646MPD2    C2 9561   1.987   3.976  14.774  1.0192 -0.0494 -0.0144
  646MPD2    C3 9562   1.949   4.040  14.658  0.9149  0.3646 -0.3491
  646MPD2    C4 9563   2.041   4.095  14.573 -0.8132  0.0373 -0.0460
  646MPD2    C5 9564   2.170   4.086  14.609  0.4231  0.7107 -0.2456
  646MPD2     H 9565   1.911   3.930  14.836 -0.8165  2.2000 -0.6162
  646MPD2    H1 9566   2.017   4.134  14.475  0.6114 -1.3586 -0.9371
  646MPD2    H2 9567   2.322   4.022  14.731 -0.1351  2.0838 -0.1677
  646MPD2    H3 9568   2.236   4.110  14.527  0.0874 -0.7959 -0.9515
  646MPD2     N 9569   1.812   4.052  14.632 -0.1940 -0.3228  0.6078
  646MPD2    H5 9570   1.749   4.029  14.709 -0.4826 -2.0208 -0.1362
  646MPD2    N1 9571   2.177   3.920  14.937  0.7276  0.2853  0.6217
  646MPD2    H7 9572   2.277   3.922  14.951  0.4823 -1.1185  2.6817
  647TMC3    C1 9573   2.200   3.825  15.145  0.1697 -0.2325 -0.0252
  647TMC3    C2 9574   2.158   3.722  15.227 -0.0552  0.4335 -0.3570
  647TMC3    C3 9575   2.242   3.682  15.329 -0.5897  0.2428  0.4370
  647TMC3    C4 9576   2.316   3.891  15.168  0.9679  0.3697 -0.1499
  647TMC3    C5 9577   2.394   3.850  15.270 -0.5025 -0.7729 -0.1948
  647TMC3    C6 9578   2.362   3.745  15.350 -0.4314  0.0839  0.1650
  647TMC3     C 9579   2.107   3.866  15.039  0.1375  0.7752 -0.1530
  647TMC3     O 9580   1.985   3.845  15.048  0.3952  0.2351 -0.3301
  647TMC3     H 9581   2.064   3.674  15.201  1.7700 -2.7154 -1.1911
  647TMC3    H1 9582   2.354   3.970  15.104 -0.6759  1.1642 -0.1411
  647TMC3    H2 9583   2.426   3.711  15.430 -1.4790  2.4815  2.0347
  647TMC3    C7 9584   2.525   3.829  15.225 -0.0192  0.7408  0.0673
  647TMC3    C8 9585   2.240   3.543  15.368 -0.0797  0.3652  0.4792
  647TMC3    O1 9586   2.551   3.711  15.200  0.3757  0.1587 -0.1068
  647TMC3    O2 9587   2.351   3.488  15.384  0.9072  0.2030 -0.1016
  648TMC3    C1 9588   1.167   1.392  16.016 -0.1344  0.7573 -0.1375
  648TMC3    C2 9589   1.213   1.283  15.948  0.5110 -0.3420  0.3916
  648TMC3    C3 9590   1.254   1.300  15.814 -0.5809  0.2049 -0.5247
  648TMC3    C4 9591   1.180   1.518  15.962 -0.1400  0.0843  0.0132
  648TMC3    C5 9592   1.230   1.531  15.836  0.1261  0.0973  0.6757
  648TMC3    C6 9593   1.265   1.425  15.766 -0.4907 -0.6966  0.2757
  648TMC3     C 9594   1.145   1.380  16.162 -0.0303  0.4723  0.3351
  648TMC3     O 9595   1.174   1.477  16.235 -0.4872  0.3463 -0.7437
  648TMC3     H 9596   1.191   1.191  16.001 -1.5888 -0.7035 -1.1124
  648TMC3    H1 9597   1.164   1.605  16.024 -0.0177 -1.0494  1.6141
  648TMC3    H2 9598   1.307   1.433  15.666 -0.3042  0.0499  0.4141
  648TMC3    C7 9599   1.258   1.668  15.787 -0.1430  0.0152 -0.2730
  648TMC3    C8 9600   1.289   1.185  15.732 -0.3705  0.0755  0.1255
  648TMC3    O1 9601   1.352   1.698  15.716 -0.5248 -0.0600 -0.4735
  648TMC3    O2 9602   1.299   1.202  15.610  0.6613  0.4129 -0.4492
  649TMC3    C1 9603   4.431   2.947  12.727 -0.7747 -0.1509 -0.6644
  649TMC3    C2 9604   4.504   2.907  12.617  0.5155 -0.8577 -0.9335
  649TMC3    C3 9605   4.613   2.834  12.639  0.7279  0.1230 -0.0086
  649TMC3    C4 9606   4.479   2.935  12.857  0.6712 -0.0945  0.1134
  649TMC3    C5 9607   4.610   2.883  12.872 -0.4599 -0.0805 -0.4247
  649TMC3    C6 9608   4.675   2.826  12.762  0.0298 -0.1113  0.4786
  649TMC3     C 9609   4.313   3.028  12.715  0.1089  0.3567 -0.2778
  649TMC3     O 9610   4.297   3.116  12.793 -0.0468 -0.1037 -0.6275
  649TMC3     H 9611   4.474   2.950  12.522 -0.3790  0.3881 -0.0966
  649TMC3    H1 9612   4.422   2.972  12.942 -0.0336 -1.4099  0.2258
  649TMC3    H2 9613   0.048   2.784  12.763  0.0021 -0.1638  1.0652
  649TMC3    C7 9614   4.642   2.839  13.009  0.1532 -0.0487 -0.3514
  649TMC3    C8 9615   4.688   2.800  12.519  0.3108 -0.8535  0.8959
  649TMC3    O1 9616   4.589   2.906  13.097 -0.1938  0.4151 -0.3849
  649TMC3    O2 9617   0.082   2.792  12.528  0.5533  0.7366  0.4547
  650TMC3    C1 9618   2.812   4.569  13.025 -0.4487  0.0448  0.2113
  650TMC3    C2 9619   2.820   4.693  13.088 -0.0960 -0.2312  0.7286
  650TMC3    C3 9620   2.899   0.066  13.030  0.3048 -0.2391  0.4900
  650TMC3    C4 9621   2.889   4.537  12.918 -0.1682 -0.0415 -0.2417
  650TMC3    C5 9622   2.968   4.637  12.863 -0.6010 -0.0585 -0.8073
  650TMC3    C6 9623   2.973   0.041  12.920  0.1593 -0.4021 -0.5145
  650TMC3     C 9624   2.751   4.468  13.102 -0.8965  0.1846  0.3512
  650TMC3     O 9625   2.706   4.497  13.215  0.6725 -0.3006  0.1232
  650TMC3     H 9626   2.777   4.710  13.186  0.4623  0.9850  0.7707
  650TMC3    H1 9627   2.918   4.436  12.892  0.6230  0.3678 -0.9405
  650TMC3    H2 9628   3.040   0.111  12.872  0.1941 -0.5173 -0.6354
  650TMC3    C7 9629   2.992   4.612  12.723  1.1445  0.3867 -0.1511
  650TMC3    C8 9630   2.878   0.210  13.051 -0.3340  0.0910 -0.0759
  650TMC3    O1 9631   3.029   4.501  12.687 -0.7375  0.4315 -0.2989
  650TMC3    O2 9632   2.953   0.288  12.992  0.3311 -0.1959 -0.3490
  651MPD2     C 9633   1.803   1.003  10.253 -0.4130  0.2978  0.0219
  651MPD2    C1 9634   1.838   1.022  10.383 -0.1337 -0.4657 -0.2325
  651MPD2    C2 9635   1.973   1.056  10.411  0.2069 -0.1853 -0.0474
  651MPD2    C3 9636   2.058   1.082  10.312  0.4382  0.2365 -0.4132
  651MPD2    C4 9637   2.019   1.075  10.180 -0.2624 -0.1133 -0.0439
  651MPD2    C5 9638   1.891   1.033  10.155  0.2416  0.0997  0.0461
  651MPD2     H 9639   2.011   1.083  10.509 -0.3968 -0.1607  0.1802
  651MPD2    H1 9640   2.081   1.101  10.095  0.7033  1.4038  1.1136
  651MPD2    H2 9641   1.704   0.978  10.218  0.1246 -0.1882 -1.1417
  651MPD2    H3 9642   1.860   1.029  10.052 -0.9566 -1.8596  0.4812
  651MPD2     N 9643   2.182   1.140  10.342  0.0681  0.4715 -0.2792
  651MPD2    H5 9644   2.200   1.150  10.442  2.2982 -1.6015 -0.4894
  651MPD2    N1 9645   1.746   1.025  10.492 -0.0863 -0.4611  0.2423
  651MPD2    H7 9646   1.780   1.051  10.584 -1.4018 -2.4992  1.2930
  652TMC3    C1 9647   2.517   1.457  10.301 -0.2318  0.6260 -0.7911
  652TMC3    C2 9648   2.452   1.339  10.252  0.1628 -1.0981  0.5570
  652TMC3    C3 9649   2.351   1.288  10.329  0.3350 -0.0210  0.4281
  652TMC3    C4 9650   2.462   1.529  10.408 -0.7354  0.0711 -0.6817
  652TMC3    C5 9651   2.340   1.483  10.463  0.2474  0.2238 -0.2001
  652TMC3    C6 9652   2.289   1.360  10.430  0.2153  0.1471 -0.1593
  652TMC3     C 9653   2.659   1.451  10.326 -0.7903 -0.7266 -0.3288
  652TMC3     O 9654   2.693   1.429  10.439  0.0441 -0.6710 -0.3490
  652TMC3     H 9655   2.502   1.283  10.174  0.6857 -1.1688  0.9448
  652TMC3    H1 9656   2.517   1.607  10.460  2.1308 -2.5129  0.1798
  652TMC3    H2 9657   2.196   1.339  10.482  0.7532 -0.9642  0.3589
  652TMC3    C7 9658   2.315   1.515  10.596 -0.4367  0.1677 -1.0830
  652TMC3    C8 9659   2.276   1.191  10.255  0.2108 -0.9010  0.3394
  652TMC3    O1 9660   2.274   1.431  10.674  0.3043 -0.6664 -0.0235
  652TMC3    O2 9661   2.290   1.184  10.136 -0.0935 -0.0891  0.1227
  653MPD2     C 9662   0.556   1.467  17.439 -0.8121  0.6785 -0.0116
  653MPD2    C1 9663   0.481   1.518  17.338  0.9980  0.2914 -1.6117
  653MPD2    C2 9664   0.424   1.427  17.255 -1.1249 -0.6157 -0.0373
  653MPD2    C3 9665   0.440   1.294  17.263  0.6985  0.4995  0.1395
  653MPD2    C4 9666   0.511   1.243  17.368  0.4310  0.0585  0.0490
  653MPD2    C5 9667   0.574   1.334  17.452 -0.4213  0.2196 -0.1510
  653MPD2     H 9668   0.365   1.462  17.171 -3.6838 -1.2213  1.5019
  653MPD2    H1 9669   0.520   1.138  17.391 -0.5472 -0.0072  0.1291
  653MPD2    H2 9670   0.617   1.527  17.505  0.0681  1.2794 -1.3869
  653MPD2    H3 9671   0.654   1.292  17.513 -1.6020 -0.2309  1.0983
  653MPD2     N 9672   0.366   1.208  17.178  0.3546  0.2108  0.2271
  653MPD2    H5 9673   0.295   1.241  17.113  0.9736 -2.2096 -1.6768
  653MPD2    N1 9674   0.469   1.658  17.323 -0.6659  0.3801 -0.3539
  653MPD2    H7 9675   0.431   1.687  17.233  0.4871  0.5734 -0.7743
  654TMC3    C1 9676   0.286   1.013  17.079  0.0002  0.0115  0.3411
  654TMC3    C2 9677   0.179   1.092  17.035 -0.1347 -0.0633  0.1262
  654TMC3    C3 9678   0.114   1.045  16.928  0.1285  0.1352  0.0180
  654TMC3    C4 9679   0.325   0.898  17.009 -0.1206  0.5803 -0.3346
  654TMC3    C5 9680   0.256   0.855  16.899  0.3093 -0.4590 -0.0871
  654TMC3    C6 9681   0.147   0.926  16.864 -0.0082  0.5587 -0.6989
  654TMC3     C 9682   0.388   1.077  17.161  1.0296 -0.6900  0.3230
  654TMC3     O 9683   0.492   1.021  17.185 -0.0821 -0.2069  0.2466
  654TMC3     H 9684   0.138   1.178  17.087 -0.2469 -0.0202 -0.0330
  654TMC3    H1 9685   0.419   0.847  17.029 -1.1085 -1.4417 -0.8602
  654TMC3    H2 9686   0.080   0.891  16.787 -2.0285 -2.7929  2.5787
  654TMC3    C7 9687   0.241   0.714  16.864 -0.3000  0.2017 -0.1786
  654TMC3    C8 9688   0.034   1.139  16.850 -0.4360  0.3422  0.7577
  654TMC3    O1 9689   0.155   0.685  16.781 -0.1896 -0.1775  0.4500
  654TMC3    O2 9690   4.696   1.221  16.911  0.3949 -0.2371 -0.2041
  655MPD2     C 9691   1.571   1.403  16.040  0.0398  1.1372  0.4291
  655MPD2    C1 9692   1.611   1.526  15.999 -0.0037  1.0093 -0.2907
  655MPD2    C2 9693   1.651   1.538  15.865 -0.1331 -0.3279 -0.0839
  655MPD2    C3 9694   1.663   1.431  15.784  0.1670  0.0678 -0.4726
  655MPD2    C4 9695   1.619   1.305  15.828 -0.4066  0.1976  0.2673
  655MPD2    C5 9696   1.589   1.295  15.962 -0.6621  0.0207 -0.4558
  655MPD2     H 9697   1.674   1.637  15.826 -0.3056  0.2493  1.3115
  655MPD2    H1 9698   1.629   1.220  15.762 -0.6517  1.4808 -1.4410
  655MPD2    H2 9699   1.534   1.377  16.139 -1.2937 -0.2628 -0.4358
  655MPD2    H3 9700   1.571   1.199  16.008 -1.7758 -0.3852 -1.7173
  655MPD2     N 9701   1.717   1.433  15.657 -0.4013  0.8680  0.2463
  655MPD2    H5 9702   1.703   1.346  15.606  2.5538 -0.0325  0.9691
  655MPD2    N1 9703   1.590   1.648  16.067  0.0631  0.1541  0.9370
  655MPD2    H7 9704   1.602   1.730  16.009 -0.0460  1.1543  2.3322
  656TMC3    C1 9705   1.460   1.793  16.207  0.4828  0.1394 -1.0727
  656TMC3    C2 9706   1.322   1.790  16.223 -0.3371  0.3958 -0.6667
  656TMC3    C3 9707   1.247   1.885  16.159  0.3804 -0.1098 -0.2653
  656TMC3    C4 9708   1.519   1.898  16.140  0.6590 -0.1976 -0.4922
  656TMC3    C5 9709   1.442   2.000  16.099  0.1089 -0.3743 -0.9546
  656TMC3    C6 9710   1.303   1.990  16.097  0.7173  0.5721  0.2235
  656TMC3     C 9711   1.520   1.662  16.186 -0.5237 -0.0873 -0.1306
  656TMC3     O 9712   1.473   1.580  16.264 -0.0654  0.3334  0.4007
  656TMC3     H 9713   1.272   1.704  16.267 -1.3876  2.2970  1.8308
  656TMC3    H1 9714   1.627   1.898  16.131  0.7716 -2.0756  0.8135
  656TMC3    H2 9715   1.247   2.074  16.057 -0.4605 -0.0330  0.6118
  656TMC3    C7 9716   1.512   2.106  16.024 -0.8809 -0.4663 -0.4441
  656TMC3    C8 9717   1.102   1.882  16.166 -0.0207  0.3537  0.5378
  656TMC3    O1 9718   1.632   2.090  16.012  0.6957  0.1188  0.5635
  656TMC3    O2 9719   1.047   1.989  16.148  0.0694  0.5416  0.4855
  657TMC3    C1 9720   0.955   0.932  14.860 -0.1116 -0.3287  0.1494
  657TMC3    C2 9721   0.962   0.894  14.994 -0.0614 -0.2988  0.5194
  657TMC3    C3 9722   0.897   0.976  15.085  0.1466 -0.1793 -0.0035
  657TMC3    C4 9723   0.888   1.045  14.817  0.0371 -0.1504  0.3335
  657TMC3    C5 9724   0.826   1.126  14.912 -0.3612 -0.1402 -0.4697
  657TMC3    C6 9725   0.828   1.090  15.041 -0.0446  0.6636 -0.4273
  657TMC3     C 9726   1.061   0.896  14.765  0.3231  0.0691  0.1883
  657TMC3     O 9727   1.047   0.935  14.646  0.1596  0.3805  0.3866
  657TMC3     H 9728   1.019   0.808  15.029  2.8760  0.7363 -1.7148
  657TMC3    H1 9729   0.889   1.067  14.711 -0.5485  3.1655  1.0442
  657TMC3    H2 9730   0.781   1.149  15.118  0.6722  0.1908  0.3724
  657TMC3    C7 9731   0.744   1.239  14.879 -0.2745 -0.1937 -0.4856
  657TMC3    C8 9732   0.906   0.947  15.228  0.2388  0.0845  0.6116
  657TMC3    O1 9733   0.697   1.299  14.975 -0.0359 -0.3070 -0.3483
  657TMC3    O2 9734   0.858   1.028  15.302 -0.6843  0.1256 -0.6865
  658MPD2     C 9735   2.329   1.300  15.029 -0.5301 -0.2709  0.2881
  658MPD2    C1 9736   2.245   1.400  15.070  0.0395  0.1154  0.4935
  658MPD2    C2 9737   2.258   1.525  15.012 -0.2456 -0.1810 -0.1610
  658MPD2    C3 9738   2.354   1.546  14.909 -0.4846  0.1901  0.6222
  658MPD2    C4 9739   2.440   1.442  14.875  0.2520  0.3380 -0.0701
  658MPD2    C5 9740   2.422   1.318  14.929 -0.0318  0.2848 -0.8821
  658MPD2     H 9741   2.181   1.601  15.023 -0.7659 -0.7928  0.4471
  658MPD2    H1 9742   2.509   1.456  14.792  1.5339 -1.5064  0.6951
  658MPD2    H2 9743   2.317   1.197  15.062 -1.1804 -0.4509 -0.5000
  658MPD2    H3 9744   2.498   1.247  14.898  1.1453  1.7818 -1.4367
  658MPD2     N 9745   2.349   1.659  14.827 -0.2099  0.2393 -0.6142
  658MPD2    H5 9746   2.292   1.741  14.844 -0.8841  0.2193 -2.7164
  658MPD2    N1 9747   2.147   1.371  15.170  0.7363  0.3619  0.7909
  658MPD2    H7 9748   2.120   1.273  15.180 -1.3962  0.9250  0.6231
  659TMC3    C1 9749   1.975   1.426  15.318  0.0962  0.1549  0.4451
  659TMC3    C2 9750   1.947   1.505  15.420 -0.0765  0.3449  0.4441
  659TMC3    C3 9751   1.817   1.505  15.465 -0.3728 -0.6411  0.1250
  659TMC3    C4 9752   1.881   1.358  15.244 -0.3661 -0.3541 -0.1631
  659TMC3    C5 9753   1.747   1.379  15.285 -0.3534 -0.2454 -0.2738
  659TMC3    C6 9754   1.715   1.438  15.401  0.6096  0.4498 -0.0793
  659TMC3     C 9755   2.091   1.471  15.249  0.0933 -0.5455 -1.0017
  659TMC3     O 9756   2.119   1.588  15.262 -0.4650 -0.1624 -0.2406
  659TMC3     H 9757   2.022   1.555  15.481  1.3456  0.3191 -1.3021
  659TMC3    H1 9758   1.912   1.291  15.165 -1.2624  0.0374 -0.8615
  659TMC3    H2 9759   1.609   1.450  15.423  0.4379 -0.0731 -0.5959
  659TMC3    C7 9760   1.630   1.348  15.196 -1.0236 -0.3783 -0.5564
  659TMC3    C8 9761   1.802   1.521  15.603 -0.2086  0.5043  0.3857
  659TMC3    O1 9762   1.518   1.393  15.219 -0.2833 -0.1341 -0.2902
  659TMC3    O2 9763   1.855   1.616  15.654 -0.2510 -0.0910  0.7152
  660MPD2     C 9764   0.201   0.360  12.895  0.1950 -0.0399  0.4472
  660MPD2    C1 9765   0.062   0.388  12.881 -0.1006 -0.1036  0.2331
  660MPD2    C2 9766   4.698   0.290  12.941 -0.4890  0.2497  0.7690
  660MPD2    C3 9767   0.027   0.194  13.025  0.2579  0.0607  0.2183
  660MPD2    C4 9768   0.170   0.192  13.057 -0.0683  0.4872 -0.2990
  660MPD2    C5 9769   0.250   0.278  12.987 -0.7385 -0.2401  0.2817
  660MPD2     H 9770   4.593   0.288  12.917 -0.7753 -0.0716  2.0619
  660MPD2    H1 9771   0.211   0.133  13.138  2.0238  0.7878 -1.1463
  660MPD2    H2 9772   0.272   0.415  12.835 -0.5210  1.7441  1.2496
  660MPD2    H3 9773   0.358   0.264  12.988 -0.5272  1.5138  1.1461
  660MPD2     N 9774   4.661   0.107  13.092  0.1704  0.0969 -0.0340
  660MPD2    H5 9775   4.695   0.059  13.175  0.5738 -0.1062 -0.3154
  660MPD2    N1 9776   0.019   0.486  12.788 -0.1145 -0.3126  0.6504
  660MPD2    H7 9777   0.094   0.532  12.737  0.1736 -0.3152  1.0660
  661TMC3    C1 9778   4.583   0.635  12.685  0.2306  0.2636 -0.1259
  661TMC3    C2 9779   4.664   0.652  12.574  0.4121  0.4651  0.1613
  661TMC3    C3 9780   4.616   0.737  12.477 -0.7043  0.7224  0.2663
  661TMC3    C4 9781   4.458   0.696  12.704 -0.3496  0.0881  0.3044
  661TMC3    C5 9782   4.409   0.748  12.588  0.2224  0.0690 -1.1294
  661TMC3    C6 9783   4.483   0.780  12.480 -0.8321 -1.1423  0.4785
  661TMC3     C 9784   4.610   0.521  12.773  0.2174  0.1092  0.3938
  661TMC3     O 9785   4.514   0.474  12.840 -0.2528 -0.4428 -0.4316
  661TMC3     H 9786   0.027   0.595  12.556 -0.2947 -0.4166 -0.6659
  661TMC3    H1 9787   4.399   0.696  12.795 -0.3855 -2.8255  0.2811
  661TMC3    H2 9788   4.440   0.821  12.389 -1.6674 -0.3210  1.2468
  661TMC3    C7 9789   4.264   0.762  12.580 -0.3515 -0.3107  0.1202
  661TMC3    C8 9790   4.677   0.737  12.344 -0.9258  0.1004 -0.1072
  661TMC3    O1 9791   4.208   0.803  12.677 -0.7093 -0.4100  0.9382
  661TMC3    O2 9792   0.019   0.638  12.320 -0.2939 -0.3989  0.1281
  662MPD2     C 9793   0.049   4.521  16.996 -0.2177 -0.0788 -0.6799
  662MPD2    C1 9794   0.080   4.464  17.120  0.0339 -0.0990  0.0232
  662MPD2    C2 9795   0.032   4.534  17.224 -0.0417 -0.2007 -0.0865
  662MPD2    C3 9796   4.689   4.649  17.217  0.0837  0.8019  0.0563
  662MPD2    C4 9797   4.664   4.698  17.092 -0.6564 -0.4312  0.3021
  662MPD2    C5 9798   4.706   4.631  16.985 -0.2299 -0.7532 -0.3314
  662MPD2     H 9799   0.062   4.495  17.321  1.6727 -0.5957 -0.7666
  662MPD2    H1 9800   4.610   0.063  17.075 -0.3031 -0.2372  0.2462
  662MPD2    H2 9801   0.087   4.483  16.902  0.1392 -0.2515 -0.4650
  662MPD2    H3 9802   4.694   4.674  16.886  0.5069 -0.7176 -0.4068
  662MPD2     N 9803   4.629   0.004  17.323 -0.1169  0.6366 -0.8375
  662MPD2    H5 9804   4.558   0.073  17.302 -1.0184 -0.2053 -0.5729
  662MPD2    N1 9805   0.126   4.334  17.130  0.2199 -0.2724 -0.0514
  662MPD2    H7 9806   0.136   4.305  17.227 -1.0184  1.2448  0.5134
  663TMC3    C1 9807   0.178   4.110  17.072 -0.1173  0.0024  0.3145
  663TMC3    C2 9808   0.181   4.085  17.204  0.1998  0.6652  0.6978
  663TMC3    C3 9809   0.176   3.956  17.246 -0.2764  0.2064  0.1616
  663TMC3    C4 9810   0.183   4.011  16.973 -0.5173  0.4103  0.1362
  663TMC3    C5 9811   0.200   3.882  17.020  0.2969 -0.4277  0.2120
  663TMC3    C6 9812   0.184   3.854  17.158 -0.2376 -0.7429 -0.0810
  663TMC3     C 9813   0.145   4.244  17.027  1.0916  0.0926  0.1048
  663TMC3     O 9814   0.125   4.251  16.905 -0.5194 -0.8696  0.2401
  663TMC3     H 9815   0.206   4.163  17.275 -0.9952 -0.5104  2.4397
  663TMC3    H1 9816   0.185   4.037  16.868 -3.9489  0.1480  0.0011
  663TMC3    H2 9817   0.237   3.766  17.194  1.4160 -0.4350 -1.7406
  663TMC3    C7 9818   0.238   3.771  16.930 -0.2558 -0.0835  0.4484
  663TMC3    C8 9819   0.236   3.938  17.374  0.0664 -0.7493 -0.0903
  663TMC3    O1 9820   0.265   3.801  16.816  0.5912 -0.7475 -0.2859
  663TMC3    O2 9821   0.302   3.837  17.394 -0.0875  0.3173  0.1053
  664MPD2     C 9822   3.551   2.869  17.510  0.0521 -0.2892  0.2381
  664MPD2    C1 9823   3.590   3.001  17.486 -0.0217  0.3830 -0.1102
  664MPD2    C2 9824   3.584   3.086  17.590 -0.3083  0.5148  0.3668
  664MPD2    C3 9825   3.520   3.054   0.000 -0.0042  0.4903 -0.1972
  664MPD2    C4 9826   3.473   2.923   0.019 -0.3347 -0.4408  0.0793
  664MPD2    C5 9827   3.491   2.836  17.628 -0.0250  0.3566 -0.1321
  664MPD2     H 9828   3.623   3.187  17.583 -1.6473  1.0688  1.0259
  664MPD2    H1 9829   3.428   2.877   0.106  0.1006 -2.9656 -1.0305
  664MPD2    H2 9830   3.563   2.789  17.439 -0.3978 -0.1341 -0.0067
  664MPD2    H3 9831   3.448   2.737  17.636  0.9546 -0.0260  0.4206
  664MPD2     N 9832   3.512   3.159   0.098 -0.3565 -0.2583  0.2235
  664MPD2    H5 9833   3.550   3.251   0.080 -2.4604  0.9216  1.8095
  664MPD2    N1 9834   3.630   3.047  17.358 -0.0723  0.2767 -0.2142
  664MPD2    H7 9835   3.655   3.144  17.340  2.2753 -0.6269 -1.8345
  665TMC3    C1 9836   3.402   3.260   0.289  0.0005 -0.2864  0.7534
  665TMC3    C2 9837   3.295   3.257   0.379 -0.3706 -0.0944 -0.1891
  665TMC3    C3 9838   3.280   3.348   0.480  0.5687 -0.0122 -0.7797
  665TMC3    C4 9839   3.501   3.358   0.302  0.3126 -0.2161  0.9816
  665TMC3    C5 9840   3.482   3.444   0.407 -0.2234  0.0111 -0.0221
  665TMC3    C6 9841   3.380   3.435   0.502  0.1683  0.2660 -0.2347
  665TMC3     C 9842   3.419   3.150   0.199  0.7272  0.3598  0.1379
  665TMC3     O 9843   3.338   3.064   0.226  0.2566  0.0663 -0.3538
  665TMC3     H 9844   3.205   3.207   0.346  0.3998 -0.7086 -1.3808
  665TMC3    H1 9845   3.587   3.356   0.236 -1.2356  2.5762 -1.1395
  665TMC3    H2 9846   3.368   3.507   0.582  1.1426  0.8625 -0.6336
  665TMC3    C7 9847   3.577   3.556   0.422 -0.3764  0.6773  0.0397
  665TMC3    C8 9848   3.173   3.339   0.569 -0.9204 -0.1758 -0.3024
  665TMC3    O1 9849   3.667   3.556   0.335  0.3571 -0.0711  0.1708
  665TMC3    O2 9850   3.182   3.416   0.660 -0.7219  0.1384  0.3668
  666TMC3    C1 9851   2.278   2.845   9.939 -0.2050 -0.6880  0.7419
  666TMC3    C2 9852   2.349   2.809  10.048  0.0573 -0.2846 -0.6893
  666TMC3    C3 9853   2.359   2.900  10.145  0.1028 -1.1480  0.3373
  666TMC3    C4 9854   2.244   2.975   9.903 -0.1046  0.4413 -0.5185
  666TMC3    C5 9855   2.249   3.061  10.009 -0.7276 -0.8701 -0.0453
  666TMC3    C6 9856   2.302   3.031  10.132  0.3905  0.3138  0.0892
  666TMC3     C 9857   2.179   2.743   9.911 -0.3433  0.2013  0.0704
  666TMC3     O 9858   2.126   2.756   9.801  0.3020  0.1311 -0.1636
  666TMC3     H 9859   2.397   2.712  10.050 -0.6616 -0.5633  4.1877
  666TMC3    H1 9860   2.191   2.990   9.810  1.2693 -0.5864 -1.4614
  666TMC3    H2 9861   2.294   3.094  10.219 -0.4480 -0.5970  0.6797
  666TMC3    C7 9862   2.197   3.201  10.007  0.4462  0.4780 -0.3134
  666TMC3    C8 9863   2.327   2.835  10.274 -0.6464  0.1189 -0.1351
  666TMC3    O1 9864   2.177   3.248  10.123  0.1586 -0.2651  0.6132
  666TMC3    O2 9865   2.355   2.717  10.290 -0.6149  0.1350  0.2440
  667MPD2     C 9866   4.018   3.276  14.530 -0.1345 -0.1745  0.3004
  667MPD2    C1 9867   4.079   3.194  14.624  0.0769 -0.6460 -0.9633
  667MPD2    C2 9868   4.079   3.058  14.605  0.4130 -0.4732 -0.4342
  667MPD2    C3 9869   4.002   3.003  14.510 -0.7164  0.1064 -0.0963
  667MPD2    C4 9870   3.935   3.081  14.431 -0.2002 -0.0364  0.0486
  667MPD2    C5 9871   3.945   3.213  14.431 -0.0955  0.0212  0.2181
  667MPD2     H 9872   4.134   3.013  14.686 -0.1102 -1.2361 -0.5029
  667MPD2    H1 9873   3.884   3.033  14.348 -0.7454  0.3447  0.1643
  667MPD2    H2 9874   4.003   3.383  14.534  0.0888 -0.1122 -0.4676
  667MPD2    H3 9875   3.897   3.264  14.348  1.9864  0.4321 -0.7503
  667MPD2     N 9876   3.978   2.859  14.506 -0.7134 -0.0819  1.1820
  667MPD2    H5 9877   3.903   2.824  14.447 -0.3280 -0.6724  1.0420
  667MPD2    N1 9878   4.147   3.249  14.733  0.2566  0.0452 -0.8901
  667MPD2    H7 9879   4.180   3.191  14.809 -1.3024 -2.2283 -1.9253
  668TMC3    C1 9880   4.208   3.415  14.898  0.0659 -0.2333  0.2032
  668TMC3    C2 9881   4.259   3.538  14.901  1.0903 -0.0694 -0.1153
  668TMC3    C3 9882   4.238   3.612  15.010  0.3084  0.4871  0.3351
  668TMC3    C4 9883   4.133   3.359  14.996  0.4440 -0.4713 -0.4820
  668TMC3    C5 9884   4.119   3.432  15.109  0.1063 -0.4717 -0.3163
  668TMC3    C6 9885   4.180   3.559  15.127  0.4561 -0.3362 -0.8145
  668TMC3     C 9886   4.173   3.379  14.762 -0.2034 -0.4527  0.3125
  668TMC3     O 9887   4.153   3.472  14.688  0.5285 -0.3192  0.4978
  668TMC3     H 9888   4.311   3.571  14.811  1.5280  0.6040  0.3820
  668TMC3    H1 9889   4.095   3.258  14.999  2.5659 -1.1810  2.0441
  668TMC3    H2 9890   4.175   3.614  15.220  1.6613 -1.1944 -0.2497
  668TMC3    C7 9891   4.021   3.403  15.203 -0.1640  0.7336  0.1573
  668TMC3    C8 9892   4.264   3.758  15.010 -0.1677 -0.5227  1.0222
  668TMC3    O1 9893   4.040   3.432  15.323  0.3872 -0.5850  0.4103
  668TMC3    O2 9894   4.216   3.823  15.109  0.5353  0.5668  0.2939
  669TMC3    C1 9895   1.834   3.271  14.643 -0.3521  0.1956  0.1818
  669TMC3    C2 9896   1.696   3.291  14.629 -0.4086  0.3431 -0.0665
  669TMC3    C3 9897   1.659   3.346  14.515 -0.4403 -0.3994 -0.0849
  669TMC3    C4 9898   1.927   3.322  14.556  0.4135  0.0151 -0.2894
  669TMC3    C5 9899   1.880   3.386  14.450 -0.8437 -0.8849 -0.9647
  669TMC3    C6 9900   1.746   3.395  14.427  0.1178 -0.3496  0.4317
  669TMC3     C 9901   1.859   3.185  14.756 -0.0030  0.7702  0.4566
  669TMC3     O 9902   1.766   3.138  14.820  0.1095 -0.3195 -0.1998
  669TMC3     H 9903   1.623   3.250  14.697 -0.1899  0.8518  0.4780
  669TMC3    H1 9904   2.033   3.317  14.579 -0.1240  0.1653  2.1719
  669TMC3    H2 9905   1.706   3.450  14.343  1.5132  0.2253  0.1442
  669TMC3    C7 9906   1.977   3.451  14.367 -0.2573 -0.2771  0.2404
  669TMC3    C8 9907   1.516   3.373  14.488  0.1512  0.0402  0.4468
  669TMC3    O1 9908   2.088   3.448  14.416  0.3514  0.1519  0.7314
  669TMC3    O2 9909   1.448   3.426  14.576  0.3866  0.0910  0.2119
  670MPD2     C 9910   0.000   1.086  13.724  0.4963 -0.5417 -0.2892
  670MPD2    C1 9911   0.134   1.114  13.758 -0.1627 -0.2959 -0.4048
  670MPD2    C2 9912   0.187   1.062  13.875 -0.2117  0.2069 -0.1465
  670MPD2    C3 9913   0.111   0.972  13.952  0.1343  0.4430  0.5302
  670MPD2    C4 9914   4.708   0.940  13.915  0.3644 -0.6129  0.0020
  670MPD2    C5 9915   4.661   0.999  13.800  0.0523  0.0288 -0.2859
  670MPD2     H 9916   0.293   1.069  13.896 -0.1327 -0.2080 -0.4101
  670MPD2    H1 9917   4.638   0.881  13.973 -0.6095  2.0013  1.5264
  670MPD2    H2 9918   4.678   1.133  13.640 -1.6676  0.1998  1.4075
  670MPD2    H3 9919   4.558   0.971  13.780  0.0678 -0.5978  0.5098
  670MPD2     N 9920   0.169   0.920  14.077  0.2860  0.0257 -0.2701
  670MPD2    H5 9921   0.261   0.951  14.108 -0.0659  0.6582  0.1212
  670MPD2    N1 9922   0.222   1.195  13.681 -0.2486  0.1822 -0.1008
  670MPD2    H7 9923   0.312   1.219  13.722 -0.2141 -0.5640  0.2484
  671TMC3    C1 9924   0.159   0.814  14.298 -0.1632  0.1741 -0.1824
  671TMC3    C2 9925   0.294   0.801  14.324  0.1057 -0.7640  0.3712
  671TMC3    C3 9926   0.336   0.741  14.439  0.0124 -0.7264  0.4957
  671TMC3    C4 9927   0.071   0.748  14.379  0.3955 -0.1254 -0.5761
  671TMC3    C5 9928   0.120   0.673  14.482 -0.4570  0.0911  0.6308
  671TMC3    C6 9929   0.250   0.680  14.525 -0.1270  0.3672  0.2504
  671TMC3     C 9930   0.107   0.822  14.158 -0.9595 -0.4316 -0.0174
  671TMC3     O 9931   0.008   0.758  14.137  0.0829 -0.6695 -0.2615
  671TMC3     H 9932   0.362   0.855  14.259 -0.2412 -0.1315  0.5368
  671TMC3    H1 9933   4.692   0.754  14.358 -0.1143  0.8150  2.3044
  671TMC3    H2 9934   0.280   0.614  14.605  0.5062 -1.2356 -1.2980
  671TMC3    C7 9935   0.065   0.538  14.497  0.2087 -0.8770  0.3376
  671TMC3    C8 9936   0.478   0.704  14.436 -0.4720 -0.3741 -0.5715
  671TMC3    O1 9937   0.030   0.507  14.610  0.2361  0.3602  0.5435
  671TMC3    O2 9938   0.546   0.734  14.341  0.0443  0.4341 -0.4396
  672MPD2     C 9939   0.270   1.511   1.171 -0.1922  0.1997  0.2034
  672MPD2    C1 9940   0.310   1.444   1.062 -0.3743 -1.1950 -0.4151
  672MPD2    C2 9941   0.420   1.484   0.997 -0.2576 -0.1089 -0.5454
  672MPD2    C3 9942   0.500   1.578   1.053  0.0540  0.3265  0.2261
  672MPD2    C4 9943   0.466   1.646   1.164  0.0889 -0.1268 -0.3337
  672MPD2    C5 9944   0.351   1.609   1.227  0.0659 -0.5097 -0.2456
  672MPD2     H 9945   0.446   1.430   0.907  0.9712 -0.4946  0.0352
  672MPD2    H1 9946   0.528   1.725   1.204 -0.1997  0.4792 -1.0898
  672MPD2    H2 9947   0.182   1.483   1.229  0.1243  1.1589  1.1426
  672MPD2    H3 9948   0.321   1.663   1.316 -0.0257 -0.3988 -0.3446
  672MPD2     N 9949   0.628   1.610   1.000 -0.3756  0.3185 -0.0163
  672MPD2    H5 9950   0.680   1.692   1.030  1.9044 -1.5552  1.2669
  672MPD2    N1 9951   0.237   1.340   1.002  0.9347 -0.1006  0.2107
  672MPD2    H7 9952   0.285   1.298   0.923  1.4264 -1.8273  1.4268
  673TMC3    C1 9953   0.100   1.161   0.967 -0.2806  0.0972 -0.5985
  673TMC3    C2 9954   0.061   1.043   1.025  0.2215 -0.3931  0.0467
  673TMC3    C3 9955   0.079   0.928   0.960 -0.3918  0.7028 -0.1051
  673TMC3    C4 9956   0.138   1.164   0.833 -0.0670  0.0595 -0.1755
  673TMC3    C5 9957   0.147   1.051   0.764  0.2392 -0.6233 -0.3150
  673TMC3    C6 9958   0.131   0.932   0.830 -0.1484 -0.0500  0.5537
  673TMC3     C 9959   0.134   1.271   1.057 -0.3286  0.0230  1.0413
  673TMC3     O 9960   0.066   1.292   1.156 -0.0828  0.0058 -0.0884
  673TMC3     H 9961   0.045   1.043   1.132  1.2868 -0.0539  0.2047
  673TMC3    H1 9962   0.160   1.258   0.784 -0.2370 -0.0925 -0.5418
  673TMC3    H2 9963   0.136   0.839   0.773 -0.3101  0.4209 -0.2260
  673TMC3    C7 9964   0.188   1.056   0.622  0.9491  0.8192  0.0802
  673TMC3    C8 9965   0.130   0.819   1.045  0.0614  0.7234 -1.2110
  673TMC3    O1 9966   0.223   0.951   0.569  0.1374  0.1215  0.0962
  673TMC3    O2 9967   0.056   0.798   1.143  0.0725 -0.4947 -0.0888
  674MPD2     C 9968   0.140   0.675  17.229 -0.0693 -0.0947 -0.1601
  674MPD2    C1 9969   0.269   0.662  17.286 -0.2753 -0.5774  0.1559
  674MPD2    C2 9970   0.313   0.777  17.353  0.1925  0.1290  0.5820
  674MPD2    C3 9971   0.231   0.886  17.373  0.5738  0.4607 -0.6513
  674MPD2    C4 9972   0.100   0.887  17.326  0.9423 -0.1497 -0.2787
  674MPD2    C5 9973   0.056   0.784  17.255 -0.1355  0.4177  0.7286
  674MPD2     H 9974   0.410   0.778  17.402  0.0962 -0.7565  0.7964
  674MPD2    H1 9975   0.025   0.962  17.351 -1.9766 -2.6632 -1.5820
  674MPD2    H2 9976   0.104   0.591  17.172  0.5044  0.7537 -1.8031
  674MPD2    H3 9977   4.678   0.773  17.231  0.0424 -1.1639  0.6666
  674MPD2     N 9978   0.264   0.960  17.484  0.3957  0.5118  0.8247
  674MPD2    H5 9979   0.346   0.937  17.539  0.6117 -0.0979  0.2480
  674MPD2    N1 9980   0.345   0.541  17.290 -0.2023  0.1587 -0.2464
  674MPD2    H7 9981   0.290   0.456  17.288  0.7252 -0.4661  0.4078
  675TMC3    C1 9982   0.515   0.395  17.358  0.2032 -0.2526  0.1482
  675TMC3    C2 9983   0.430   0.335  17.446 -0.2776  0.1209 -0.5683
  675TMC3    C3 9984   0.481   0.263  17.551 -0.1559  0.1325 -0.9281
  675TMC3    C4 9985   0.654   0.385  17.365  0.4319 -0.4647 -0.0045
  675TMC3    C5 9986   0.701   0.316  17.474  0.3959 -0.2048 -0.1650
  675TMC3    C6 9987   0.616   0.252  17.569  0.5795  0.1268 -0.0605
  675TMC3     C 9988   0.478   0.530  17.313  0.1174  0.2537 -0.2454
  675TMC3     O 9989   0.562   0.620  17.308 -0.0184  0.3819 -0.1713
  675TMC3     H 9990   0.326   0.362  17.461 -0.5053 -0.8419 -0.4560
  675TMC3    H1 9991   0.725   0.445  17.310  0.8318 -0.5425  0.4366
  675TMC3    H2 9992   0.653   0.184  17.645 -0.0434  0.1125  0.2320
  675TMC3    C7 9993   0.840   0.273  17.453  0.9684 -0.4509  0.2114
  675TMC3    C8 9994   0.391   0.227  17.660  0.3700  0.1832  0.2055
  675TMC3    O1 9995   0.888   0.297  17.343 -0.4171 -0.0931  0.9881
  675TMC3    O2 9996   0.288   0.175  17.622 -0.2762 -0.1138 -0.1211
  676MPD2     C 9997   2.887   3.951  10.926 -0.1939 -0.8023 -0.2950
  676MPD2    C1 9998   2.818   3.954  11.042 -0.5498  1.0864  0.3642
  676MPD2    C2 9999   2.839   3.844  11.127 -0.6390 -0.4299  0.0464
  676MPD2    C310000   2.912   3.731  11.086  0.0751  0.3257 -0.8350
  676MPD2    C410001   2.976   3.739  10.965 -0.2946  0.3315  0.4267
  676MPD2    C510002   2.964   3.845  10.888  0.3094  0.4760  0.1381
  676MPD2     H10003   2.789   3.845  11.224 -0.3334 -1.1633  0.2123
  676MPD2    H110004   3.038   3.659  10.927 -1.4962  1.4247 -3.7970
  676MPD2    H210005   2.876   4.032  10.855  0.2554  1.5960  2.3597
  676MPD2    H310006   3.023   3.849  10.797 -0.0371 -1.8875 -0.1714
  676MPD2     N10007   2.926   3.620  11.168 -0.3650 -0.3975 -0.6142
  676MPD2    H510008   2.980   3.544  11.129  2.0283  0.5665  0.8311
  676MPD2    N110009   2.739   4.065  11.086  0.2769 -0.0381  0.3205
  676MPD2    H710010   2.701   4.057  11.180  0.3214  2.4136  0.5513
  677TMC3    C110011   2.663   4.283  11.087  0.5834 -0.1883 -0.1988
  677TMC3    C210012   2.541   4.233  11.120  0.0390 -0.2355  0.8123
  677TMC3    C310013   2.462   4.297  11.208 -0.0566  0.7514 -0.4181
  677TMC3    C410014   2.709   4.392  11.158 -0.3298  0.2388 -0.4955
  677TMC3    C510015   2.619   4.466  11.237 -0.0885  0.0445  0.3918
  677TMC3    C610016   2.492   4.419  11.262 -0.5685  0.3590  0.4076
  677TMC3     C10017   2.759   4.194  11.033 -0.6306 -0.4520 -0.0507
  677TMC3     O10018   2.860   4.237  10.981 -0.2979 -0.0171 -0.4534
  677TMC3     H10019   2.506   4.142  11.074  0.6819  0.8057 -1.7387
  677TMC3    H110020   2.802   4.438  11.127  0.4841 -0.9164  0.2201
  677TMC3    H210021   2.429   4.468  11.335  0.7906 -1.4823  2.8046
  677TMC3    C710022   2.667   4.562  11.332 -0.5095  0.2150 -0.5095
  677TMC3    C810023   2.329   4.239  11.216 -0.1012  0.1799 -0.5947
  677TMC3    O110024   2.581   4.610  11.402  0.1500  0.2783 -0.5492
  677TMC3    O210025   2.294   4.168  11.125 -0.6224 -0.3264  0.1765
  678MPD2     C10026   0.052   4.498   1.597 -0.1183  0.0135 -0.7412
  678MPD2    C110027   0.052   4.523   1.466 -0.1923 -0.0827  0.4945
  678MPD2    C210028   4.657   4.564   1.407 -0.3009  0.4417 -0.6362
  678MPD2    C310029   4.539   4.584   1.477  0.3971 -0.4037  0.1394
  678MPD2    C410030   4.546   4.574   1.618 -0.2351  0.2653  0.2178
  678MPD2    C510031   4.666   4.524   1.672 -0.1261  0.3095 -0.3173
  678MPD2     H10032   4.667   4.591   1.302  1.5294 -0.8599 -0.7922
  678MPD2    H110033   4.466   4.597   1.687 -0.3726 -0.3612  0.2669
  678MPD2    H210034   0.133   4.447   1.647  0.6799  0.1019 -1.9645
  678MPD2    H310035   4.675   4.504   1.778  1.1787  1.9046 -0.1169
  678MPD2     N10036   4.424   4.614   1.400  0.3576 -0.5761 -0.8508
  678MPD2    H510037   4.435   4.619   1.299 -2.0461 -1.0077 -1.1359
  678MPD2    N110038   0.161   4.494   1.377 -0.0405 -0.5968 -0.2756
  678MPD2    H710039   0.150   4.517   1.279 -0.6707  1.1799  0.1967
  679TMC3    C110040   0.486   4.250   1.186  0.0337 -0.5705 -0.2816
  679TMC3    C210041   0.420   4.282   1.298 -0.0184  0.8396 -0.1582
  679TMC3    C310042   0.346   4.396   1.298  0.1834  0.0450 -1.0006
  679TMC3    C410043   0.505   4.344   1.084  0.7706 -0.3687 -1.0046
  679TMC3    C510044   0.439   4.460   1.098  0.2112  0.2900 -0.3798
  679TMC3    C610045   0.350   4.491   1.198 -0.0325 -0.1063  0.3313
  679TMC3     C10046   0.560   4.128   1.192  0.4406  0.4857 -0.7022
  679TMC3     O10047   0.510   4.040   1.263  0.3648 -0.2193 -0.1438
  679TMC3     H10048   0.422   4.222   1.388  0.1709  0.9835 -0.0674
  679TMC3    H110049   0.556   4.314   0.993 -0.8347 -0.0789 -2.0002
  679TMC3    H210050   0.295   4.583   1.189 -0.4326 -0.2207  1.6197
  679TMC3    C710051   0.442   4.560   0.993 -0.4056  0.0836  0.5862
  679TMC3    C810052   0.270   4.427   1.414 -0.6026  0.1650  0.2599
  679TMC3    O110053   0.342   4.625   0.976 -0.2262 -0.2878  0.3320
  679TMC3    O210054   0.300   4.361   1.517  0.5969  0.2675  0.0247
  680MPD2     C10055   4.180   3.032  13.718 -0.1161 -0.3850 -0.3978
  680MPD2    C110056   4.308   2.978  13.751  0.7878  0.0871  0.0685
  680MPD2    C210057   4.411   3.055  13.794  0.2106  0.2312 -0.3126
  680MPD2    C310058   4.395   3.193  13.793  0.4544 -0.1759 -0.2910
  680MPD2    C410059   4.272   3.247  13.768  0.0956  1.0143 -0.5414
  680MPD2    C510060   4.161   3.170  13.728 -0.3235  0.3411  0.0216
  680MPD2     H10061   4.506   3.009  13.814  0.3042  0.9342  0.8817
  680MPD2    H110062   4.253   3.354  13.771  1.9838  1.3513 -0.1349
  680MPD2    H210063   4.102   2.960  13.701  1.0292 -2.1068  1.7706
  680MPD2    H310064   4.066   3.215  13.701  0.3312  0.9816 -1.2670
  680MPD2     N10065   4.499   3.280  13.840 -0.3441 -0.9187  0.0860
  680MPD2    H510066   4.475   3.378  13.828  0.2991 -0.4656  2.7168
  680MPD2    N110067   4.330   2.840  13.733 -0.2808 -0.1828  0.5333
  680MPD2    H710068   4.425   2.806  13.744 -0.6019 -1.2762 -0.0668
  681TMC3    C110069   4.290   2.621  13.715  0.0879 -0.0951  0.2378
  681TMC3    C210070   4.280   2.557  13.834  0.0687  0.2876  0.5426
  681TMC3    C310071   4.384   2.476  13.866  0.4470 -0.5442  0.3969
  681TMC3    C410072   4.404   2.626  13.640 -0.3282  0.2550  0.0347
  681TMC3    C510073   4.511   2.546  13.676 -0.3523 -0.0270  0.5349
  681TMC3    C610074   4.502   2.471  13.793 -0.0080 -0.0661 -0.0805
  681TMC3     C10075   4.232   2.743  13.712 -0.4473  0.2955 -0.3612
  681TMC3     O10076   4.110   2.740  13.722  0.2525 -1.0326  0.3709
  681TMC3     H10077   4.194   2.581  13.894 -1.5235  0.0407 -1.6424
  681TMC3    H110078   4.404   2.692  13.554  0.7598  2.5102  1.7578
  681TMC3    H210079   4.583   2.406  13.824 -0.5927 -0.6334  0.2716
  681TMC3    C710080   4.642   2.557  13.610 -0.0296 -0.0553  0.3713
  681TMC3    C810081   4.379   2.459  14.008 -0.1730 -0.1612  0.5694
  681TMC3    O110082   0.009   2.498  13.658 -0.6247 -0.3584  0.5513
  681TMC3    O210083   4.269   2.430  14.046  0.3584  0.2121 -0.4484
  682MPD2     C10084   1.719   4.214  10.679  0.1749  0.6352  0.0748
  682MPD2    C110085   1.749   4.078  10.685 -0.2843  0.0549  0.1175
  682MPD2    C210086   1.729   4.005  10.801 -0.4917 -0.3204 -0.3340
  682MPD2    C310087   1.678   4.060  10.918 -0.0581 -0.3348 -0.2269
  682MPD2    C410088   1.670   4.199  10.911  0.6869 -0.2058 -0.0494
  682MPD2    C510089   1.695   4.277  10.800  0.8097 -0.2831  0.0253
  682MPD2     H10090   1.734   3.897  10.795  0.3787 -0.4593  2.9433
  682MPD2    H110091   1.631   4.254  10.996 -0.7733  0.3561 -1.0816
  682MPD2    H210092   1.737   4.276  10.593 -1.6974  1.8039  0.5282
  682MPD2    H310093   1.691   4.386  10.805 -2.3144 -0.2359 -4.1286
  682MPD2     N10094   1.634   3.996  11.038  0.1323 -0.0573  0.0861
  682MPD2    H510095   1.598   4.051  11.116  2.0449  1.8624 -0.3673
  682MPD2    N110096   1.781   4.005  10.567  0.0304 -0.3435  0.3399
  682MPD2    H710097   1.797   3.905  10.578 -1.2422 -0.4675  1.1601
  683TMC3    C110098   1.579   3.782  11.410 -0.8618 -0.2294 -0.7244
  683TMC3    C210099   1.513   3.666  11.398 -0.3548 -0.0156  0.0897
  683TMC3    C310100   1.482   3.622  11.271 -0.1187  0.2105 -0.6834
  683TMC3    C410101   1.613   3.848  11.295 -0.8738 -0.6450  0.0046
  683TMC3    C510102   1.572   3.810  11.168 -0.0980  0.0370 -0.3302
  683TMC3    C610103   1.501   3.696  11.157  0.3806 -0.3412 -0.0940
  683TMC3     C10104   1.625   3.827  11.538 -0.2140  0.0185 -0.4018
  683TMC3     O10105   1.652   3.944  11.545 -0.0580  0.2110  0.3227
  683TMC3     H10106   1.467   3.613  11.480 -0.2940 -1.1934 -0.6390
  683TMC3    H110107   1.675   3.937  11.304 -0.5964 -0.8429  0.0669
  683TMC3    H210108   1.477   3.650  11.062 -0.4205 -0.0709 -0.0244
  683TMC3    C710109   1.638   3.860  11.052  0.3219 -0.4369  0.2166
  683TMC3    C810110   1.449   3.480  11.265 -0.5605  0.2881 -0.5214
  683TMC3    O110111   1.643   3.780  10.961  0.4237 -0.0877  0.3090
  683TMC3    O210112   1.372   3.449  11.174 -0.1093  0.3802  0.4090
  684MPD2     C10113   0.133   3.439  15.825  0.1602  0.4242  0.4382
  684MPD2    C110114   0.257   3.475  15.863 -0.1753 -0.0218  0.1332
  684MPD2    C210115   0.271   3.589  15.938 -1.0327 -0.1281  0.2208
  684MPD2    C310116   0.159   3.642  16.002 -0.0294 -0.4741 -0.6527
  684MPD2    C410117   0.036   3.588  15.992 -0.5942  0.1222  0.4536
  684MPD2    C510118   0.026   3.501  15.884  0.1643 -0.5256  0.1485
  684MPD2     H10119   0.368   3.632  15.957 -1.0866 -0.0272  0.2696
  684MPD2    H110120   4.673   3.628  16.038  0.1649  1.7029  0.5791
  684MPD2    H210121   0.116   3.359  15.755 -0.5172 -0.1761  1.2909
  684MPD2    H310122   4.652   3.466  15.866 -0.3485  1.4442 -0.8715
  684MPD2     N10123   0.171   3.761  16.075  0.0292  0.7420  0.0606
  684MPD2    H510124   0.082   3.804  16.098 -0.2595  0.5967 -0.7901
  684MPD2    N110125   0.376   3.413  15.822  0.1392  0.0111 -0.4147
  684MPD2    H710126   0.468   3.440  15.856  1.2675 -1.2755 -2.3675
  685TMC3    C110127   0.527   3.280  15.697 -0.4031  0.2680 -0.1066
  685TMC3    C210128   0.536   3.180  15.603 -0.8150  1.0962 -0.1067
  685TMC3    C310129   0.631   3.193  15.507  0.2174 -0.1959  0.6599
  685TMC3    C410130   0.612   3.385  15.699  0.4902 -0.8059  0.2510
  685TMC3    C510131   0.718   3.381  15.614  0.2585  0.1687 -0.4020
  685TMC3    C610132   0.721   3.289  15.516 -0.4951 -0.1474  0.0324
  685TMC3     C10133   0.388   3.312  15.732  0.1531  0.8975  0.5467
  685TMC3     O10134   0.296   3.247  15.679 -0.3089  0.2689  0.4764
  685TMC3     H10135   0.474   3.091  15.611 -0.6384  0.9481 -0.3559
  685TMC3    H110136   0.598   3.470  15.765  0.3361  0.0353 -0.8496
  685TMC3    H210137   0.815   3.277  15.463 -0.2784  3.0638 -0.3220
  685TMC3    C710138   0.845   3.456  15.651  0.1946 -0.2204 -0.3866
  685TMC3    C810139   0.641   3.091  15.399 -0.0854 -0.0181 -0.2511
  685TMC3    O110140   0.942   3.458  15.577 -0.6440  0.4922 -0.7473
  685TMC3    O210141   0.753   3.062  15.361 -0.0368 -0.5007 -0.0384
  686MPD2     C10142   1.727   3.279  15.824  0.3754  0.1068 -0.2565
  686MPD2    C110143   1.684   3.200  15.931  0.4074  0.0886 -0.7576
  686MPD2    C210144   1.727   3.067  15.932  0.1133 -0.3749 -0.4489
  686MPD2    C310145   1.796   3.006  15.830 -0.2500  0.4105 -0.1912
  686MPD2    C410146   1.824   3.075  15.715  0.6450 -0.1821  0.6217
  686MPD2    C510147   1.792   3.213  15.718 -0.0865 -0.1246 -0.5179
  686MPD2     H10148   1.705   3.007  16.019 -1.0574 -0.7125 -0.9728
  686MPD2    H110149   1.864   3.024  15.628  1.0879 -0.0080  0.7218
  686MPD2    H210150   1.712   3.386  15.815 -1.3324 -0.2187 -1.3894
  686MPD2    H310151   1.810   3.281  15.635 -0.8633 -0.0810 -0.6515
  686MPD2     N10152   1.825   2.871  15.831 -0.1555 -0.3348  0.0703
  686MPD2    H510153   1.806   2.826  15.742 -2.5866  1.2566 -0.2302
  686MPD2    N110154   1.596   3.250  16.037 -0.4224  0.3973  0.4470
  686MPD2    H710155   1.563   3.345  16.024 -2.1787  0.2655  4.0172
  687TMC3    C110156   1.732   2.689  15.948  0.4252  0.7161  0.3956
  687TMC3    C210157   1.607   2.744  15.917 -0.3848 -0.6784 -0.7833
  687TMC3    C310158   1.510   2.732  16.015 -0.0373 -0.3204 -0.3350
  687TMC3    C410159   1.758   2.615  16.060  0.4560 -0.1498  0.5528
  687TMC3    C510160   1.659   2.623  16.158 -0.0794 -0.0895 -0.2297
  687TMC3    C610161   1.534   2.676  16.132  0.4753 -0.1175  1.0153
  687TMC3     C10162   1.828   2.800  15.952  0.6209  0.0728  0.0168
  687TMC3     O10163   1.865   2.847  16.060 -0.1551 -0.5306  0.1392
  687TMC3     H10164   1.596   2.794  15.822 -1.7196  1.4302  0.4943
  687TMC3    H110165   1.860   2.599  16.091  1.0162  0.4152 -0.9870
  687TMC3    H210166   1.453   2.663  16.204  1.3896 -0.5268  1.9632
  687TMC3    C710167   1.717   2.670  16.281 -0.0163  0.2761 -0.2633
  687TMC3    C810168   1.402   2.839  16.006 -0.2685 -0.1933 -0.2214
  687TMC3    O110169   1.825   2.622  16.320 -0.7713  0.1014  0.4387
  687TMC3    O210170   1.310   2.819  16.086 -0.1312  0.4573  0.1393
  688MPD2     C10171   0.732   2.051  16.831 -0.0191 -0.5585 -0.2061
  688MPD2    C110172   0.776   2.008  16.954  0.1605  0.6092  0.7057
  688MPD2    C210173   0.887   1.921  16.961 -0.1516 -0.9846 -0.2050
  688MPD2    C310174   0.938   1.868  16.844 -0.6683 -0.2253  0.2133
  688MPD2    C410175   0.884   1.893  16.725 -0.0408 -0.1057 -0.7696
  688MPD2    C510176   0.788   1.990  16.722 -0.1514 -0.0133 -0.3641
  688MPD2     H10177   0.919   1.888  17.059  0.1181  0.7526  0.3072
  688MPD2    H110178   0.915   1.842  16.635 -0.6069 -0.5550 -0.7075
  688MPD2    H210179   0.649   2.120  16.818 -0.2589 -0.8695 -0.3299
  688MPD2    H310180   0.755   2.016  16.622  0.6661  2.0084 -0.0983
  688MPD2     N10181   1.029   1.766  16.844 -0.0122 -0.2079  0.3012
  688MPD2    H510182   1.045   1.721  16.754  0.3088  2.3427 -0.9101
  688MPD2    N110183   0.707   2.034  17.071 -0.6747 -0.4124 -0.1508
  688MPD2    H710184   0.737   1.982  17.153 -0.6681 -1.4402 -0.8133
  689TMC3    C110185   0.522   2.057  17.211  0.0622 -0.0108 -0.3732
  689TMC3    C210186   0.484   2.152  17.300 -0.0728  0.1264 -0.8512
  689TMC3    C310187   0.458   2.117  17.433  0.7523 -0.0579  0.8130
  689TMC3    C410188   0.523   1.930  17.244  0.6334  0.0770 -0.1371
  689TMC3    C510189   0.486   1.891  17.378 -0.7999 -0.3230  0.0449
  689TMC3    C610190   0.463   1.984  17.476  0.2329  0.1880  0.0556
  689TMC3     C10191   0.583   2.092  17.084 -0.1910  0.0031 -0.1871
  689TMC3     O10192   0.526   2.175  17.016 -0.0888  0.2477 -0.2011
  689TMC3     H10193   0.484   2.256  17.268 -3.0693  0.5146  0.4995
  689TMC3    H110194   0.546   1.856  17.168  0.0931  0.2775 -0.4958
  689TMC3    H210195   0.443   1.944  17.574 -0.8663  2.1384  0.6385
  689TMC3    C710196   0.495   1.752  17.420 -0.2599  0.1776 -0.7451
  689TMC3    C810197   0.496   2.215  17.527 -0.3947  0.1280 -0.1623
  689TMC3    O110198   0.502   1.733  17.541 -0.0654 -0.2850 -0.1086
  689TMC3    O210199   0.509   2.172  17.639 -0.3492 -0.2584  0.1254
  690MPD2     C10200   3.302   4.071  15.600 -0.3715  0.9030 -0.0206
  690MPD2    C110201   3.226   4.075  15.487  0.1908 -1.0518 -0.4098
  690MPD2    C210202   3.276   4.141  15.374 -0.0760  0.3913 -0.6899
  690MPD2    C310203   3.405   4.195  15.375 -0.3751 -0.4191 -0.2272
  690MPD2    C410204   3.481   4.180  15.486 -0.0236  0.0902  0.1264
  690MPD2    C510205   3.425   4.132  15.600  0.4222 -0.0556  0.7399
  690MPD2     H10206   3.214   4.154  15.287 -1.2398  1.1858  0.2596
  690MPD2    H110207   3.582   4.219  15.494  0.7755 -1.5922 -1.4490
  690MPD2    H210208   3.283   4.024  15.696  0.1739  0.8482  0.0609
  690MPD2    H310209   3.482   4.138  15.692 -2.9846 -0.5436  2.8943
  690MPD2     N10210   3.454   4.264  15.259  1.1116 -0.3171 -0.3449
  690MPD2    H510211   3.389   4.287  15.185  0.8509  0.6378  0.1669
  690MPD2    N110212   3.109   4.004  15.470 -0.7175  0.0350 -0.8068
  690MPD2    H710213   3.086   3.966  15.378  3.1196 -2.7120 -0.6256
  691TMC3    C110214   2.932   3.876  15.551  0.2460  0.4071  0.2274
  691TMC3    C210215   2.836   3.865  15.645  0.5412 -0.2838  0.2722
  691TMC3    C310216   2.769   3.750  15.653  0.4765 -0.5485 -0.3756
  691TMC3    C410217   2.954   3.773  15.463  0.3472  0.2511  0.2583
  691TMC3    C510218   2.881   3.661  15.479 -0.4765  0.3273  0.4755
  691TMC3    C610219   2.787   3.642  15.575  0.6425 -0.2055 -0.1981
  691TMC3     C10220   3.018   3.991  15.569  0.2820  0.4494 -0.1099
  691TMC3     O10221   3.020   4.042  15.679 -0.0208 -0.5858 -0.7899
  691TMC3     H10222   2.828   3.945  15.718  1.2558 -0.0797  0.1268
  691TMC3    H110223   3.032   3.775  15.387 -1.4302 -2.8110 -1.6668
  691TMC3    H210224   2.748   3.544  15.599  3.2916 -1.4196 -0.8327
  691TMC3    C710225   2.934   3.548  15.409 -0.4126  0.3859  0.5875
  691TMC3    C810226   2.695   3.719  15.771 -0.4632  0.0074 -0.0397
  691TMC3    O110227   3.051   3.556  15.384  0.0043  0.5722  0.3118
  691TMC3    O210228   2.684   3.605  15.799  0.3502  0.1542  0.1540
  692TMC3    C110229   4.429   0.286  15.623  0.1134 -0.4391  0.1923
  692TMC3    C210230   4.548   0.319  15.685  0.3444  0.3998  0.9687
  692TMC3    C310231   4.640   0.221  15.718 -0.1175 -0.4095 -0.9067
  692TMC3    C410232   4.395   0.152  15.625 -0.1190 -0.1556 -0.4141
  692TMC3    C510233   4.476   0.059  15.687  0.0223  0.9593 -0.1622
  692TMC3    C610234   4.594   0.095  15.744 -0.1704  0.3665  0.7030
  692TMC3     C10235   4.315   0.374  15.635 -0.0475  0.4927  0.0015
  692TMC3     O10236   4.200   0.327  15.631 -0.4846  0.0984 -0.3300
  692TMC3     H10237   4.581   0.415  15.647  0.9368 -1.4974 -3.4224
  692TMC3    H110238   4.304   0.121  15.574 -0.8618 -1.2316  1.5901
  692TMC3    H210239   4.674   0.022  15.752 -0.2933  0.3664  1.8880
  692TMC3    C710240   4.447   4.643  15.669 -0.2905  0.2556  0.5477
  692TMC3    C810241   4.717   0.275  15.833  1.4340 -0.3112 -0.0241
  692TMC3    O110242   4.376   4.614  15.572  0.3482 -0.2484 -0.2850
  692TMC3    O210243   0.061   0.202  15.902  0.0495 -0.1722  0.2779
  693MPD2     C10244   3.665   3.153  10.176  0.3245 -0.1504  0.0710
  693MPD2    C110245   3.696   3.155  10.310  0.2287 -0.3371 -0.0448
  693MPD2    C210246   3.832   3.170  10.356  0.5912  0.0367 -0.4449
  693MPD2    C310247   3.928   3.189  10.258  0.4301 -0.0031 -0.3557
  693MPD2    C410248   3.891   3.206  10.128  0.4962  0.1500  0.1113
  693MPD2    C510249   3.764   3.177  10.083 -0.4378  0.7601  0.1133
  693MPD2     H10250   3.845   3.153  10.462 -0.6611  0.5630 -0.2087
  693MPD2    H110251   3.966   3.224  10.051  0.3622  0.7029  0.1111
  693MPD2    H210252   3.563   3.144  10.139 -0.3957 -1.2542  2.2954
  693MPD2    H310253   3.734   3.187   9.979  0.5326 -2.6943 -0.5163
  693MPD2     N10254   4.062   3.193  10.290 -0.6137 -0.3047 -0.3171
  693MPD2    H510255   4.129   3.192  10.214 -1.1978 -2.6434 -0.8135
  693MPD2    N110256   3.593   3.119  10.395  0.0669  0.0638 -0.2549
  693MPD2    H710257   3.503   3.100  10.352 -1.3252 -0.5132  2.9058
  694TMC3    C110258   3.512   2.999  10.574  0.9599 -0.5488  0.3753
  694TMC3    C210259   3.436   2.925  10.490  0.4986  0.3063 -0.4435
  694TMC3    C310260   3.374   2.812  10.537 -0.0236  0.0946 -0.1361
  694TMC3    C410261   3.509   2.967  10.708  0.7120  0.1141  0.0401
  694TMC3    C510262   3.449   2.857  10.754 -0.1120  0.2327  0.1576
  694TMC3    C610263   3.382   2.774  10.665  0.5183  0.2147  0.0994
  694TMC3     C10264   3.601   3.101  10.529 -0.0153 -0.7832 -0.0908
  694TMC3     O10265   3.683   3.128  10.613 -0.0080 -1.0530  0.3069
  694TMC3     H10266   3.423   2.951  10.386 -1.3963  0.8151 -0.0708
  694TMC3    H110267   3.564   3.032  10.775 -1.5009  1.0800  0.9050
  694TMC3    H210268   3.347   2.674  10.690  1.3133  0.3858  1.8369
  694TMC3    C710269   3.468   2.802  10.887  0.1775 -0.5135  0.2963
  694TMC3    C810270   3.310   2.716  10.445  0.9780  0.0391 -0.1703
  694TMC3    O110271   3.571   2.832  10.945 -0.0318 -0.1266 -0.1464
  694TMC3    O210272   3.243   2.625  10.490 -0.2980  0.4700 -0.3501
  695MPD2     C10273   0.605   0.298  13.493  0.1465 -0.0348 -0.0625
  695MPD2    C110274   0.570   0.306  13.631  0.0163 -0.3114  0.2142
  695MPD2    C210275   0.434   0.307  13.655  0.9627 -0.7482 -0.8906
  695MPD2    C310276   0.336   0.309  13.552  0.4172  0.1585 -0.6161
  695MPD2    C410277   0.377   0.321  13.421 -0.9677  0.7245 -0.6183
  695MPD2    C510278   0.509   0.311  13.395  0.4542 -0.0353  0.2766
  695MPD2     H10279   0.393   0.308  13.756  0.3692 -1.9125 -1.1300
  695MPD2    H110280   0.308   0.342  13.340 -0.4881  1.5685 -0.8102
  695MPD2    H210281   0.710   0.293  13.467 -0.2839 -1.3186 -1.5515
  695MPD2    H310282   0.547   0.337  13.296 -0.2708 -0.3840 -0.0941
  695MPD2     N10283   0.205   0.290  13.596  0.2610  0.1824 -0.2806
  695MPD2    H510284   0.190   0.291  13.697  0.6776 -1.9415 -0.1910
  695MPD2    N110285   0.658   0.283  13.741  0.2591  0.8283 -0.3593
  695MPD2    H710286   0.613   0.293  13.831  1.6722  0.4533  0.3929
  696TMC3    C110287   4.701   0.287  13.589 -0.1197 -0.0106  0.0189
  696TMC3    C210288   4.711   0.209  13.698  0.1907 -0.1047 -0.6666
  696TMC3    C310289   4.614   0.228  13.790  0.7603 -0.0623 -0.5031
  696TMC3    C410290   4.605   0.377  13.556  0.3292  0.2575 -0.0852
  696TMC3    C510291   4.496   0.377  13.638  0.1913 -0.5748 -0.6210
  696TMC3    C610292   4.508   0.312  13.764  0.0998  0.1849  0.0297
  696TMC3     C10293   0.096   0.296  13.515  0.1001 -0.1349  0.0784
  696TMC3     O10294   0.082   0.326  13.401 -0.1760  0.6083 -0.0904
  696TMC3     H10295   0.066   0.142  13.721 -0.3284 -0.4563  0.1609
  696TMC3    H110296   4.609   0.442  13.469 -0.7013  0.2661 -0.1267
  696TMC3    H210297   4.416   0.301  13.820  1.4058  1.2526  2.3979
  696TMC3    C710298   4.400   0.490  13.630  0.0983 -0.4617  0.0768
  696TMC3    C810299   4.669   0.229  13.921 -0.3260  0.1371  0.8750
  696TMC3    O110300   4.372   0.532  13.515  0.2733  0.1963  0.1876
  696TMC3    O210301   0.058   0.262  13.933  0.2736  0.1220  0.2425
  697MPD2     C10302   3.863   1.974  15.465  0.3853  0.5582  0.6607
  697MPD2    C110303   3.956   1.891  15.408 -0.2282 -0.0043  1.0922
  697MPD2    C210304   4.051   1.941  15.322 -0.7766  0.7085 -0.3478
  697MPD2    C310305   4.068   2.076  15.313 -0.2809 -0.2926 -0.0488
  697MPD2    C410306   3.979   2.164  15.372  0.2309 -0.7938 -0.0832
  697MPD2    C510307   3.881   2.111  15.453 -0.2598 -0.4574 -0.0777
  697MPD2     H10308   4.117   1.875  15.267 -2.0233  1.0592 -2.2782
  697MPD2    H110309   3.993   2.271  15.378 -0.9729 -0.6135 -0.4585
  697MPD2    H210310   3.786   1.937  15.533 -0.0055  0.7217  0.3064
  697MPD2    H310311   3.825   2.186  15.508 -1.5911 -1.7982  0.3661
  697MPD2     N10312   4.168   2.119  15.227 -0.4712  0.3854  0.0428
  697MPD2    H510313   4.222   2.043  15.187 -0.0761 -0.5175  2.2843
  697MPD2    N110314   3.962   1.748  15.433  0.0614  0.5865  0.2002
  697MPD2    H710315   4.035   1.690  15.393 -0.2142 -0.2697  0.9288
  698TMC3    C110316   4.294   2.266  15.094 -0.7346 -0.1869 -0.4850
  698TMC3    C210317   4.331   2.393  15.066 -0.0323  0.8358  0.3621
  698TMC3    C310318   4.416   2.406  14.958 -0.0796 -0.2045 -1.1276
  698TMC3    C410319   4.334   2.157  15.023  0.1064  0.2017 -0.1003
  698TMC3    C510320   4.414   2.181  14.914 -0.0233 -0.8394 -0.2077
  698TMC3    C610321   4.461   2.303  14.884  0.7848  0.3740 -0.3630
  698TMC3     C10322   4.192   2.251  15.201  0.4343  0.2813 -0.4188
  698TMC3     O10323   4.135   2.349  15.243  0.1492 -0.5860  0.6649
  698TMC3     H10324   4.290   2.470  15.130  0.0012 -0.2167  1.6517
  698TMC3    H110325   4.292   2.059  15.044 -0.1325 -0.2552 -2.7489
  698TMC3    H210326   4.498   2.328  14.785 -0.1465  0.4109 -0.6948
  698TMC3    C710327   4.416   2.089  14.802  0.2784 -0.6557  0.2440
  698TMC3    C810328   4.418   2.545  14.912  0.1780  0.6150 -0.7604
  698TMC3    O110329   4.318   2.025  14.775  0.2165 -0.0902  0.0357
  698TMC3    O210330   4.337   2.619  14.962 -0.2725  0.1618  0.1601
  699TMC3    C110331   4.452   0.047  13.156  0.1926 -0.7049 -0.4292
  699TMC3    C210332   4.499   4.699  13.260  0.5850 -0.4391  0.1349
  699TMC3    C310333   4.437   4.703  13.380 -1.0941  0.7966  0.4797
  699TMC3    C410334   4.350   0.130  13.172 -0.0340 -0.0061 -0.1999
  699TMC3    C510335   4.285   0.130  13.290 -0.3094  0.3684  0.0380
  699TMC3    C610336   4.330   0.061  13.397 -0.2172  0.6429  1.1843
  699TMC3     C10337   4.533   0.084  13.049 -0.5185  0.5129  0.9945
  699TMC3     O10338   4.479   0.106  12.942  0.0317  0.2956 -0.3267
  699TMC3     H10339   4.571   4.622  13.234 -1.6837 -2.5001 -0.0562
  699TMC3    H110340   4.317   0.181  13.082 -0.4769  1.7253  0.9546
  699TMC3    H210341   4.275   0.068  13.490 -1.1732  1.9227  0.5247
  699TMC3    C710342   4.148   0.172  13.294 -0.5324 -0.2526 -0.0258
  699TMC3    C810343   4.451   4.599  13.475  0.3013 -1.3956  0.0533
  699TMC3    O110344   4.083   0.146  13.389  0.3879  0.6776 -0.3379
  699TMC3    O210345   4.378   4.617  13.573  0.0277  0.3772  0.4274
  700TMC3    C110346   3.202   2.176  17.085  0.1713  0.5374 -0.5080
  700TMC3    C210347   3.276   2.086  17.018  0.7407 -0.8954  0.1158
  700TMC3    C310348   3.352   1.996  17.093 -0.0005 -0.2407  0.0353
  700TMC3    C410349   3.196   2.188  17.222 -0.8133 -0.3058 -0.4595
  700TMC3    C510350   3.272   2.099  17.289 -0.5160  1.0968 -0.9071
  700TMC3    C610351   3.357   2.005  17.228 -0.0643 -0.0198 -0.3714
  700TMC3     C10352   3.154   2.298  17.008 -0.2838 -0.9056  0.3745
  700TMC3     O10353   3.065   2.369  17.052 -0.5229  0.4045  0.0272
  700TMC3     H10354   3.284   2.079  16.911 -1.7711 -0.8677 -0.0654
  700TMC3    H110355   3.129   2.250  17.281 -1.4901 -0.3926 -1.1408
  700TMC3    H210356   3.411   1.938  17.294 -0.6360 -0.5436 -0.4312
  700TMC3    C710357   3.335   2.145  17.415  0.1456  0.1240 -0.7622
  700TMC3    C810358   3.420   1.887  17.027  0.3855 -0.0865  0.2015
  700TMC3    O110359   3.445   2.092  17.439  0.1257  0.2727 -0.1443
  700TMC3    O210360   3.461   1.909  16.915 -0.2204 -0.0772  0.8857
  701TMC3    C110361   3.332   1.182  15.691  0.0596  0.0695 -0.7670
  701TMC3    C210362   3.414   1.129  15.598 -0.5164  0.2207 -0.4272
  701TMC3    C310363   3.509   1.202  15.539  0.8226  0.2059 -0.3419
  701TMC3    C410364   3.345   1.313  15.737  0.4711  0.3451  0.0543
  701TMC3    C510365   3.445   1.386  15.678 -0.9482  0.2191  0.1438
  701TMC3    C610366   3.529   1.334  15.581 -0.0520 -0.1096 -0.1938
  701TMC3     C10367   3.260   1.102  15.783 -0.1109  0.0808 -0.7641
  701TMC3     O10368   3.241   1.157  15.891 -0.3177  0.4811 -0.0972
  701TMC3     H10369   3.421   1.023  15.576  1.7397  0.0573  1.1536
  701TMC3    H110370   3.272   1.352  15.806  1.5622  0.5113  1.1222
  701TMC3    H210371   3.593   1.397  15.520 -0.0206  0.7271  0.7085
  701TMC3    C710372   3.428   1.528  15.688  0.1402 -0.3808  0.2615
  701TMC3    C810373   3.582   1.163  15.423  0.5362 -0.3243  0.6026
  701TMC3    O110374   3.467   1.605  15.601  0.0169  0.7637  0.4695
  701TMC3    O210375   3.668   1.242  15.385 -0.1761 -0.2868  0.1705
  702MPD2     C10376   2.756   3.093  10.856 -0.4058 -0.1009  1.2016
  702MPD2    C110377   2.844   3.196  10.899  0.0045  0.1996 -0.7260
  702MPD2    C210378   2.886   3.288  10.808 -0.6728 -0.0491  0.0367
  702MPD2    C310379   2.843   3.281  10.676 -0.1602  0.2801  0.1124
  702MPD2    C410380   2.756   3.178  10.642  0.4831  0.0367 -0.1889
  702MPD2    C510381   2.719   3.081  10.729 -0.2285  0.4086 -0.1308
  702MPD2     H10382   2.954   3.365  10.843 -1.5402  1.0689 -0.7211
  702MPD2    H110383   2.717   3.163  10.542 -0.3938  2.1884 -0.1516
  702MPD2    H210384   2.720   3.022  10.930 -0.6467  1.4061  2.5273
  702MPD2    H310385   2.639   3.011  10.706  0.9358 -0.9715  0.0633
  702MPD2     N10386   2.876   3.382  10.576  0.1245 -0.0833  0.4533
  702MPD2    H510387   2.843   3.369  10.481  1.1824 -0.1716  0.0970
  702MPD2    N110388   2.893   3.190  11.037 -0.3509 -0.4613  0.3426
  702MPD2    H710389   2.852   3.115  11.091 -2.5899 -0.7756 -1.8125
  703TMC3    C110390   2.898   3.600  10.514 -1.1114  0.3044 -0.0964
  703TMC3    C210391   2.860   3.718  10.570  0.4383 -0.0746  0.1387
  703TMC3    C310392   2.895   3.831  10.503 -0.3512 -0.1708  0.8241
  703TMC3    C410393   2.963   3.596  10.391 -0.1425 -0.2653 -0.6248
  703TMC3    C510394   3.001   3.707  10.340 -0.1749  0.4503  0.0558
  703TMC3    C610395   2.971   3.832  10.390 -0.1286  0.5401  0.4515
  703TMC3     C10396   2.941   3.500  10.606 -0.4562  0.4801 -0.0407
  703TMC3     O10397   2.992   3.535  10.712 -0.6003 -0.3725 -0.6307
  703TMC3     H10398   2.834   3.728  10.675 -0.6652  1.2585 -0.2633
  703TMC3    H110399   2.958   3.507  10.329  1.9521 -0.6143 -0.2935
  703TMC3    H210400   2.988   3.926  10.339  0.8609 -0.0257 -0.2581
  703TMC3    C710401   3.079   3.714  10.221 -1.2284 -0.2147 -0.3033
  703TMC3    C810402   2.845   3.961  10.542  0.4310  0.4404 -0.1384
  703TMC3    O110403   3.082   3.828  10.181  0.2170  0.0157  0.1562
  703TMC3    O210404   2.907   4.063  10.517 -0.2365 -0.0261 -0.2539
  704TMC3    C110405   0.688   1.883  12.548 -0.3187 -0.8257  0.2364
  704TMC3    C210406   0.775   1.955  12.477 -0.7723 -0.0756  0.1652
  704TMC3    C310407   0.901   1.899  12.474  0.2824 -0.0991  0.4691
  704TMC3    C410408   0.711   1.769  12.612 -0.1974 -0.1527  0.3189
  704TMC3    C510409   0.832   1.710  12.604  0.1963  0.0047  0.2518
  704TMC3    C610410   0.931   1.776  12.534 -0.4718 -0.8587  0.1838
  704TMC3     C10411   0.549   1.907  12.511 -0.0749 -0.1900 -0.1397
  704TMC3     O10412   0.463   1.865  12.586  0.1405  0.6101  0.0529
  704TMC3     H10413   0.752   2.050  12.429 -1.1546  0.7226  1.9298
  704TMC3    H110414   0.625   1.725  12.661  0.1675 -1.0070  0.1884
  704TMC3    H210415   1.024   1.725  12.515 -0.0759 -1.0813  2.8328
  704TMC3    C710416   0.842   1.569  12.617  0.2313  0.5791 -0.1718
  704TMC3    C810417   0.960   1.928  12.345 -0.4982  1.3255  0.6981
  704TMC3    O110418   0.924   1.501  12.559 -0.8053  0.4803  1.2100
  704TMC3    O210419   0.884   1.952  12.259  0.1159  0.1638  0.3108
  705MPD2     C10420   0.020   4.565  16.296  0.8015 -0.1558  0.0350
  705MPD2    C110421   0.066   4.695  16.315  0.4059 -0.1163  0.3249
  705MPD2    C210422   4.693   0.067  16.349  0.0320 -0.2387  0.5665
  705MPD2    C310423   4.558   0.030  16.366  0.2874 -0.3847  0.2290
  705MPD2    C410424   4.530   4.625  16.356 -0.0750  0.4115  0.0342
  705MPD2    C510425   4.620   4.538  16.316  0.1490 -0.8240  0.3167
  705MPD2     H10426   4.723   0.171  16.342  0.6150 -0.4032  0.6239
  705MPD2    H110427   4.430   4.584  16.355  0.8707 -1.8154 -1.6320
  705MPD2    H210428   0.086   4.480  16.285 -0.3759 -1.0615  0.0254
  705MPD2    H310429   4.596   4.432  16.318  0.3609 -0.8896 -0.4454
  705MPD2     N10430   4.453   0.130  16.374 -0.3925 -0.1087  0.5270
  705MPD2    H510431   4.489   0.224  16.389 -0.5415  0.5088 -2.8825
  705MPD2    N110432   0.198   0.011  16.285 -0.5692  0.3076 -0.3274
  705MPD2    H710433   0.220   0.105  16.316  0.8481 -1.3908  3.8118
  706TMC3    C110434   0.660   4.682  16.163 -0.6510  0.2529 -0.3838
  706TMC3    C210435   0.655   0.060  16.079  0.0039  0.4876  0.2170
  706TMC3    C310436   0.540   0.142  16.084 -0.8420 -0.0715  0.0309
  706TMC3    C410437   0.548   4.639  16.234  0.0042 -0.1601 -0.6410
  706TMC3    C510438   0.433   4.716  16.225 -0.0580 -0.4491  0.8129
  706TMC3    C610439   0.429   0.109  16.158 -0.6745  0.1160 -0.7341
  706TMC3     C10440   0.762   4.587  16.164  0.0407  0.2878  0.1052
  706TMC3     O10441   0.826   4.562  16.265  0.3048 -0.4399  0.1140
  706TMC3     H10442   0.732   0.080  16.006  1.2738 -0.6318  1.2625
  706TMC3    H110443   0.556   4.553  16.298  2.4198 -0.7115 -1.6847
  706TMC3    H210444   0.336   0.161  16.137 -0.9714 -0.4704 -0.8774
  706TMC3    C710445   0.302   4.651  16.261  0.1045 -0.4366 -0.6605
  706TMC3    C810446   0.517   0.242  15.969  0.0761 -0.1200  0.0714
  706TMC3    O110447   0.301   4.528  16.270 -0.5238  0.2236 -0.0470
  706TMC3    O210448   0.406   0.281  15.952 -0.5073  0.3135 -0.6344
  707TMC3    C110449   2.185   4.083   1.376  0.5718 -0.4483 -0.3143
  707TMC3    C210450   2.172   3.947   1.406 -0.3741  0.2504  0.2662
  707TMC3    C310451   2.044   3.891   1.400  0.1769 -0.2723  0.4296
  707TMC3    C410452   2.080   4.163   1.338  0.1589 -0.0179 -0.9843
  707TMC3    C510453   1.956   4.106   1.327 -0.1012  0.0009 -0.0047
  707TMC3    C610454   1.936   3.973   1.365  0.3238  0.0657 -0.1521
  707TMC3     C10455   2.320   4.138   1.374 -0.1618 -0.0571  0.0118
  707TMC3     O10456   2.405   4.102   1.455 -0.2964  0.4358  0.5569
  707TMC3     H10457   2.264   3.892   1.423 -0.9545 -1.2276 -1.4642
  707TMC3    H110458   2.087   4.270   1.322 -0.2882  0.2059  0.3592
  707TMC3    H210459   1.836   3.936   1.348 -0.7686  1.8169  2.4052
  707TMC3    C710460   1.832   4.188   1.311  0.4870 -0.3879  0.0764
  707TMC3    C810461   2.032   3.754   1.357 -0.3987 -0.1777 -0.1004
  707TMC3    O110462   1.730   4.141   1.360 -0.1071  0.2805  0.0782
  707TMC3    O210463   1.934   3.726   1.288 -0.0599  0.2669  0.1356
  708MPD2     C10464   3.409   2.805  13.933 -0.4685 -0.0611 -0.4354
  708MPD2    C110465   3.316   2.913  13.944  0.1315  0.3543  0.2742
  708MPD2    C210466   3.235   2.916  14.056 -0.1062  0.3758 -0.3781
  708MPD2    C310467   3.243   2.824  14.162 -0.6667 -0.1000  0.4921
  708MPD2    C410468   3.337   2.721  14.152 -0.5279  0.5171 -0.0679
  708MPD2    C510469   3.405   2.706  14.029 -0.5360 -0.0537 -1.0270
  708MPD2     H10470   3.162   2.996  14.056 -0.7889 -0.2490  0.2503
  708MPD2    H110471   3.341   2.633  14.217 -0.6632  0.6051  0.0587
  708MPD2    H210472   3.470   2.794  13.843  0.4151  0.5247  0.0904
  708MPD2    H310473   3.474   2.622  14.027  1.1038  1.2735  0.7293
  708MPD2     N10474   3.159   2.839  14.274 -0.2288 -0.8016  0.2679
  708MPD2    H510475   3.094   2.917  14.266  1.5870  0.5549 -1.2907
  708MPD2    N110476   3.322   3.016  13.845  0.1793  0.4121 -0.2183
  708MPD2    H710477   3.375   3.000  13.760 -0.2026 -0.1886 -0.3463
  709TMC3    C110478   3.281   3.233  13.752  0.4705 -0.2440  0.2577
  709TMC3    C210479   3.260   3.179  13.626  0.3348  0.3865 -0.4335
  709TMC3    C310480   3.158   3.217  13.545  0.0244 -0.4311  0.1665
  709TMC3    C410481   3.186   3.334  13.785 -0.4156 -0.5364 -1.2993
  709TMC3    C510482   3.078   3.368  13.704 -0.0059  0.3772  0.1550
  709TMC3    C610483   3.055   3.305  13.583 -0.6808 -0.8669 -0.0065
  709TMC3     C10484   3.270   3.143  13.860 -0.1134  0.5345 -0.2753
  709TMC3     O10485   3.209   3.191  13.953  0.4582 -0.7118 -0.1316
  709TMC3     H10486   3.325   3.099  13.591 -0.3154 -1.0989  1.7552
  709TMC3    H110487   3.206   3.403  13.866 -0.9342 -0.5161 -1.1878
  709TMC3    H210488   2.964   3.313  13.526 -1.9817 -0.8994  2.0741
  709TMC3    C710489   2.960   3.400  13.778 -0.1497  0.0495  0.1967
  709TMC3    C810490   3.154   3.181  13.408  0.0057 -0.4387  0.5389
  709TMC3    O110491   2.879   3.479  13.725  0.2368  0.3303 -0.1601
  709TMC3    O210492   3.208   3.075  13.382  0.8910 -0.1503  0.2119
  710TMC3    C110493   4.670   4.635   0.325  0.7731  0.2252 -0.0536
  710TMC3    C210494   4.695   4.530   0.242  0.5297  0.0201 -0.5878
  710TMC3    C310495   0.092   4.485   0.237 -0.3525  0.1590 -0.0555
  710TMC3    C410496   0.026   4.680   0.416 -1.3113  0.1058 -0.7147
  710TMC3    C510497   0.158   4.630   0.412  0.0925  0.4518  0.4467
  710TMC3    C610498   0.186   4.523   0.329  0.7739 -0.6053 -0.8261
  710TMC3     C10499   4.553   4.711   0.304 -0.4111  0.5570 -0.4635
  710TMC3     O10500   4.529   0.013   0.187  0.1407  0.0897  0.1575
  710TMC3     H10501   4.616   4.512   0.170 -0.1119  1.3529 -0.2093
  710TMC3    H110502   0.012   0.040   0.478 -2.5156 -1.7824  1.6521
  710TMC3    H210503   0.285   4.480   0.339  0.2866 -1.7842 -1.1682
  710TMC3    C710504   0.248   4.667   0.522 -0.2644 -0.6182 -0.1193
  710TMC3    C810505   0.118   4.379   0.143 -0.0788  0.4675 -0.1805
  710TMC3    O110506   0.200   4.698   0.629 -0.1758  0.0678 -0.3114
  710TMC3    O210507   0.019   4.354   0.076 -0.3980 -0.4390 -0.0281
  711TMC3    C110508   4.352   0.550  14.746 -0.6350 -0.2230  0.2298
  711TMC3    C210509   4.356   0.656  14.828 -0.0022 -1.3758  0.0024
  711TMC3    C310510   4.434   0.643  14.939 -0.0151 -0.3835  0.0466
  711TMC3    C410511   4.422   0.437  14.764  0.1498 -0.5156 -0.0271
  711TMC3    C510512   4.499   0.433  14.876  0.8523 -0.2410  0.1660
  711TMC3    C610513   4.520   0.539  14.958  0.1143 -0.4372  0.3782
  711TMC3     C10514   4.251   0.538  14.637 -0.0674  0.2386  0.1014
  711TMC3     O10515   4.245   0.424  14.594 -0.0855 -0.0629 -0.4076
  711TMC3     H10516   4.277   0.730  14.823  0.7659 -0.5796 -0.3583
  711TMC3    H110517   4.420   0.351  14.698  0.8365  0.1215 -0.8741
  711TMC3    H210518   4.598   0.546  15.033  0.3311 -2.1544  0.3198
  711TMC3    C710519   4.512   0.307  14.955 -0.2114  0.1979 -0.1035
  711TMC3    C810520   4.389   0.722  15.058 -0.0546  0.1352 -0.0175
  711TMC3    O110521   4.570   0.324  15.061 -0.1591 -0.4409 -0.2909
  711TMC3    O210522   4.273   0.760  15.078  0.0524  0.2493 -0.2697
  712MPD2     C10523   0.764   1.965  13.781 -0.0279  0.0876  0.4483
  712MPD2    C110524   0.655   2.045  13.748  0.5010  0.0319  0.1019
  712MPD2    C210525   0.690   2.163  13.694  0.1192 -0.0978  0.5238
  712MPD2    C310526   0.819   2.194  13.655 -0.1485  0.3725 -0.4999
  712MPD2    C410527   0.922   2.117  13.685  0.4882  0.0509  0.0860
  712MPD2    C510528   0.892   2.005  13.753  0.1075 -0.5431  0.8950
  712MPD2     H10529   0.604   2.226  13.673 -0.3402 -1.0099 -0.3174
  712MPD2    H110530   1.022   2.154  13.664  0.2413  0.0636 -1.0253
  712MPD2    H210531   0.753   1.862  13.814 -4.1304  1.5324  3.4318
  712MPD2    H310532   0.966   1.930  13.781 -0.2857 -1.4481 -0.4749
  712MPD2     N10533   0.850   2.320  13.600  0.2173  0.1067  1.0167
  712MPD2    H510534   0.944   2.348  13.576 -0.0516  1.4735  1.5495
  712MPD2    N110535   0.519   2.023  13.772  0.1049 -0.4167  0.3394
  712MPD2    H710536   0.453   2.077  13.718  1.5405  0.4736 -0.4966
  713TMC3    C110537   0.807   2.552  13.543  0.0807  0.1083  0.2911
  713TMC3    C210538   0.877   2.543  13.421 -0.5229 -0.7892 -0.5562
  713TMC3    C310539   0.846   2.629  13.325 -0.2717  0.4456  0.3832
  713TMC3    C410540   0.722   2.665  13.567 -0.7537 -0.2285  0.2983
  713TMC3    C510541   0.691   2.742  13.460 -0.1527 -0.0305 -0.8874
  713TMC3    C610542   0.751   2.722  13.338  0.4849 -0.4007 -0.7354
  713TMC3     C10543   0.763   2.431  13.599 -0.7278 -0.5575 -0.2717
  713TMC3     O10544   0.648   2.442  13.637  0.2305  0.1909 -0.1444
  713TMC3     H10545   0.928   2.451  13.393  1.7267  0.6702 -1.2491
  713TMC3    H110546   0.675   2.679  13.664  1.9483  1.7915  1.3438
  713TMC3    H210547   0.731   2.788  13.254 -0.2141 -0.7734 -0.8728
  713TMC3    C710548   0.557   2.795  13.454 -0.8562  0.3445 -0.3957
  713TMC3    C810549   0.948   2.666  13.234 -0.3210  0.6826 -0.1209
  713TMC3    O110550   0.488   2.782  13.354 -0.2411  0.0864 -0.4147
  713TMC3    O210551   0.928   2.733  13.133  0.6400 -0.3641  0.0514
  714MPD2     C10552   2.972   0.948   1.523 -0.2227  0.1798 -0.3540
  714MPD2    C110553   3.014   0.845   1.435  0.5353 -0.0016 -0.5838
  714MPD2    C210554   2.955   0.831   1.313 -0.5660  0.0537 -0.7172
  714MPD2    C310555   2.845   0.913   1.277 -0.7966 -0.1310  0.6713
  714MPD2    C410556   2.797   1.001   1.372  0.6656 -0.1340  0.1307
  714MPD2    C510557   2.860   1.021   1.493  0.1188  0.1858  0.5348
  714MPD2     H10558   2.986   0.760   1.238  1.7473  1.5400 -1.1392
  714MPD2    H110559   2.709   1.063   1.358  1.8275  1.5445  0.4300
  714MPD2    H210560   3.017   0.976   1.617  0.3636 -1.1258 -0.2471
  714MPD2    H310561   2.819   1.103   1.550  0.8918 -0.0587  1.4561
  714MPD2     N10562   2.791   0.890   1.150 -0.1591  0.9099 -0.0138
  714MPD2    H510563   2.837   0.828   1.084  2.3497  3.5654 -0.7527
  714MPD2    N110564   3.123   0.766   1.479 -0.1301 -0.3928 -0.3090
  714MPD2    H710565   3.168   0.801   1.563 -1.0814 -0.4589  0.2180
  715TMC3    C110566   3.302   0.604   1.449 -0.5161 -0.3077 -0.7035
  715TMC3    C210567   3.349   0.488   1.392 -0.1994 -0.4418 -0.4439
  715TMC3    C310568   3.478   0.447   1.416 -0.6031  0.1130 -0.0829
  715TMC3    C410569   3.384   0.691   1.518  0.1576  0.7294  0.2622
  715TMC3    C510570   3.510   0.646   1.539  0.2473  0.4392 -0.2553
  715TMC3    C610571   3.567   0.530   1.485 -0.1759 -0.2434 -0.3412
  715TMC3     C10572   3.161   0.637   1.421  0.5579 -0.1459 -0.0732
  715TMC3     O10573   3.097   0.567   1.346 -0.0988 -0.1495 -0.1629
  715TMC3     H10574   3.285   0.431   1.325  0.7459 -2.2979  0.2195
  715TMC3    H110575   3.358   0.793   1.544  1.9555  0.5993  2.5977
  715TMC3    H210576   3.665   0.494   1.517  0.7424  1.7800 -0.8959
  715TMC3    C710577   3.604   0.723   1.613  0.9167 -0.7888  0.1336
  715TMC3    C810578   3.532   0.345   1.321 -0.6760 -0.0163  0.1016
  715TMC3    O110579   3.724   0.699   1.602  0.5721 -0.0403  0.0656
  715TMC3    O210580   3.451   0.279   1.255  0.1104 -0.3854 -0.7238
  716MPD2     C10581   2.558   3.218  10.083 -0.1028  0.0971 -0.0806
  716MPD2    C110582   2.551   3.247   9.948 -0.0708  0.1777  0.1101
  716MPD2    C210583   2.591   3.151   9.852 -1.2319  0.1083 -0.4497
  716MPD2    C310584   2.659   3.042   9.888  0.2058 -0.0556  0.1208
  716MPD2    C410585   2.685   3.014  10.022 -0.2512 -0.3502 -0.2840
  716MPD2    C510586   2.630   3.100  10.115  0.6798 -0.0028  0.2548
  716MPD2     H10587   2.605   3.176   9.748 -0.3356  0.2838 -0.2874
  716MPD2    H110588   2.738   2.926  10.055  0.4786  0.9307  1.9616
  716MPD2    H210589   2.526   3.285  10.163 -1.5449  1.4045 -1.7465
  716MPD2    H310590   2.640   3.066  10.217  2.1131 -0.8058 -0.1497
  716MPD2     N10591   2.712   2.958   9.788  0.0523  0.2868 -0.5730
  716MPD2    H510592   2.678   2.977   9.695  0.5408 -0.3010 -0.8679
  716MPD2    N110593   2.502   3.371   9.909 -0.1855  0.3703  0.0352
  716MPD2    H710594   2.458   3.427   9.982  1.2311  2.1012 -0.4350
  717TMC3    C110595   2.795   2.782   9.683  0.3049  0.6114 -0.1257
  717TMC3    C210596   2.685   2.762   9.601  0.2120  0.0068 -0.5593
  717TMC3    C310597   2.712   2.683   9.485 -0.2376  0.3668 -0.2300
  717TMC3    C410598   2.923   2.746   9.650  0.9751 -0.4739 -0.3287
  717TMC3    C510599   2.945   2.684   9.531  0.1744 -0.7375  0.3000
  717TMC3    C610600   2.844   2.656   9.447 -0.4005 -0.4659 -0.3355
  717TMC3     C10601   2.774   2.838   9.813  0.4648  0.1311 -1.1508
  717TMC3     O10602   2.841   2.799   9.907  0.1796  0.0096 -0.2684
  717TMC3     H10603   2.580   2.782   9.622  0.7758  3.8715 -1.4705
  717TMC3    H110604   3.007   2.758   9.719 -0.4379 -0.9161  1.4827
  717TMC3    H210605   2.870   2.608   9.353 -0.6939  2.1757 -1.7639
  717TMC3    C710606   3.061   2.595   9.525 -0.1700 -0.9300 -0.2759
  717TMC3    C810607   2.603   2.680   9.389  0.1064  0.2353 -0.2112
  717TMC3    O110608   3.162   2.630   9.587 -0.1271 -0.3829  0.0005
  717TMC3    O210609   2.510   2.757   9.409 -0.2300  0.6693 -0.0521
  718MPD2     C10610   2.002   2.357  13.157  0.5013  0.6385  0.0853
  718MPD2    C110611   1.941   2.317  13.038  0.2859 -1.0362  1.0799
  718MPD2    C210612   1.840   2.223  13.048  0.1062  0.4290 -0.1275
  718MPD2    C310613   1.781   2.192  13.171  0.1453 -0.3782  0.8148
  718MPD2    C410614   1.833   2.243  13.287  0.3153 -0.0958  0.0169
  718MPD2    C510615   1.948   2.322  13.280 -0.3224  0.5901  0.4070
  718MPD2     H10616   1.793   2.184  12.958  0.5232 -0.8713  0.2248
  718MPD2    H110617   1.785   2.223  13.382 -1.4694 -0.0555 -0.8639
  718MPD2    H210618   2.083   2.429  13.156  2.1263 -1.2091 -0.0452
  718MPD2    H310619   1.990   2.364  13.370  1.2458 -0.1002 -0.0073
  718MPD2     N10620   1.680   2.095  13.169 -0.0848  0.3982 -0.5762
  718MPD2    H510621   1.659   2.053  13.079 -1.6418 -1.5028  0.6818
  718MPD2    N110622   1.997   2.361  12.917 -0.2111 -0.2007  0.7077
  718MPD2    H710623   2.080   2.420  12.922  0.0326 -0.7797  3.8678
  719TMC3    C110624   2.022   2.372  12.682  0.1390 -0.6550  0.2560
  719TMC3    C210625   1.953   2.335  12.570 -0.7536 -0.0130 -0.3442
  719TMC3    C310626   2.012   2.260  12.473 -0.5085  0.9913  0.5137
  719TMC3    C410627   2.150   2.327  12.699  0.5037 -0.1489 -0.2353
  719TMC3    C510628   2.211   2.251  12.603  0.3788 -0.2177 -0.3900
  719TMC3    C610629   2.139   2.215  12.489  0.4298  0.3903  0.0712
  719TMC3     C10630   1.938   2.344  12.796 -0.0385 -0.1620 -0.5766
  719TMC3     O10631   1.830   2.298  12.766  0.1226  0.9514 -0.5411
  719TMC3     H10632   1.853   2.375  12.553 -0.1597  1.1564 -1.0602
  719TMC3    H110633   2.211   2.354  12.785 -0.3298 -0.7433  0.5313
  719TMC3    H210634   2.177   2.133  12.428 -0.3381 -0.2239  0.4123
  719TMC3    C710635   2.355   2.219  12.625 -0.4823 -0.1774  0.8698
  719TMC3    C810636   1.932   2.157  12.413 -0.9121  0.5839  0.2323
  719TMC3    O110637   2.430   2.295  12.683 -0.0623  0.1979 -0.2921
  719TMC3    O210638   1.977   2.084  12.317 -0.0662  0.1476  0.0593
  720MPD2     C10639   0.761   3.781  14.165  0.6626 -0.5686 -0.0829
  720MPD2    C110640   0.834   3.805  14.047  0.0597 -0.0905  0.3652
  720MPD2    C210641   0.964   3.767  14.052  0.2845  0.1625  0.0954
  720MPD2    C310642   1.022   3.730  14.171 -0.1891  0.0429 -0.5046
  720MPD2    C410643   0.944   3.706  14.283  0.1347 -0.1575 -0.7905
  720MPD2    C510644   0.809   3.729  14.279  0.6908  0.8399 -0.3174
  720MPD2     H10645   1.039   3.787  13.977 -0.9450  0.7584 -0.9673
  720MPD2    H110646   0.985   3.661  14.373  0.9243 -2.0060 -2.0677
  720MPD2    H210647   0.657   3.811  14.171  1.0641  0.7690  0.1863
  720MPD2    H310648   0.744   3.701  14.361 -0.8808 -2.1638 -2.5430
  720MPD2     N10649   1.163   3.729  14.175 -0.5965 -0.0676  0.0489
  720MPD2    H510650   1.208   3.725  14.085 -1.0569  2.4370 -0.2817
  720MPD2    N110651   0.780   3.864  13.925  1.1782  0.6973 -0.2783
  720MPD2    H710652   0.697   3.919  13.943  0.7828  0.1558 -0.4321
  721TMC3    C110653   1.385   3.744  14.274  0.3723 -0.6418  0.5533
  721TMC3    C210654   1.465   3.743  14.390  0.0498 -0.3453 -0.1791
  721TMC3    C310655   1.601   3.758  14.376 -0.6480 -0.5314  1.0188
  721TMC3    C410656   1.449   3.741  14.150  0.1717 -0.5183 -0.5549
  721TMC3    C510657   1.590   3.763  14.144  0.2092  0.0979  0.5669
  721TMC3    C610658   1.661   3.787  14.256 -0.4323  0.1591 -0.1974
  721TMC3     C10659   1.240   3.719  14.291 -0.5138 -0.7056 -0.8321
  721TMC3     O10660   1.200   3.716  14.406  0.1268 -0.4212 -0.1527
  721TMC3     H10661   1.418   3.718  14.484 -0.7390 -0.4211 -0.5916
  721TMC3    H110662   1.394   3.715  14.060  0.6550  1.6583 -1.4924
  721TMC3    H210663   1.768   3.802  14.245 -0.4781  0.0018 -0.8408
  721TMC3    C710664   1.669   3.786  14.022  0.0543 -0.5466 -0.4875
  721TMC3    C810665   1.698   3.720  14.479 -0.5133 -0.6524  1.0230
  721TMC3    O110666   1.754   3.875  14.028 -0.8330  0.4322  0.4810
  721TMC3    O210667   1.810   3.690  14.439 -0.0028 -0.1200 -0.1545
  722MPD2     C10668   4.349   2.670  13.087  0.3245  0.2265 -0.3398
  722MPD2    C110669   4.277   2.785  13.082 -0.4237 -0.0969  0.6055
  722MPD2    C210670   4.191   2.801  12.969  0.0305  0.6831 -0.4087
  722MPD2    C310671   4.194   2.718  12.860  0.5040  0.1419 -0.2468
  722MPD2    C410672   4.291   2.615  12.854  0.3405 -0.0597  0.1384
  722MPD2    C510673   4.358   2.594  12.969  0.3471 -0.8800 -0.0484
  722MPD2     H10674   4.111   2.874  12.972 -0.8967 -0.3421 -0.2943
  722MPD2    H110675   4.311   2.551  12.770 -2.7193 -0.3777 -0.3453
  722MPD2    H210676   4.419   2.651  13.167  0.3729 -1.1380 -0.7015
  722MPD2    H310677   4.426   2.509  12.966  2.8173  1.1117 -0.1983
  722MPD2     N10678   4.090   2.737  12.762  0.0458 -0.2440 -0.4426
  722MPD2    H510679   4.005   2.785  12.792 -0.0272 -0.6795  0.0441
  722MPD2    N110680   4.289   2.889  13.181 -0.4642 -0.2327  0.5254
  722MPD2    H710681   4.237   2.974  13.162  1.3129  0.6856 -0.2265
  723TMC3    C110682   3.939   2.649  12.592 -0.0832  0.8713 -0.0823
  723TMC3    C210683   3.893   2.529  12.551  0.7352  0.2220 -0.4820
  723TMC3    C310684   3.784   2.515  12.475 -0.2419  0.7952  0.2866
  723TMC3    C410685   3.880   2.767  12.567  0.4933 -0.2640 -1.0262
  723TMC3    C510686   3.767   2.753  12.495 -0.0629 -1.0420 -1.6024
  723TMC3    C610687   3.723   2.635  12.439 -0.3157 -0.1578  0.7318
  723TMC3     C10688   4.071   2.648  12.658 -0.0638  0.3774 -0.1267
  723TMC3     O10689   4.143   2.556  12.618  0.4353 -0.0726  0.3521
  723TMC3     H10690   3.947   2.439  12.578  1.5884  0.2996 -1.9854
  723TMC3    H110691   3.923   2.860  12.603  3.0334 -1.7046 -0.3425
  723TMC3    H210692   3.631   2.625  12.382 -0.5384  1.3814  0.8394
  723TMC3    C710693   3.692   2.868  12.461  0.3043 -0.2029  0.7771
  723TMC3    C810694   3.698   2.398  12.484  0.0855  0.1101 -0.5802
  723TMC3    O110695   3.632   2.868  12.355 -0.1750  0.1493 -0.0398
  723TMC3    O210696   3.582   2.427  12.469 -0.2291  0.3235  0.3520
  724TMC3    C110697   4.602   0.254   9.724  0.6603  0.3069 -0.3537
  724TMC3    C210698   4.555   0.379   9.732 -0.3516 -0.3912 -0.1009
  724TMC3    C310699   4.639   0.474   9.786  0.4986  0.4071 -0.3356
  724TMC3    C410700   0.009   0.233   9.730 -0.1419 -0.0869  0.1445
  724TMC3    C510701   0.095   0.333   9.772 -0.7369 -0.1231  0.2797
  724TMC3    C610702   0.046   0.453   9.816  0.4633 -0.3455  0.2596
  724TMC3     C10703   4.528   0.163   9.638 -0.3653 -0.8069  0.3731
  724TMC3     O10704   4.599   0.070   9.610 -0.3840 -0.5848  0.2157
  724TMC3     H10705   4.448   0.398   9.733 -0.4696 -1.0933  0.2116
  724TMC3    H110706   0.042   0.131   9.711 -0.8763  0.2329 -2.8472
  724TMC3    H210707   0.106   0.533   9.856  1.2051 -0.7646 -0.0172
  724TMC3    C710708   0.237   0.307   9.763 -0.0405  0.2027  0.3879
  724TMC3    C810709   4.577   0.604   9.793 -0.1192 -0.3614 -0.2749
  724TMC3    O110710   0.305   0.369   9.845  0.3670  0.4990 -0.1745
  724TMC3    O210711   4.477   0.621   9.722 -0.1864  0.0830 -0.0320
  725TMC3    C110712   1.069   4.453  12.683 -0.3678 -0.7392  0.9721
  725TMC3    C210713   0.969   4.487  12.597 -0.3188 -0.3283 -0.1651
  725TMC3    C310714   0.918   4.384  12.517 -0.3327 -0.3881 -0.5572
  725TMC3    C410715   1.136   4.329  12.678 -1.0307  0.0701 -0.0720
  725TMC3    C510716   1.077   4.231  12.606  0.2107  0.2862  0.1644
  725TMC3    C610717   0.968   4.254  12.527  0.7816  0.0191  0.1149
  725TMC3     C10718   1.122   4.559  12.755 -0.7700 -0.5685 -0.3392
  725TMC3     O10719   1.083   4.674  12.728 -0.0702  0.1562  0.9825
  725TMC3     H10720   0.932   4.589  12.591 -0.6515 -0.6115 -3.1911
  725TMC3    H110721   1.224   4.313  12.738 -0.1351 -0.8269 -1.6207
  725TMC3    H210722   0.920   4.172  12.475 -0.5314  1.0406 -0.2801
  725TMC3    C710723   1.131   4.098  12.592  0.3553  0.2810 -0.3514
  725TMC3    C810724   0.846   4.419  12.398  0.0236 -0.1062 -0.0450
  725TMC3    O110725   1.071   4.017  12.521 -0.0056 -0.0112 -0.1452
  725TMC3    O210726   0.776   4.335  12.342  0.0411 -0.0618  0.4654
  726MPD2     C10727   4.137   1.087  10.404 -0.3990  0.5495 -0.1559
  726MPD2    C110728   4.035   1.143  10.324 -0.0876 -0.0742  0.6159
  726MPD2    C210729   3.917   1.069  10.307  0.3580 -0.5154 -0.6242
  726MPD2    C310730   3.898   0.952  10.376 -0.2318  0.4612 -0.2324
  726MPD2    C410731   4.003   0.903  10.449  0.6544 -0.3543 -0.5908
  726MPD2    C510732   4.119   0.968  10.463  0.1657 -0.0853  0.3946
  726MPD2     H10733   3.850   1.113  10.235 -0.0029  0.9015  0.5695
  726MPD2    H110734   3.998   0.812  10.509 -1.0862  0.9909  1.3136
  726MPD2    H210735   4.235   1.134  10.409  0.3024 -1.0116  0.7614
  726MPD2    H310736   4.204   0.923  10.514  1.3873  0.0385 -1.5234
  726MPD2     N10737   3.770   0.891  10.385 -0.5814  0.0537 -0.1557
  726MPD2    H510738   3.774   0.808  10.443 -1.5472 -0.1351 -0.3722
  726MPD2    N110739   4.050   1.266  10.261  0.3660 -0.4522 -0.5559
  726MPD2    H710740   3.989   1.289  10.184  0.1876 -2.7108 -1.0729
  727TMC3    C110741   4.145   1.487  10.226 -0.8735  0.2670 -0.5685
  727TMC3    C210742   4.207   1.596  10.281  0.4648  0.5866  0.0067
  727TMC3    C310743   4.200   1.721  10.220 -0.8351 -0.3486  0.0222
  727TMC3    C410744   4.069   1.498  10.108  0.0197 -0.7847 -0.2449
  727TMC3    C510745   4.055   1.620  10.049  0.0038  0.1611  0.2133
  727TMC3    C610746   4.121   1.734  10.104 -0.1170 -0.7272 -0.5058
  727TMC3     C10747   4.141   1.364  10.304  0.4819  0.1513  0.4492
  727TMC3     O10748   4.202   1.366  10.406 -0.4049  0.2575  0.3678
  727TMC3     H10749   4.263   1.586  10.373  0.5705 -4.4015 -0.6186
  727TMC3    H110750   4.054   1.404  10.056 -2.2988  0.7475 -2.3846
  727TMC3    H210751   4.101   1.831  10.060 -1.9144 -1.0325 -0.3366
  727TMC3    C710752   3.982   1.636   9.928  0.0865 -0.3905 -0.4441
  727TMC3    C810753   4.284   1.823  10.273  0.5878  0.0865  1.1480
  727TMC3    O110754   4.021   1.730   9.858  0.4984 -0.2650  0.3017
  727TMC3    O210755   4.368   1.774  10.351 -0.1052 -0.5067  0.2073
  728TMC3    C110756   3.609   4.371  15.106 -0.2233  0.0059  0.8343
  728TMC3    C210757   3.711   4.457  15.108  0.1727  0.1220  0.0087
  728TMC3    C310758   3.734   4.531  14.995 -0.6242  0.4146  0.1513
  728TMC3    C410759   3.529   4.353  15.001 -0.2066 -1.1560  0.4355
  728TMC3    C510760   3.555   4.423  14.882 -0.0381  0.2911 -0.1015
  728TMC3    C610761   3.655   4.517  14.884  0.5354 -0.0216  0.2411
  728TMC3     C10762   3.586   4.301  15.237 -1.0900  0.3362  0.1818
  728TMC3     O10763   3.685   4.299  15.312 -0.3507  0.1301 -0.2173
  728TMC3     H10764   3.765   4.471  15.201  0.8457  0.8158 -0.4925
  728TMC3    H110765   3.445   4.285  14.998 -0.0681 -1.2548 -1.2588
  728TMC3    H210766   3.678   4.574  14.794 -0.7070 -0.9575 -0.6673
  728TMC3    C710767   3.470   4.408  14.775 -0.4977  0.2596 -0.3804
  728TMC3    C810768   3.799   4.660  15.001  0.1224 -0.4732  0.0282
  728TMC3    O110769   3.369   4.336  14.784 -0.1592  0.2704 -0.5125
  728TMC3    O210770   3.773   0.014  14.913  0.2373  0.1670 -0.2755
  729MPD2     C10771   0.460   0.596  16.252  0.9280 -0.4142  0.6604
  729MPD2    C110772   0.592   0.554  16.258  1.2458 -0.7717  0.5477
  729MPD2    C210773   0.654   0.536  16.379  0.6769  0.3800  0.0400
  729MPD2    C310774   0.578   0.548  16.494 -0.2496 -0.7338 -0.3234
  729MPD2    C410775   0.440   0.583  16.487 -0.2167 -0.5621  0.2208
  729MPD2    C510776   0.389   0.608  16.368  0.0830 -0.2612  0.0820
  729MPD2     H10777   0.761   0.519  16.373  0.5795 -0.5851  0.9649
  729MPD2    H110778   0.380   0.606  16.574 -1.3790 -0.2070 -0.6719
  729MPD2    H210779   0.402   0.618  16.162  2.8343  0.2717 -0.4039
  729MPD2    H310780   0.284   0.634  16.357 -0.1524 -0.4087  1.9498
  729MPD2     N10781   0.650   0.545  16.610 -0.1899 -0.0596 -0.6651
  729MPD2    H510782   0.610   0.579  16.697 -0.4509  0.9889 -1.1908
  729MPD2    N110783   0.660   0.547  16.137 -0.5183  0.2724 -0.2057
  729MPD2    H710784   0.620   0.596  16.058  3.8525 -0.1243 -2.6765
  730TMC3    C110785   0.836   0.543  16.742  0.0249  0.1532 -0.4405
  730TMC3    C210786   0.959   0.584  16.690 -0.1534 -0.0101  0.0491
  730TMC3    C310787   0.993   0.709  16.726 -0.0131 -0.1002  0.5544
  730TMC3    C410788   0.755   0.617  16.824 -0.1253 -0.8778  0.5814
  730TMC3    C510789   0.795   0.745  16.855 -0.3221 -0.6628 -0.1584
  730TMC3    C610790   0.919   0.790  16.807  0.4588  0.0345 -0.5153
  730TMC3     C10791   0.765   0.470  16.634  0.0952 -0.2288 -1.1290
  730TMC3     O10792   0.826   0.400  16.557  0.9174 -0.3450 -0.0470
  730TMC3     H10793   1.017   0.512  16.633  0.8193 -1.2861  2.6486
  730TMC3    H110794   0.663   0.571  16.858  0.1937 -2.1675 -0.3011
  730TMC3    H210795   0.957   0.892  16.817  3.8662 -1.7299  4.5172
  730TMC3    C710796   0.681   0.836  16.847 -0.3607  0.8616  0.1849
  730TMC3    C810797   1.091   0.767  16.643 -1.0535 -0.3961 -0.4118
  730TMC3    O110798   0.574   0.792  16.810  0.3921  0.3111  0.0283
  730TMC3    O210799   1.107   0.722  16.532  0.1437 -0.2710 -0.6585
  731MPD2     C10800   0.475   2.902  11.830 -0.4602  0.3020 -0.2202
  731MPD2    C110801   0.593   2.971  11.830  0.2252 -0.7469 -0.0217
  731MPD2    C210802   0.639   3.016  11.950  0.4129  0.4047  0.1220
  731MPD2    C310803   0.578   2.974  12.065  0.0453 -0.2861 -0.8490
  731MPD2    C410804   0.467   2.890  12.062 -0.5418  0.2230 -0.1864
  731MPD2    C510805   0.414   2.860  11.942 -0.2623 -0.3056  0.3474
  731MPD2     H10806   0.731   3.073  11.947 -0.1856  1.3781  0.4398
  731MPD2    H110807   0.412   2.854  12.148  0.4901  1.0731  0.8414
  731MPD2    H210808   0.417   2.870  11.744 -2.7111  0.7594  1.1142
  731MPD2    H310809   0.315   2.817  11.935 -0.0845 -0.0764 -3.3578
  731MPD2     N10810   0.628   3.030  12.184  0.0831 -0.1561  0.7959
  731MPD2    H510811   0.700   3.100  12.169 -0.2543  0.0916  0.3484
  731MPD2    N110812   0.659   3.017  11.717  0.2277 -0.2776 -0.4070
  731MPD2    H710813   0.750   3.057  11.737 -0.2155  0.6440 -0.2529
  732TMC3    C110814   0.715   3.072  11.507 -0.3733 -0.1423  0.4622
  732TMC3    C210815   0.661   3.136  11.399  0.7500  0.4073 -0.4582
  732TMC3    C310816   0.731   3.234  11.335  0.5396  0.7734 -0.2602
  732TMC3    C410817   0.846   3.084  11.541 -0.1770  0.1025 -0.5324
  732TMC3    C510818   0.916   3.174  11.458  0.0165 -0.1980  0.5539
  732TMC3    C610819   0.863   3.255  11.359  0.4020  0.0503 -0.5974
  732TMC3     C10820   0.613   3.011  11.584  0.6869  0.6586  0.0838
  732TMC3     O10821   0.523   2.948  11.536 -0.6028 -0.2862 -0.2508
  732TMC3     H10822   0.553   3.124  11.391  0.8134  0.7605 -1.8038
  732TMC3    H110823   0.896   3.025  11.617 -0.5208 -3.3159 -2.9601
  732TMC3    H210824   0.921   3.336  11.315  0.4071  0.8932  0.9528
  732TMC3    C710825   1.056   3.211  11.485 -0.2603 -0.1971  0.0644
  732TMC3    C810826   0.658   3.360  11.292 -0.1522 -0.2064  1.1436
  732TMC3    O110827   1.129   3.249  11.394 -1.0305 -0.2101  0.2291
  732TMC3    O210828   0.701   3.422  11.192  0.3355  0.0048 -0.9088
  733TMC3    C110829   1.328   1.965  13.101 -0.8661 -0.0279  0.2617
  733TMC3    C210830   1.389   1.982  13.221 -0.5787 -0.2015  0.4628
  733TMC3    C310831   1.523   1.949  13.230  0.0685 -0.3112  0.6644
  733TMC3    C410832   1.381   1.904  12.990 -0.3303  0.2899  0.2137
  733TMC3    C510833   1.514   1.862  13.005 -0.1639 -0.3038  0.0863
  733TMC3    C610834   1.580   1.891  13.120 -0.6567 -0.3832  0.3445
  733TMC3     C10835   1.192   1.966  13.095 -0.5584 -0.0458 -0.2076
  733TMC3     O10836   1.135   2.008  12.995  0.0550  0.3682 -0.2225
  733TMC3     H10837   1.347   2.045  13.298  1.3294 -0.7403  1.9467
  733TMC3    H110838   1.334   1.915  12.894  1.8493 -1.2804 -1.0307
  733TMC3    H210839   1.685   1.865  13.128 -1.1924 -3.0528 -1.3263
  733TMC3    C710840   1.594   1.894  12.892 -0.3084 -0.3328  0.0959
  733TMC3    C810841   1.606   2.050  13.275  0.3407  0.0028  0.8020
  733TMC3    O110842   1.705   1.946  12.912 -0.0864 -0.8021 -0.0753
  733TMC3    O210843   1.580   2.109  13.381 -0.4438  0.4833  0.2908
  734MPD2     C10844   3.789   4.315  12.765 -0.0458  0.8209  0.7063
  734MPD2    C110845   3.872   4.260  12.670 -0.2321  0.2787 -0.0528
  734MPD2    C210846   3.924   4.339  12.567 -0.1797 -0.7900 -0.3839
  734MPD2    C310847   3.889   4.472  12.563  0.0625  0.5034  0.1993
  734MPD2    C410848   3.799   4.518  12.647 -0.2825  0.0697  0.2667
  734MPD2    C510849   3.745   4.445  12.748  0.1173  0.4513  0.8278
  734MPD2     H10850   3.996   4.308  12.493  1.0665  0.1861  0.4031
  734MPD2    H110851   3.750   4.613  12.631  0.5913  0.6351  0.9767
  734MPD2    H210852   3.742   4.251  12.839 -1.3258  1.5524  0.5313
  734MPD2    H310853   3.659   4.488  12.797 -0.1344 -0.3093  1.0429
  734MPD2     N10854   3.917   4.543  12.448  0.2607  0.0399  0.0415
  734MPD2    H510855   3.965   4.493  12.373 -0.4242  0.3470 -0.5921
  734MPD2    N110856   3.899   4.126  12.682  0.0318 -0.0190  0.8571
  734MPD2    H710857   3.864   4.080  12.766 -0.9640 -0.7280  0.0515
  735TMC3    C110858   3.998   3.918  12.635  0.0532  0.3915  0.2022
  735TMC3    C210859   3.874   3.868  12.612  0.4458  0.1426  0.3416
  735TMC3    C310860   3.850   3.775  12.519  0.4570  0.0418  0.3435
  735TMC3    C410861   4.100   3.856  12.569 -0.4410 -0.0244  0.0808
  735TMC3    C510862   4.072   3.755  12.473  1.0265  0.3121 -0.6064
  735TMC3    C610863   3.946   3.705  12.452 -0.4101 -0.8361  0.1765
  735TMC3     C10864   3.994   4.059  12.609 -0.3710 -0.2543 -0.4648
  735TMC3     O10865   4.051   4.096  12.506 -0.4841 -0.6574 -0.0031
  735TMC3     H10866   3.790   3.918  12.659 -0.9727 -1.8811 -0.0692
  735TMC3    H110867   4.201   3.887  12.591 -1.0217  1.9023  0.0508
  735TMC3    H210868   3.925   3.653  12.359  1.8906 -1.6317  0.1185
  735TMC3    C710869   4.144   3.762  12.351  0.2562  0.0563 -0.5385
  735TMC3    C810870   3.750   3.820  12.431  0.5813 -0.5211  0.1335
  735TMC3    O110871   4.153   3.665  12.277  0.7429  0.3394  0.7101
  735TMC3    O210872   3.646   3.757  12.409 -0.3756  0.0806  0.1974
  736MPD2     C10873   4.190   4.092  12.196  0.6218 -0.0334 -0.1029
  736MPD2    C110874   4.193   3.952  12.195 -0.0723  0.2876 -0.2121
  736MPD2    C210875   4.214   3.883  12.084  0.4339 -0.4459  0.0512
  736MPD2    C310876   4.248   3.947  11.965 -1.0786 -0.5820 -0.0882
  736MPD2    C410877   4.240   4.082  11.963 -0.7643 -1.0893 -0.2302
  736MPD2    C510878   4.210   4.152  12.080  0.1953 -0.4484 -1.3868
  736MPD2     H10879   4.195   3.777  12.089  1.8136 -0.8018 -2.3063
  736MPD2    H110880   4.261   4.135  11.871  1.3291  1.8380  1.9388
  736MPD2    H210881   4.168   4.151  12.285  1.1328 -0.8897  0.5874
  736MPD2    H310882   4.211   4.258  12.059 -0.3004  0.0311  1.0601
  736MPD2     N10883   4.281   3.882  11.843 -0.1982  0.2125 -0.0672
  736MPD2    H510884   4.309   3.943  11.766 -1.5378  1.7955  0.6879
  736MPD2    N110885   4.157   3.889  12.320  0.4028  0.7281 -0.5355
  736MPD2    H710886   4.127   3.954  12.393 -0.1042  0.6877 -0.7104
  737TMC3    C110887   4.352   3.714  11.688 -0.0140  0.0993  0.7406
  737TMC3    C210888   4.290   3.778  11.583 -0.6052 -0.0655  0.0431
  737TMC3    C310889   4.305   3.730  11.456  0.3723 -0.0623 -0.2181
  737TMC3    C410890   4.412   3.592  11.668 -0.0072 -0.7733 -0.3038
  737TMC3    C510891   4.427   3.551  11.538 -0.2631  0.2039  0.0737
  737TMC3    C610892   4.379   3.622  11.427 -0.2425  0.6507 -0.1924
  737TMC3     C10893   4.299   3.746  11.821 -0.0304  0.4644  0.2466
  737TMC3     O10894   4.308   3.656  11.906  0.2042  0.1490 -0.1978
  737TMC3     H10895   4.245   3.874  11.607 -0.0427  0.9748 -3.0846
  737TMC3    H110896   4.451   3.533  11.751  0.7880  0.5097  0.2246
  737TMC3    H210897   4.392   3.578  11.329 -0.0199 -3.7426  1.7964
  737TMC3    C710898   4.523   3.438  11.514  0.0083  0.1472  0.4784
  737TMC3    C810899   4.281   3.837  11.356 -0.2289 -0.4503  0.1277
  737TMC3    O110900   4.547   3.356  11.603 -0.3840 -0.6340 -0.2724
  737TMC3    O210901   4.239   3.949  11.385  0.2682 -0.0300 -0.2768
  738MPD2     C10902   4.490   2.817  14.816 -0.0215  0.5189 -0.2428
  738MPD2    C110903   4.577   2.715  14.839 -0.1740 -0.1400 -0.1411
  738MPD2    C210904   4.714   2.740  14.839 -0.0807  0.0079 -0.6034
  738MPD2    C310905   0.029   2.872  14.827  0.0178  0.2303 -0.4576
  738MPD2    C410906   4.664   2.968  14.809  0.1986  0.2787  0.0386
  738MPD2    C510907   4.530   2.944  14.801  0.6757  0.0071  0.5931
  738MPD2     H10908   0.058   2.659  14.851 -2.0463 -1.3672  1.7562
  738MPD2    H110909   4.696   3.071  14.795  0.7460 -0.0084 -0.8064
  738MPD2    H210910   4.385   2.793  14.806  0.3731 -1.7777  1.0252
  738MPD2    H310911   4.459   3.024  14.789  0.2392 -0.1842  1.8748
  738MPD2     N10912   0.159   2.925  14.819 -0.2917  0.2208  0.2948
  738MPD2    H510913   0.166   3.025  14.799  0.4017  0.2110  0.4976
  738MPD2    N110914   4.541   2.580  14.858  0.0516  0.1455 -0.0661
  738MPD2    H710915   4.609   2.505  14.853 -0.5985 -0.6142  2.3603
  739TMC3    C110916   0.402   2.940  14.824 -0.0729 -0.3271  0.1676
  739TMC3    C210917   0.399   3.039  14.738 -0.0621  0.0871 -0.0307
  739TMC3    C310918   0.524   3.085  14.686 -0.0150  0.1727  0.2260
  739TMC3    C410919   0.517   2.879  14.872  0.2527  0.3093  0.6353
  739TMC3    C510920   0.631   2.935  14.834  0.4244 -0.1540  0.0080
  739TMC3    C610921   0.645   3.033  14.734 -0.1107 -0.3670 -0.0270
  739TMC3     C10922   0.278   2.862  14.845  0.5295 -0.7570  0.5446
  739TMC3     O10923   0.291   2.745  14.862  0.0993 -0.0604  0.4629
  739TMC3     H10924   0.305   3.085  14.711 -1.6111 -2.1104  1.7044
  739TMC3    H110925   0.518   2.801  14.947 -4.3946  0.3877  0.7603
  739TMC3    H210926   0.743   3.072  14.710 -0.7538  0.3972 -1.4061
  739TMC3    C710927   0.742   2.851  14.859 -0.3325  0.2822 -0.0077
  739TMC3    C810928   0.510   3.169  14.564 -0.5426 -0.4813 -0.1108
  739TMC3    O110929   0.710   2.735  14.876  0.3328 -0.2564  0.2383
  739TMC3    O210930   0.395   3.209  14.541  0.3466 -0.6939 -0.0989
  740TMC3    C110931   0.793   4.371  14.573  0.0736  0.0595 -0.6536
  740TMC3    C210932   0.852   4.371  14.696 -0.2569  0.0364  0.7675
  740TMC3    C310933   0.982   4.328  14.695  0.2579  0.3044  0.6945
  740TMC3    C410934   0.858   4.332  14.457 -0.0993 -0.2747 -0.0012
  740TMC3    C510935   0.989   4.289  14.473 -0.2206 -0.0367  1.1733
  740TMC3    C610936   1.054   4.283  14.592  0.1696  0.0139 -0.4006
  740TMC3     C10937   0.650   4.395  14.576 -0.0343  0.0101 -0.4535
  740TMC3     O10938   0.585   4.415  14.476 -0.2192  0.0227  0.1297
  740TMC3     H10939   0.821   4.429  14.782 -1.4674 -0.3990  0.6316
  740TMC3    H110940   0.812   4.348  14.360  0.1073  1.2631  0.1624
  740TMC3    H210941   1.159   4.257  14.604  1.2517  3.3969 -2.4374
  740TMC3    C710942   1.064   4.224  14.372  0.5710  0.3228  0.1876
  740TMC3    C810943   1.063   4.384  14.803  0.1680 -0.4200 -0.1516
  740TMC3    O110944   1.161   4.155  14.413  0.1033  0.3838 -0.5631
  740TMC3    O210945   1.076   4.509  14.807  0.3713  0.1604  0.1286
  741TMC3    C110946   0.381   3.720  14.387 -0.4291  0.1182  0.2687
  741TMC3    C210947   0.267   3.643  14.360  0.0308  0.0655  0.1649
  741TMC3    C310948   0.249   3.527  14.436 -0.1613 -0.2357  0.5179
  741TMC3    C410949   0.466   3.687  14.486 -0.1544  0.5325  0.1363
  741TMC3    C510950   0.436   3.588  14.573  0.5423 -0.7376  0.9610
  741TMC3    C610951   0.329   3.508  14.552  0.1055  0.1671  0.2920
  741TMC3     C10952   0.413   3.839  14.312 -0.2515 -0.7152 -0.2664
  741TMC3     O10953   0.497   3.921  14.350 -0.6273 -0.2288 -0.3999
  741TMC3     H10954   0.188   3.681  14.296 -1.8658 -1.7930  1.4155
  741TMC3    H110955   0.558   3.744  14.500 -0.5451  1.6095 -1.6011
  741TMC3    H210956   0.320   3.417  14.610 -0.7963 -2.4080 -3.8779
  741TMC3    C710957   0.536   3.554  14.670 -0.1792  0.4877  0.0774
  741TMC3    C810958   0.147   3.440  14.390 -0.3257  0.0107  0.1016
  741TMC3    O110959   0.654   3.585  14.652 -0.8454 -0.1908 -0.1037
  741TMC3    O210960   0.064   3.486  14.319 -0.1538 -0.0114  0.0509
  742TMC3    C110961   0.398   2.126  15.192  0.8415  0.0535 -0.1009
  742TMC3    C210962   0.362   2.124  15.059 -0.6498 -0.2059 -1.0058
  742TMC3    C310963   0.427   2.050  14.970 -0.1496 -0.2627 -0.5729
  742TMC3    C410964   0.500   2.052  15.235  0.1381  0.6951  0.1599
  742TMC3    C510965   0.568   1.981  15.146  0.0275 -0.0267 -0.0289
  742TMC3    C610966   0.540   1.978  15.009  0.0322  1.0709  0.5333
  742TMC3     C10967   0.331   2.204  15.290  0.7727  0.6346 -0.1264
  742TMC3     O10968   0.223   2.254  15.253 -0.1362  1.2405  0.1435
  742TMC3     H10969   0.273   2.180  15.029  1.2341  1.8776 -2.7092
  742TMC3    H110970   0.522   2.022  15.336 -2.0930  0.8831  0.6955
  742TMC3    H210971   0.586   1.909  14.940  2.0871  0.4937  2.4655
  742TMC3    C710972   0.689   1.913  15.179  0.2649  0.3254 -0.0485
  742TMC3    C810973   0.369   2.035  14.837  0.9141 -0.6210  0.3610
  742TMC3    O110974   0.716   1.822  15.100  0.3134 -0.2306 -0.1468
  742TMC3    O210975   0.253   2.065  14.822  0.5075 -0.2279  0.0189
  743MPD2     C10976   3.031   3.440   1.861  0.2751  0.3669  0.4337
  743MPD2    C110977   3.083   3.495   1.744  0.4347  0.7451  0.0959
  743MPD2    C210978   3.188   3.585   1.751  0.8316 -0.2719  0.2597
  743MPD2    C310979   3.236   3.623   1.876  0.2933 -0.0341 -0.3397
  743MPD2    C410980   3.180   3.571   1.992 -0.0909 -0.5016  0.8576
  743MPD2    C510981   3.085   3.476   1.979  0.4103 -0.9193  0.2320
  743MPD2     H10982   3.230   3.624   1.659 -1.2625  0.4130 -0.4122
  743MPD2    H110983   3.203   3.616   2.088 -1.8100  1.3699  0.3925
  743MPD2    H210984   2.957   3.362   1.849  1.2167 -0.5108  0.2930
  743MPD2    H310985   3.053   3.429   2.072 -1.4140 -2.4621 -1.1846
  743MPD2     N10986   3.337   3.719   1.882  0.5997  0.1467 -0.9304
  743MPD2    H510987   3.372   3.752   1.792  0.1848  1.2781 -0.6729
  743MPD2    N110988   3.021   3.454   1.631 -0.1049  0.2834  0.3737
  743MPD2    H710989   2.940   3.393   1.639 -1.2641  2.0732  2.4256
  744TMC3    C110990   2.961   3.417   1.410 -0.2505  1.2068  0.6836
  744TMC3    C210991   2.831   3.419   1.438  0.0482  0.3325 -0.2235
  744TMC3    C310992   2.744   3.390   1.335 -0.7448 -0.2738 -0.2227
  744TMC3    C410993   3.005   3.399   1.279 -0.0978  0.4957 -0.3931
  744TMC3    C510994   2.909   3.378   1.185 -0.8516 -0.4520  0.4354
  744TMC3    C610995   2.778   3.373   1.207 -0.2355  0.3553  0.3605
  744TMC3     C10996   3.050   3.486   1.498  0.5180  0.9472  0.4630
  744TMC3     O10997   3.145   3.551   1.453  0.0482 -0.1590  0.0893
  744TMC3     H10998   2.795   3.449   1.536 -0.3781  0.6032 -0.4621
  744TMC3    H110999   3.107   3.410   1.244 -0.5116 -1.4983 -2.2362
  744TMC3    H211000   2.708   3.375   1.125  0.2652  0.5953 -0.0552
  744TMC3    C711001   2.959   3.339   1.049 -0.0778  0.1765  0.4591
  744TMC3    C811002   2.611   3.436   1.361  0.0946  0.3551  1.1414
  744TMC3    O111003   3.060   3.400   1.007  0.6143  0.2561  0.2479
  744TMC3    O211004   2.595   3.518   1.449 -0.2900  0.1900  0.2708
  745TMC3    C111005   0.322   1.943  13.864  0.0513  0.0331  0.0825
  745TMC3    C211006   0.301   2.031  13.966  0.8606 -0.0232  0.5545
  745TMC3    C311007   0.197   2.123  13.971 -0.4969  0.3932  0.2050
  745TMC3    C411008   0.232   1.948  13.761  0.0398 -0.8893 -0.0739
  745TMC3    C511009   0.130   2.044  13.765  0.4624  0.3965  0.7283
  745TMC3    C611010   0.108   2.137  13.866 -0.0997  0.6043 -0.9389
  745TMC3     C11011   0.466   1.914  13.842  0.3454 -0.8317 -0.1073
  745TMC3     O11012   0.518   1.835  13.924 -0.6051  0.1544  0.2009
  745TMC3     H11013   0.371   2.031  14.049 -0.2767  0.6156  1.5258
  745TMC3    H111014   0.241   1.879  13.678 -1.5974  0.5163 -1.4162
  745TMC3    H211015   0.030   2.211  13.860  0.2188  1.0659  0.5495
  745TMC3    C711016   0.094   2.078  13.626 -0.4513  0.4080 -0.1801
  745TMC3    C811017   0.231   2.253  14.025  0.6192 -0.0596  0.1592
  745TMC3    O111018   0.173   2.030  13.544 -0.2438  0.4356 -0.0977
  745TMC3    O211019   0.143   2.339  14.028  0.2149 -0.4373 -0.4014
  746TMC3    C111020   2.885   3.462  11.336  0.1866 -0.2036 -0.3764
  746TMC3    C211021   2.989   3.390  11.283  0.1170  0.5448 -0.3966
  746TMC3    C311022   2.971   3.264  11.238 -0.0368 -0.2547  0.6815
  746TMC3    C411023   2.765   3.405  11.370  0.1310 -0.7941  0.0560
  746TMC3    C511024   2.751   3.269  11.334 -1.3197  0.1748 -0.2835
  746TMC3    C611025   2.849   3.200  11.271  0.2121 -0.1597 -0.7136
  746TMC3     C11026   2.875   3.600  11.299  0.5450  0.1035  0.0662
  746TMC3     O11027   2.814   3.670  11.378  0.1624  0.4238  0.1246
  746TMC3     H11028   3.080   3.445  11.263  0.3737  0.6584  1.0869
  746TMC3    H111029   2.686   3.474  11.396  1.0318 -0.6420  2.3458
  746TMC3    H211030   2.823   3.095  11.273 -2.1985  0.4341 -1.0098
  746TMC3    C711031   2.622   3.212  11.339  0.1078  0.1085  0.8103
  746TMC3    C811032   2.979   3.276  11.094 -0.2811  0.1370 -0.2552
  746TMC3    O111033   2.594   3.144  11.238 -0.5347  0.1201 -0.1902
  746TMC3    O211034   3.000   3.389  11.054  0.0142 -0.1519 -0.2438
  747TMC3    C111035   0.642   3.464  10.856  0.6120 -0.0713  0.7675
  747TMC3    C211036   0.550   3.374  10.901 -0.3364  0.0325  0.3552
  747TMC3    C311037   0.445   3.433  10.970 -0.8232 -0.9305  0.2469
  747TMC3    C411038   0.635   3.596  10.876 -0.3070  0.4796  0.3379
  747TMC3    C511039   0.526   3.643  10.946  0.2604 -0.5831  0.0186
  747TMC3    C611040   0.421   3.564  10.990  0.0924  0.1444  0.4481
  747TMC3     C11041   0.737   3.425  10.759  0.0155 -0.5925 -0.1770
  747TMC3     O11042   0.828   3.507  10.743  0.0584  0.1431  0.1055
  747TMC3     H11043   0.559   3.266  10.895  1.3364  0.2181 -0.5863
  747TMC3    H111044   0.712   3.667  10.849 -1.0259  0.4795 -1.6928
  747TMC3    H211045   0.348   3.606  11.059 -1.4362 -2.4743  0.4303
  747TMC3    C711046   0.526   3.780  10.996  0.3813  0.4008 -0.0884
  747TMC3    C811047   0.366   3.349  11.055  0.0328 -0.1096  0.2234
  747TMC3    O111048   0.415   3.827  11.024  0.5699  0.2129  0.1347
  747TMC3    O211049   0.404   3.234  11.067  0.4953  0.0791 -0.2852
  748MPD2     C11050   1.855   4.440   1.653  0.0688  0.6033 -0.1975
  748MPD2    C111051   1.967   4.441   1.736  0.3264  0.0224  0.3987
  748MPD2    C211052   2.087   4.478   1.678 -0.2808  0.1715 -0.3825
  748MPD2    C311053   2.088   4.512   1.545 -0.0205  0.1518 -0.4445
  748MPD2    C411054   1.978   4.510   1.467  0.2008  0.1184 -0.0800
  748MPD2    C511055   1.857   4.469   1.522 -0.0259 -0.1742 -0.0237
  748MPD2     H11056   2.182   4.480   1.730  0.8613 -1.1993 -2.4187
  748MPD2    H111057   1.972   4.535   1.361 -1.7040 -1.8798 -0.4380
  748MPD2    H211058   1.757   4.419   1.694  0.4128  0.8187  0.7431
  748MPD2    H311059   1.769   4.465   1.459 -1.6161  2.4271  1.9999
  748MPD2     N11060   2.214   4.536   1.488  0.5837  0.3272 -0.6685
  748MPD2    H511061   2.289   4.551   1.556  1.5492  0.2185 -1.7026
  748MPD2    N111062   1.959   4.424   1.876 -0.2281  0.0315 -0.2012
  748MPD2    H711063   1.865   4.420   1.913  0.5868 -0.1335  1.8692
  749TMC3    C111064   2.398   4.569   1.330  0.1279  0.7331  0.0541
  749TMC3    C211065   2.506   4.519   1.413  0.3326  0.1609  0.5956
  749TMC3    C311066   2.632   4.515   1.364  0.0649  0.2364 -0.6322
  749TMC3    C411067   2.432   4.621   1.209 -0.0517 -0.1275  0.1526
  749TMC3    C511068   2.566   4.629   1.173 -0.6538  0.0575  0.2132
  749TMC3    C611069   2.662   4.570   1.245 -0.2557  0.3350  0.2542
  749TMC3     C11070   2.253   4.541   1.358  0.0902 -0.1913 -0.3035
  749TMC3     O11071   2.180   4.528   1.264  0.2397  0.2522 -0.2353
  749TMC3     H11072   2.480   4.469   1.505 -1.2912 -0.9753 -0.4928
  749TMC3    H111073   2.357   4.656   1.139  0.6011  1.4191  0.2352
  749TMC3    H211074   2.762   4.568   1.204  0.0166  1.7916  0.8392
  749TMC3    C711075   2.604   4.709   1.057  0.2109  0.3649  0.4249
  749TMC3    C811076   2.739   4.483   1.461 -0.2371  0.5683 -0.4962
  749TMC3    O111077   2.717   0.018   1.070 -0.1306 -0.4401  0.9376
  749TMC3    O211078   2.727   4.517   1.578 -0.3835 -0.1313 -0.3313
  750MPD2     C11079   3.166   0.630  11.364 -0.2157  0.6460 -0.0518
  750MPD2    C111080   3.029   0.632  11.349 -0.9730 -1.1544  0.3438
  750MPD2    C211081   2.965   0.509  11.303 -0.6468  0.2083  0.4060
  750MPD2    C311082   3.037   0.406  11.250  0.0346  0.5428 -0.2965
  750MPD2    C411083   3.175   0.421  11.245 -0.2737  0.3417  0.0537
  750MPD2    C511084   3.236   0.528  11.307  0.5939 -0.4769  0.0686
  750MPD2     H11085   2.856   0.509  11.305 -0.6699 -1.1084 -0.4548
  750MPD2    H111086   3.244   0.360  11.189 -3.5283 -1.1851 -2.2689
  750MPD2    H211087   3.218   0.715  11.405 -0.5033  0.2234  1.1826
  750MPD2    H311088   3.344   0.531  11.318  0.6785 -0.7613 -0.7011
  750MPD2     N11089   2.990   0.288  11.198 -0.3252 -0.9582 -0.6253
  750MPD2    H511090   3.055   0.237  11.140 -0.3353  0.2284 -1.6830
  750MPD2    N111091   2.969   0.756  11.384 -0.0394  0.0691  0.5783
  750MPD2    H711092   3.035   0.828  11.412  3.4523 -2.2118 -1.8113
  751TMC3    C111093   2.838   0.122  11.123 -0.2030 -0.8389  0.5685
  751TMC3    C211094   2.709   0.086  11.097 -0.8911  0.8102  0.1477
  751TMC3    C311095   2.681   4.724  11.000  0.0208 -0.4348  0.5753
  751TMC3    C411096   2.936   0.081  11.038 -0.9065 -0.4456  1.0274
  751TMC3    C511097   2.902   4.722  10.941 -0.2713  0.1396  0.5831
  751TMC3    C611098   2.780   4.666  10.926  0.1677  0.2048  0.4581
  751TMC3     C11099   2.864   0.238  11.212 -0.1313 -0.5137 -0.1121
  751TMC3     O11100   2.768   0.283  11.277 -0.5623  0.2078 -0.4124
  751TMC3     H11101   2.639   0.129  11.167 -1.3371 -1.7706  1.2818
  751TMC3    H111102   3.035   0.123  11.050 -1.2491  1.0578 -1.3696
  751TMC3    H211103   2.762   4.576  10.867  1.1233  0.8077 -0.7536
  751TMC3    C711104   3.013   4.670  10.870 -0.1191 -0.1504 -0.2190
  751TMC3    C811105   2.546   4.670  10.988 -0.3844 -0.3080  0.4999
  751TMC3    O111106   3.110   0.015  10.866 -0.0253  0.6974  0.1467
  751TMC3    O211107   2.530   4.572  10.919  0.8377  0.4776 -0.3251
  752TMC3    C111108   1.344   0.375  16.898  0.7311 -0.3216 -0.5721
  752TMC3    C211109   1.361   0.299  17.012 -0.3979  0.5298  0.1241
  752TMC3    C311110   1.291   0.334  17.124 -0.2395 -0.4916 -0.5578
  752TMC3    C411111   1.265   0.485  16.894  0.1186  0.2902 -0.6016
  752TMC3    C511112   1.202   0.520  17.009  0.6323  0.4390  0.3710
  752TMC3    C611113   1.214   0.446  17.127  0.1970 -0.4680  1.0007
  752TMC3     C11114   1.407   0.354  16.769 -0.1617 -0.6632 -0.3115
  752TMC3     O11115   1.520   0.299  16.769 -0.4526  0.3794  0.2453
  752TMC3     H11116   1.445   0.230  17.015 -1.1329 -0.3645  0.0831
  752TMC3    H111117   1.278   0.552  16.810  1.1837  2.1942  1.0960
  752TMC3    H211118   1.161   0.481  17.215  0.5576  0.8258  0.7135
  752TMC3    C711119   1.177   0.663  17.026  0.2361  0.4797  1.0054
  752TMC3    C811120   1.355   0.289  17.243 -0.6216 -0.2247  0.1072
  752TMC3    O111121   1.246   0.743  16.965 -0.1433  0.7591  0.0922
  752TMC3    O211122   1.430   0.196  17.230 -0.0769 -0.4500 -0.2300
  753TMC3    C111123   3.461   1.617  13.331  0.3555  0.5051 -0.5791
  753TMC3    C211124   3.581   1.578  13.388  0.4682  0.2133  0.0239
  753TMC3    C311125   3.586   1.447  13.440  0.1104  0.1091  0.2604
  753TMC3    C411126   3.353   1.537  13.317  0.1692 -0.6137  0.2188
  753TMC3    C511127   3.368   1.408  13.354 -0.5207 -0.7378 -0.2053
  753TMC3    C611128   3.482   1.360  13.417  0.3376  0.8115 -0.3334
  753TMC3     C11129   3.441   1.744  13.270 -0.8199 -0.6145 -0.8126
  753TMC3     O11130   3.331   1.793  13.273 -0.3353 -0.0911 -0.0863
  753TMC3     H11131   3.671   1.639  13.385  0.8594 -0.3680 -0.0661
  753TMC3    H111132   3.262   1.579  13.279  0.3975 -0.5674 -0.2715
  753TMC3    H211133   3.477   1.262  13.461 -0.3833  1.3772  0.8627
  753TMC3    C711134   3.246   1.325  13.342 -0.7781 -0.1799  0.9629
  753TMC3    C811135   3.687   1.408  13.537 -0.0837  0.4379 -0.0929
  753TMC3    O111136   3.141   1.386  13.326 -0.2981 -0.4116 -0.4027
  753TMC3    O211137   3.675   1.295  13.580 -0.2860 -0.6880  0.0326
  754MPD2     C11138   1.919   0.453  12.290 -0.4970  0.1841  0.0810
  754MPD2    C111139   1.955   0.478  12.419 -0.2614 -0.8820 -0.1339
  754MPD2    C211140   1.870   0.562  12.502 -0.0644 -0.8240 -0.5149
  754MPD2    C311141   1.741   0.603  12.455  0.0529  0.7483 -0.5391
  754MPD2    C411142   1.710   0.584  12.315 -0.0606 -0.1044 -0.4973
  754MPD2    C511143   1.794   0.493  12.243 -0.6495 -0.2892  0.5007
  754MPD2     H11144   1.898   0.574  12.606  1.0824  1.1552 -1.0491
  754MPD2    H111145   1.612   0.610  12.276  0.2063  1.0500 -0.3921
  754MPD2    H211146   1.973   0.379  12.232 -0.9729  0.0559 -0.2036
  754MPD2    H311147   1.774   0.462  12.141  0.0776  2.2082 -0.4012
  754MPD2     N11148   1.638   0.637  12.546 -0.4652  0.0589  0.2733
  754MPD2    H511149   1.542   0.627  12.514 -0.5206 -1.5396  0.9016
  754MPD2    N111150   2.078   0.414  12.461 -0.6770 -0.0592  0.4704
  754MPD2    H711151   2.128   0.356  12.394 -0.8918 -0.8952  1.0348
  755MPD2     C11152   1.830   0.640  13.556  0.2742  0.2725  0.3830
  755MPD2    C111153   1.732   0.735  13.525  0.8288  0.6137 -0.1197
  755MPD2    C211154   1.664   0.719  13.406 -0.1761  0.0203 -0.1668
  755MPD2    C311155   1.682   0.610  13.326 -0.2048 -0.9752  0.2084
  755MPD2    C411156   1.769   0.512  13.367 -0.2523 -0.2686 -0.3953
  755MPD2    C511157   1.850   0.531  13.479 -0.2951  1.5050 -1.2657
  755MPD2     H11158   1.589   0.792  13.377 -1.7141 -1.7442 -0.6847
  755MPD2    H111159   1.779   0.427  13.300 -1.6244 -0.8221  0.0913
  755MPD2    H211160   1.897   0.646  13.642  1.1142 -2.6657 -0.0739
  755MPD2    H311161   1.930   0.462  13.502  0.6035  2.5634 -1.2537
  755MPD2     N11162   1.614   0.585  13.206  0.5895  0.7666  0.2864
  755MPD2    H511163   1.620   0.495  13.159  2.8311  1.0745  0.0040
  755MPD2    N111164   1.711   0.852  13.603 -0.6158 -0.6280 -0.2272
  755MPD2    H711165   1.641   0.915  13.566  0.9853  0.4705 -1.3947
  756MPD2     C11166   2.903   1.426   9.504 -0.2594 -0.0896 -0.2227
  756MPD2    C111167   2.847   1.306   9.544 -0.2747 -0.2895 -0.1058
  756MPD2    C211168   2.788   1.236   9.449  0.2292  0.5657  0.3459
  756MPD2    C311169   2.775   1.285   9.317 -0.2496  0.5415 -0.2310
  756MPD2    C411170   2.830   1.407   9.276 -0.0762  0.3757  0.1777
  756MPD2    C511171   2.899   1.479   9.373  0.0062  0.6904  0.2634
  756MPD2     H11172   2.745   1.139   9.469 -1.2541  1.2899  0.7129
  756MPD2    H111173   2.832   1.447   9.176  2.8797 -0.2641 -0.0107
  756MPD2    H211174   2.952   1.488   9.578 -1.8900  0.3809  0.4565
  756MPD2    H311175   2.954   1.569   9.347  1.1991 -0.1136  0.0189
  756MPD2     N11176   2.702   1.201   9.231  0.6606 -0.5151 -0.2441
  756MPD2    H511177   2.680   1.106   9.260  3.6859 -1.8158 -2.2670
  756MPD2    N111178   2.852   1.243   9.671  0.0002 -0.1147  0.2222
  756MPD2    H711179   2.801   1.155   9.675  2.3752 -1.4777  0.7794
  757MPD2     C11180   2.756   0.269   9.234 -0.1913 -0.4924  0.4192
  757MPD2    C111181   2.647   0.313   9.301 -0.6129 -0.1134  0.6512
  757MPD2    C211182   2.605   0.446   9.281  0.3486  0.3483 -0.5946
  757MPD2    C311183   2.679   0.531   9.199 -0.6451  0.6885  0.0143
  757MPD2    C411184   2.793   0.483   9.137  0.0805 -0.9386 -0.2867
  757MPD2    C511185   2.831   0.351   9.163 -0.0637  0.6807 -0.1585
  757MPD2     H11186   2.520   0.488   9.333  0.7000  0.7760 -0.3681
  757MPD2    H111187   2.846   0.544   9.065 -0.5387  1.1156  1.0129
  757MPD2    H211188   2.789   0.166   9.228 -0.7372 -0.6482  0.0295
  757MPD2    H311189   2.895   0.303   9.090  1.2637  1.3431  0.5779
  757MPD2     N11190   2.628   0.657   9.166 -0.7493 -0.1603 -0.1181
  757MPD2    H511191   2.535   0.682   9.199 -2.1819 -1.8720 -2.7937
  757MPD2    N111192   2.586   0.216   9.387 -0.1422  0.2986 -0.0856
  757MPD2    H711193   2.619   0.121   9.372 -1.7639 -0.2925  0.0392
  758MPD2     C11194   2.718   4.557  15.651  0.3830 -0.0077 -0.0348
  758MPD2    C111195   2.786   4.515  15.757 -0.1980 -0.1047 -0.7868
  758MPD2    C211196   2.741   4.542  15.887 -0.3278 -0.1723  0.4550
  758MPD2    C311197   2.614   4.601  15.905 -0.7716 -0.4422  0.2058
  758MPD2    C411198   2.551   4.642  15.789  0.7300  0.5972  0.1155
  758MPD2    C511199   2.599   4.622  15.669 -0.1675  0.0659 -0.1250
  758MPD2     H11200   2.809   4.527  15.970 -0.8000  2.0945  1.2358
  758MPD2    H111201   2.452   4.687  15.790 -0.2586 -1.5431 -1.2159
  758MPD2    H211202   2.757   4.542  15.551  1.2842 -1.2529  0.5083
  758MPD2    H311203   2.539   4.655  15.585 -0.4604 -0.6593 -0.2010
  758MPD2     N11204   2.559   4.626  16.028  0.1991 -0.0397 -0.0252
  758MPD2    H511205   2.479   4.688  16.029  0.5867  0.4731 -0.6769
  758MPD2    N111206   2.914   4.476  15.718  0.0667 -0.1562  0.7952
  758MPD2    H711207   2.954   4.509  15.631 -1.1959  0.4479  0.4336
  759MPD2     C11208   1.198   3.494  10.500  0.1317  0.2866 -0.1374
  759MPD2    C111209   1.279   3.384  10.480  0.0581  0.9484  0.9699
  759MPD2    C211210   1.355   3.383  10.367 -0.1553 -0.0463 -0.2499
  759MPD2    C311211   1.363   3.489  10.277  0.2790  0.4514 -0.7016
  759MPD2    C411212   1.293   3.601  10.302 -0.0704  0.3279 -0.6132
  759MPD2    C511213   1.204   3.601  10.407 -0.3545  0.3078 -0.5954
  759MPD2     H11214   1.417   3.298  10.339  2.8226  1.0490  2.9585
  759MPD2    H111215   1.286   3.694  10.247 -0.3275  1.9330  2.0896
  759MPD2    H211216   1.137   3.512  10.588  1.5945  1.1661  0.6869
  759MPD2    H311217   1.130   3.679  10.408 -1.1004 -0.4165  0.4742
  759MPD2     N11218   1.452   3.472  10.165  0.2798 -0.6410 -0.3219
  759MPD2    H511219   1.477   3.375  10.149  0.0088 -0.7538 -0.0372
  759MPD2    N111220   1.292   3.273  10.571 -0.4325  0.2517 -0.0904
  759MPD2    H711221   1.348   3.198  10.532 -1.3755  0.0604 -1.0630
  760MPD2     C11222   0.878   0.927  11.810 -0.4977 -0.4345  1.0931
  760MPD2    C111223   1.003   0.910  11.757  0.2392  0.1311 -0.2061
  760MPD2    C211224   1.067   0.792  11.754  0.1700  0.1370 -0.0376
  760MPD2    C311225   1.010   0.678  11.812 -0.2425  0.7152 -0.0906
  760MPD2    C411226   0.882   0.690  11.860  0.2653  0.4276 -0.4185
  760MPD2    C511227   0.827   0.816  11.861 -1.0982  0.0193  0.1799
  760MPD2     H11228   1.160   0.785  11.699 -0.6831 -0.5548 -1.4076
  760MPD2    H111229   0.825   0.612  11.909 -1.1150  0.8650 -1.3262
  760MPD2    H211230   0.823   1.021  11.805 -1.1433 -0.9061 -0.6749
  760MPD2    H311231   0.725   0.803  11.894 -1.2931  1.3867  0.0790
  760MPD2     N11232   1.063   0.546  11.823  0.5434 -0.2183  0.8907
  760MPD2    H511233   1.005   0.474  11.866  1.5426 -1.2863  0.4718
  760MPD2    N111234   1.079   1.012  11.685  0.2512 -0.3276  0.0871
  760MPD2    H711235   1.176   0.990  11.664  0.4147  2.9735 -2.6324
  761MPD2     C11236   2.057   4.640  11.150  0.3159 -0.5695 -0.1538
  761MPD2    C111237   2.119   4.564  11.051  0.2891 -0.4351 -1.1887
  761MPD2    C211238   2.256   4.587  11.026 -0.3190 -0.0520 -0.1395
  761MPD2    C311239   2.316   4.700  11.081 -0.0923  0.4423  0.0521
  761MPD2    C411240   2.243   0.052  11.167 -0.3503 -0.1049 -0.1082
  761MPD2    C511241   2.122   0.009  11.211 -0.0031  0.0407 -0.5862
  761MPD2     H11242   2.318   4.521  10.967  1.5564  2.0311 -0.5274
  761MPD2    H111243   2.284   0.143  11.210  3.1406 -0.5254 -2.5222
  761MPD2    H211244   1.958   4.613  11.184  0.3128 -0.1650  0.1484
  761MPD2    H311245   2.073   0.054  11.297  0.8373 -1.3963  0.6478
  761MPD2     N11246   2.452   0.008  11.068 -0.3508  0.1200  0.1638
  761MPD2    H511247   2.490   0.083  11.125  1.3785 -0.7428  0.1426
  761MPD2    N111248   2.052   4.454  10.992  0.2503  0.0017 -0.4185
  761MPD2    H711249   1.953   4.447  11.011  0.0377  0.8647 -1.2255
  762MPD2     C11250   2.510   4.250  10.776  0.4680 -0.2528 -0.4914
  762MPD2    C111251   2.448   4.128  10.762  0.1479  0.8728  0.2008
  762MPD2    C211252   2.518   4.030  10.699 -0.4252 -0.3153 -0.1302
  762MPD2    C311253   2.648   4.057  10.651 -1.5124 -0.4571  0.0084
  762MPD2    C411254   2.698   4.181  10.666 -0.0913 -0.5717 -0.7750
  762MPD2    C511255   2.636   4.285  10.727  0.1231  0.4055 -0.7909
  762MPD2     H11256   2.480   3.928  10.698  0.2403 -0.5722  0.6716
  762MPD2    H111257   2.796   4.211  10.630 -0.6607  1.5681 -0.5347
  762MPD2    H211258   2.454   4.321  10.835 -0.3035  0.3110 -1.9110
  762MPD2    H311259   2.679   4.384  10.744  1.3998 -0.2618 -0.1163
  762MPD2     N11260   2.715   3.948  10.594  0.4742 -0.0312  0.3557
  762MPD2    H511261   2.656   3.869  10.567 -1.7049  0.8190  2.5810
  762MPD2    N111262   2.319   4.116  10.805 -0.1219 -0.3626 -0.1253
  762MPD2    H711263   2.275   4.199  10.845  0.1476 -0.8382  1.1750
  763MPD2     C11264   4.349   0.215  16.017 -0.8775  0.3502  0.2958
  763MPD2    C111265   4.232   0.278  15.996  0.1078 -0.4279  0.0716
  763MPD2    C211266   4.210   0.402  16.046  0.1867 -0.3240  1.0071
  763MPD2    C311267   4.307   0.469  16.110 -0.1919 -0.3363 -0.3391
  763MPD2    C411268   4.430   0.405  16.117 -0.0339  0.0897 -0.6469
  763MPD2    C511269   4.454   0.281  16.069  0.2267  0.1441 -0.3193
  763MPD2     H11270   4.118   0.454  16.022  1.1908  0.5945 -0.8002
  763MPD2    H111271   4.514   0.454  16.165  1.7605 -1.4788 -2.1865
  763MPD2    H211272   4.375   0.119  15.975  1.4055  0.7468  0.7496
  763MPD2    H311273   4.549   0.229  16.077 -0.7833 -1.8192 -1.0654
  763MPD2     N11274   4.304   0.601  16.159 -0.6392 -0.4000  0.1226
  763MPD2    H511275   4.383   0.643  16.208 -1.0880 -1.6186  1.8666
  763MPD2    N111276   4.130   0.213  15.921  0.2835 -0.4918 -0.0118
  763MPD2    H711277   4.060   0.273  15.878  1.4361  1.9534  1.5162
  764MPD2     C11278   2.552   1.708  17.085 -0.0368  0.2638  0.2294
  764MPD2    C111279   2.472   1.597  17.057  1.0089  0.5746 -0.1592
  764MPD2    C211280   2.499   1.471  17.109 -0.2605 -0.2400 -0.0504
  764MPD2    C311281   2.608   1.457  17.193 -0.2058 -0.5366 -0.4821
  764MPD2    C411282   2.697   1.560  17.217 -0.2044  0.4108 -0.0674
  764MPD2    C511283   2.660   1.687  17.167 -0.3988 -0.0133 -0.6370
  764MPD2     H11284   2.430   1.393  17.079  0.0303 -0.2151 -0.7864
  764MPD2    H111285   2.786   1.542  17.276 -0.9797  1.4320  1.3938
  764MPD2    H211286   2.524   1.810  17.059  0.0062  0.0600 -0.6160
  764MPD2    H311287   2.720   1.774  17.193  0.4008 -0.5549 -0.6657
  764MPD2     N11288   2.623   1.330  17.244 -0.1467  0.0109 -0.2492
  764MPD2    H511289   2.554   1.262  17.212 -0.0969 -0.7063  1.1821
  764MPD2    N111290   2.347   1.611  16.991 -0.3927 -0.0286  0.4733
  764MPD2    H711291   2.298   1.523  16.977 -0.7432  0.4593 -1.2632
  765MPD2     C11292   2.315   3.869  16.072  0.0182 -0.4837  0.2916
  765MPD2    C111293   2.352   3.970  15.990 -0.4547 -0.1871 -0.4550
  765MPD2    C211294   2.459   3.955  15.915  0.0386  0.6066  1.1990
  765MPD2    C311295   2.528   3.841  15.913 -0.0614  0.6940 -0.8274
  765MPD2    C411296   2.507   3.741  16.007  0.6682  0.1702  0.1819
  765MPD2    C511297   2.397   3.760  16.091 -0.4690 -0.4333  0.5240
  765MPD2     H11298   2.480   4.025  15.835 -0.7131 -0.3835  0.1437
  765MPD2    H111299   2.565   3.650  16.015 -0.2807 -0.4737 -0.3274
  765MPD2    H211300   2.226   3.874  16.134 -0.0836 -4.0722  0.4158
  765MPD2    H311301   2.359   3.688  16.163  1.8065 -1.6926  0.4549
  765MPD2     N11302   2.630   3.828  15.816 -0.9253  0.1546 -0.3097
  765MPD2    H511303   2.634   3.904  15.749  0.7946  0.5848  0.2822
  765MPD2    N111304   2.268   4.080  15.977  0.4371 -0.1215  0.8631
  765MPD2    H711305   2.178   4.071  16.024 -0.0334 -0.6518 -0.1551
  766MPD2     C11306   1.651   4.466  15.532  0.0722 -0.0520  0.5403
  766MPD2    C111307   1.755   4.375  15.545 -0.4711 -0.2312 -0.5285
  766MPD2    C211308   1.825   4.323  15.437 -0.7716 -0.4325 -0.0090
  766MPD2    C311309   1.783   4.370  15.315  0.4709  0.9957  0.5512
  766MPD2    C411310   1.685   4.469  15.298  0.2419 -0.3097 -0.1006
  766MPD2    C511311   1.624   4.508  15.406  0.0185  0.2925  0.2154
  766MPD2     H11312   1.912   4.261  15.455 -0.4855 -0.3622 -1.1440
  766MPD2    H111313   1.657   4.509  15.202 -1.2369 -1.3697 -0.1090
  766MPD2    H211314   1.581   4.502  15.607  1.9922 -0.2749  2.4573
  766MPD2    H311315   1.533   4.566  15.390 -0.1198  0.5207  1.8562
  766MPD2     N11316   1.842   4.318  15.200 -0.1293  0.7270  0.1776
  766MPD2    H511317   1.839   4.383  15.123 -3.8147  1.0548  0.5653
  766MPD2    N111318   1.784   4.338  15.680  0.2104  0.3550 -0.2310
  766MPD2    H711319   1.733   4.380  15.757  0.9265 -0.0653  0.4675
  767MPD2     C11320   1.503   0.011  15.032  0.8266 -0.5003  0.2512
  767MPD2    C111321   1.629   4.683  15.001 -1.1305  0.2253  0.0562
  767MPD2    C211322   1.631   4.587  14.905  0.1211 -0.2549  0.0538
  767MPD2    C311323   1.522   4.549  14.832  0.2943  0.6021 -0.0922
  767MPD2    C411324   1.407   4.616  14.851 -0.3253  0.2087 -0.1110
  767MPD2    C511325   1.394   4.705  14.956 -0.1896  0.5887 -0.3219
  767MPD2     H11326   1.730   4.549  14.882 -1.0707 -2.1738 -1.9259
  767MPD2    H111327   1.318   4.611  14.789  1.3346  1.2495 -2.5925
  767MPD2    H211328   1.497   0.096  15.099 -2.5853 -0.4973 -0.0351
  767MPD2    H311329   1.297   0.023  14.970 -0.2089  0.5003 -0.1611
  767MPD2     N11330   1.543   4.451  14.735 -0.0961  0.1821 -0.0552
  767MPD2    H511331   1.634   4.406  14.730  0.6931  1.9012 -1.3537
  767MPD2    N111332   1.747   0.008  15.070  0.1302 -0.3165  0.0792
  767MPD2    H711333   1.729   0.093  15.123 -0.5833 -0.8674  0.7398
  768MPD2     C11334   2.443   2.834  10.835  0.6386 -0.1636 -0.6128
  768MPD2    C111335   2.403   2.856  10.966  0.6650 -0.3703  0.0753
  768MPD2    C211336   2.485   2.812  11.068 -0.0528 -0.1389  0.5900
  768MPD2    C311337   2.595   2.734  11.044 -0.2137 -0.2104  0.1188
  768MPD2    C411338   2.632   2.711  10.914  0.1490  0.2059  0.2618
  768MPD2    C511339   2.562   2.759  10.811  0.0173 -1.0347  0.7544
  768MPD2     H11340   2.460   2.836  11.170  2.1186 -2.1286  1.6106
  768MPD2    H111341   2.716   2.649  10.881  0.0187 -0.3869  1.0366
  768MPD2    H211342   2.372   2.857  10.756 -1.9147 -2.2074  1.0991
  768MPD2    H311343   2.595   2.731  10.712 -0.0124 -0.0919  0.4812
  768MPD2     N11344   2.680   2.702  11.150  0.4335 -0.6846  0.7518
  768MPD2    H511345   2.777   2.679  11.128  0.6872  0.2375  0.9052
  768MPD2    N111346   2.274   2.907  10.998 -0.3452  0.4699 -0.9145
  768MPD2    H711347   2.241   2.902  11.094  1.1902  4.3533 -0.1723
  769MPD2     C11348   3.616   0.945  14.968 -0.4768 -0.6531 -0.0792
  769MPD2    C111349   3.489   0.924  15.006 -1.1254  0.7092  0.1874
  769MPD2    C211350   3.457   0.965  15.136  0.0539 -0.1824 -0.1801
  769MPD2    C311351   3.549   1.027  15.218  0.1239 -0.2204  0.1748
  769MPD2    C411352   3.674   1.040  15.172  0.4268 -0.3713 -0.1319
  769MPD2    C511353   3.706   0.990  15.050 -0.2862 -0.3670  0.2919
  769MPD2     H11354   3.362   0.937  15.181 -1.3264  1.9934 -1.7559
  769MPD2    H111355   3.753   1.086  15.230 -1.6819  1.0692  1.5963
  769MPD2    H211356   3.636   0.917  14.865  0.1429  1.1720 -0.4495
  769MPD2    H311357   3.801   1.010  15.001  0.2264  1.3202  2.0056
  769MPD2     N11358   3.510   1.067  15.349 -0.0883  0.5263 -0.3924
  769MPD2    H511359   3.449   1.004  15.400 -0.9663  0.7070 -1.2159
  769MPD2    N111360   3.389   0.869  14.913 -0.5855  0.9288  0.0017
  769MPD2    H711361   3.420   0.856  14.817  1.5700 -1.3337  1.0083
  770MPD2     C11362   2.676   0.326  14.683 -0.0499  0.2745  0.0935
  770MPD2    C111363   2.811   0.320  14.703 -0.3451  0.0809  0.2807
  770MPD2    C211364   2.880   0.437  14.746  0.0153 -0.4656 -0.5569
  770MPD2    C311365   2.807   0.555  14.752  1.0557  0.4244  0.1405
  770MPD2    C411366   2.676   0.558  14.726 -0.2518 -0.6676  0.1283
  770MPD2    C511367   2.602   0.445  14.704 -0.6109  0.1880  0.1925
  770MPD2     H11368   2.983   0.434  14.778 -0.2092  1.4511  0.3496
  770MPD2    H111369   2.623   0.652  14.736 -1.0390 -1.1263  0.2787
  770MPD2    H211370   2.610   0.242  14.666 -0.6419  0.8458 -0.4586
  770MPD2    H311371   2.498   0.460  14.677 -0.9438 -1.7206  0.3888
  770MPD2     N11372   2.882   0.670  14.790 -0.2267  0.0014  0.3108
  770MPD2    H511373   2.975   0.654  14.828 -0.7961 -0.2233  1.6107
  770MPD2    N111374   2.899   0.202  14.691  0.1238  0.1761  0.8766
  770MPD2    H711375   2.998   0.221  14.706  0.2631  0.1704 -0.0518
  771MPD2     C11376   3.866   3.415  13.698  0.0458 -0.1130  0.1179
  771MPD2    C111377   3.833   3.537  13.653  0.1925 -0.0548  0.3075
  771MPD2    C211378   3.744   3.544  13.551  0.6870  0.2936 -0.2169
  771MPD2    C311379   3.687   3.432  13.497  0.1861  0.0931 -0.5290
  771MPD2    C411380   3.715   3.306  13.551  0.3810  0.3547 -0.1560
  771MPD2    C511381   3.811   3.299  13.644  0.8824 -1.2493 -0.5057
  771MPD2     H11382   3.716   3.642  13.513 -2.4283 -0.3734  0.3522
  771MPD2    H111383   3.684   3.218  13.496  0.0327  1.0914 -1.1592
  771MPD2    H211384   3.953   3.410  13.762  0.8492  2.2496 -0.7624
  771MPD2    H311385   3.841   3.202  13.682  0.3706 -0.4843  1.8342
  771MPD2     N11386   3.590   3.457  13.397 -0.5326 -0.3552 -0.0007
  771MPD2    H511387   3.588   3.552  13.362 -1.6885 -0.7762 -1.0642
  771MPD2    N111388   3.894   3.660  13.704 -1.2880 -0.2310  0.4364
  771MPD2    H711389   3.850   3.745  13.670 -1.3325 -0.7240 -0.7606
  772MPD2     C11390   3.674   4.243  14.026  0.2361  0.6752 -0.2316
  772MPD2    C111391   3.662   4.160  13.917 -0.0224 -0.3275  0.0252
  772MPD2    C211392   3.539   4.115  13.868  0.5586 -0.2718  0.0137
  772MPD2    C311393   3.420   4.183  13.910 -0.0919 -0.4433  0.4029
  772MPD2    C411394   3.433   4.269  14.016 -0.6388 -0.5418  0.4086
  772MPD2    C511395   3.556   4.295  14.074  0.0472  0.2082  0.9593
  772MPD2     H11396   3.532   4.035  13.794  1.4474  0.2366 -0.6257
  772MPD2    H111397   3.351   4.316  14.070 -0.0562 -1.3575  1.9861
  772MPD2    H211398   3.770   4.272  14.067  1.0608 -1.4195 -0.6829
  772MPD2    H311399   3.564   4.363  14.157 -2.3051  1.9970 -0.2808
  772MPD2     N11400   3.294   4.146  13.863  0.5440 -0.2822  0.1598
  772MPD2    H511401   3.220   4.203  13.903  0.3500  0.1789 -0.8561
  772MPD2    N111402   3.776   4.100  13.856  0.6453 -0.1818  0.4164
  772MPD2    H711403   3.765   4.032  13.782 -0.0417 -2.2513  2.4004
  773MPD2     C11404   3.080   0.494   0.302 -0.7328 -1.5461 -0.3487
  773MPD2    C111405   3.016   0.408   0.211 -0.4544 -0.0603 -0.3244
  773MPD2    C211406   3.039   0.268   0.222 -0.3608 -0.2067 -0.5384
  773MPD2    C311407   3.128   0.217   0.315 -0.4965  0.1979 -0.7002
  773MPD2    C411408   3.202   0.311   0.392 -0.1800 -0.1178 -0.0235
  773MPD2    C511409   3.181   0.446   0.381 -0.5769  0.5585  0.9043
  773MPD2     H11410   2.985   0.199   0.158  1.3872 -0.8337 -1.3321
  773MPD2    H111411   3.282   0.280   0.459 -0.9253 -0.6767  0.6111
  773MPD2    H211412   3.061   0.600   0.305 -1.2829 -1.6671  0.7499
  773MPD2    H311413   3.243   0.519   0.432 -1.3896  1.7961  0.1146
  773MPD2     N11414   3.158   0.079   0.302  0.8399  0.1807  0.1246
  773MPD2    H511415   3.117   0.033   0.222  1.2788 -0.3891  0.2318
  773MPD2    N111416   2.924   0.446   0.109  0.2818  0.0282 -0.7800
  773MPD2    H711417   2.878   0.367   0.066 -1.2078  0.3846  0.1393
  774MPD2     C11418   2.058   4.247  12.799  0.0281  0.3171 -0.0795
  774MPD2    C111419   2.044   4.337  12.900 -0.1430 -0.2977  0.2530
  774MPD2    C211420   2.066   4.472  12.870  0.6746 -0.2506 -0.5447
  774MPD2    C311421   2.120   4.510  12.749 -0.1646 -0.8962  0.3350
  774MPD2    C411422   2.132   4.413  12.652  0.5507  0.8140  0.2615
  774MPD2    C511423   2.103   4.284  12.677  0.4424  1.0381  0.2231
  774MPD2     H11424   2.062   4.537  12.957 -2.0479 -1.9615  0.6019
  774MPD2    H111425   2.171   4.438  12.555 -0.1559 -0.0167 -0.2422
  774MPD2    H211426   2.046   4.143  12.827 -0.9296  0.1827 -0.9971
  774MPD2    H311427   2.110   4.209  12.599  0.9496  0.3182  0.9622
  774MPD2     N11428   2.167   4.647  12.741  0.0705 -0.3163 -0.0608
  774MPD2    H511429   2.179   4.695  12.830  1.0034 -2.3150  0.8909
  774MPD2    N111430   2.029   4.285  13.035  0.2804 -0.1861 -0.4443
  774MPD2    H711431   2.015   4.185  13.050 -0.0057  0.0161  0.6586
  775MPD2     C11432   3.628   0.790  15.727  0.6660  0.1363 -0.0108
  775MPD2    C111433   3.610   0.904  15.803  0.3105  0.0073  0.0980
  775MPD2    C211434   3.688   1.010  15.777 -0.3941 -0.9466  0.3336
  775MPD2    C311435   3.783   1.012  15.680 -0.4563 -0.1020  0.4637
  775MPD2    C411436   3.801   0.902  15.605 -0.3087 -0.0448  0.1010
  775MPD2    C511437   3.726   0.792  15.632 -0.2468  0.0597  0.9745
  775MPD2     H11438   3.663   1.101  15.830 -0.8709  0.2456 -1.9385
  775MPD2    H111439   3.885   0.885  15.538  0.4051  1.1755  0.6865
  775MPD2    H211440   3.560   0.707  15.740  0.9739 -0.2873 -1.0587
  775MPD2    H311441   3.754   0.703  15.576  1.4451  0.4516  1.2287
  775MPD2     N11442   3.863   1.130  15.656 -0.7110  0.2653  0.4706
  775MPD2    H511443   3.927   1.129  15.578  0.6189  1.5372  1.5472
  775MPD2    N111444   3.530   0.902  15.921 -0.1146 -0.1550  0.3727
  775MPD2    H711445   3.474   0.819  15.939 -1.1354  0.5316  0.3901
  776MPD2     C11446   3.316   1.219  11.316 -0.0264  0.6873 -0.2496
  776MPD2    C111447   3.195   1.274  11.293 -0.1758 -1.0235  0.6597
  776MPD2    C211448   3.188   1.397  11.233 -0.2569 -0.1430 -0.1592
  776MPD2    C311449   3.304   1.478  11.217 -0.2256 -0.2704 -0.2509
  776MPD2    C411450   3.424   1.428  11.260 -0.0803  0.2395  0.5335
  776MPD2    C511451   3.428   1.296  11.299  0.2611 -0.4877  0.7358
  776MPD2     H11452   3.100   1.412  11.170  0.6711  2.5236 -0.8353
  776MPD2    H111453   3.521   1.472  11.241 -0.5937  0.5068 -1.4492
  776MPD2    H211454   3.319   1.127  11.375  0.3335  0.9501  0.1406
  776MPD2    H311455   3.526   1.260  11.325  1.0491  0.5785 -0.7604
  776MPD2     N11456   3.305   1.607  11.158 -0.2349 -0.8498 -0.3097
  776MPD2    H511457   3.395   1.654  11.157 -0.8909  0.3985 -1.0025
  776MPD2    N111458   3.085   1.205  11.344  0.3332 -1.2154 -0.6761
  776MPD2    H711459   3.112   1.116  11.385  0.9681 -0.6114  0.2010
  777MPD2     C11460   3.821   3.943   0.659  0.5761  0.5647  0.7358
  777MPD2    C111461   3.706   3.914   0.733  0.1042  0.1208 -0.3799
  777MPD2    C211462   3.621   3.816   0.686  0.0406 -0.0614 -0.2418
  777MPD2    C311463   3.652   3.741   0.577  0.3497  0.0944  0.9623
  777MPD2    C411464   3.760   3.783   0.501  0.0145 -0.7982 -0.1786
  777MPD2    C511465   3.844   3.883   0.543  0.6080  0.1194 -0.4418
  777MPD2     H11466   3.529   3.791   0.737  0.6160 -2.0314 -0.1501
  777MPD2    H111467   3.778   3.744   0.401  1.7813 -1.9766  0.5971
  777MPD2    H211468   3.889   4.024   0.683  1.2783 -0.5678  2.5588
  777MPD2    H311469   3.927   3.910   0.478  3.0838  0.6044  2.9025
  777MPD2     N11470   3.565   3.633   0.536  0.2481 -0.0325  0.2814
  777MPD2    H511471   3.495   3.610   0.606 -2.0132  0.1863 -1.9322
  777MPD2    N111472   3.672   3.997   0.845 -0.3568 -0.0132 -0.0670
  777MPD2    H711473   3.729   4.078   0.869 -0.2207  0.4082 -1.8113
  778MPD2     C11474   4.352   4.040  14.950 -0.5089 -0.0487  0.7356
  778MPD2    C111475   4.403   3.926  14.889 -0.3370 -0.4029 -0.2005
  778MPD2    C211476   4.520   3.936  14.817 -0.2000  0.3149  0.1487
  778MPD2    C311477   4.587   4.057  14.808 -0.1699  0.6123 -0.1059
  778MPD2    C411478   4.537   4.166  14.872  0.0621 -0.0413  0.1725
  778MPD2    C511479   4.415   4.159  14.931 -0.2926  0.3497 -1.0787
  778MPD2     H11480   4.567   3.851  14.767 -1.2366  0.4997 -1.1316
  778MPD2    H111481   4.591   4.260  14.881  0.1899  0.0225 -1.3713
  778MPD2    H211482   4.263   4.038  15.013  0.2268  1.1879  1.7995
  778MPD2    H311483   4.364   4.244  14.975 -2.1708 -2.4677  2.1245
  778MPD2     N11484   4.707   4.071  14.742 -0.1137 -0.0821  0.1727
  778MPD2    H511485   0.037   3.990  14.722  0.4141  0.4364 -0.4009
  778MPD2    N111486   4.351   3.797  14.912 -0.0966  0.7857 -0.3459
  778MPD2    H711487   4.390   3.723  14.854  1.6282  1.2174  0.2764
  779MPD2     C11488   3.801   2.557  14.169  0.5535 -1.3035 -0.2651
  779MPD2    C111489   3.939   2.541  14.147 -0.2404 -0.3845  0.1226
  779MPD2    C211490   4.011   2.658  14.132 -0.2695  0.4271 -0.6630
  779MPD2    C311491   3.954   2.781  14.136 -0.2662  0.3823  0.4764
  779MPD2    C411492   3.816   2.796  14.152  0.1787 -0.0696 -0.1338
  779MPD2    C511493   3.743   2.684  14.180 -0.1867  0.6100 -0.2250
  779MPD2     H11494   4.115   2.647  14.104  0.3815  0.8330  1.6296
  779MPD2    H111495   3.767   2.892  14.165  0.3726 -0.1434  1.1197
  779MPD2    H211496   3.743   2.466  14.179 -0.7475 -0.3161  1.1848
  779MPD2    H311497   3.638   2.695  14.202 -0.6243 -0.5740 -1.6863
  779MPD2     N11498   4.038   2.894  14.123 -0.1777 -1.1050  0.6363
  779MPD2    H511499   4.135   2.869  14.139 -0.7350 -2.7487  1.4004
  779MPD2    N111500   3.996   2.414  14.117  0.2488  0.5983  0.2768
  779MPD2    H711501   4.094   2.408  14.093  0.1178  2.3200 -0.6963
  780MPD2     C11502   3.207   2.963   1.026  0.0172  0.1226  1.2120
  780MPD2    C111503   3.174   2.867   0.933  0.4841  0.2935  0.2459
  780MPD2    C211504   3.242   2.853   0.812  1.0797 -0.1586  1.1450
  780MPD2    C311505   3.340   2.942   0.789 -0.6798 -0.1029 -0.2567
  780MPD2    C411506   3.372   3.042   0.876 -0.7530 -0.6735 -0.4020
  780MPD2    C511507   3.301   3.057   0.994 -0.5980 -0.7009  0.3518
  780MPD2     H11508   3.226   2.773   0.740  0.3320  1.3021 -0.3211
  780MPD2    H111509   3.459   3.106   0.862 -0.7687 -0.0124  2.4671
  780MPD2    H211510   3.163   2.959   1.125 -1.9541 -0.4286  0.3125
  780MPD2    H311511   3.333   3.133   1.065  1.4843 -1.3930  0.1460
  780MPD2     N11512   3.399   2.926   0.663 -0.4948 -0.0852 -0.1253
  780MPD2    H511513   3.354   2.851   0.612 -0.0110  0.4141 -1.2889
  780MPD2    N111514   3.087   2.765   0.974 -0.3180  0.0353 -0.8107
  780MPD2    H711515   3.045   2.782   1.065  1.1457 -0.2489 -0.0882
  781MPD2     C11516   0.304   0.045  12.112  0.5924 -0.4068  0.3328
  781MPD2    C111517   0.326   4.639  12.094 -0.1816 -0.2798 -0.3687
  781MPD2    C211518   0.331   4.588  11.965 -0.2029  0.4344  0.2940
  781MPD2    C311519   0.321   4.671  11.852  0.9369  0.3584  0.5488
  781MPD2    C411520   0.303   0.077  11.873 -0.1178  0.2536 -0.5594
  781MPD2    C511521   0.298   0.123  12.002 -0.9486 -0.2228 -0.1178
  781MPD2     H11522   0.348   4.482  11.943 -1.4671  0.3337 -0.1751
  781MPD2    H111523   0.308   0.142  11.786  0.3393  2.1112  0.8487
  781MPD2    H211524   0.302   0.093  12.209  0.7764  1.2282 -0.4701
  781MPD2    H311525   0.283   0.230  12.011  1.2894  0.0474  0.2647
  781MPD2     N11526   0.343   4.612  11.725 -0.0257 -0.7538  0.4712
  781MPD2    H511527   0.329   4.512  11.723  2.4944 -1.1176  0.5893
  781MPD2    N111528   0.343   4.550  12.206 -0.1611 -0.0405  0.2787
  781MPD2    H711529   0.340   4.450  12.184  0.3485 -0.0293  0.1456
  782MPD2     C11530   3.342   0.146  10.131  0.1456  0.5425  0.4685
  782MPD2    C111531   3.434   0.173  10.228 -0.0380 -0.3237  0.6850
  782MPD2    C211532   3.425   0.295  10.298  0.5685  0.3944  0.3616
  782MPD2    C311533   3.345   0.391  10.250 -1.0037 -0.3467  0.7198
  782MPD2    C411534   3.260   0.366  10.147 -0.0246 -0.1417  0.8600
  782MPD2    C511535   3.257   0.242  10.089 -0.8036  0.3176 -1.0511
  782MPD2     H11536   3.499   0.327  10.371  1.9884  1.8397 -1.7069
  782MPD2    H111537   3.193   0.437  10.101 -2.2747 -3.1244 -0.4979
  782MPD2    H211538   3.357   0.055  10.073 -1.3888  0.2267  0.5827
  782MPD2    H311539   3.192   0.214  10.006 -1.4530  0.3835 -0.5632
  782MPD2     N11540   3.348   0.518  10.315  0.1100  0.0616  0.5691
  782MPD2    H511541   3.401   0.520  10.402  1.7139 -0.1435 -0.3984
  782MPD2    N111542   3.523   0.078  10.262 -0.0417 -0.1772 -0.4751
  782MPD2    H711543   3.500   4.714  10.224  2.0868  0.2539 -2.7712
  783MPD2     C11544   3.051   4.333  10.732 -0.4849  0.2865  0.1745
  783MPD2    C111545   3.083   4.469  10.749  0.0265 -0.3976  0.2605
  783MPD2    C211546   3.198   4.515  10.696 -0.6357  0.6493 -0.0254
  783MPD2    C311547   3.286   4.429  10.637 -0.2054 -0.1912 -0.1649
  783MPD2    C411548   3.260   4.295  10.623 -0.2457 -0.2179 -0.2342
  783MPD2    C511549   3.132   4.253  10.659 -1.0018  0.1293  0.2013
  783MPD2     H11550   3.223   4.620  10.688 -2.1285  1.0125  0.1139
  783MPD2    H111551   3.320   4.226  10.565 -1.2092  0.3908 -1.9814
  783MPD2    H211552   2.957   4.294  10.769  0.5795  0.6304  3.2049
  783MPD2    H311553   3.104   4.149  10.643  1.9003 -0.6604  0.2009
  783MPD2     N11554   3.414   4.483  10.605  0.2937  0.0584 -0.2112
  783MPD2    H511555   3.426   4.583  10.590 -2.2034  0.8413  2.9357
  783MPD2    N111556   2.995   4.544  10.831 -0.1367  0.4112  0.6537
  783MPD2    H711557   2.908   4.496  10.851 -0.4047  0.4832 -0.3457
  784MPD2     C11558   0.480   0.504   1.229 -0.2529  0.7308 -0.4020
  784MPD2    C111559   0.537   0.563   1.119  0.6594  0.1106 -1.1704
  784MPD2    C211560   0.460   0.646   1.044  0.5296 -0.1622 -0.2291
  784MPD2    C311561   0.323   0.665   1.075  0.1018  0.1131 -0.6152
  784MPD2    C411562   0.260   0.595   1.185 -0.1470 -0.4146 -0.2463
  784MPD2    C511563   0.348   0.520   1.253  0.2800 -0.2100  0.0289
  784MPD2     H11564   0.491   0.701   0.955 -0.8010 -0.7431 -1.0541
  784MPD2    H111565   0.159   0.609   1.220  0.3225  0.2942  0.8248
  784MPD2    H211566   0.529   0.430   1.292 -0.4969  0.6508 -0.3041
  784MPD2    H311567   0.300   0.470   1.337 -1.7785  1.9768  0.1611
  784MPD2     N11568   0.255   0.769   0.999  0.6995  0.4350  0.0264
  784MPD2    H511569   0.308   0.816   0.926  0.4836  1.4846  0.5373
  784MPD2    N111570   0.676   0.552   1.083 -0.2412 -0.4824  0.4050
  784MPD2    H711571   0.705   0.607   1.002 -2.3447 -0.5716 -0.4177
  785MPD2     C11572   1.517   3.035   9.857  0.6759 -0.3155 -0.0629
  785MPD2    C111573   1.381   3.051   9.830  0.3001  0.6008 -0.7496
  785MPD2    C211574   1.337   3.046   9.697  0.1329 -0.0164  0.0455
  785MPD2    C311575   1.436   3.037   9.602  0.2419 -0.8740  0.0718
  785MPD2    C411576   1.572   3.017   9.629  0.0831 -0.2222 -0.0404
  785MPD2    C511577   1.609   3.013   9.761 -0.1604 -0.0322 -0.6462
  785MPD2     H11578   1.237   3.058   9.659 -0.1997  0.4217  1.0674
  785MPD2    H111579   1.651   2.979   9.566 -0.3515  0.4250 -0.9757
  785MPD2    H211580   1.553   3.037   9.959 -1.6999 -2.0258  0.8242
  785MPD2    H311581   1.713   2.997   9.786 -0.4438  1.7679  1.6543
  785MPD2     N11582   1.399   3.025   9.466  0.7021 -0.2399  1.1249
  785MPD2    H511583   1.300   3.024   9.443  0.7379  0.5939  0.9539
  785MPD2    N111584   1.290   3.075   9.941  0.7987 -0.0483  0.6237
  785MPD2    H711585   1.323   3.080  10.037  1.2692 -0.1363  0.4679
  786MPD2     C11586   0.374   1.856  14.359 -0.5847  0.1669 -0.2256
  786MPD2    C111587   0.270   1.898  14.439 -0.5770  0.3604  0.0054
  786MPD2    C211588   0.301   1.942  14.566  0.2462  0.2783 -0.6455
  786MPD2    C311589   0.427   1.952  14.610  0.9022  0.2849 -0.2540
  786MPD2    C411590   0.532   1.911  14.531  0.1723  0.0663 -0.2036
  786MPD2    C511591   0.505   1.859  14.408  0.9302 -0.2651 -0.0387
  786MPD2     H11592   0.215   1.973  14.625  1.1015  2.8878 -0.7954
  786MPD2    H111593   0.630   1.932  14.572  0.4258 -0.3387 -0.5982
  786MPD2    H211594   0.363   1.819  14.258  0.3613 -0.5337 -0.0747
  786MPD2    H311595   0.584   1.830  14.339  0.6584 -0.4365 -0.2767
  786MPD2     N11596   0.459   1.983  14.747 -0.2017  0.4966 -0.0299
  786MPD2    H511597   0.554   1.969  14.780  0.2696  1.5621 -0.9154
  786MPD2    N111598   0.135   1.886  14.414  0.2991 -0.2854  0.1200
  786MPD2    H711599   0.064   1.910  14.482  1.5898 -1.6215  1.9557
  787MPD2     C11600   4.589   1.522  14.880 -0.4252  0.4875  0.0958
  787MPD2    C111601   4.629   1.493  14.749 -0.5319 -0.0374  0.2270
  787MPD2    C211602   0.014   1.422  14.734  0.4593  0.1269  0.2809
  787MPD2    C311603   0.082   1.362  14.841 -0.2954 -0.3300  0.4145
  787MPD2    C411604   0.040   1.386  14.968  0.5063 -0.7270 -0.4699
  787MPD2    C511605   4.657   1.466  14.986  0.0543  0.1541 -1.0162
  787MPD2     H11606   0.063   1.403  14.640 -0.8149 -2.3299  0.1099
  787MPD2    H111607   0.079   1.332  15.053  0.4688 -2.1272 -1.3507
  787MPD2    H211608   4.497   1.572  14.906 -0.8653  0.0554 -0.6405
  787MPD2    H311609   4.620   1.470  15.088  1.0559  1.3310 -0.6874
  787MPD2     N11610   0.197   1.280  14.818 -0.0561 -0.2644 -0.0165
  787MPD2    H511611   0.228   1.248  14.727 -0.0767 -0.2083 -0.0434
  787MPD2    N111612   4.563   1.562  14.641 -1.1867  0.3410  0.3598
  787MPD2    H711613   4.517   1.647  14.670 -0.8568  0.3374  0.9104
  788MPD2     C11614   2.097   4.512   0.880  1.1358  0.9540 -0.3995
  788MPD2    C111615   2.030   4.415   0.810 -0.2465 -0.1490  0.8142
  788MPD2    C211616   1.979   4.443   0.680  0.4030  0.4663 -0.3209
  788MPD2    C311617   1.998   4.564   0.621 -0.4980  0.0096 -1.1760
  788MPD2    C411618   2.068   4.665   0.689  0.5524  0.2300  0.0977
  788MPD2    C511619   2.111   4.635   0.819 -0.2566 -0.3035 -0.5147
  788MPD2     H11620   1.945   4.357   0.624 -0.2809 -1.0149  2.3494
  788MPD2    H111621   2.093   0.033   0.646  0.1198  1.1096  1.8039
  788MPD2    H211622   2.139   4.494   0.978  0.8081  2.3136 -0.0119
  788MPD2    H311623   2.166   4.721   0.856 -0.8577  1.1036 -2.9030
  788MPD2     N11624   1.948   4.596   0.491 -0.9173 -0.2802 -0.3822
  788MPD2    H511625   1.973   4.687   0.453 -0.9350 -0.9930 -2.0822
  788MPD2    N111626   2.017   4.284   0.859 -0.2812  0.0887  0.1230
  788MPD2    H711627   1.989   4.216   0.789 -0.3079  1.3238 -1.0488
  789MPD2     C11628   2.281   4.328  16.235  0.4005 -0.0644  0.3281
  789MPD2    C111629   2.187   4.304  16.336 -0.2521  0.3162  0.5849
  789MPD2    C211630   2.105   4.404  16.371 -0.2723  0.0255 -0.1439
  789MPD2    C311631   2.112   4.530  16.314  0.5301  0.0631 -0.1959
  789MPD2    C411632   2.196   4.547  16.208  0.4755  0.4097 -0.4560
  789MPD2    C511633   2.278   4.447  16.161 -0.9103 -0.6226  0.3987
  789MPD2     H11634   2.025   4.386  16.442  2.6630 -1.4543  2.7520
  789MPD2    H111635   2.191   4.639  16.152  1.2899  0.5893 -0.2426
  789MPD2    H211636   2.351   4.253  16.202  0.6612 -0.1338  1.0548
  789MPD2    H311637   2.346   4.461  16.078 -0.5500  2.0572  1.1806
  789MPD2     N11638   2.025   4.637  16.352 -0.0627  0.3666 -0.2761
  789MPD2    H511639   2.001   4.714  16.291  2.3104  1.4937  0.2253
  789MPD2    N111640   2.178   4.183  16.406  0.0956  1.2981 -0.2577
  789MPD2    H711641   2.106   4.170  16.476  1.6669  0.4766  1.1953
  790MPD2     C11642   2.978   1.701  13.746  0.2179 -0.0999 -0.2134
  790MPD2    C111643   3.027   1.584  13.705  0.3407 -0.5476 -0.6559
  790MPD2    C211644   3.026   1.549  13.570  0.7087 -0.6478 -0.2137
  790MPD2    C311645   2.952   1.625  13.479 -0.0490 -0.2583  0.3126
  790MPD2    C411646   2.900   1.749  13.521 -0.5541 -0.3386  0.4435
  790MPD2    C511647   2.921   1.785  13.655 -0.2220 -0.3756  0.0026
  790MPD2     H11648   3.053   1.449  13.537  1.5845 -0.2815 -0.5929
  790MPD2    H111649   2.850   1.814  13.450  0.6202 -1.1676 -1.1372
  790MPD2    H211650   2.987   1.729  13.850 -1.5184 -0.3863  0.0162
  790MPD2    H311651   2.879   1.877  13.693  1.4171  0.4886 -0.2403
  790MPD2     N11652   2.948   1.581  13.344  0.1261 -0.5024  0.5751
  790MPD2    H511653   3.000   1.498  13.318  1.3117  1.0115 -1.9599
  790MPD2    N111654   3.071   1.488  13.799 -0.0913 -0.4752  0.3422
  790MPD2    H711655   3.052   1.518  13.894 -1.7085 -0.9039  0.1527
  791MPD2     C11656   2.355   1.624  12.911 -0.4985 -0.4416 -0.3157
  791MPD2    C111657   2.433   1.525  12.854 -0.2142  0.7031  0.1386
  791MPD2    C211658   2.384   1.446  12.757  0.6352 -0.1649 -0.3533
  791MPD2    C311659   2.253   1.449  12.718 -0.0438  0.1768  0.2710
  791MPD2    C411660   2.177   1.555  12.766 -0.8137  0.7334 -0.1256
  791MPD2    C511661   2.233   1.637  12.858 -0.2872 -0.0462  0.3334
  791MPD2     H11662   2.453   1.372  12.717  2.2007  1.7333 -1.1899
  791MPD2    H111663   2.070   1.561  12.753 -1.1432 -2.1995  1.2295
  791MPD2    H211664   2.393   1.684  12.993 -3.6141  1.2593 -0.1065
  791MPD2    H311665   2.169   1.713  12.902  3.0186  1.8234  1.9354
  791MPD2     N11666   2.199   1.360  12.624 -0.3495 -0.1388  0.0486
  791MPD2    H511667   2.262   1.287  12.594 -0.8030 -0.6900  0.4409
  791MPD2    N111668   2.562   1.509  12.901 -0.4471 -0.2536  0.0825
  791MPD2    H711669   2.601   1.580  12.961  0.5697 -0.3022 -0.5045
  792MPD2     C11670   3.271   0.974  11.042  0.3712 -0.3345  0.4650
  792MPD2    C111671   3.185   1.075  11.015  0.3401 -0.1784 -0.4467
  792MPD2    C211672   3.048   1.044  11.025  0.1294  0.0994  0.0435
  792MPD2    C311673   3.002   0.916  11.055  0.3822  0.1222 -0.4497
  792MPD2    C411674   3.094   0.816  11.067  0.2879  0.0107 -0.3370
  792MPD2    C511675   3.230   0.845  11.057  0.3883  0.8386  0.8355
  792MPD2     H11676   2.976   1.122  11.000 -0.7074 -0.7688 -0.2811
  792MPD2    H111677   3.069   0.712  11.081 -0.8796  0.0829 -1.9149
  792MPD2    H211678   3.378   0.993  11.049  0.5752 -1.2343 -0.1005
  792MPD2    H311679   3.303   0.767  11.076 -0.3769 -0.3223 -0.9673
  792MPD2     N11680   2.865   0.876  11.067  0.7382 -0.3743  0.2635
  792MPD2    H511681   2.860   0.776  11.082  0.6647 -0.2832  0.8402
  792MPD2    N111682   3.238   1.201  10.970 -0.2182 -1.3857  0.2559
  792MPD2    H711683   3.338   1.210  10.982 -0.1575  0.4337 -1.6211
  793MPD2     C11684   2.428   0.915  10.229  0.4223  0.1425 -0.1222
  793MPD2    C111685   2.545   0.954  10.288  0.5635 -0.1033  0.7890
  793MPD2    C211686   2.572   0.936  10.419 -0.1475 -0.0816  0.9100
  793MPD2    C311687   2.475   0.874  10.497 -0.1649  0.2499  0.1518
  793MPD2    C411688   2.355   0.828  10.441 -0.0775 -0.0518  0.6734
  793MPD2    C511689   2.335   0.847  10.306 -0.3576 -0.3613  0.2840
  793MPD2     H11690   2.666   0.961  10.467  1.1381  1.3341 -2.3692
  793MPD2    H111691   2.280   0.776  10.499  0.0591 -0.1332  0.7794
  793MPD2    H211692   2.413   0.928  10.122 -0.5764  1.0177  0.1132
  793MPD2    H311693   2.236   0.821  10.270 -0.6431  0.1746  0.6777
  793MPD2     N11694   2.494   0.863  10.639 -0.1592 -0.6397 -0.3782
  793MPD2    H511695   2.585   0.905  10.660  0.2396 -1.2313 -0.9181
  793MPD2    N111696   2.652   1.009  10.214 -0.0174  0.5800  0.3669
  793MPD2    H711697   2.735   1.031  10.269  1.0992 -1.3844 -0.5489
  794MPD2     C11698   2.734   0.656  17.093  0.6254  0.2236 -0.2502
  794MPD2    C111699   2.613   0.637  17.154 -0.8259  0.4013  0.3861
  794MPD2    C211700   2.505   0.616  17.071  0.1604  0.0686 -0.7114
  794MPD2    C311701   2.518   0.644  16.933 -0.2119  0.3035 -0.1119
  794MPD2    C411702   2.643   0.669  16.882 -0.3745  0.2095 -0.8105
  794MPD2    C511703   2.756   0.672  16.961 -0.0593  0.9953 -0.6691
  794MPD2     H11704   2.408   0.591  17.114 -0.1658  3.4119  0.4869
  794MPD2    H111705   2.667   0.678  16.777  0.0211  1.4227 -0.6177
  794MPD2    H211706   2.825   0.664  17.153  2.1989  1.1831 -2.7724
  794MPD2    H311707   2.857   0.689  16.926 -0.3971 -0.5230 -2.3685
  794MPD2     N11708   2.421   0.659  16.836  0.8099  0.4086  0.4221
  794MPD2    H511709   2.442   0.688  16.742  0.0623  0.7527  0.3570
  794MPD2    N111710   2.593   0.638  17.293  0.1389  1.6042  0.0690
  794MPD2    H711711   2.499   0.630  17.332 -0.1907  2.9292 -0.4375
  795MPD2     C11712   0.188   3.048  13.721 -0.5522 -0.1432 -0.6527
  795MPD2    C111713   0.186   2.996  13.593 -0.0430 -0.9235  0.3996
  795MPD2    C211714   0.297   2.921  13.550  0.8177 -0.3066 -0.4442
  795MPD2    C311715   0.408   2.902  13.629 -0.1352  0.5764  1.1976
  795MPD2    C411716   0.398   2.938  13.760  0.0663 -0.0313 -0.9185
  795MPD2    C511717   0.288   3.010  13.815 -0.2822  0.1697 -0.0820
  795MPD2     H11718   0.293   2.897  13.445  0.9247  2.5103 -1.0777
  795MPD2    H111719   0.487   2.911  13.817 -0.7056 -0.5310  0.0614
  795MPD2    H211720   0.104   3.104  13.760 -0.1997  0.7970 -1.2604
  795MPD2    H311721   0.286   3.050  13.916 -0.6707 -2.3770  0.9327
  795MPD2     N11722   0.525   2.843  13.579  0.1155 -0.1685 -0.3979
  795MPD2    H511723   0.598   2.831  13.648 -1.1344 -1.9219  0.6265
  795MPD2    N111724   0.070   3.018  13.514  0.2201  0.5712 -0.1921
  795MPD2    H711725   0.049   2.957  13.436 -0.4038  0.6770 -0.1108
  796MPD2     C11726   4.533   4.156  15.796 -0.3359 -0.3607  0.1267
  796MPD2    C111727   4.610   4.234  15.878  0.3092 -0.6460  0.0391
  796MPD2    C211728   4.606   4.373  15.864 -0.3220  0.2080 -0.5014
  796MPD2    C311729   4.515   4.430  15.777  0.2375 -0.3689 -0.6001
  796MPD2    C411730   4.440   4.345  15.693 -0.3064  0.2452 -0.3920
  796MPD2    C511731   4.443   4.211  15.710  0.0012  0.5940  0.4938
  796MPD2     H11732   4.668   4.435  15.927 -2.8202  0.5765  1.6000
  796MPD2    H111733   4.381   4.385  15.611 -2.6495 -2.5128 -0.0410
  796MPD2    H211734   4.536   4.048  15.798 -0.6931 -0.3041  2.9965
  796MPD2    H311735   4.387   4.153  15.637 -0.2780  0.5039  0.7788
  796MPD2     N11736   4.507   4.571  15.771  0.0344  0.1531 -0.0107
  796MPD2    H511737   4.571   4.620  15.833 -0.5870  2.7207 -1.3867
  796MPD2    N111738   4.692   4.165  15.970 -0.2270  0.1452  0.1450
  796MPD2    H711739   4.686   4.064  15.979  0.2011  0.1254  0.2247
  797MPD2     C11740   0.880   3.506  17.252  0.1616  0.7097  0.7227
  797MPD2    C111741   0.937   3.605  17.327 -0.0426  0.0940  0.4145
  797MPD2    C211742   0.867   3.716  17.356  0.1910  0.1481  0.0190
  797MPD2    C311743   0.743   3.733  17.292 -0.3843  0.2224  0.2239
  797MPD2    C411744   0.689   3.640  17.207  0.4476  0.2735  0.1542
  797MPD2    C511745   0.759   3.526  17.194  0.2167  0.4168 -0.1564
  797MPD2     H11746   0.912   3.797  17.411  0.9721  0.2596 -0.7870
  797MPD2    H111747   0.597   3.652  17.151 -0.3332 -0.6193  1.2370
  797MPD2    H211748   0.928   3.413  17.224  1.2420  1.7045 -0.6998
  797MPD2    H311749   0.716   3.448  17.133 -0.1342  0.3048  0.2288
  797MPD2     N11750   0.680   3.856  17.310  0.5640  0.0141 -0.4011
  797MPD2    H511751   0.721   3.923  17.374 -0.2306 -0.1081  0.2405
  797MPD2    N111752   1.071   3.615  17.377 -0.9780 -0.0990  0.3598
  797MPD2    H711753   1.104   3.698  17.425 -0.1927  0.8087 -1.7270
  798MPD2     C11754   1.126   4.359  17.376 -0.3505  0.2774 -0.6354
  798MPD2    C111755   1.045   4.250  17.396 -0.5184 -0.1034  0.7634
  798MPD2    C211756   1.109   4.123  17.397  1.5840 -0.6497 -0.1983
  798MPD2    C311757   1.242   4.107  17.392 -0.5631  0.6201 -0.4504
  798MPD2    C411758   1.325   4.218  17.366  0.1428  0.4473  0.0260
  798MPD2    C511759   1.260   4.339  17.356  0.4112 -0.1050 -0.3062
  798MPD2     H11760   1.053   4.031  17.410  1.1547 -0.1671  1.3545
  798MPD2    H111761   1.429   4.212  17.335 -0.2732 -1.0409 -1.0729
  798MPD2    H211762   1.086   4.457  17.354 -2.2902 -0.9466 -2.5647
  798MPD2    H311763   1.319   4.423  17.322  0.9761  0.3058  1.6620
  798MPD2     N11764   1.290   3.976  17.384 -0.5219 -0.3568 -0.3593
  798MPD2    H511765   1.223   3.902  17.401 -2.0429  1.5848  2.0773
  798MPD2    N111766   0.904   4.267  17.383  0.1123  0.0277 -0.3505
  798MPD2    H711767   0.862   4.358  17.367  1.1470  0.7804  1.1902
  799MPD2     C11768   0.078   0.799  15.007 -0.6279 -0.7075 -0.0092
  799MPD2    C111769   0.048   0.724  14.900 -0.4764  1.0516  0.5355
  799MPD2    C211770   4.700   0.779  14.795  0.0226 -0.4648  0.5924
  799MPD2    C311771   4.677   0.912  14.794  0.6589 -0.4505  0.0101
  799MPD2    C411772   4.707   0.988  14.903 -0.0860 -0.3890 -0.1806
  799MPD2    C511773   0.040   0.930  15.011 -0.0408  0.0905  0.2007
  799MPD2     H11774   4.683   0.703  14.720  2.1270  0.4784 -0.8196
  799MPD2    H111775   4.677   1.092  14.916  0.2735 -0.1318 -1.4001
  799MPD2    H211776   0.143   0.764  15.086  0.3915 -0.1099 -0.5917
  799MPD2    H311777   0.073   0.993  15.092 -1.2000 -1.4743  1.8911
  799MPD2     N11778   4.609   0.971  14.687 -0.2059  0.2058  0.3658
  799MPD2    H511779   4.616   1.072  14.678 -2.0726  0.3754  0.9143
  799MPD2    N111780   0.090   0.589  14.890 -0.1946 -0.4807 -0.3097
  799MPD2    H711781   0.079   0.548  14.797 -2.6570 -0.3126 -0.0926
  800MPD2     C11782   0.609   2.619  14.059  0.5360 -0.3484 -0.1929
  800MPD2    C111783   0.660   2.506  13.995  0.5617 -0.7251 -0.4906
  800MPD2    C211784   0.578   2.399  13.982  0.0154  0.6777  0.3184
  800MPD2    C311785   0.446   2.396  14.025  0.5845  0.6219  0.3730
  800MPD2    C411786   0.393   2.513  14.079 -0.3257  0.0236  0.1487
  800MPD2    C511787   0.475   2.621  14.090 -0.2031 -0.0231 -0.4821
  800MPD2     H11788   0.621   2.313  13.932  1.3567  0.6908  1.4792
  800MPD2    H111789   0.285   2.519  14.086 -0.4630 -1.5698 -0.5333
  800MPD2    H211790   0.659   2.715  14.054 -1.7491  0.7599 -1.3917
  800MPD2    H311791   0.437   2.719  14.115  0.3321  0.5151 -1.8315
  800MPD2     N11792   0.370   2.275  14.011  0.1630  0.0844  0.1409
  800MPD2    H511793   0.428   2.195  13.990  2.3263  1.4771  0.9251
  800MPD2    N111794   0.791   2.521  13.937 -0.3677  0.0987  0.1895
  800MPD2    H711795   0.824   2.617  13.937  0.7521 -0.2878 -0.8588
  801MPD2     C11796   0.836   2.987  14.106  1.1904  0.1310 -0.5197
  801MPD2    C111797   0.877   2.868  14.165  0.1921 -0.3645 -0.0720
  801MPD2    C211798   0.804   2.811  14.272 -0.5489  0.9025 -0.3908
  801MPD2    C311799   0.692   2.871  14.315 -0.5222 -0.0421 -0.0660
  801MPD2    C411800   0.650   2.988  14.253  0.1582  0.2380 -1.1326
  801MPD2    C511801   0.721   3.050  14.154  0.0802 -0.5320 -0.5355
  801MPD2     H11802   0.843   2.725  14.326 -0.5635 -1.0674 -3.5082
  801MPD2    H111803   0.560   3.035  14.289 -0.8090 -2.8934  0.4349
  801MPD2    H211804   0.890   3.037  14.027 -0.6848 -2.1090 -3.2312
  801MPD2    H311805   0.691   3.146  14.112  2.0552 -0.5703 -2.0325
  801MPD2     N11806   0.617   2.793  14.411  0.3763  0.5807  0.5752
  801MPD2    H511807   0.659   2.711  14.453 -2.3205 -0.9696  0.2097
  801MPD2    N111808   0.985   2.791  14.117  0.7122 -0.0218 -0.1040
  801MPD2    H711809   1.014   2.711  14.172  0.3451 -1.6055 -2.2175
  802MPD2     C11810   4.130   2.771  16.959 -0.5460 -0.8548 -0.8132
  802MPD2    C111811   4.213   2.716  17.057  0.8109  0.4284  0.5606
  802MPD2    C211812   4.222   2.579  17.067  0.2793  0.8237 -0.4508
  802MPD2    C311813   4.158   2.490  16.987 -0.0767  0.3933  0.3627
  802MPD2    C411814   4.074   2.549  16.889 -0.8357  0.7832  0.1301
  802MPD2    C511815   4.072   2.690  16.874 -0.4490  0.0004  0.3329
  802MPD2     H11816   4.292   2.541  17.141 -0.1444  1.2973  0.1875
  802MPD2    H111817   4.017   2.497  16.813 -1.1026 -0.5420  1.2437
  802MPD2    H211818   4.125   2.878  16.945  0.5166 -0.3378  2.8182
  802MPD2    H311819   4.002   2.740  16.809  2.0169  2.7491 -0.1911
  802MPD2     N11820   4.187   2.353  17.007 -0.1914  0.4212 -0.5146
  802MPD2    H511821   4.267   2.330  17.065 -0.8373 -1.6641 -0.4510
  802MPD2    N111822   4.288   2.787  17.145 -0.3826  0.0047  0.2896
  802MPD2    H711823   4.351   2.735  17.206  0.1061 -1.1475 -1.1928
  803MPD2     C11824   0.587   1.637  11.664 -0.3542  0.5321 -0.1041
  803MPD2    C111825   0.713   1.648  11.714 -0.0549 -0.4369  0.1764
  803MPD2    C211826   0.757   1.554  11.807 -0.4703 -0.1490  0.5062
  803MPD2    C311827   0.689   1.434  11.832  0.7492  0.4802 -0.4480
  803MPD2    C411828   0.565   1.419  11.773 -0.5391 -0.0451 -0.8132
  803MPD2    C511829   0.509   1.529  11.707  0.7693  0.3061  0.5761
  803MPD2     H11830   0.857   1.561  11.850  0.0745  0.6665 -0.8953
  803MPD2    H111831   0.501   1.332  11.785 -1.1420  0.8750  2.6744
  803MPD2    H211832   0.542   1.711  11.599 -1.1064  0.7456  0.6673
  803MPD2    H311833   0.406   1.524  11.672  1.0677  0.7416 -0.3758
  803MPD2     N11834   0.743   1.325  11.906  0.0370 -0.7043 -0.8906
  803MPD2    H511835   0.683   1.243  11.909 -0.2722 -0.4345  0.5100
  803MPD2    N111836   0.787   1.760  11.694 -0.8511 -0.0100 -0.8782
  803MPD2    H711837   0.880   1.751  11.734 -1.2296 -2.0698 -0.4335
  804MPD2     C11838   0.436   2.429  16.683  0.0967  0.0024 -0.1961
  804MPD2    C111839   0.374   2.386  16.802 -0.3278  0.0962  0.1173
  804MPD2    C211840   0.389   2.466  16.917 -0.0379  0.6182 -0.1208
  804MPD2    C311841   0.452   2.588  16.905  0.7472 -1.0043  0.2475
  804MPD2    C411842   0.523   2.622  16.789 -0.4096 -0.3515  0.3373
  804MPD2    C511843   0.509   2.541  16.685 -0.5573  0.2603  0.1713
  804MPD2     H11844   0.357   2.443  17.018 -0.6876  0.9300 -0.2605
  804MPD2    H111845   0.580   2.712  16.771  0.3918 -0.6199  1.5031
  804MPD2    H211846   0.429   2.379  16.588 -1.9139 -2.1801  1.1052
  804MPD2    H311847   0.559   2.566  16.592  0.1064 -0.2187  0.4010
  804MPD2     N11848   0.460   2.679  17.011  1.4563 -0.5210  0.5754
  804MPD2    H511849   0.519   2.760  16.994  1.7315 -1.1108 -1.2564
  804MPD2    N111850   0.300   2.268  16.823 -0.0274 -0.3765  0.1340
  804MPD2    H711851   0.268   2.251  16.918  0.9764 -0.0461  0.5232
  805MPD2     C11852   4.394   0.857  15.326  0.5338  0.2824 -0.2643
  805MPD2    C111853   4.508   0.818  15.260 -0.2028  0.5115 -0.8531
  805MPD2    C211854   4.640   0.848  15.300 -0.3352  0.1657  0.0194
  805MPD2    C311855   4.662   0.909  15.422  0.0694  0.2129  0.2786
  805MPD2    C411856   4.552   0.950  15.490 -0.3068 -0.2787 -0.4819
  805MPD2    C511857   4.424   0.917  15.444  0.1403 -0.5385 -0.0880
  805MPD2     H11858   4.720   0.802  15.243 -1.2875  1.2887 -2.2220
  805MPD2    H111859   4.566   1.019  15.572 -1.0447 -1.3676  0.5705
  805MPD2    H211860   4.294   0.856  15.284  0.4370  1.5533 -0.0643
  805MPD2    H311861   4.343   0.978  15.482  1.3284 -0.0025  1.5720
  805MPD2     N11862   0.066   0.931  15.472 -0.0265 -0.5140  0.3999
  805MPD2    H511863   0.142   0.889  15.419  0.5779 -0.4388  1.2216
  805MPD2    N111864   4.498   0.743  15.136 -0.0408 -0.3020 -0.0410
  805MPD2    H711865   4.586   0.704  15.106  0.4758 -1.2703  2.7409
  806MPD2     C11866   0.231   0.277   0.432  1.5123  0.4008  0.1181
  806MPD2    C111867   0.366   0.288   0.433 -0.1091  0.1890 -0.1963
  806MPD2    C211868   0.432   0.279   0.310 -0.0453 -0.6094 -0.3655
  806MPD2    C311869   0.358   0.260   0.189  0.4467 -0.4731  0.8400
  806MPD2    C411870   0.225   0.251   0.190 -0.7045  0.8215  0.0996
  806MPD2    C511871   0.165   0.258   0.315 -0.5439  0.2025 -0.3480
  806MPD2     H11872   0.540   0.281   0.301 -0.1727 -0.7396 -1.9205
  806MPD2    H111873   0.161   0.233   0.105  0.0771 -0.8059 -0.1496
  806MPD2    H211874   0.174   0.288   0.523 -0.4161  0.1463 -1.0439
  806MPD2    H311875   0.058   0.247   0.330  0.1036 -3.6491  1.5287
  806MPD2     N11876   0.432   0.265   0.070  0.0338 -0.4634 -0.3064
  806MPD2    H511877   0.524   0.306   0.081  0.4555 -1.8129  1.1226
  806MPD2    N111878   0.428   0.307   0.558  0.7516 -0.0285 -0.1851
  806MPD2    H711879   0.371   0.308   0.642 -1.6323  0.7609 -1.8157
  807MPD2     C11880   0.258   0.138   1.267  0.0538 -0.3748  0.4978
  807MPD2    C111881   0.398   0.117   1.267  0.4501  0.2190 -0.5385
  807MPD2    C211882   0.446   0.068   1.391 -0.1935 -0.7216 -0.3418
  807MPD2    C311883   0.365   0.042   1.499 -0.4013  0.0119 -1.4373
  807MPD2    C411884   0.234   0.074   1.500  0.3393 -1.0256 -0.7091
  807MPD2    C511885   0.185   0.122   1.383 -0.5059 -0.1203  0.1684
  807MPD2     H11886   0.552   0.044   1.397  0.0746  0.6042  0.1290
  807MPD2    H111887   0.169   0.056   1.584  0.7633 -0.0299 -0.1669
  807MPD2    H211888   0.200   0.182   1.186 -0.3222 -2.4115 -0.3434
  807MPD2    H311889   0.078   0.136   1.373 -0.5623 -1.3988 -1.0882
  807MPD2     N11890   0.423   4.704   1.614  0.8528  0.4470 -0.1705
  807MPD2    H511891   0.521   4.679   1.610  0.8562  0.5097 -0.5070
  807MPD2    N111892   0.473   0.132   1.147  0.2641  0.5428  0.9267
  807MPD2    H711893   0.564   0.087   1.146  0.0984  0.2049  1.2603
  808MPD2     C11894   0.795   1.350  10.369  0.6756 -0.0774 -0.2125
  808MPD2    C111895   0.705   1.457  10.332 -0.1399  0.0376 -0.3256
  808MPD2    C211896   0.746   1.584  10.307  0.4213  0.9461 -0.2636
  808MPD2    C311897   0.882   1.613  10.318 -0.3099  0.3583  0.5880
  808MPD2    C411898   0.963   1.499  10.319  0.0718  0.2160  0.5266
  808MPD2    C511899   0.927   1.376  10.358 -0.2007  0.2461 -0.4093
  808MPD2     H11900   0.671   1.660  10.289  1.9569  2.6750  0.5805
  808MPD2    H111901   1.069   1.523  10.317  0.0138  0.6203  2.6004
  808MPD2    H211902   0.765   1.253  10.408  1.7580 -0.6684 -0.8643
  808MPD2    H311903   1.002   1.298  10.365 -0.9661 -0.3569  1.0434
  808MPD2     N11904   0.938   1.744  10.298 -0.1437  0.3651  0.4443
  808MPD2    H511905   1.038   1.748  10.282  0.0021 -0.4895  1.0926
  808MPD2    N111906   0.564   1.437  10.314  0.1191  0.0965 -0.9929
  808MPD2    H711907   0.510   1.522  10.299 -1.9389 -1.0659 -0.0326
  809MPD2     C11908   1.753   1.942   9.843 -0.2866  1.5044 -0.3930
  809MPD2    C111909   1.675   1.841   9.895 -0.2487 -0.5916  0.0016
  809MPD2    C211910   1.558   1.866   9.956  0.0694 -0.2810 -0.4257
  809MPD2    C311911   1.511   1.999   9.973 -0.2431 -0.4152  0.0200
  809MPD2    C411912   1.592   2.103   9.936  0.3618  0.1301  0.0521
  809MPD2    C511913   1.707   2.070   9.867  0.0030 -0.1925 -0.1243
  809MPD2     H11914   1.492   1.784   9.982 -3.6910  2.8677 -0.0598
  809MPD2    H111915   1.552   2.203   9.947  1.3518  0.5843 -0.4870
  809MPD2    H211916   1.842   1.928   9.783 -1.5034 -0.7740 -1.6443
  809MPD2    H311917   1.760   2.153   9.823 -0.0680 -1.1359 -2.0320
  809MPD2     N11918   1.390   2.034  10.034 -0.9754 -1.2149  0.1345
  809MPD2    H511919   1.372   2.134  10.037  0.5742 -0.8887 -1.6714
  809MPD2    N111920   1.714   1.704   9.886  0.4070 -0.7393 -0.1503
  809MPD2    H711921   1.653   1.637   9.932  0.8920 -0.0245  1.5128
  810MPD2     C11922   0.576   1.402  10.676  0.5305  0.0607 -0.2940
  810MPD2    C111923   0.443   1.414  10.659 -0.6700 -0.5660  0.3403
  810MPD2    C211924   0.391   1.545  10.648 -0.8133  0.0486  0.3980
  810MPD2    C311925   0.473   1.658  10.646  0.0120  1.0742 -0.2633
  810MPD2    C411926   0.608   1.635  10.658 -0.4608 -0.0746  0.2882
  810MPD2    C511927   0.663   1.506  10.668 -0.0938 -0.4293 -0.4023
  810MPD2     H11928   0.284   1.560  10.637 -1.0879 -2.7871 -0.7000
  810MPD2    H111929   0.680   1.716  10.657 -1.2369  0.6208  0.6943
  810MPD2    H211930   0.618   1.304  10.692 -1.6348 -0.6227  1.2521
  810MPD2    H311931   0.771   1.503  10.676 -0.2799 -1.9373  1.7265
  810MPD2     N11932   0.414   1.789  10.633 -0.0386 -0.0966 -0.5492
  810MPD2    H511933   0.484   1.863  10.630  1.1530 -1.2302 -0.7001
  810MPD2    N111934   0.363   1.301  10.653 -1.0928 -0.0288  0.6784
  810MPD2    H711935   0.411   1.212  10.664  2.0590  1.5724 -0.2686
  811MPD2     C11936   4.385   1.098  10.154  0.1024 -0.7524 -0.1700
  811MPD2    C111937   4.464   1.176  10.230  0.0464  0.1061 -0.4836
  811MPD2    C211938   4.490   1.308  10.185 -0.4511  0.0684 -0.6431
  811MPD2    C311939   4.435   1.356  10.074 -0.1277 -0.5366 -0.5354
  811MPD2    C411940   4.354   1.276   9.995 -0.2515 -0.0379  0.0578
  811MPD2    C511941   4.338   1.144  10.031 -0.8884 -0.1846  0.3982
  811MPD2     H11942   4.562   1.370  10.236  1.4612 -0.5540 -2.6390
  811MPD2    H111943   4.301   1.302   9.904  0.4042  1.8252  0.2116
  811MPD2    H211944   4.354   1.005  10.198  3.0237 -2.3372 -1.4425
  811MPD2    H311945   4.269   1.081   9.977  1.8560 -0.8536 -2.3158
  811MPD2     N11946   4.488   1.485  10.032 -0.3982  0.1612 -0.0572
  811MPD2    H511947   4.563   1.527  10.085 -0.6502  2.0336 -1.1781
  811MPD2    N111948   4.528   1.118  10.343  0.0658  0.2773  0.7421
  811MPD2    H711949   4.535   1.017  10.354 -0.5804  0.5442  3.5651
  812MPD2     C11950   3.899   1.466  12.094 -0.1081  0.2092 -0.7625
  812MPD2    C111951   3.780   1.499  12.144  0.0689  0.1824 -0.7661
  812MPD2    C211952   3.730   1.427  12.254 -0.5889 -0.1875 -0.5120
  812MPD2    C311953   3.806   1.329  12.312  0.4164 -0.8005  0.5922
  812MPD2    C411954   3.928   1.295  12.258 -0.4080 -0.6784 -0.3383
  812MPD2    C511955   3.976   1.372  12.156 -0.8017 -0.7302  0.1096
  812MPD2     H11956   3.635   1.456  12.296 -0.1894 -0.1506  0.3762
  812MPD2    H111957   3.986   1.217  12.308  0.5279 -1.5244 -2.7611
  812MPD2    H211958   3.942   1.517  12.008 -0.2144 -2.0906 -2.1870
  812MPD2    H311959   4.074   1.353  12.115  0.3921  1.5077  1.9085
  812MPD2     N11960   3.744   1.252  12.413  0.1105  0.5823  0.1652
  812MPD2    H511961   3.650   1.284  12.434 -0.1424  0.4753 -0.7891
  812MPD2    N111962   3.713   1.607  12.082  0.7396  0.1828  0.0520
  812MPD2    H711963   3.767   1.662  12.016  1.7436  1.0993  1.6236
  813MPD2     C11964   2.201   3.263  12.690 -0.1023 -0.1159  0.0931
  813MPD2    C111965   2.240   3.382  12.748  0.1640  0.3398 -0.1339
  813MPD2    C211966   2.173   3.428  12.861  0.0787 -0.1175  0.2012
  813MPD2    C311967   2.061   3.368  12.907  0.1731 -0.1573 -0.2203
  813MPD2    C411968   2.012   3.254  12.840  0.0600 -0.0432  0.0155
  813MPD2    C511969   2.088   3.206  12.736 -0.2526  0.0262  0.3293
  813MPD2     H11970   2.208   3.517  12.912 -0.6721  1.1202 -1.4289
  813MPD2    H111971   1.924   3.201  12.875 -1.1406  0.6919 -1.8625
  813MPD2    H211972   2.259   3.212  12.614 -0.3182  1.2797 -1.0134
  813MPD2    H311973   2.059   3.121  12.676 -1.3637  1.1056 -0.6643
  813MPD2     N11974   2.003   3.424  13.021  0.3139 -0.2200 -0.0666
  813MPD2    H511975   2.048   3.508  13.056  1.1150 -0.4056 -0.6417
  813MPD2    N111976   2.360   3.429  12.691 -0.7938  0.4042 -0.2106
  813MPD2    H711977   2.397   3.380  12.610  0.9914  0.5550  0.5185
  814MPD2     C11978   3.150   4.146  12.216 -0.0254  0.0415  0.3075
  814MPD2    C111979   3.192   4.258  12.153 -0.2111  0.7019 -0.0594
  814MPD2    C211980   3.279   4.342  12.215 -0.2852  0.1762 -0.3865
  814MPD2    C311981   3.308   4.326  12.349 -0.6006 -0.0223 -0.6839
  814MPD2    C411982   3.258   4.211  12.409  0.9689 -0.7896 -0.0541
  814MPD2    C511983   3.184   4.121  12.344  0.0664  0.2472 -0.6334
  814MPD2     H11984   3.327   4.413  12.148  0.5853 -0.7101 -0.7055
  814MPD2    H111985   3.281   4.182  12.511 -1.7443 -0.1227  0.7664
  814MPD2    H211986   3.078   4.077  12.173  0.6302 -0.3207 -0.2174
  814MPD2    H311987   3.166   4.033  12.405 -0.6389  1.2302  0.5676
  814MPD2     N11988   3.390   4.414  12.425 -0.0416 -0.1548  0.7605
  814MPD2    H511989   3.384   4.419  12.527 -0.8905 -1.8376  0.7824
  814MPD2    N111990   3.147   4.288  12.028 -0.1182  0.2541  0.0515
  814MPD2    H711991   3.195   4.365  11.983  0.1634  1.6619  2.7579
  815MPD2     C11992   3.886   1.967  12.153 -0.2608  0.0296  0.3276
  815MPD2    C111993   3.823   2.062  12.072  0.3296 -0.1603  0.4771
  815MPD2    C211994   3.701   2.111  12.108 -0.3372  0.7212 -0.5977
  815MPD2    C311995   3.638   2.052  12.214  0.1204  0.1466  1.1455
  815MPD2    C411996   3.690   1.952  12.287  0.3433  0.2291 -0.3476
  815MPD2    C511997   3.822   1.920  12.265 -0.7554 -0.2818  0.3757
  815MPD2     H11998   3.650   2.192  12.058  0.8577  1.8296 -0.0056
  815MPD2    H111999   3.652   1.916  12.382  1.6725  1.1776  0.5539
  815MPD2    H212000   3.986   1.930  12.133 -0.0573 -0.2159  1.7873
  815MPD2    H312001   3.873   1.848  12.328 -0.1884 -0.9361 -0.8296
  815MPD2     N12002   3.505   2.092  12.246 -0.0044  0.0133  0.2659
  815MPD2    H512003   3.487   2.183  12.206 -1.1919  0.8704  2.7875
  815MPD2    N112004   3.891   2.089  11.955  0.5521  0.0066  0.0902
  815MPD2    H712005   3.977   2.038  11.942  0.9072  0.7295 -0.4165
  816MPD2     C12006   3.488   1.559  17.165  0.1229 -0.0692  0.6144
  816MPD2    C112007   3.505   1.661  17.080 -0.2333 -0.1277 -0.0714
  816MPD2    C212008   3.611   1.666  16.984  0.1263  0.2146 -0.2360
  816MPD2    C312009   3.690   1.553  16.976 -0.1942 -1.2966 -0.3847
  816MPD2    C412010   3.669   1.443  17.054  0.8090  0.2430 -1.6893
  816MPD2    C512011   3.570   1.448  17.154  0.0152 -0.2008 -0.2028
  816MPD2     H12012   3.625   1.753  16.921  0.5579  0.0339 -0.3867
  816MPD2    H112013   3.729   1.353  17.040 -0.9345 -0.8018 -2.4972
  816MPD2    H212014   3.407   1.552  17.236  0.1332  0.9724  0.7225
  816MPD2    H312015   3.550   1.358  17.210 -0.4002 -0.8785 -1.4539
  816MPD2     N12016   3.795   1.555  16.878 -0.2094 -0.2380 -0.1437
  816MPD2    H512017   3.770   1.611  16.797  0.8526  1.1149  0.4578
  816MPD2    N112018   3.415   1.768  17.096  0.2103  0.0370 -0.2641
  816MPD2    H712019   3.351   1.766  17.174 -0.5062 -0.3516 -0.8691
  817MPD2     C12020   2.731   3.601  10.049  0.6245  0.8447  0.8765
  817MPD2    C112021   2.822   3.605   9.940 -0.0877 -0.5109  0.4850
  817MPD2    C212022   2.854   3.727   9.884  0.0534  0.4483 -1.1944
  817MPD2    C312023   2.809   3.849   9.942 -0.0709 -0.0831 -0.4134
  817MPD2    C412024   2.719   3.843  10.049 -0.0210  0.3396 -0.3340
  817MPD2    C512025   2.687   3.722  10.100  0.9371  0.3195  0.0588
  817MPD2     H12026   2.929   3.736   9.806  0.7144  0.1407 -0.5910
  817MPD2    H112027   2.676   3.920  10.112  0.5302  1.7500 -1.6848
  817MPD2    H212028   2.700   3.512  10.104 -0.9590  0.4840 -0.5767
  817MPD2    H312029   2.634   3.724  10.195  0.9124  0.4144  0.0427
  817MPD2     N12030   2.870   3.966   9.898 -0.1210 -0.6722  0.2888
  817MPD2    H512031   2.956   3.949   9.847 -0.5914 -0.5042 -0.5751
  817MPD2    N112032   2.882   3.488   9.883 -0.3808  0.1804  0.3890
  817MPD2    H712033   2.933   3.492   9.795  1.4888  0.1286  1.4645
  818MPD2     C12034   2.044   3.645   9.812  0.3833  0.4145 -0.4705
  818MPD2    C112035   2.059   3.604   9.941  0.1393  0.3942  0.4444
  818MPD2    C212036   2.114   3.482   9.969  0.3706  0.1956  0.3000
  818MPD2    C312037   2.134   3.390   9.869  0.8640 -0.9648 -0.1688
  818MPD2    C412038   2.125   3.431   9.737 -0.5400 -0.3223  0.6991
  818MPD2    C512039   2.074   3.556   9.710  0.6142 -0.7974 -0.5884
  818MPD2     H12040   2.135   3.449  10.071 -0.3743 -0.7252  0.1575
  818MPD2    H112041   2.148   3.366   9.653  0.1084 -0.8105  1.2493
  818MPD2    H212042   2.003   3.742   9.788  0.4834  0.7941  0.8983
  818MPD2    H312043   2.052   3.587   9.608  0.9338  0.8998 -0.1368
  818MPD2     N12044   2.175   3.258   9.884  0.5669 -0.1727  0.3859
  818MPD2    H512045   2.188   3.201   9.801 -2.1191 -0.7815  0.3920
  818MPD2    N112046   1.992   3.662  10.050 -0.0713  0.2464  0.0562
  818MPD2    H712047   1.999   3.617  10.141  1.6290  0.0704 -0.1630
  819MPD2     C12048   0.473   0.239  15.374 -0.1349 -0.8707 -0.1401
  819MPD2    C112049   0.466   0.127  15.457 -0.4342 -0.0894 -0.5053
  819MPD2    C212050   0.581   0.076  15.506 -0.4211  0.0643 -0.0851
  819MPD2    C312051   0.701   0.120  15.457  0.8217 -0.6514  0.4264
  819MPD2    C412052   0.709   0.220  15.361  0.0655  0.3239  0.2814
  819MPD2    C512053   0.592   0.279  15.322 -0.4538 -0.1005  0.1140
  819MPD2     H12054   0.586   4.725  15.581 -0.2779  0.8544  0.7306
  819MPD2    H112055   0.802   0.253  15.317  0.3949 -1.7624 -0.5834
  819MPD2    H212056   0.384   0.291  15.339  0.6145  2.2337  2.5605
  819MPD2    H312057   0.596   0.361  15.252  0.7066  0.8703  1.3213
  819MPD2     N12058   0.816   0.054  15.510  0.0390  0.1790 -0.5460
  819MPD2    H512059   0.801   4.708  15.579  0.4808 -0.5580 -1.2334
  819MPD2    N112060   0.341   0.071  15.484 -0.0348  0.4077 -0.4071
  819MPD2    H712061   0.261   0.131  15.468 -0.4955  0.2840  1.3470
  820MPD2     C12062   4.320   4.724  14.927  0.5719  0.3673  0.2977
  820MPD2    C112063   4.401   0.090  14.987 -0.2512  0.3030  0.2153
  820MPD2    C212064   4.471   0.056  15.105 -0.3065  0.6840 -0.0317
  820MPD2    C312065   4.451   4.662  15.168 -0.0452 -0.7554 -0.5062
  820MPD2    C412066   4.364   4.576  15.112  0.9080 -0.3369  0.2574
  820MPD2    C512067   4.309   4.600  14.987  0.8164 -0.3872  0.1132
  820MPD2     H12068   4.534   0.126  15.158  1.0963 -1.8274  1.6673
  820MPD2    H112069   4.357   4.474  15.149 -0.7649 -0.9047 -1.6336
  820MPD2    H212070   4.284   0.016  14.827  0.1370 -1.1165  0.1709
  820MPD2    H312071   4.249   4.519  14.948  0.5944 -1.1974  2.1407
  820MPD2     N12072   4.520   4.621  15.284 -0.1912  0.1300  0.2950
  820MPD2    H512073   4.512   4.520  15.294  1.8615  0.0943  1.7017
  820MPD2    N112074   4.427   0.210  14.919 -0.1507 -0.0692 -0.2614
  820MPD2    H712075   4.365   0.227  14.840  0.0928  0.5198 -0.3224
  821MPD2     C12076   4.545   2.267  13.487  0.2291 -0.4973 -0.6332
  821MPD2    C112077   4.671   2.208  13.499 -0.6724  0.1926  0.0995
  821MPD2    C212078   0.030   2.214  13.390  0.2325 -0.3227  0.5012
  821MPD2    C312079   4.720   2.269  13.268  0.5367 -0.3691 -0.3554
  821MPD2    C412080   4.596   2.325  13.258  0.6109 -0.2134 -0.2529
  821MPD2    C512081   4.514   2.323  13.366  0.4473 -0.3493  0.2834
  821MPD2     H12082   0.133   2.182  13.395 -0.5632 -3.0626 -0.5115
  821MPD2    H112083   4.563   2.390  13.177 -1.9626 -1.9150 -0.5449
  821MPD2    H212084   4.484   2.272  13.576  0.3085  2.9228 -0.7585
  821MPD2    H312085   4.423   2.382  13.355 -0.8008 -2.3412 -0.1254
  821MPD2     N12086   0.079   2.259  13.153  0.5120 -0.1280 -0.3354
  821MPD2    H512087   0.066   2.333  13.084 -1.7085 -0.3231 -0.1480
  821MPD2    N112088   4.713   2.152  13.620 -0.5107 -0.9585  0.0054
  821MPD2    H712089   4.652   2.157  13.701  0.0780  0.9251  0.3125
  822MPD2     C12090   1.251   1.974  15.754  0.3147 -0.4535  0.2661
  822MPD2    C112091   1.154   1.893  15.808 -0.4069 -1.2206 -0.9058
  822MPD2    C212092   1.039   1.962  15.847 -0.5263 -0.3524  0.4089
  822MPD2    C312093   1.030   2.099  15.855 -0.5332  0.1169 -0.3501
  822MPD2    C412094   1.128   2.175  15.804  0.3462  0.1025 -0.2321
  822MPD2    C512095   1.237   2.108  15.754 -0.4013  0.8243  0.1435
  822MPD2     H12096   0.952   1.902  15.870 -1.0863 -0.0593 -0.9369
  822MPD2    H112097   1.135   2.283  15.813  1.8246 -0.0810  0.6974
  822MPD2    H212098   1.342   1.934  15.711 -0.3640  1.0710 -2.5927
  822MPD2    H312099   1.313   2.169  15.707  0.8460 -0.6965  0.1985
  822MPD2     N12100   0.918   2.158  15.925  0.1404  0.4964  0.2793
  822MPD2    H512101   0.861   2.095  15.980 -0.3060  0.1423 -0.5754
  822MPD2    N112102   1.157   1.754  15.830  0.1029  0.4332  0.0409
  822MPD2    H712103   1.077   1.710  15.875  1.0439 -2.1407 -0.8085
  823MPD2     C12104   0.508   2.037  16.566  0.3729  0.5112 -0.2380
  823MPD2    C112105   0.481   2.027  16.434 -0.6092  0.5647  0.1608
  823MPD2    C212106   0.411   1.916  16.381  0.3054 -0.0309 -0.4000
  823MPD2    C312107   0.377   1.814  16.471  0.1507  0.2994  0.2881
  823MPD2    C412108   0.405   1.825  16.606  0.2139  0.0209  0.1992
  823MPD2    C512109   0.465   1.937  16.653 -0.1336 -0.8841 -0.1893
  823MPD2     H12110   0.391   1.910  16.274 -0.8442 -2.3881 -0.0657
  823MPD2    H112111   0.385   1.755  16.687 -0.3333  0.5394  0.5153
  823MPD2    H212112   0.567   2.122  16.598  0.1897  1.0043 -1.2157
  823MPD2    H312113   0.484   1.942  16.760 -1.9774  2.0866 -0.0000
  823MPD2     N12114   0.324   1.690  16.426 -0.3168  0.2861 -0.2364
  823MPD2    H512115   0.293   1.623  16.495 -3.3786  0.7350 -1.1717
  823MPD2    N112116   0.538   2.131  16.358  0.0877  0.0050 -0.1781
  823MPD2    H712117   0.609   2.189  16.401 -0.0281 -0.6603  0.8887
  824MPD2     C12118   1.366   0.910  15.628 -0.4035  0.0946 -0.1042
  824MPD2    C112119   1.410   0.970  15.744  0.0188 -0.2252 -0.5320
  824MPD2    C212120   1.526   0.924  15.802 -0.6320 -0.9933 -0.2322
  824MPD2    C312121   1.603   0.830  15.735  0.1174  0.1985 -0.8721
  824MPD2    C412122   1.548   0.762  15.627 -0.1190 -0.6332  0.0163
  824MPD2    C512123   1.434   0.800  15.577  0.6352  0.3476  0.4913
  824MPD2     H12124   1.563   0.962  15.897  0.5908  0.0682 -1.1444
  824MPD2    H112125   1.600   0.687  15.569  0.8950  0.2071 -0.1634
  824MPD2    H212126   1.275   0.942  15.579 -1.9657 -0.5372  2.4464
  824MPD2    H312127   1.407   0.743  15.488 -1.7803  1.2416  0.6424
  824MPD2     N12128   1.734   0.808  15.780  0.2318  0.1676 -0.0560
  824MPD2    H512129   1.784   0.877  15.837  3.5184 -1.4880 -0.9134
  824MPD2    N112130   1.340   1.077  15.805 -0.4254 -0.9602  0.0081
  824MPD2    H712131   1.349   1.095  15.905 -2.7261 -0.3037  0.1061
  825MPD2     C12132   2.448   0.981  15.365  0.2549 -0.4008  0.6679
  825MPD2    C112133   2.343   1.029  15.441 -0.2369 -0.1401 -0.1208
  825MPD2    C212134   2.327   1.166  15.454  0.2759 -0.5610 -0.9207
  825MPD2    C312135   2.407   1.252  15.378  0.9332  0.3287  0.2166
  825MPD2    C412136   2.504   1.200  15.297 -0.6444 -0.9219 -0.1350
  825MPD2    C512137   2.524   1.066  15.287 -0.2117  0.3609  0.1930
  825MPD2     H12138   2.256   1.209  15.522 -0.7992 -1.1428 -1.6739
  825MPD2    H112139   2.575   1.257  15.239 -0.1238 -1.1886  0.2428
  825MPD2    H212140   2.456   0.875  15.344  1.6783 -0.0260 -0.6612
  825MPD2    H312141   2.595   1.030  15.213  0.6577  2.5517 -0.0287
  825MPD2     N12142   2.404   1.395  15.382  0.0486  0.2332 -0.0418
  825MPD2    H512143   2.462   1.445  15.316  3.4696 -0.2451  2.6089
  825MPD2    N112144   2.265   0.934  15.512 -0.2611 -0.1206 -0.1723
  825MPD2    H712145   2.285   0.836  15.495 -2.1846 -0.3112 -1.4033
  826MPD2     C12146   2.410   1.292  13.905  0.1947  0.0036 -0.9798
  826MPD2    C112147   2.328   1.308  13.795 -0.6689 -0.5139  0.3965
  826MPD2    C212148   2.228   1.393  13.805  0.4414 -0.9703 -0.8551
  826MPD2    C312149   2.190   1.460  13.926 -0.7792 -0.2305 -0.6550
  826MPD2    C412150   2.259   1.426  14.042  0.0598  0.1483 -0.8479
  826MPD2    C512151   2.375   1.349  14.023  0.1369  0.0933 -0.0935
  826MPD2     H12152   2.175   1.422  13.715 -2.6318  0.3932  1.3992
  826MPD2    H112153   2.234   1.469  14.138 -1.1011 -0.7444 -0.7467
  826MPD2    H212154   2.494   1.224  13.899 -0.1946 -0.3935 -2.0681
  826MPD2    H312155   2.426   1.327  14.116  1.4161 -3.8359 -1.7221
  826MPD2     N12156   2.104   1.570  13.939  0.0611 -0.0813  0.4908
  826MPD2    H512157   2.067   1.602  14.028 -0.1407  0.9547  0.0293
  826MPD2    N112158   2.353   1.229  13.685  0.5027  0.8513 -0.3506
  826MPD2    H712159   2.442   1.180  13.681 -0.1835 -0.3817 -0.5400
  827MPD2     C12160   2.291   2.298   9.815 -0.2925 -0.4351 -0.7424
  827MPD2    C112161   2.358   2.185   9.839  0.2424  0.1768 -0.0120
  827MPD2    C212162   2.313   2.074   9.770  0.1828  0.2159  0.6063
  827MPD2    C312163   2.214   2.083   9.676  0.7887 -0.6610 -0.5879
  827MPD2    C412164   2.142   2.198   9.667  1.0072  0.1398  0.2877
  827MPD2    C512165   2.186   2.307   9.733 -0.5848 -0.1787 -0.3373
  827MPD2     H12166   2.357   1.978   9.791  1.3993  0.4189 -0.9809
  827MPD2    H112167   2.071   2.228   9.590  0.8435 -2.5704 -0.5903
  827MPD2    H212168   2.313   2.391   9.866  0.7496 -1.8256  1.3814
  827MPD2    H312169   2.141   2.405   9.722 -0.5629 -0.0508  0.7327
  827MPD2     N12170   2.184   1.974   9.588  0.7513  1.0234  0.2406
  827MPD2    H512171   2.224   1.883   9.607 -1.7823 -0.2667 -0.5803
  827MPD2    N112172   2.464   2.170   9.925 -0.3375 -0.5640 -0.5208
  827MPD2    H712173   2.500   2.076   9.932 -0.0496 -0.5528 -1.9962
  828MPD2     C12174   0.872   2.300  12.398 -0.2335  0.3008 -0.3432
  828MPD2    C112175   0.825   2.316  12.270  0.6619 -0.1525  0.2898
  828MPD2    C212176   0.916   2.349  12.176 -0.3740 -0.7968 -0.1989
  828MPD2    C312177   1.052   2.336  12.199  0.1899 -0.0278  0.2223
  828MPD2    C412178   1.095   2.287  12.317 -0.6319 -0.5650  0.1185
  828MPD2    C512179   1.006   2.273  12.419  0.2063 -0.0912 -0.0298
  828MPD2     H12180   0.871   2.375  12.081  2.4578  0.1217 -1.2828
  828MPD2    H112181   1.202   2.282  12.337 -0.9665  0.4955  2.2689
  828MPD2    H212182   0.809   2.292  12.486 -1.5924 -0.1413 -1.3506
  828MPD2    H312183   1.030   2.244  12.521  0.0819  1.5320  0.4534
  828MPD2     N12184   1.155   2.372  12.104 -0.0669 -0.4347  0.4840
  828MPD2    H512185   1.247   2.367  12.146  1.8247 -1.5276 -3.7516
  828MPD2    N112186   0.693   2.334  12.237  0.1769  0.6378 -0.5260
  828MPD2    H712187   0.672   2.379  12.149 -2.4360  0.7677  0.1327
  829MPD2     C12188   0.414   2.565  11.474  0.1136  0.1066 -0.0372
  829MPD2    C112189   0.302   2.497  11.510  0.2008 -0.2410 -1.2722
  829MPD2    C212190   0.293   2.455  11.649 -0.6899 -0.0926  0.0595
  829MPD2    C312191   0.388   2.495  11.746  0.2816  0.2201 -0.6526
  829MPD2    C412192   0.496   2.569  11.704 -0.2398 -0.2824  0.2724
  829MPD2    C512193   0.505   2.604  11.574  0.4368 -0.0089  0.0461
  829MPD2     H12194   0.205   2.402  11.683 -0.8109 -0.7469 -1.2760
  829MPD2    H112195   0.570   2.600  11.777 -1.8333 -0.3497  1.9029
  829MPD2    H212196   0.433   2.593  11.371  0.7539  0.7771  0.2651
  829MPD2    H312197   0.596   2.647  11.535  1.0895 -1.5087 -0.0389
  829MPD2     N12198   0.381   2.482  11.888 -0.4037  0.6939  0.0313
  829MPD2    H512199   0.461   2.518  11.938 -1.1491  0.5180  1.3359
  829MPD2    N112200   0.194   2.478  11.418  0.5336 -0.5703 -0.1017
  829MPD2    H712201   0.203   2.528  11.330 -1.2141 -0.4640 -0.2211
  830MPD2     C12202   1.715   0.117  15.676 -0.8499 -0.6812 -0.1981
  830MPD2    C112203   1.626   0.127  15.575 -0.1851 -0.2308  0.3371
  830MPD2    C212204   1.664   0.200  15.464 -0.7418  0.6319  0.2273
  830MPD2    C312205   1.786   0.260  15.457 -0.3186 -0.2727 -1.0861
  830MPD2    C412206   1.878   0.247  15.558 -1.0170  0.2873  0.6865
  830MPD2    C512207   1.841   0.178  15.672 -0.6653  1.0566  0.5841
  830MPD2     H12208   1.589   0.223  15.388 -1.1408 -0.2390  0.3483
  830MPD2    H112209   1.975   0.293  15.572 -1.4320  1.0390  1.0823
  830MPD2    H212210   1.690   0.054  15.760  0.4542 -0.9139  0.0148
  830MPD2    H312211   1.907   0.170  15.757 -0.1642 -1.1789 -0.0182
  830MPD2     N12212   1.818   0.362  15.366  0.3337 -0.1326 -0.0884
  830MPD2    H512213   1.904   0.412  15.389  0.3966 -0.0531 -0.4920
  830MPD2    N112214   1.501   0.066  15.597 -0.1250 -0.2814 -0.6090
  830MPD2    H712215   1.499   0.018  15.686 -0.1790 -0.1462 -0.5374
  831MPD2     C12216   0.890   1.606  16.281 -0.5169 -0.1775 -0.0260
  831MPD2    C112217   0.920   1.725  16.220 -0.7864 -0.1383 -0.1328
  831MPD2    C212218   0.819   1.794  16.148 -0.2182 -0.6909  0.4671
  831MPD2    C312219   0.686   1.746  16.152 -0.3219  0.2416  0.0873
  831MPD2    C412220   0.659   1.630  16.219 -0.3900  0.5946 -0.2758
  831MPD2    C512221   0.760   1.561  16.285  0.5002 -0.4273 -0.1866
  831MPD2     H12222   0.846   1.885  16.096  0.1783 -0.8444  0.4082
  831MPD2    H112223   0.565   1.581  16.197  0.0420  0.4050 -1.7139
  831MPD2    H212224   0.966   1.551  16.336 -0.4417  1.2745  1.3314
  831MPD2    H312225   0.735   1.473  16.344  2.7621 -0.5414  0.6045
  831MPD2     N12226   0.587   1.802  16.064 -0.2358 -0.5677  0.6429
  831MPD2    H512227   0.496   1.757  16.066 -1.2192  1.2813 -2.6552
  831MPD2    N112228   1.050   1.770  16.224  0.2456 -0.7071  0.2006
  831MPD2    H712229   1.115   1.707  16.271 -0.4808 -2.8527 -1.6599
  832MPD2     C12230   4.376   2.484  16.677 -0.1860  1.0078  0.0255
  832MPD2    C112231   4.356   2.623  16.673 -0.1574  0.0943 -0.1266
  832MPD2    C212232   4.250   2.678  16.606  0.0368  0.4489 -0.3517
  832MPD2    C312233   4.160   2.591  16.537  0.1302  0.4861  0.6076
  832MPD2    C412234   4.188   2.462  16.527 -0.2288  0.0777  0.0163
  832MPD2    C512235   4.290   2.408  16.605 -0.1311  0.6918  0.5762
  832MPD2     H12236   4.230   2.783  16.623  2.5317  0.3768  3.1047
  832MPD2    H112237   4.130   2.404  16.456 -0.0507  1.6653 -1.4150
  832MPD2    H212238   4.442   2.443  16.752  0.2425 -3.1441 -2.6183
  832MPD2    H312239   4.313   2.302  16.612 -0.6537  0.5234 -0.2653
  832MPD2     N12240   4.038   2.634  16.492 -0.0587 -0.0409 -0.0567
  832MPD2    H512241   3.971   2.562  16.466  0.4090  0.6493 -3.1667
  832MPD2    N112242   4.451   2.690  16.755  0.1773  0.0936 -0.0908
  832MPD2    H712243   4.528   2.633  16.787  0.5826  1.0792  0.6853
  833MPD2     C12244   1.614   4.664  12.749  0.1988  1.2252 -0.3997
  833MPD2    C112245   1.582   4.687  12.616 -0.2406  0.7357 -0.6038
  833MPD2    C212246   1.641   4.604  12.526 -0.3944  0.0343  0.3086
  833MPD2    C312247   1.720   4.493  12.558  0.3313 -0.2414 -0.1004
  833MPD2    C412248   1.736   4.460  12.688 -0.2496  0.4331 -0.1622
  833MPD2    C512249   1.690   4.551  12.784  0.7197 -0.6180  0.2667
  833MPD2     H12250   1.642   4.631  12.421  0.4975 -0.8406  0.0950
  833MPD2    H112251   1.808   4.389  12.726 -1.0024 -0.2267  0.0432
  833MPD2    H212252   1.584   0.006  12.827  2.9893  0.6652  1.1773
  833MPD2    H312253   1.723   4.542  12.886 -1.8467 -2.0779  0.9702
  833MPD2     N12254   1.779   4.432  12.444 -0.1259  0.3816  0.1376
  833MPD2    H512255   1.764   4.477  12.354 -0.2963 -2.4998 -1.2793
  833MPD2    N112256   1.492   0.066  12.578  0.3184  0.3689 -0.3370
  833MPD2    H712257   1.453   0.119  12.656  0.5259  0.7995 -0.5229
  834MPD2     C12258   1.697   3.611  11.825  0.3250 -0.8516 -0.4423
  834MPD2    C112259   1.687   3.727  11.762  0.2961  0.4774  0.3454
  834MPD2    C212260   1.726   3.846  11.827  0.6810 -0.4548  0.2511
  834MPD2    C312261   1.783   3.844  11.954  0.1189  0.3518  0.3688
  834MPD2    C412262   1.789   3.724  12.022  0.7931 -0.1096 -0.0403
  834MPD2    C512263   1.755   3.610  11.955  0.0190 -0.3913 -0.3276
  834MPD2     H12264   1.704   3.944  11.785  2.9127 -0.1671 -0.2946
  834MPD2    H112265   1.830   3.713  12.121  2.9520 -1.0773 -1.0313
  834MPD2    H212266   1.660   3.514  11.793  2.1531 -1.2609 -1.3601
  834MPD2    H312267   1.750   3.516  12.007  2.1797 -0.3814 -0.0947
  834MPD2     N12268   1.841   3.965  11.998  0.2699 -0.9183  0.4726
  834MPD2    H512269   1.830   4.042  11.933  2.5641  0.1803  1.4175
  834MPD2    N112270   1.637   3.721  11.632 -0.3252 -0.2395 -0.3188
  834MPD2    H712271   1.620   3.631  11.588 -0.4920 -0.2358 -0.2621
  835MPD2     C12272   2.018   2.247  11.279 -0.5491 -0.4252  1.0418
  835MPD2    C112273   1.892   2.300  11.316  0.5308  0.4818 -0.3011
  835MPD2    C212274   1.874   2.360  11.439 -0.4955 -0.3060 -0.0089
  835MPD2    C312275   1.978   2.360  11.534 -0.7242  0.5120 -0.1551
  835MPD2    C412276   2.095   2.297  11.500 -0.0098  0.3205 -0.1028
  835MPD2    C512277   2.112   2.235  11.380  0.2949 -0.0364  0.3987
  835MPD2     H12278   1.778   2.409  11.454  0.4986  2.0216 -1.3169
  835MPD2    H112279   2.170   2.282  11.577 -1.3429 -0.1673  1.1288
  835MPD2    H212280   2.045   2.214  11.180 -0.7682  0.4378  0.7025
  835MPD2    H312281   2.204   2.180  11.364  1.8500  2.2063  1.6514
  835MPD2     N12282   1.969   2.411  11.663  0.0073  0.3325 -0.0318
  835MPD2    H512283   2.055   2.397  11.714 -0.0159 -4.2010 -1.2566
  835MPD2    N112284   1.781   2.302  11.219  0.0180  0.2962  0.3503
  835MPD2    H712285   1.707   2.368  11.239 -0.0325  0.9254 -1.9457
  836MPD2     C12286   1.604   2.731  12.478 -0.8134 -0.0465 -0.2783
  836MPD2    C112287   1.573   2.696  12.346  0.0494  0.4939  0.5860
  836MPD2    C212288   1.441   2.711  12.297 -0.1229  1.0723 -0.1334
  836MPD2    C312289   1.340   2.761  12.378 -1.0346  0.6950 -0.0155
  836MPD2    C412290   1.371   2.798  12.503 -0.5408  0.1621  0.6552
  836MPD2    C512291   1.502   2.788  12.551  0.0845 -0.0769  0.9592
  836MPD2     H12292   1.417   2.675  12.198 -1.1095  1.5146 -0.0517
  836MPD2    H112293   1.303   2.829  12.581 -0.9822  0.7852  0.0153
  836MPD2    H212294   1.707   2.731  12.511 -0.3787 -0.2134 -1.6301
  836MPD2    H312295   1.514   2.824  12.652 -1.8733 -0.7638  1.4264
  836MPD2     N12296   1.203   2.759  12.332 -0.0895 -0.1903  0.1126
  836MPD2    H512297   1.137   2.786  12.404 -0.2135  2.7978 -1.1115
  836MPD2    N112298   1.681   2.650  12.258  0.1947  0.1738 -0.0084
  836MPD2    H712299   1.775   2.676  12.286 -0.2790  1.3527  0.4829
  837MPD2     C12300   0.312   2.057   9.882  0.4045  0.1047  0.0979
  837MPD2    C112301   0.200   2.107   9.935  0.3047 -0.6425  0.2228
  837MPD2    C212302   0.196   2.242   9.940  0.7420 -0.2395 -0.2996
  837MPD2    C312303   0.295   2.328   9.890 -0.5247  0.7357  0.0748
  837MPD2    C412304   0.410   2.279   9.839 -0.6858  0.1467  0.0454
  837MPD2    C512305   0.422   2.135   9.847  0.0530 -0.3155  0.2518
  837MPD2     H12306   0.108   2.296   9.973  1.6952  1.3032 -0.2703
  837MPD2    H112307   0.487   2.351   9.811  0.9884 -1.9474 -0.7893
  837MPD2    H212308   0.325   1.950   9.867  1.3631  0.5063 -1.9495
  837MPD2    H312309   0.516   2.089   9.821  0.3310  0.8852 -0.8953
  837MPD2     N12310   0.263   2.461   9.889 -0.0077 -0.2452  0.5824
  837MPD2    H512311   0.167   2.483   9.916  0.3061  0.7226  0.9129
  837MPD2    N112312   0.094   2.034   9.986  0.0194 -0.4123  0.1268
  837MPD2    H712313   0.026   2.096  10.028 -0.8929 -1.4963  0.2636
  838MPD2     C12314   3.636   0.584  11.746 -0.3439 -0.2130 -0.3677
  838MPD2    C112315   3.530   0.486  11.748  0.3113 -0.3479  0.0852
  838MPD2    C212316   3.427   0.502  11.838  0.4327 -0.1439  0.4722
  838MPD2    C312317   3.422   0.611  11.917 -0.5819  0.5462 -0.0833
  838MPD2    C412318   3.532   0.699  11.917  0.3744 -0.0271  0.5692
  838MPD2    C512319   3.638   0.683  11.829  0.0751 -0.8592 -0.8643
  838MPD2     H12320   3.352   0.423  11.845 -1.0535  1.6124  4.4332
  838MPD2    H112321   3.528   0.787  11.980 -0.3295  0.8466 -0.7018
  838MPD2    H212322   3.721   0.581  11.679 -0.9854  3.6592 -1.3688
  838MPD2    H312323   3.718   0.755  11.822 -0.9440  0.3334 -0.1899
  838MPD2     N12324   3.306   0.617  12.003 -0.0947  0.0294 -0.4419
  838MPD2    H512325   3.239   0.542  12.002  0.8356 -0.7918 -0.8729
  838MPD2    N112326   3.516   0.385  11.641  0.3529  0.1919  0.4444
  838MPD2    H712327   3.431   0.328  11.645  1.3917 -1.4527 -1.0556
  839MPD2     C12328   2.818   4.716  11.543  0.3949  0.5677 -0.1751
  839MPD2    C112329   2.865   4.682  11.416 -0.3842 -0.5902 -0.2237
  839MPD2    C212330   2.989   4.721  11.389  0.3331  0.2188  0.5506
  839MPD2    C312331   3.065   0.072  11.468  0.1666  0.2395 -0.5353
  839MPD2    C412332   3.023   0.094  11.593  0.3526  0.1452 -0.2401
  839MPD2    C512333   2.893   0.061  11.631 -0.2847 -0.9109 -0.0435
  839MPD2     H12334   3.023   4.693  11.290  0.8201  0.3616  0.6790
  839MPD2    H112335   3.086   0.137  11.670  0.5374 -0.7775  0.1217
  839MPD2    H212336   2.719   4.689  11.579 -0.6130  2.3700 -1.6033
  839MPD2    H312337   2.860   0.069  11.734  1.6188 -1.4471  0.6032
  839MPD2     N12338   3.191   0.118  11.428 -0.1206 -0.1599  0.1135
  839MPD2    H512339   3.231   0.185  11.494  0.8381 -0.1067 -0.5145
  839MPD2    N112340   2.798   4.595  11.327 -0.2708  0.6702  0.2507
  839MPD2    H712341   2.860   4.566  11.252  0.3731 -0.5584  1.2545
  840MPD2     C12342   3.079   2.644  10.001  0.2155  0.3290  0.1403
  840MPD2    C112343   3.047   2.592  10.126 -0.5564  0.1824 -0.2379
  840MPD2    C212344   3.126   2.616  10.231 -0.0313  0.2638 -0.0940
  840MPD2    C312345   3.237   2.702  10.209 -0.4163  0.0273  0.0844
  840MPD2    C412346   3.267   2.753  10.086 -0.2171 -0.3891  0.0327
  840MPD2    C512347   3.190   2.727   9.979 -0.5844 -0.2495 -0.4224
  840MPD2     H12348   3.100   2.580  10.329 -0.9803 -0.0484 -0.4606
  840MPD2    H112349   3.361   2.804  10.066 -0.1501 -0.8216 -0.7582
  840MPD2    H212350   3.026   2.618   9.911 -0.9234 -0.5967  1.0759
  840MPD2    H312351   3.226   2.756   9.881 -1.4660 -1.0278 -0.9713
  840MPD2     N12352   3.326   2.742  10.309 -0.6990  0.2315  0.4068
  840MPD2    H512353   3.402   2.802  10.280 -0.2146  0.0996  1.3983
  840MPD2    N112354   2.945   2.495  10.132 -0.0080  0.5745 -0.0876
  840MPD2    H712355   2.892   2.485  10.046  1.5895  2.1253 -1.2418
  841MPD2     C12356   3.272   2.185  14.475  0.0329 -0.1426 -0.0277
  841MPD2    C112357   3.368   2.092  14.496 -0.3710  0.6515  0.1589
  841MPD2    C212358   3.501   2.133  14.475 -0.6195 -0.3691  0.8178
  841MPD2    C312359   3.541   2.262  14.458  0.4566  0.3635  0.1154
  841MPD2    C412360   3.438   2.356  14.466  0.2025  0.5838 -0.2758
  841MPD2    C512361   3.311   2.314  14.469  0.2372  0.5996  0.5745
  841MPD2     H12362   3.572   2.052  14.488 -1.7235 -1.2441  1.4114
  841MPD2    H112363   3.451   2.463  14.478  3.1757  0.1787  0.0556
  841MPD2    H212364   3.166   2.168  14.488 -0.0787  0.2660 -0.4215
  841MPD2    H312365   3.230   2.383  14.488 -0.1176  0.2694  0.2439
  841MPD2     N12366   3.675   2.307  14.461 -0.1934  0.3605  0.1792
  841MPD2    H512367   3.746   2.235  14.450  0.8173  1.0467  2.1599
  841MPD2    N112368   3.325   1.953  14.500  0.8768  0.2162 -0.8365
  841MPD2    H712369   3.393   1.878  14.506 -0.4210 -1.0226 -1.6699
  842MPD2     C12370   3.731   3.317  16.426  0.2534  0.0659  0.4710
  842MPD2    C112371   3.667   3.302  16.545 -0.0297  0.4250 -0.8067
  842MPD2    C212372   3.692   3.200  16.628  0.8353  0.1932 -0.2676
  842MPD2    C312373   3.812   3.132  16.604  0.2904 -0.4089  0.0565
  842MPD2    C412374   3.891   3.154  16.490  0.4911 -0.0560 -0.0704
  842MPD2    C512375   3.846   3.245  16.402 -0.7134  0.6195 -0.3815
  842MPD2     H12376   3.646   3.199  16.726  0.8825  1.0941 -0.2363
  842MPD2    H112377   3.986   3.104  16.476  1.8050  2.3685  0.3042
  842MPD2    H212378   3.695   3.374  16.341 -0.9204 -1.1121  0.1858
  842MPD2    H312379   3.897   3.260  16.307  0.1395 -0.3411 -0.0731
  842MPD2     N12380   3.861   3.035  16.694  0.7397 -0.6651 -0.4109
  842MPD2    H512381   3.960   3.014  16.701  1.3156  3.2519  2.7215
  842MPD2    N112382   3.555   3.392  16.568  0.1083  0.1171 -0.0956
  842MPD2    H712383   3.534   3.453  16.490 -1.0938 -1.5573 -1.0756
  843MPD2     C12384   1.013   3.037   0.352 -0.2035  0.9739 -0.6066
  843MPD2    C112385   1.135   3.031   0.411  0.1820 -0.1931 -0.0417
  843MPD2    C212386   1.230   3.125   0.366 -0.0407  0.4984  0.3506
  843MPD2    C312387   1.205   3.226   0.277  0.4055 -0.1707  0.3288
  843MPD2    C412388   1.081   3.223   0.220 -0.1339 -0.1079 -0.5281
  843MPD2    C512389   0.989   3.130   0.260  0.8714  0.0178 -0.4492
  843MPD2     H12390   1.331   3.114   0.404  0.0080  0.3719  0.1837
  843MPD2    H112391   1.060   3.288   0.135 -2.1357  1.6279  1.3102
  843MPD2    H212392   0.932   2.967   0.372  1.1715 -0.2255  0.7821
  843MPD2    H312393   0.886   3.126   0.227 -0.9533  2.1011  4.9027
  843MPD2     N12394   1.302   3.324   0.239 -0.5097 -0.1558  0.0120
  843MPD2    H512395   1.288   3.378   0.154 -0.0551 -0.7998 -0.4745
  843MPD2    N112396   1.147   2.934   0.511 -0.2327  0.1105 -0.1330
  843MPD2    H712397   1.055   2.906   0.543 -0.1715 -0.1442 -0.1834
  844MPD2     C12398   3.937   2.538  15.966 -0.1673  0.2532 -0.4840
  844MPD2    C112399   4.046   2.453  15.963  0.0049  0.0258 -0.2544
  844MPD2    C212400   4.165   2.486  16.035  0.9150 -0.3146 -0.8043
  844MPD2    C312401   4.176   2.601  16.106 -0.4903  0.4101 -0.0084
  844MPD2    C412402   4.062   2.678  16.115 -0.8733  0.3459  0.1325
  844MPD2    C512403   3.950   2.650  16.041  0.0508 -0.0847 -0.3282
  844MPD2     H12404   4.244   2.411  16.035  0.7440 -0.4948 -0.2697
  844MPD2    H112405   4.055   2.763  16.182  1.4801  0.3867  0.3394
  844MPD2    H212406   3.846   2.525  15.908 -0.2661 -2.0142  0.1751
  844MPD2    H312407   3.856   2.704  16.043 -0.2072 -0.5605  0.2561
  844MPD2     N12408   4.297   2.628  16.177 -0.6696  0.5129  0.0508
  844MPD2    H512409   4.367   2.555  16.174  0.3020  1.4699 -0.4429
  844MPD2    N112410   4.045   2.328  15.892  0.1269 -0.3270  0.0678
  844MPD2    H712411   4.129   2.273  15.882  0.6214  0.2132  1.3380
  845MPD2     C12412   4.661   3.424  16.695  0.8332  0.0761 -0.2649
  845MPD2    C112413   4.538   3.362  16.705  0.4371 -0.0838 -0.0835
  845MPD2    C212414   4.522   3.240  16.642 -0.3341 -0.3655  0.0372
  845MPD2    C312415   4.617   3.176  16.563 -0.6195 -0.5087  0.0674
  845MPD2    C412416   0.006   3.255  16.539 -0.2513 -0.4821 -0.1775
  845MPD2    C512417   0.024   3.371  16.609  0.9842  0.0731 -0.5914
  845MPD2     H12418   4.425   3.191  16.648 -1.1884  1.0607 -1.8787
  845MPD2    H112419   0.082   3.218  16.472 -0.7861 -2.6101  0.4087
  845MPD2    H212420   4.688   3.516  16.747  0.8189  0.2846 -0.6243
  845MPD2    H312421   0.116   3.428  16.605 -0.7866  2.8504 -1.5879
  845MPD2     N12422   4.583   3.053  16.497 -0.2714 -0.2869 -0.0045
  845MPD2    H512423   4.490   3.014  16.506 -0.3498  0.4039  2.1708
  845MPD2    N112424   4.434   3.431  16.779 -0.5036  0.1807 -0.6677
  845MPD2    H712425   4.446   3.530  16.796  3.5521 -0.6113  1.0058
  846MPD2     C12426   1.123   4.048  13.891 -0.0229  0.1028 -0.5742
  846MPD2    C112427   1.053   4.166  13.882  0.1474  0.4983  0.8173
  846MPD2    C212428   1.010   4.223  14.001  0.4879 -0.3347  0.0874
  846MPD2    C312429   1.053   4.179  14.122 -0.1679 -0.1852 -0.5861
  846MPD2    C412430   1.143   4.081  14.126  0.7428 -0.0333 -1.0398
  846MPD2    C512431   1.179   4.021  14.010  0.0975 -0.6415 -0.2634
  846MPD2     H12432   0.948   4.312  14.001  0.3364 -0.4429 -0.9168
  846MPD2    H112433   1.189   4.046  14.217  0.1886 -1.8791 -1.4717
  846MPD2    H212434   1.163   4.003  13.801  2.6718  0.9739  0.1856
  846MPD2    H312435   1.251   3.940  14.015  0.9002  0.0181 -1.4561
  846MPD2     N12436   1.018   4.244  14.241  0.0821 -0.1867 -0.1338
  846MPD2    H512437   0.951   4.320  14.232 -1.2171 -1.2941  0.0882
  846MPD2    N112438   1.009   4.227  13.766 -0.6977 -0.5422  0.2509
  846MPD2    H712439   0.975   4.319  13.789  0.6754 -0.7028  2.8386
  847MPD2     C12440   1.245   0.299  13.797  0.3774  0.0530  0.3442
  847MPD2    C112441   1.281   0.395  13.889 -0.0695 -0.0183  0.5116
  847MPD2    C212442   1.388   0.367  13.971  0.8466  0.9900  0.2035
  847MPD2    C312443   1.436   0.241  13.995  0.3627 -0.2177 -0.0920
  847MPD2    C412444   1.389   0.137  13.919  0.1951 -0.2556 -0.5391
  847MPD2    C512445   1.300   0.174  13.818 -0.2791 -0.2444  0.1422
  847MPD2     H12446   1.436   0.440  14.034  0.9399 -0.1067  1.3963
  847MPD2    H112447   1.437   0.040  13.922  0.2182 -0.1722  1.2883
  847MPD2    H212448   1.185   0.323  13.711 -0.6864 -0.8246  0.8479
  847MPD2    H312449   1.283   0.087  13.756 -0.6919 -1.5724  2.1130
  847MPD2     N12450   1.539   0.223  14.085 -0.0996 -0.1320  0.1402
  847MPD2    H512451   1.576   0.306  14.130  0.8729 -1.0368  1.0267
  847MPD2    N112452   1.215   0.524  13.898  0.1409 -0.2315 -0.3825
  847MPD2    H712453   1.239   0.591  13.970  0.6226  1.4552 -2.1261
  848MPD2     C12454   3.605   3.076  15.947  0.4953 -0.7468  0.9330
  848MPD2    C112455   3.681   3.111  16.053  0.0930 -0.5286 -0.6684
  848MPD2    C212456   3.747   3.234  16.049  0.2100  0.0769 -0.1177
  848MPD2    C312457   3.739   3.319  15.943 -0.3681  0.0570  0.5742
  848MPD2    C412458   3.658   3.282  15.835  0.4360  0.0913  0.2295
  848MPD2    C512459   3.600   3.159  15.839  1.0006  0.0482 -0.1467
  848MPD2     H12460   3.820   3.259  16.124 -0.4174  1.8228 -0.0855
  848MPD2    H112461   3.652   3.347  15.749 -0.1099 -1.7983 -1.1616
  848MPD2    H212462   3.559   2.978  15.941 -3.1071  1.0093  0.3755
  848MPD2    H312463   3.550   3.114  15.754 -1.1222 -0.3791  1.3325
  848MPD2     N12464   3.807   3.439  15.928 -0.3901  0.0043 -0.2456
  848MPD2    H512465   3.805   3.489  15.840  0.5389 -0.6609 -0.6490
  848MPD2    N112466   3.703   3.032  16.168 -0.1374  0.0533 -0.1305
  848MPD2    H712467   3.773   3.065  16.233 -0.8549  0.6485  0.3391
  849MPD2     C12468   2.779   3.463  14.015  0.2943 -0.4543 -0.1190
  849MPD2    C112469   2.878   3.364  14.002 -0.2442 -0.2102  0.2456
  849MPD2    C212470   2.909   3.287  14.116  0.2252  0.7639  0.0808
  849MPD2    C312471   2.844   3.300  14.240 -0.0543  0.6643 -0.3076
  849MPD2    C412472   2.754   3.400  14.249 -0.1518 -0.3437  0.6176
  849MPD2    C512473   2.723   3.480  14.139 -0.6078  0.0812  0.3621
  849MPD2     H12474   2.995   3.222  14.107 -0.0726  0.5144 -1.0393
  849MPD2    H112475   2.699   3.418  14.341  0.4542  2.6599  0.3819
  849MPD2    H212476   2.757   3.527  13.930  0.1046  1.9001  1.7105
  849MPD2    H312477   2.648   3.555  14.155 -0.9225  0.6812 -3.9737
  849MPD2     N12478   2.880   3.226  14.355 -0.1139  0.0265 -0.2922
  849MPD2    H512479   2.839   3.255  14.443  1.0743 -1.8536  0.8934
  849MPD2    N112480   2.962   3.334  13.896 -0.2443 -0.9555  0.2863
  849MPD2    H712481   3.034   3.264  13.907  1.6444  1.1984  1.7735
  850MPD2     C12482   1.438   1.095  14.788 -0.1578  0.0212  0.5137
  850MPD2    C112483   1.376   1.176  14.874 -0.3593 -0.3767  0.3524
  850MPD2    C212484   1.450   1.243  14.974 -0.2051  0.4462 -0.2536
  850MPD2    C312485   1.588   1.217  14.994 -0.1236 -0.3687  0.8635
  850MPD2    C412486   1.645   1.122  14.909  0.1375  0.3511  0.1173
  850MPD2    C512487   1.569   1.068  14.805  0.1409 -0.5295  0.2384
  850MPD2     H12488   1.402   1.323  15.030 -0.8384  0.1649 -0.3903
  850MPD2    H112489   1.748   1.089  14.906  0.2801  0.8420 -0.4604
  850MPD2    H212490   1.381   1.063  14.702  0.8951 -0.6857  0.0867
  850MPD2    H312491   1.619   0.989  14.752 -0.7838  0.0410 -1.4740
  850MPD2     N12492   1.671   1.273  15.092 -0.1348 -0.1858 -0.6952
  850MPD2    H512493   1.766   1.238  15.081 -0.6061 -0.7144 -3.0476
  850MPD2    N112494   1.242   1.206  14.837 -0.1541  0.0941  0.2402
  850MPD2    H712495   1.213   1.190  14.742  2.4735 -0.9665 -0.3984
  851MPD2     C12496   1.614   1.115  15.503 -0.4754  0.2386  0.2398
  851MPD2    C112497   1.549   1.076  15.388  0.2833  0.2310 -0.3257
  851MPD2    C212498   1.618   1.012  15.291  0.0914  0.0336 -0.2156
  851MPD2    C312499   1.745   0.967  15.316  0.2247  0.3295 -0.1842
  851MPD2    C412500   1.807   1.002  15.438  0.0886 -0.4092 -0.1594
  851MPD2    C512501   1.746   1.085  15.523 -0.6885 -0.7723 -0.3746
  851MPD2     H12502   1.573   0.992  15.195 -2.7650  0.1658  1.0920
  851MPD2    H112503   1.903   0.967  15.474 -0.1785 -0.9155  0.0499
  851MPD2    H212504   1.563   1.167  15.583  1.0994  0.5419  1.0399
  851MPD2    H312505   1.794   1.112  15.616 -0.6757 -0.8524 -0.3578
  851MPD2     N12506   1.806   0.884  15.216 -0.6256 -0.0937  0.2012
  851MPD2    H512507   1.753   0.873  15.130 -2.1331  2.9907  0.7522
  851MPD2    N112508   1.408   1.110  15.367  0.6886  0.0966  0.2097
  851MPD2    H712509   1.365   1.183  15.424 -0.6080 -0.4267 -0.1105
  852MPD2     C12510   1.375   3.654   9.084 -0.1325  0.0429  0.2936
  852MPD2    C112511   1.404   3.577   9.189 -0.0242  0.4054  0.4102
  852MPD2    C212512   1.444   3.641   9.298  0.2467 -0.1061  0.0274
  852MPD2    C312513   1.450   3.780   9.304  0.1637  0.4479 -0.0324
  852MPD2    C412514   1.432   3.853   9.189 -0.4130  0.7683  0.2976
  852MPD2    C512515   1.390   3.790   9.076  0.3831 -0.2112 -0.0828
  852MPD2     H12516   1.471   3.577   9.382 -0.5598 -0.6344 -0.1160
  852MPD2    H112517   1.445   3.961   9.187  3.0621  0.3215 -0.2219
  852MPD2    H212518   1.333   3.607   8.996 -0.1259 -0.5768  0.6141
  852MPD2    H312519   1.382   3.844   8.982  0.7669 -1.5539 -0.8789
  852MPD2     N12520   1.485   3.847   9.428  0.5719 -0.0759  0.1885
  852MPD2    H512521   1.494   3.788   9.510 -0.9093  0.3069  0.6122
  852MPD2    N112522   1.393   3.440   9.200 -0.0786  0.2535  0.5155
  852MPD2    H712523   1.425   3.400   9.288  1.2233  0.4149  0.1235
  853MPD2     C12524   2.818   3.880  12.476 -0.4195 -0.3580  0.1233
  853MPD2    C112525   2.713   3.954  12.418 -0.3954 -0.6670 -0.3012
  853MPD2    C212526   2.683   3.928  12.287  0.1341  1.1840  0.2689
  853MPD2    C312527   2.758   3.824  12.218 -0.6562  0.1395  0.3139
  853MPD2    C412528   2.863   3.760  12.272  0.3852 -0.4040  0.1594
  853MPD2    C512529   2.889   3.787  12.402 -0.3688 -0.1147 -0.0365
  853MPD2     H12530   2.602   3.981  12.240 -0.8040  0.5545  1.1698
  853MPD2    H112531   2.922   3.684  12.223 -0.6189 -2.0465  1.4924
  853MPD2    H212532   2.855   3.882  12.578 -2.4562  0.5777  0.8550
  853MPD2    H312533   2.976   3.747  12.452 -0.6497 -1.6772 -0.7767
  853MPD2     N12534   2.724   3.781  12.088  0.7344  0.0591 -0.2261
  853MPD2    H512535   2.774   3.707  12.040  2.9851  1.5829 -0.1808
  853MPD2    N112536   2.636   4.039  12.498 -0.5505  0.6065 -0.1259
  853MPD2    H712537   2.633   4.025  12.599  0.4866 -1.5366 -0.4106
  854MPD2     C12538   4.388   3.796  13.291  0.4239 -0.6099  0.4003
  854MPD2    C112539   4.335   3.785  13.164 -0.3160 -0.6403 -0.4145
  854MPD2    C212540   4.355   3.674  13.090  0.7979 -0.5016 -0.1619
  854MPD2    C312541   4.429   3.568  13.138  0.0044  0.0379  0.3075
  854MPD2    C412542   4.462   3.577  13.269  0.0004  0.2484 -0.5482
  854MPD2    C512543   4.442   3.685  13.348  0.6283 -0.1156  0.2471
  854MPD2     H12544   4.331   3.675  12.985  1.0849  0.2569 -0.2225
  854MPD2    H112545   4.517   3.500  13.323 -1.5748 -1.4890 -1.4079
  854MPD2    H212546   4.367   3.880  13.356 -0.1625 -1.6513  1.5444
  854MPD2    H312547   4.484   3.685  13.448 -0.7436  2.4464  0.8374
  854MPD2     N12548   4.455   3.448  13.072  0.7699  0.0378  0.0152
  854MPD2    H512549   4.506   3.379  13.125 -0.7070  0.6327  2.2035
  854MPD2    N112550   4.251   3.891  13.115 -0.2062 -0.1886 -0.4065
  854MPD2    H712551   4.219   3.963  13.180 -0.3222 -0.6634  0.0588
  855MPD2     C12552   0.249   3.598  13.399  0.9179 -0.0240  0.1594
  855MPD2    C112553   0.184   3.485  13.441  0.3355  0.3588  0.2042
  855MPD2    C212554   0.144   3.393  13.339  0.2225  0.1380 -0.2842
  855MPD2    C312555   0.172   3.405  13.209 -0.0719  0.2403 -0.3308
  855MPD2    C412556   0.254   3.506  13.171  0.2774 -0.1796  0.3209
  855MPD2    C512557   0.270   3.608  13.264 -0.1038  0.4708 -0.1506
  855MPD2     H12558   0.074   3.318  13.375  0.7230 -0.0623  0.2592
  855MPD2    H112559   0.280   3.525  13.068  1.2083 -0.0516  0.5784
  855MPD2    H212560   0.271   3.685  13.459  1.6684 -0.2765  0.2451
  855MPD2    H312561   0.310   3.707  13.246  0.3283  0.7408  2.2583
  855MPD2     N12562   0.125   3.315  13.113  0.2765  0.7448  0.5966
  855MPD2    H512563   0.171   3.312  13.023 -2.4148  3.2082 -0.8810
  855MPD2    N112564   0.135   3.469  13.569 -1.0924 -0.9059  0.6174
  855MPD2    H712565   0.080   3.385  13.585 -0.2754 -1.8512 -1.6072
  856MPD2     C12566   1.816   4.459  13.942 -0.3887  0.1236  0.2646
  856MPD2    C112567   1.924   4.546  13.923 -0.1140  0.7876  0.2633
  856MPD2    C212568   1.885   4.674  13.874  0.1372  0.1303 -0.6872
  856MPD2    C312569   1.754   4.704  13.839  0.2084  0.8368  0.2368
  856MPD2    C412570   1.655   4.608  13.859 -0.2591 -0.8805  0.4743
  856MPD2    C512571   1.687   4.479  13.899  0.1490  0.3005 -0.6023
  856MPD2     H12572   1.963   0.019  13.852  1.4078 -0.3717  2.0755
  856MPD2    H112573   1.555   4.614  13.818  0.3222  0.4165 -0.7435
  856MPD2    H212574   1.841   4.361  13.981 -0.9878 -0.9867 -2.1170
  856MPD2    H312575   1.613   4.400  13.895  0.9400 -0.3694 -1.8384
  856MPD2     N12576   1.709   0.106  13.796 -0.1032 -0.1569  0.1743
  856MPD2    H512577   1.614   0.110  13.759  0.0535  0.3606 -0.1747
  856MPD2    N112578   2.052   4.510  13.974 -0.5017 -0.0370 -0.2953
  856MPD2    H712579   2.046   4.427  14.033  0.2644  0.0196 -0.1345
  857MPD2     C12580   3.600   1.938  12.668  0.3530 -0.2620 -0.3296
  857MPD2    C112581   3.734   1.936  12.652 -0.2913 -1.0155 -0.1552
  857MPD2    C212582   3.796   2.052  12.606 -0.4938  0.0496  0.1531
  857MPD2    C312583   3.713   2.162  12.576  0.7957 -1.2790 -0.0996
  857MPD2    C412584   3.577   2.160  12.597 -0.0179 -0.4893  0.2395
  857MPD2    C512585   3.524   2.046  12.643 -0.1370 -0.4898 -0.0553
  857MPD2     H12586   3.903   2.056  12.589 -0.5683 -0.1542 -0.3509
  857MPD2    H112587   3.502   2.236  12.578 -0.8890 -1.0327  1.4858
  857MPD2    H212588   3.561   1.842  12.701  2.4338 -1.4668 -1.3872
  857MPD2    H312589   3.420   2.032  12.667 -0.1409 -1.4225 -0.6136
  857MPD2     N12590   3.765   2.285  12.518 -0.2047 -0.0370  0.0058
  857MPD2    H512591   3.867   2.282  12.515 -0.2680  1.1014 -3.4907
  857MPD2    N112592   3.795   1.814  12.677 -0.5199  0.3514  0.7048
  857MPD2    H712593   3.730   1.740  12.702  1.1014 -0.6905  1.8014
  858MPD2     C12594   3.964   1.065  16.721 -0.0439  0.2455  0.4515
  858MPD2    C112595   4.101   1.053  16.705 -0.2721  1.3131  0.2194
  858MPD2    C212596   4.193   1.081  16.804  0.3249 -0.3338 -0.3233
  858MPD2    C312597   4.143   1.131  16.926 -0.0160 -0.9116  0.0457
  858MPD2    C412598   4.006   1.142  16.940 -0.5573 -0.0942 -0.4157
  858MPD2    C512599   3.917   1.111  16.837 -0.8710 -0.2288  0.0700
  858MPD2     H12600   4.300   1.082  16.790  0.7169 -0.9281  2.8624
  858MPD2    H112601   3.957   1.179  17.029 -0.2947  0.3692 -0.4609
  858MPD2    H212602   3.904   1.025  16.640 -1.4222  2.4506  0.3940
  858MPD2    H312603   3.810   1.110  16.855 -0.9004  2.4648  0.0228
  858MPD2     N12604   4.238   1.179  17.023  0.2102  0.0048 -0.1127
  858MPD2    H512605   4.199   1.228  17.103 -1.6038 -2.6625  0.6464
  858MPD2    N112606   4.147   1.002  16.583  0.0104 -0.8261 -0.3540
  858MPD2    H712607   4.076   0.998  16.511  0.0827 -0.0884 -0.4570
  859MPD2     C12608   2.846   2.997  14.840 -0.1562 -0.3439  0.2212
  859MPD2    C112609   2.982   3.006  14.864 -0.8310 -0.3000  0.2946
  859MPD2    C212610   3.066   2.902  14.837  0.1958  0.3657  0.2517
  859MPD2    C312611   3.020   2.783  14.792  0.9755  0.3775 -0.6264
  859MPD2    C412612   2.884   2.774  14.771  0.2798 -0.2604  0.8921
  859MPD2    C512613   2.799   2.883  14.784  0.7109 -0.8005  0.0070
  859MPD2     H12614   3.165   2.910  14.879  0.4549 -1.4384 -0.0125
  859MPD2    H112615   2.837   2.680  14.742  4.7705 -2.1347 -0.3129
  859MPD2    H212616   2.772   3.070  14.871  1.6673  1.5279  0.1045
  859MPD2    H312617   2.693   2.863  14.767  0.0962  0.8008  1.9165
  859MPD2     N12618   3.101   2.661  14.773 -0.4013 -0.1354 -0.6852
  859MPD2    H512619   3.053   2.579  14.735  0.3066  0.0782 -2.0427
  859MPD2    N112620   3.023   3.138  14.892  0.1698 -0.0174  0.0801
  859MPD2    H712621   2.957   3.214  14.905 -0.1794 -0.5983  1.7942
  860MPD2     C12622   0.485   3.591  11.308 -0.8520 -0.1590  0.0138
  860MPD2    C112623   0.456   3.476  11.377  0.3880  0.6484  0.1907
  860MPD2    C212624   0.349   3.470  11.466 -0.1581  0.0883 -0.3915
  860MPD2    C312625   0.263   3.575  11.480 -0.7386  0.6793  0.5258
  860MPD2    C412626   0.286   3.691  11.410 -0.9326 -0.2918 -0.0079
  860MPD2    C512627   0.405   3.700  11.330 -0.5170 -0.1522 -0.9723
  860MPD2     H12628   0.339   3.386  11.534  2.5391  1.2199  1.3889
  860MPD2    H112629   0.229   3.783  11.421 -2.1906 -0.8021 -2.3080
  860MPD2    H212630   0.563   3.604  11.234 -0.6051  1.2328  0.5291
  860MPD2    H312631   0.429   3.793  11.280  0.6676  0.3032  0.4425
  860MPD2     N12632   0.164   3.566  11.584 -0.7488  0.3476 -0.4965
  860MPD2    H512633   0.158   3.480  11.636  0.0235  0.5026 -0.1408
  860MPD2    N112634   0.549   3.374  11.375  0.3760 -0.6562 -0.6403
  860MPD2    H712635   0.538   3.307  11.450 -1.8622 -0.8449 -1.1345
  861MPD2     C12636   4.625   1.724  10.892 -0.8472  0.2365  0.1060
  861MPD2    C112637   4.515   1.644  10.914 -0.3051 -0.3737 -0.8632
  861MPD2    C212638   4.400   1.667  10.837  0.2209 -0.2011 -0.0389
  861MPD2    C312639   4.387   1.770  10.746  0.6816  0.1713  0.4072
  861MPD2    C412640   4.499   1.850  10.725  0.1068  0.3225  0.6832
  861MPD2    C512641   4.611   1.817  10.791 -0.5899  0.0702  0.1155
  861MPD2     H12642   4.314   1.606  10.859  0.5225 -1.1544 -1.4985
  861MPD2    H112643   4.505   1.943  10.669  1.6783 -1.2397 -1.7693
  861MPD2    H212644   4.720   1.714  10.943 -0.1552 -1.3269 -1.4752
  861MPD2    H312645   4.699   1.874  10.766 -0.9448  0.8813  0.7134
  861MPD2     N12646   4.269   1.815  10.685 -0.0264  0.1643  0.1508
  861MPD2    H512647   4.274   1.903  10.635  0.1349  0.6521  1.0285
  861MPD2    N112648   4.497   1.558  11.031  0.3516  0.2937  0.9388
  861MPD2    H712649   4.409   1.507  11.029  0.0580  0.8647 -0.4450
  862MPD2     C12650   3.737   1.957  10.174 -0.2368  0.1515  0.2654
  862MPD2    C112651   3.827   1.947  10.275 -0.1787  0.4280  0.3539
  862MPD2    C212652   3.852   1.823  10.334 -0.3780 -0.2992  0.2634
  862MPD2    C312653   3.781   1.707  10.287  0.1712  0.8354 -0.1880
  862MPD2    C412654   3.690   1.721  10.179  0.2463  0.1691  0.0288
  862MPD2    C512655   3.670   1.850  10.134  0.0177 -0.2260  0.3554
  862MPD2     H12656   3.900   1.813  10.431 -1.6915 -2.3042  0.7067
  862MPD2    H112657   3.631   1.637  10.145  1.8830 -0.2350 -1.7954
  862MPD2    H212658   3.710   2.053  10.131 -1.8121 -0.3622  0.0974
  862MPD2    H312659   3.590   1.863  10.062  0.1641  1.6428  0.5392
  862MPD2     N12660   3.785   1.582  10.354 -0.0715 -0.2567 -0.0624
  862MPD2    H512661   3.717   1.515  10.319 -2.2516  1.2081  1.3749
  862MPD2    N112662   3.883   2.070  10.327 -0.3494  0.7332  0.1913
  862MPD2    H712663   3.860   2.151  10.270 -1.6187  1.3147  1.5370
  863MPD2     C12664   2.410   4.544  16.962 -0.1457  0.5229  0.1722
  863MPD2    C112665   2.515   4.559  16.878  0.2510 -0.0685  0.6335
  863MPD2    C212666   2.644   4.551  16.928  0.1519  0.4236 -0.2078
  863MPD2    C312667   2.663   4.524  17.064  0.0466  0.5250 -0.2903
  863MPD2    C412668   2.549   4.513  17.146 -0.1867 -0.7412 -0.6620
  863MPD2    C512669   2.423   4.524  17.097 -0.3931  0.3245  0.2840
  863MPD2     H12670   2.728   4.558  16.859 -0.6256  0.2756 -1.1733
  863MPD2    H112671   2.568   4.485  17.249 -1.4900  0.5793 -0.0502
  863MPD2    H212672   2.311   4.549  16.920 -0.0867 -0.9450 -0.1416
  863MPD2    H312673   2.335   4.517  17.160 -1.4739  0.5262 -1.2182
  863MPD2     N12674   2.789   4.516  17.131  0.7536 -0.0271 -0.4604
  863MPD2    H512675   2.786   4.508  17.232  0.5819  1.1285 -0.3764
  863MPD2    N112676   2.485   4.577  16.739  0.5568 -0.1915 -0.2269
  863MPD2    H712677   2.387   4.599  16.724  0.4009 -0.7294 -0.0173
  864MPD2     C12678   3.029   0.958  17.403 -0.4071  0.1693  0.1841
  864MPD2    C112679   3.115   0.887  17.320  0.6010  0.3493  0.1316
  864MPD2    C212680   3.199   0.956  17.232 -0.0470  0.1558  0.9715
  864MPD2    C312681   3.194   1.097  17.226  0.1811 -0.2554 -0.0743
  864MPD2    C412682   3.114   1.167  17.308 -0.3943 -0.2641 -0.4763
  864MPD2    C512683   3.030   1.099  17.397 -0.4863  0.4214  0.2875
  864MPD2     H12684   3.255   0.908  17.152 -1.7993 -0.6595  0.2332
  864MPD2    H112685   3.132   1.273  17.321  0.5808 -0.3737 -0.9133
  864MPD2    H212686   2.968   0.910  17.479  0.4511 -1.2965 -0.0603
  864MPD2    H312687   2.963   1.156  17.460 -0.3232 -0.6755  1.4547
  864MPD2     N12688   3.260   1.172  17.132  0.1256  0.2586 -0.3806
  864MPD2    H512689   3.242   1.272  17.137 -1.7667 -0.1381  0.7454
  864MPD2    N112690   3.087   0.748  17.321  0.1939 -0.1502  0.3473
  864MPD2    H712691   3.012   0.707  17.375 -0.0942  1.9757  1.5316
  865MPD2     C12692   3.214   1.490  16.314  0.6937 -0.4589 -0.5969
  865MPD2    C112693   3.221   1.383  16.399 -0.3706 -0.0168 -0.7919
  865MPD2    C212694   3.210   1.413  16.535 -0.1001  0.0764  0.4629
  865MPD2    C312695   3.206   1.547  16.576  0.2736 -0.0663  0.0240
  865MPD2    C412696   3.192   1.647  16.479  0.5287  0.2118  0.0716
  865MPD2    C512697   3.208   1.620  16.351  0.6919 -0.6416  0.2099
  865MPD2     H12698   3.219   1.333  16.607 -2.1149 -1.5462 -1.0909
  865MPD2    H112699   3.164   1.748  16.506 -1.0259  0.2585 -1.7346
  865MPD2    H212700   3.220   1.476  16.206  0.4346 -4.4008 -0.1200
  865MPD2    H312701   3.209   1.702  16.280  1.2567  0.1563  1.1375
  865MPD2     N12702   3.191   1.592  16.709  0.1399 -0.0854 -0.0107
  865MPD2    H512703   3.171   1.691  16.717 -0.5480 -0.1300 -1.2879
  865MPD2    N112704   3.250   1.259  16.346 -0.2097 -0.2586 -0.1768
  865MPD2    H712705   3.255   1.260  16.245 -0.4493  2.8377 -0.1463
  866MPD2     C12706   0.242   2.201  10.944 -0.1330 -0.4887  1.3861
  866MPD2    C112707   0.218   2.072  10.971  0.1117 -0.7706  0.1329
  866MPD2    C212708   0.086   2.031  10.997 -0.0826  0.1275  0.2209
  866MPD2    C312709   4.712   2.122  10.984 -0.0073  0.3107  0.5153
  866MPD2    C412710   0.008   2.244  10.934 -0.0010  0.0245  0.1733
  866MPD2    C512711   0.134   2.282  10.910 -0.8701  0.4918  0.4478
  866MPD2     H12712   0.056   1.928  11.014 -1.9700  0.6228 -0.1215
  866MPD2    H112713   4.653   2.314  10.926 -0.6301 -0.9270 -1.7102
  866MPD2    H212714   0.340   2.228  10.904 -1.0239  0.0621 -0.4174
  866MPD2    H312715   0.147   2.382  10.872 -2.4765  0.8630  0.8795
  866MPD2     N12716   4.578   2.090  11.012  0.2699  0.1131 -0.4543
  866MPD2    H512717   4.509   2.151  10.970 -0.2423 -1.2590 -1.6419
  866MPD2    N112718   0.324   1.976  10.959  0.2580 -0.2932  0.3152
  866MPD2    H712719   0.416   2.018  10.971 -0.2260  1.0605 -0.7292
  867MPD2     C12720   1.742   1.077  16.434  0.1575  0.5356  0.6648
  867MPD2    C112721   1.838   1.059  16.534  0.4565 -0.1247  0.3530
  867MPD2    C212722   1.890   1.171  16.588 -0.4801  0.3230 -0.0221
  867MPD2    C312723   1.843   1.296  16.542  0.1679 -0.4380 -0.2106
  867MPD2    C412724   1.761   1.312  16.432  0.1302  0.2740 -0.7043
  867MPD2    C512725   1.707   1.197  16.382 -0.0517 -0.1433  0.2999
  867MPD2     H12726   1.960   1.160  16.670 -0.4714  0.6130  0.0090
  867MPD2    H112727   1.729   1.409  16.398 -1.2963  0.3622  0.8569
  867MPD2    H212728   1.683   1.002  16.384  2.3681 -0.1087 -0.9761
  867MPD2    H312729   1.636   1.198  16.300  2.1874  0.2065 -1.6430
  867MPD2     N12730   1.885   1.407  16.618  0.2770  0.4342  0.1915
  867MPD2    H512731   1.847   1.494  16.583  2.5981  2.0162  1.5920
  867MPD2    N112732   1.865   0.929  16.576 -0.3654 -0.0602  0.3565
  867MPD2    H712733   1.835   0.855  16.514 -2.1215 -1.4466  2.8507
  868MPD2     C12734   3.965   0.406  13.063  0.1203 -0.1222  0.4608
  868MPD2    C112735   3.982   0.313  13.165  0.2090 -0.2694 -0.0370
  868MPD2    C212736   3.864   0.268  13.225 -0.2146 -0.6173  0.0085
  868MPD2    C312737   3.749   0.348  13.216  0.0012 -0.7603  0.2132
  868MPD2    C412738   3.738   0.450  13.128 -0.4299 -0.7908 -0.4141
  868MPD2    C512739   3.846   0.472  13.045 -0.2288  0.2982 -0.8000
  868MPD2     H12740   3.869   0.193  13.303 -1.3539 -0.6281  0.0685
  868MPD2    H112741   3.648   0.505  13.103 -1.7083 -3.2437 -1.2845
  868MPD2    H212742   4.051   0.427  13.000 -0.7278 -0.3415 -0.7879
  868MPD2    H312743   3.842   0.550  12.970  4.1322 -0.1042 -1.4297
  868MPD2     N12744   3.646   0.309  13.305 -0.0472 -0.3369  0.4916
  868MPD2    H512745   3.667   0.229  13.364 -1.0531 -0.2572  0.9527
  868MPD2    N112746   4.106   0.249  13.186  0.7596  0.6118 -0.3649
  868MPD2    H712747   4.180   0.272  13.121  0.2235 -1.6170 -1.7865
  869MPD2     C12748   0.792   3.607   2.324  0.6343 -0.0557 -0.1656
  869MPD2    C112749   0.834   3.486   2.271 -0.5685  0.1716 -0.1678
  869MPD2    C212750   0.847   3.480   2.134  0.0763 -0.1696  0.0815
  869MPD2    C312751   0.818   3.591   2.053  0.2831  0.2645  0.8452
  869MPD2    C412752   0.794   3.710   2.109  0.8996 -0.6725 -0.5061
  869MPD2    C512753   0.782   3.717   2.248  0.1502  0.0412  0.8124
  869MPD2     H12754   0.853   3.379   2.095  0.5623 -1.1063  2.5407
  869MPD2    H112755   0.750   3.786   2.045  1.5700  0.6552  0.6076
  869MPD2    H212756   0.773   3.624   2.429  0.3412  1.8516 -0.5396
  869MPD2    H312757   0.750   3.806   2.300 -3.6104 -0.5078 -0.5469
  869MPD2     N12758   0.808   3.582   1.911  0.6571 -0.2820  0.0246
  869MPD2    H512759   0.792   3.670   1.863  0.6961 -0.9862 -1.2751
  869MPD2    N112760   0.848   3.373   2.356 -0.0239  0.0834  0.3490
  869MPD2    H712761   0.814   3.387   2.451 -0.9071  1.5162 -0.1932
  870MPD2     C12762   0.501   2.722   1.240  0.2643  0.6941  0.3756
  870MPD2    C112763   0.554   2.617   1.165 -0.2999  0.4745 -0.8185
  870MPD2    C212764   0.550   2.624   1.026 -0.7002 -0.6470  0.7419
  870MPD2    C312765   0.511   2.739   0.961  0.0537  0.2261 -0.4946
  870MPD2    C412766   0.462   2.847   1.036 -0.2405  0.5311 -0.2257
  870MPD2    C512767   0.456   2.831   1.172 -0.7462 -0.4609  0.5313
  870MPD2     H12768   0.608   2.550   0.972 -0.3420  1.2143 -1.4710
  870MPD2    H112769   0.424   2.940   0.995 -2.3799  0.0017  0.5533
  870MPD2    H212770   0.489   2.711   1.348 -1.3594  2.0112  0.3505
  870MPD2    H312771   0.420   2.918   1.226 -0.6613 -0.3291  0.3750
  870MPD2     N12772   0.531   2.742   0.822 -0.1081 -0.7042 -0.1727
  870MPD2    H512773   0.561   2.659   0.772  1.1612 -0.4450  0.1614
  870MPD2    N112774   0.589   2.500   1.233  0.5256  0.6697 -0.6846
  870MPD2    H712775   0.566   2.492   1.332 -0.9188 -1.2361 -1.1814
  871MPD2     C12776   0.758   1.358  15.966 -0.6938  0.0273 -0.5314
  871MPD2    C112777   0.680   1.263  16.030 -0.6231 -0.5731  0.6559
  871MPD2    C212778   0.725   1.131  16.030  0.1719 -0.3284 -0.2380
  871MPD2    C312779   0.839   1.093  15.961 -0.2131 -0.1334  0.4518
  871MPD2    C412780   0.912   1.188  15.890  0.2839  0.3145 -0.0443
  871MPD2    C512781   0.873   1.320  15.902 -0.4252  0.1959  0.1851
  871MPD2     H12782   0.654   1.057  16.067 -1.0654  0.4172 -1.1291
  871MPD2    H112783   1.000   1.154  15.836 -1.2012 -2.6777 -0.6080
  871MPD2    H212784   0.724   1.461  15.967  0.3103  0.3461  0.2746
  871MPD2    H312785   0.927   1.399  15.851  0.5732  0.6896  1.9907
  871MPD2     N12786   0.861   0.951  15.962  0.8566  0.5303 -0.5810
  871MPD2    H512787   0.789   0.895  16.007  0.6959  2.0460  1.0379
  871MPD2    N112788   0.566   1.311  16.102  0.5563 -0.5068  0.0703
  871MPD2    H712789   0.546   1.410  16.097 -0.7397 -0.7907 -0.4203
  872MPD2     C12790   1.765   3.721  13.523  0.5540  0.2197  0.2416
  872MPD2    C112791   1.791   3.833  13.604 -0.4526  0.2827  0.0683
  872MPD2    C212792   1.748   3.828  13.737 -0.5747 -0.9754 -0.0476
  872MPD2    C312793   1.670   3.717  13.780  0.4943  0.7956  0.0658
  872MPD2    C412794   1.640   3.617  13.692  0.4395 -0.0079  0.1448
  872MPD2    C512795   1.682   3.623  13.564 -0.0967  0.1908  0.8229
  872MPD2     H12796   1.772   3.916  13.797  1.6585 -0.4190 -1.7457
  872MPD2    H112797   1.572   3.535  13.715  0.6756  0.1511  1.4272
  872MPD2    H212798   1.791   3.721  13.418  0.6531  0.1631  0.2660
  872MPD2    H312799   1.653   3.545  13.495  0.0061  0.5951  0.3264
  872MPD2     N12800   1.622   3.707  13.915 -0.0559 -0.0512  0.0008
  872MPD2    H512801   1.557   3.633  13.940  0.0753 -0.6435 -1.3805
  872MPD2    N112802   1.852   3.955  13.554 -0.1574 -0.1266  0.1713
  872MPD2    H712803   1.868   4.030  13.621 -3.6274  0.5612  0.2390
  873MPD2     C12804   4.470   4.379   0.900  0.2907 -0.0113  0.0351
  873MPD2    C112805   4.343   4.346   0.935 -0.1841 -0.5165 -0.1508
  873MPD2    C212806   4.290   4.226   0.896  0.6024 -0.0496  0.2531
  873MPD2    C312807   4.370   4.119   0.866  0.5798  0.0534 -0.1315
  873MPD2    C412808   4.502   4.143   0.850 -0.7793 -0.0267 -0.4067
  873MPD2    C512809   4.544   4.272   0.867  0.0569  0.2224  0.0312
  873MPD2     H12810   4.183   4.210   0.905  0.3832  1.1288 -0.1968
  873MPD2    H112811   4.566   4.056   0.835 -0.7997 -0.1156  0.0186
  873MPD2    H212812   4.521   4.471   0.924 -1.4947  1.2332 -0.8823
  873MPD2    H312813   4.650   4.291   0.852  0.1130 -0.5726 -0.5407
  873MPD2     N12814   4.317   3.988   0.850  0.1859  0.1555  0.7316
  873MPD2    H512815   4.387   3.916   0.861  0.5610  0.5718  1.0459
  873MPD2    N112816   4.279   4.451   1.005  0.4143  0.0099 -0.3536
  873MPD2    H712817   4.318   4.543   1.017  0.9245 -0.4789  1.6890
  874MPD2     C12818   3.254   3.950  16.129 -0.4814  0.4104 -0.3300
  874MPD2    C112819   3.330   3.845  16.179 -0.0034  0.2598 -0.2477
  874MPD2    C212820   3.445   3.817  16.119 -0.3083  0.6377 -0.2057
  874MPD2    C312821   3.498   3.892  16.020  0.4608 -0.0402  0.4011
  874MPD2    C412822   3.423   3.992  15.972  0.3069  0.1111 -0.7023
  874MPD2    C512823   3.301   4.024  16.022  0.2416 -0.0847  0.0680
  874MPD2     H12824   3.500   3.730  16.153 -0.6702  0.4689 -0.0525
  874MPD2    H112825   3.461   4.048  15.889  3.6748 -0.1720  0.6453
  874MPD2    H212826   3.166   3.973  16.187 -1.1068 -1.3223 -0.5922
  874MPD2    H312827   3.238   4.103  15.982 -0.0253 -1.1879 -1.7474
  874MPD2     N12828   3.626   3.862  15.982 -0.1677  0.0276  0.2326
  874MPD2    H512829   3.678   3.799  16.043 -0.3510 -1.9457 -1.6613
  874MPD2    N112830   3.284   3.770  16.288  0.2071  0.9205  0.1868
  874MPD2    H712831   3.202   3.799  16.340 -0.0759 -2.2311  1.4750
  875MPD2     C12832   4.566   2.096  14.307 -0.5594 -0.4464  0.0008
  875MPD2    C112833   4.447   2.059  14.361  0.5137 -0.8726  0.2221
  875MPD2    C212834   4.430   2.055  14.497  0.0413 -0.8427 -0.3062
  875MPD2    C312835   4.538   2.091  14.583  0.4797 -0.8614 -0.3321
  875MPD2    C412836   4.660   2.123  14.525 -0.2055 -0.1548 -0.4090
  875MPD2    C512837   4.671   2.122  14.389 -0.3066  0.2614 -0.1511
  875MPD2     H12838   4.333   2.036  14.541 -0.3686  0.5636 -0.6125
  875MPD2    H112839   0.024   2.141  14.580 -0.9885  1.4689  0.3617
  875MPD2    H212840   4.583   2.101  14.200 -1.6751 -0.8986 -0.2032
  875MPD2    H312841   0.035   2.157  14.342 -0.3697  2.1214  1.0982
  875MPD2     N12842   4.526   2.109  14.720 -0.3159 -0.0980  0.2051
  875MPD2    H512843   4.605   2.154  14.765  0.0671 -0.2993 -0.2556
  875MPD2    N112844   4.335   2.051  14.276  0.0489  0.5135  0.1188
  875MPD2    H712845   4.248   2.043  14.328 -1.1145 -1.5159 -2.0993
  876MPD2     C12846   3.213   3.767  15.796 -0.4012  0.0717  0.1676
  876MPD2    C112847   3.318   3.683  15.750  0.4248  0.2507  0.1426
  876MPD2    C212848   3.353   3.569  15.815  0.3125 -0.3174 -0.1954
  876MPD2    C312849   3.300   3.536  15.936  0.4844  0.3834 -0.8039
  876MPD2    C412850   3.198   3.615  15.985  0.2201 -0.0631  0.5057
  876MPD2    C512851   3.153   3.728  15.915 -0.0348 -0.3264  0.1269
  876MPD2     H12852   3.423   3.496  15.778  2.1936  1.7694 -0.7633
  876MPD2    H112853   3.162   3.606  16.087 -2.1338  2.8140 -0.0944
  876MPD2    H212854   3.190   3.860  15.745 -2.7030 -1.2693 -1.2864
  876MPD2    H312855   3.081   3.797  15.957 -1.1037 -2.1170  1.2229
  876MPD2     N12856   3.359   3.425  15.997  0.5503 -0.5442  0.0854
  876MPD2    H512857   3.436   3.384  15.943  1.0037 -1.1845  1.2160
  876MPD2    N112858   3.391   3.722  15.632 -0.6710 -0.5834 -0.7289
  876MPD2    H712859   3.353   3.800  15.579  0.6115  0.8162  0.4085
  877MPD2     C12860   3.268   3.889  14.897 -0.2479 -0.1549  0.0025
  877MPD2    C112861   3.406   3.898  14.915 -0.1084  0.2779 -0.0064
  877MPD2    C212862   3.480   3.923  14.805 -0.1450 -0.0701 -0.2296
  877MPD2    C312863   3.433   3.921  14.680 -0.0379 -0.9761  0.1371
  877MPD2    C412864   3.302   3.908  14.663 -0.2134  0.2369  0.5287
  877MPD2    C512865   3.213   3.886  14.771 -0.3352 -0.8488  0.3753
  877MPD2     H12866   3.588   3.927  14.819 -0.2451 -0.6271  0.7217
  877MPD2    H112867   3.255   3.916  14.565 -2.6764  0.8935  1.7736
  877MPD2    H212868   3.200   3.865  14.978 -0.1573  1.5030  0.5775
  877MPD2    H312869   3.107   3.883  14.745 -1.0617 -0.3617  3.3226
  877MPD2     N12870   3.513   3.918  14.559  0.1761  0.3768 -0.7413
  877MPD2    H512871   3.456   3.898  14.478 -0.0506 -0.4903 -0.3722
  877MPD2    N112872   3.470   3.886  15.036 -0.0972  0.5341 -0.2683
  877MPD2    H712873   3.571   3.892  15.045 -0.1010  1.2690 -0.7515
  878MPD2     C12874   3.055   3.256  12.918 -0.4115 -0.0780 -0.1987
  878MPD2    C112875   2.974   3.335  12.983  0.4414  0.0766 -0.1613
  878MPD2    C212876   2.979   3.342  13.122  0.2298  0.6026  0.4030
  878MPD2    C312877   3.068   3.260  13.185  0.3184 -0.2067 -0.2587
  878MPD2    C412878   3.134   3.160  13.110 -0.3149 -0.4168 -0.3988
  878MPD2    C512879   3.141   3.168  12.980  0.1938 -0.7061  0.3428
  878MPD2     H12880   2.914   3.408  13.178 -0.3564 -1.7168  2.4372
  878MPD2    H112881   3.207   3.089  13.149  0.5824  0.6928 -0.0373
  878MPD2    H212882   3.049   3.251  12.810  3.3421 -0.0622 -0.4183
  878MPD2    H312883   3.199   3.102  12.917 -1.7158 -1.1370 -0.9653
  878MPD2     N12884   3.086   3.273  13.329 -0.8462 -0.1333 -0.1051
  878MPD2    H512885   3.043   3.356  13.370 -0.5109 -0.0382  0.0609
  878MPD2    N112886   2.878   3.413  12.916 -0.0228  0.3244 -0.4357
  878MPD2    H712887   2.822   3.474  12.975 -0.0036 -0.8820  0.8319
  879MPD2     C12888   4.107   4.686  16.705  0.3894 -0.1508  0.8149
  879MPD2    C112889   3.987   4.628  16.732  0.5017  0.5080  0.0037
  879MPD2    C212890   3.966   4.494  16.697  0.0850 -0.6382  0.1782
  879MPD2    C312891   4.066   4.421  16.634  0.1267  0.4327  0.1068
  879MPD2    C412892   4.185   4.488  16.598  0.8533 -0.0103 -0.2008
  879MPD2    C512893   4.208   4.620  16.636  0.8269 -0.5825  0.6026
  879MPD2     H12894   3.870   4.451  16.723  0.1525  0.7445  2.7250
  879MPD2    H112895   4.256   4.444  16.529 -0.5552 -2.6649  0.0357
  879MPD2    H212896   4.127   0.063  16.731 -2.0159  0.3651  0.6152
  879MPD2    H312897   4.303   4.663  16.609  0.4708  0.6830  1.3738
  879MPD2     N12898   4.058   4.285  16.604  0.0047  0.1066 -0.0531
  879MPD2    H512899   4.127   4.254  16.536  1.3247  1.0418  0.8582
  879MPD2    N112900   3.889   4.702  16.809 -0.6428 -0.8603  0.8522
  879MPD2    H712901   3.919   0.067  16.838 -0.9451 -0.0766 -1.3410
  880MPD2     C12902   0.399   1.287   0.216 -0.1342  0.0589  0.1122
  880MPD2    C112903   0.340   1.384   0.291 -0.8743 -0.1377  0.6966
  880MPD2    C212904   0.279   1.352   0.411  0.0773  0.0376  0.2997
  880MPD2    C312905   0.277   1.216   0.448  0.0253  0.6293  0.0827
  880MPD2    C412906   0.355   1.120   0.382 -0.3960  0.3380 -0.3301
  880MPD2    C512907   0.415   1.160   0.264 -0.3920  0.2826  0.4163
  880MPD2     H12908   0.218   1.420   0.469 -0.4313  0.3762 -0.6227
  880MPD2    H112909   0.386   1.032   0.438 -1.5215  2.3704  3.5412
  880MPD2    H212910   0.457   1.318   0.130 -0.3500  1.7606  0.5874
  880MPD2    H312911   0.484   1.097   0.210 -0.9249 -2.3914  2.8143
  880MPD2     N12912   0.204   1.186   0.569 -0.6519 -0.5847 -0.3342
  880MPD2    H512913   0.169   1.265   0.622  0.5590 -0.2907  0.0293
  880MPD2    N112914   0.342   1.517   0.252  0.1985  0.1146  0.5667
  880MPD2    H712915   0.390   1.537   0.165 -0.1723 -0.0451  0.3225
  881MPD2     C12916   0.076   1.501  17.162 -0.4595  0.3540 -0.3393
  881MPD2    C112917   0.112   1.632  17.173  0.7052 -0.1449 -0.3591
  881MPD2    C212918   0.124   1.681  17.304 -0.0025 -0.0869 -0.1216
  881MPD2    C312919   0.105   1.596  17.416  1.0644 -0.5072 -0.5242
  881MPD2    C412920   0.092   1.459  17.391  0.0812 -0.5213 -0.6812
  881MPD2    C512921   0.070   1.415  17.264  0.0599  0.5201 -0.4382
  881MPD2     H12922   0.138   1.788  17.317  0.2656 -0.3528  1.7291
  881MPD2    H112923   0.091   1.391  17.476 -0.7673  0.6986  0.2768
  881MPD2    H212924   0.060   1.459  17.063 -0.4029  1.4526 -0.8246
  881MPD2    H312925   0.048   1.310  17.248  0.5512  0.5658 -1.3713
  881MPD2     N12926   0.115   1.642  17.552  0.1799 -0.3859 -0.4226
  881MPD2    H512927   0.111   1.565  17.618  3.0329 -1.2996 -1.2963
  881MPD2    N112928   0.110   1.718  17.062 -0.5012  0.0937  0.2306
  881MPD2    H712929   0.111   1.682  16.967  0.3959 -0.2020  0.3483
  882MPD2     C12930   3.336   3.691  13.841  0.2884 -0.7084  0.4774
  882MPD2    C112931   3.324   3.748  13.965 -0.3104 -0.4219 -0.1532
  882MPD2    C212932   3.199   3.793  14.002 -0.5654 -0.1231 -0.5468
  882MPD2    C312933   3.079   3.785  13.925  0.4996  0.1710  0.1082
  882MPD2    C412934   3.098   3.732  13.797 -0.7303 -0.2256 -0.0849
  882MPD2    C512935   3.221   3.681  13.761 -0.7869  0.0399  0.1321
  882MPD2     H12936   3.203   3.843  14.098 -1.6493 -1.9244  0.4346
  882MPD2    H112937   3.018   3.732  13.725 -1.2924  0.5636  0.5416
  882MPD2    H212938   3.428   3.647  13.804  0.8791  0.5641  0.4339
  882MPD2    H312939   3.223   3.629  13.666  0.4156 -1.2099  0.8365
  882MPD2     N12940   2.952   3.820  13.969 -0.5101 -0.6876  0.1276
  882MPD2    H512941   2.881   3.815  13.896 -2.1790  0.1134  1.6916
  882MPD2    N112942   3.444   3.762  14.042 -0.0633  0.7042 -0.1229
  882MPD2    H712943   3.525   3.722  13.995  0.9549 -0.1595  2.3521
  883MPD2     C12944   0.657   4.277  16.342 -0.0199 -0.6778  0.3924
  883MPD2    C112945   0.765   4.192  16.315 -0.1591  0.7111  0.4742
  883MPD2    C212946   0.862   4.188  16.417 -0.3127  0.3839 -0.0662
  883MPD2    C312947   0.840   4.245  16.540  0.4675  0.4197  0.7933
  883MPD2    C412948   0.725   4.308  16.574  0.1202  0.6218 -0.0754
  883MPD2    C512949   0.640   4.335  16.464  0.0028 -0.2256  0.2774
  883MPD2     H12950   0.953   4.130  16.404 -0.8050 -0.6499  1.0953
  883MPD2    H112951   0.715   4.367  16.664 -0.3442 -1.3751  1.1788
  883MPD2    H212952   0.601   4.320  16.259 -0.3303 -0.5649  0.6593
  883MPD2    H312953   0.567   4.414  16.469  1.6458  1.3428 -0.7245
  883MPD2     N12954   0.955   4.243  16.624  0.2019  0.7960  0.7735
  883MPD2    H512955   1.046   4.212  16.591 -0.9815 -0.6341 -1.1143
  883MPD2    N112956   0.790   4.126  16.195 -0.1447  0.1123  1.0495
  883MPD2    H712957   0.871   4.067  16.186 -0.6786 -0.2645 -1.2046
  884MPD2     C12958   2.769   4.453  15.143  0.3929 -0.3979 -0.0508
  884MPD2    C112959   2.719   4.507  15.026  0.0501  0.5716  0.7074
  884MPD2    C212960   2.587   4.548  15.021 -0.5875 -0.2923  0.0740
  884MPD2    C312961   2.514   4.551  15.135  0.1739 -0.8118 -0.8005
  884MPD2    C412962   2.570   4.510  15.254 -1.2437 -0.4509 -0.1627
  884MPD2    C512963   2.695   4.453  15.254  0.4878  0.2073 -0.6259
  884MPD2     H12964   2.549   4.581  14.925 -2.2466 -0.5565  0.6427
  884MPD2    H112965   2.522   4.503  15.351 -2.4042 -0.4510 -0.7269
  884MPD2    H212966   2.866   4.405  15.154  1.0467  0.9039 -0.1191
  884MPD2    H312967   2.728   4.408  15.346 -0.6924  1.2754  0.3247
  884MPD2     N12968   2.393   4.614  15.127 -0.3427  0.8610 -0.1241
  884MPD2    H512969   2.381   4.674  15.045  0.4746  2.1818  0.7136
  884MPD2    N112970   2.792   4.490  14.912  0.5338 -0.3313 -0.2193
  884MPD2    H712971   2.737   4.510  14.829  0.4824 -2.9921 -0.8185
  885MPD2     C12972   0.725   4.330   0.059 -0.4229 -0.0567  0.1097
  885MPD2    C112973   0.854   4.380   0.034 -0.2374 -0.6160  0.2500
  885MPD2    C212974   0.872   4.462  17.638  0.5002  0.1288  0.5451
  885MPD2    C312975   0.772   4.509  17.552  1.3445  0.2417  0.6048
  885MPD2    C412976   0.648   4.459  17.578 -0.6657  0.5298  0.1849
  885MPD2    C512977   0.630   4.363  17.676  0.1911  0.2620  0.0051
  885MPD2     H12978   0.967   4.512  17.624 -1.0184  3.1329  0.8731
  885MPD2    H112979   0.566   4.488  17.513 -1.5475 -1.9216  0.2018
  885MPD2    H212980   0.703   4.258   0.136 -1.6233  1.0217  0.7773
  885MPD2    H312981   0.540   4.304  17.690 -0.4737  1.5006  0.9799
  885MPD2     N12982   0.801   4.597  17.447  0.4016  0.3567  0.0088
  885MPD2    H512983   0.897   4.626  17.429  0.9062 -2.0182 -1.0907
  885MPD2    N112984   0.970   4.353   0.114 -0.0898  0.2185  0.6263
  885MPD2    H712985   1.051   4.409   0.088 -1.3151  1.2017 -1.0033
  886MPD2     C12986   1.990   3.086  15.385  0.4899 -0.0096 -0.0838
  886MPD2    C112987   2.123   3.113  15.382  1.0326  0.2722 -0.0025
  886MPD2    C212988   2.169   3.248  15.382  0.3132  0.2904  0.3055
  886MPD2    C312989   2.078   3.351  15.378  0.5605  0.5221  0.4332
  886MPD2    C412990   1.943   3.316  15.378  0.1109 -0.3173 -0.0137
  886MPD2    C512991   1.899   3.189  15.385  0.2046  0.5716 -0.2488
  886MPD2     H12992   2.275   3.264  15.365  1.0303 -4.5996  0.2559
  886MPD2    H112993   1.864   3.389  15.377  2.5979  2.3707  1.9984
  886MPD2    H212994   1.952   2.986  15.403 -0.0818  0.2802  0.2829
  886MPD2    H312995   1.793   3.168  15.383  0.4008 -0.2514 -1.9380
  886MPD2     N12996   2.114   3.484  15.361  0.6756  0.5052  0.0520
  886MPD2    H512997   2.035   3.548  15.361  0.8415  0.7398  2.4906
  886MPD2    N112998   2.230   3.011  15.383  0.0871 -0.2693  0.0083
  886MPD2    H712999   2.326   3.043  15.395  0.6399 -1.5822 -0.9841
  887MPD2     C13000   2.920   3.045  15.277  0.4251 -0.0928  0.6555
  887MPD2    C113001   2.806   3.082  15.331 -0.5108 -0.2285 -0.3518
  887MPD2    C213002   2.787   3.213  15.374  0.9613 -0.2055 -0.4825
  887MPD2    C313003   2.890   3.306  15.364 -0.4333  0.3373  0.5670
  887MPD2    C413004   3.010   3.265  15.295  0.0447  0.4835  0.0031
  887MPD2    C513005   3.027   3.133  15.256  0.2583  0.1928 -0.1292
  887MPD2     H13006   2.699   3.242  15.430  0.1315 -0.3879 -1.7089
  887MPD2    H113007   3.090   3.337  15.280 -1.6616  2.1724 -1.0582
  887MPD2    H213008   2.942   2.943  15.245  2.0097 -0.2849  2.3464
  887MPD2    H313009   3.122   3.099  15.217  1.3344  0.7338  1.9974
  887MPD2     N13010   2.851   3.439  15.411 -0.5063 -0.0368 -0.3350
  887MPD2    H513011   2.754   3.451  15.437  0.1243  0.9225  1.5267
  887MPD2    N113012   2.698   2.993  15.345  0.6421 -0.0848 -0.4250
  887MPD2    H713013   2.608   3.033  15.369  0.9401  0.0879  0.3935
  888MPD2     C13014   4.487   3.357  15.071 -0.1100  0.3953  0.1508
  888MPD2    C113015   4.473   3.414  15.197 -0.1262  0.3953 -0.6875
  888MPD2    C213016   4.529   3.541  15.231 -0.3099 -0.0335 -0.1480
  888MPD2    C313017   4.602   3.602  15.132  0.0851  0.0592  0.4013
  888MPD2    C413018   4.622   3.543  15.009 -0.1522  0.4625 -0.4968
  888MPD2    C513019   4.563   3.421  14.980  0.1673  0.5812  0.1582
  888MPD2     H13020   4.512   3.590  15.326 -0.9687 -0.5580  0.0082
  888MPD2    H113021   4.673   3.592  14.927 -0.2223 -0.1346 -0.9001
  888MPD2    H213022   4.452   3.257  15.050 -1.7975  1.2391 -0.9810
  888MPD2    H313023   4.590   3.374  14.886 -0.0751 -0.1567  0.4546
  888MPD2     N13024   4.658   3.726  15.165 -0.6056  0.2832 -0.3923
  888MPD2    H513025   4.638   3.765  15.257 -0.5910 -3.8693  1.3513
  888MPD2    N113026   4.393   3.347  15.297  0.4880  0.5106 -0.9271
  888MPD2    H713027   4.374   3.404  15.379  1.0968  1.0976 -1.1983
  889MPD2     C13028   3.531   3.132  12.457 -0.6014  0.6727 -0.4362
  889MPD2    C113029   3.569   3.055  12.570 -0.0606  0.2355  1.2290
  889MPD2    C213030   3.545   3.121  12.693  0.3159 -0.2768 -0.0881
  889MPD2    C313031   3.472   3.237  12.713  0.0559  0.6078 -0.8553
  889MPD2    C413032   3.418   3.293  12.593 -0.2688 -0.5586  0.1925
  889MPD2    C513033   3.457   3.248  12.471 -0.4733  0.2413  0.0537
  889MPD2     H13034   3.567   3.073  12.788  1.4511  1.4919  0.5548
  889MPD2    H113035   3.361   3.385  12.602  1.3225  0.5493 -0.9767
  889MPD2    H213036   3.568   3.104  12.359 -0.4556  0.1652 -0.2350
  889MPD2    H313037   3.431   3.301  12.380 -0.5089  0.3399  0.1217
  889MPD2     N13038   3.448   3.294  12.838 -0.1584  0.0429  0.1354
  889MPD2    H513039   3.503   3.261  12.917  0.1487  1.0003  0.3212
  889MPD2    N113040   3.665   2.951  12.570 -0.2016  0.2766  0.5379
  889MPD2    H713041   3.696   2.918  12.661 -2.1188  0.4647  1.2697
  890MPD2     C13042   3.354   4.555  14.304 -0.2139 -0.0114 -0.2310
  890MPD2    C113043   3.481   4.607  14.339  0.3435 -0.0084 -0.0469
  890MPD2    C213044   3.527   4.593  14.467  0.8381  0.0211 -0.0303
  890MPD2    C313045   3.456   4.510  14.546  0.2363 -0.0595  0.0266
  890MPD2    C413046   3.325   4.458  14.510 -0.5666  0.5749 -0.0808
  890MPD2    C513047   3.275   4.481  14.388  0.4349 -0.9770  0.4548
  890MPD2     H13048   3.629   4.622  14.493  0.7519  0.1755  0.1353
  890MPD2    H113049   3.258   4.405  14.576  0.8985 -1.2750 -0.0750
  890MPD2    H213050   3.317   4.561  14.202 -0.3341 -1.0773 -0.2591
  890MPD2    H313051   3.179   4.453  14.348  1.9626 -3.7720 -1.2685
  890MPD2     N13052   3.517   4.485  14.668 -0.0860  0.0376  0.4452
  890MPD2    H513053   3.611   4.523  14.672  0.5237 -1.1341 -2.6996
  890MPD2    N113054   3.547   4.688  14.243 -0.1728 -0.9866 -0.4400
  890MPD2    H713055   3.504   4.704  14.153  0.8908 -4.1872 -1.5364
  891MPD2     C13056   1.433   3.534  16.575  0.1627 -0.5974  0.1928
  891MPD2    C113057   1.316   3.485  16.623  0.1801 -0.0067  0.3685
  891MPD2    C213058   1.332   3.381  16.714 -0.2995  0.0560  0.2183
  891MPD2    C313059   1.457   3.332  16.758 -0.4291 -0.3255 -0.0570
  891MPD2    C413060   1.575   3.382  16.706  0.1982  0.3678  0.6900
  891MPD2    C513061   1.554   3.478  16.615  0.1212 -0.4131  0.4667
  891MPD2     H13062   1.246   3.339  16.766 -1.2887  0.1735 -1.3364
  891MPD2    H113063   1.676   3.346  16.720  1.1249  2.1220 -1.5479
  891MPD2    H213064   1.435   3.618  16.507  0.8037  0.3020  1.3073
  891MPD2    H313065   1.642   3.518  16.565  0.3613 -1.6574 -0.0916
  891MPD2     N13066   1.454   3.219  16.844  0.1012 -0.3205  0.4021
  891MPD2    H513067   1.364   3.174  16.858 -0.4685  0.9091  0.7279
  891MPD2    N113068   1.190   3.526  16.566  0.4423  0.3067  0.1938
  891MPD2    H713069   1.206   3.589  16.488  1.3344 -1.7958 -1.3152
  892MPD2     C13070   2.631   4.195  14.888  0.3058 -0.1154  0.1113
  892MPD2    C113071   2.528   4.204  14.803  0.6348 -0.2616  0.1054
  892MPD2    C213072   2.547   4.168  14.669  0.0305  0.8257 -0.1564
  892MPD2    C313073   2.669   4.144  14.621  0.4058 -0.3333  0.2230
  892MPD2    C413074   2.775   4.147  14.710 -0.4472 -0.1230  0.2171
  892MPD2    C513075   2.751   4.159  14.842 -0.2497  0.0282  0.2000
  892MPD2     H13076   2.459   4.178  14.606 -0.9945 -2.2008  0.7710
  892MPD2    H113077   2.874   4.126  14.672 -0.4697  2.2304 -1.1687
  892MPD2    H213078   2.635   4.201  14.996  1.6642 -0.6175  0.0855
  892MPD2    H313079   2.832   4.163  14.915 -0.6219 -1.5127  0.6957
  892MPD2     N13080   2.682   4.080  14.490 -0.1025 -0.8102 -0.1565
  892MPD2    H513081   2.776   4.058  14.460  0.4631 -0.9065  1.6596
  892MPD2    N113082   2.402   4.250  14.848 -0.3460 -0.6642 -0.0295
  892MPD2    H713083   2.337   4.257  14.770 -2.1727  0.2533  1.5709
  893MPD2     C13084   1.274   1.981   1.645  0.1521 -0.4660  1.0261
  893MPD2    C113085   1.152   2.018   1.592 -0.7380  0.3984  0.2050
  893MPD2    C213086   1.074   1.921   1.533  0.1028  0.2363  0.3753
  893MPD2    C313087   1.122   1.790   1.517  0.5082  1.4987  0.9533
  893MPD2    C413088   1.246   1.758   1.566 -0.6526  0.7436 -0.1683
  893MPD2    C513089   1.318   1.849   1.637 -0.3304 -0.1282 -0.4036
  893MPD2     H13090   0.976   1.946   1.493  0.0012 -0.5830  0.1145
  893MPD2    H113091   1.292   1.660   1.563 -1.3991  0.3883  0.1856
  893MPD2    H213092   1.342   2.054   1.686 -1.7756  2.9833 -1.9728
  893MPD2    H313093   1.412   1.824   1.686  0.0745  2.1903  0.0057
  893MPD2     N13094   1.055   1.686   1.453 -0.0529 -0.2514 -0.3891
  893MPD2    H513095   1.100   1.596   1.443  2.0251  0.6384  1.0050
  893MPD2    N113096   1.123   2.155   1.574  0.7199 -0.1883  0.3197
  893MPD2    H713097   1.185   2.221   1.620 -1.2400  1.4195  0.6748
  894MPD2     C13098   2.183   0.251   0.869 -0.4587  0.5190  0.0991
  894MPD2    C113099   2.236   0.282   0.993  0.4590 -0.2876  0.4579
  894MPD2    C213100   2.340   0.385   0.994  0.8869 -0.4629  0.1594
  894MPD2    C313101   2.384   0.435   0.873 -0.2668 -0.3529 -0.3498
  894MPD2    C413102   2.338   0.391   0.753  0.2953 -0.2308  0.1380
  894MPD2    C513103   2.239   0.298   0.755  0.2950  0.2182  0.3061
  894MPD2     H13104   2.382   0.422   1.087 -1.2941  1.2110  0.4707
  894MPD2    H113105   2.384   0.421   0.659  2.0691 -1.9093  0.4751
  894MPD2    H213106   2.091   0.193   0.864  0.4309 -0.6614 -2.4046
  894MPD2    H313107   2.199   0.278   0.656  2.3346 -0.2908 -0.4033
  894MPD2     N13108   2.474   0.548   0.887  0.3088 -0.3021  1.1189
  894MPD2    H513109   2.464   0.593   0.977  0.3319 -0.1061  1.0249
  894MPD2    N113110   2.190   0.243   1.117 -1.0542  0.2733 -1.1780
  894MPD2    H713111   2.226   0.295   1.196  1.8886 -2.2929 -0.8478
  895MPD2     C13112   1.289   3.378  13.535 -0.3075  0.5601 -0.5735
  895MPD2    C113113   1.219   3.402  13.413  0.1690  0.0579  0.2367
  895MPD2    C213114   1.284   3.370  13.301  0.4725  0.2433  0.7897
  895MPD2    C313115   1.414   3.326  13.294 -0.1024  0.3505 -0.2291
  895MPD2    C413116   1.479   3.306  13.413  0.2553 -0.2303  0.3579
  895MPD2    C513117   1.418   3.336  13.527 -0.2321  0.4135  0.0738
  895MPD2     H13118   1.225   3.367  13.210  0.1549 -1.3677  1.0433
  895MPD2    H113119   1.585   3.286  13.413  0.4737  0.9071 -2.4713
  895MPD2    H213120   1.243   3.405  13.629  1.1038 -1.0644  0.5815
  895MPD2    H313121   1.471   3.313  13.618  1.1424  0.4874 -0.7087
  895MPD2     N13122   1.483   3.301  13.172  0.1757 -0.4851 -0.0303
  895MPD2    H513123   1.558   3.233  13.163 -0.1535 -0.8719  0.1483
  895MPD2    N113124   1.084   3.444  13.403  0.7509 -0.8004  0.2300
  895MPD2    H713125   1.055   3.458  13.307  1.2836 -0.7466  0.0747
  896MPD2     C13126   4.154   1.478   1.545  0.1322 -0.6583 -0.3715
  896MPD2    C113127   4.140   1.411   1.425 -0.0242  0.3109  0.2975
  896MPD2    C213128   4.027   1.338   1.411  0.0280  0.0451  0.3383
  896MPD2    C313129   3.931   1.335   1.507  0.2809  0.0180 -0.4058
  896MPD2    C413130   3.952   1.403   1.625 -0.4648 -0.2623  0.7074
  896MPD2    C513131   4.068   1.467   1.649 -0.2189  0.4458 -0.1807
  896MPD2     H13132   4.000   1.309   1.310 -0.2624 -1.4420  0.8422
  896MPD2    H113133   3.881   1.399   1.707 -1.9492  0.5677 -0.5303
  896MPD2    H213134   4.234   1.550   1.563 -0.4135  0.2467 -1.6309
  896MPD2    H313135   4.080   1.512   1.747  0.7619 -0.3731  0.0793
  896MPD2     N13136   3.814   1.262   1.482 -0.3243 -0.1729  0.1103
  896MPD2    H513137   3.808   1.198   1.404  0.8776  1.3523 -1.2218
  896MPD2    N113138   4.237   1.449   1.330  0.2963 -0.1747 -0.4193
  896MPD2    H713139   4.312   1.509   1.362  0.3367 -1.1341  1.2744
  897MPD2     C13140   0.043   2.490  10.176  0.9551 -0.2532 -0.1046
  897MPD2    C113141   0.106   2.602  10.205  0.1187 -0.9561  0.9246
  897MPD2    C213142   0.038   2.719  10.226 -0.6017  0.3089 -1.0854
  897MPD2    C313143   4.630   2.717  10.236  0.3532 -0.5202 -0.0867
  897MPD2    C413144   4.564   2.603  10.193 -0.7451 -0.4829 -0.3112
  897MPD2    C513145   4.631   2.488  10.163 -0.6879  0.3604 -0.1699
  897MPD2     H13146   0.093   2.802  10.270 -0.6537  0.2520 -0.9134
  897MPD2    H113147   4.456   2.596  10.180 -0.8423  2.4202 -1.0732
  897MPD2    H213148   0.096   2.397  10.159 -1.2921 -1.1919 -2.0050
  897MPD2    H313149   4.580   2.398  10.130  1.0360  0.2442 -2.4455
  897MPD2     N13150   4.570   2.836  10.286  1.1619  0.5729 -0.1533
  897MPD2    H513151   4.642   2.901  10.315 -1.2684  4.0747 -2.1135
  897MPD2    N113152   0.249   2.592  10.226 -0.1305 -0.1128 -0.2873
  897MPD2    H713153   0.291   2.500  10.225 -0.2745 -0.2037  1.4531
  898MPD2     C13154   2.275   3.555   0.058 -0.5454 -0.4662  0.1732
  898MPD2    C113155   2.395   3.626   0.032 -0.3523 -0.9295  0.4023
  898MPD2    C213156   2.385   3.732  17.652 -0.0795  0.3637 -0.7182
  898MPD2    C313157   2.265   3.769  17.594  0.7622 -0.4453  0.0412
  898MPD2    C413158   2.153   3.687  17.617  0.3093 -0.8162 -0.6468
  898MPD2    C513159   2.162   3.582  17.703  0.0394  0.1269  0.3736
  898MPD2     H13160   2.480   3.778  17.626  0.1386  0.3024 -0.0193
  898MPD2    H113161   2.059   3.699  17.564 -0.5929  0.5370  1.2605
  898MPD2    H213162   2.271   3.463   0.115 -0.6742 -1.0227 -0.7416
  898MPD2    H313163   2.072   3.525   0.006 -1.2417  1.2375 -3.4654
  898MPD2     N13164   2.266   3.871  17.499 -0.2831  0.9602  0.3584
  898MPD2    H513165   2.355   3.901  17.460  0.8124  0.2485  2.3248
  898MPD2    N113166   2.518   3.587   0.089 -0.1787 -0.4954 -0.6629
  898MPD2    H713167   2.600   3.631   0.049 -1.0320  1.5802 -0.1225
  899MPD2     C13168   3.099   4.065  17.598 -0.4782 -0.4460 -0.5082
  899MPD2    C113169   3.081   4.200  17.612  0.8031  0.0811 -0.4862
  899MPD2    C213170   3.037   4.242   0.023 -0.3017  0.1837 -1.0809
  899MPD2    C313171   2.997   4.162   0.126 -0.1049 -0.0206  0.0425
  899MPD2    C413172   3.019   4.029   0.111  0.3387 -0.2808  0.5479
  899MPD2    C513173   3.080   3.982  17.704 -0.0074  0.0113  0.2724
  899MPD2     H13174   3.028   4.349   0.033  2.5233  0.3244  0.0699
  899MPD2    H113175   2.993   3.962   0.192 -0.4025 -0.4372  0.1711
  899MPD2    H213176   3.127   4.022  17.503 -2.6681 -0.0118 -1.3544
  899MPD2    H313177   3.104   3.877  17.694 -0.0520  0.0911 -0.6416
  899MPD2     N13178   2.929   4.202   0.243 -1.0510 -0.1470  0.1740
  899MPD2    H513179   2.904   4.137   0.316  1.6988 -1.7527 -0.3137
  899MPD2    N113180   3.097   4.296  17.502  0.0157  0.4383  0.1960
  899MPD2    H713181   3.142   4.263  17.416  1.8799 -0.1606  1.3861
  900MPD2     C13182   2.786   1.377  12.490 -0.5218  0.4309  0.0635
  900MPD2    C113183   2.709   1.265  12.478 -0.0188  0.0102 -0.0034
  900MPD2    C213184   2.590   1.270  12.406 -0.3512 -0.6323 -0.2514
  900MPD2    C313185   2.543   1.388  12.362 -0.9735  0.7009 -0.3241
  900MPD2    C413186   2.624   1.497  12.380  0.5520  0.2397  0.0043
  900MPD2    C513187   2.744   1.496  12.448 -0.5174  0.1540  0.5594
  900MPD2     H13188   2.533   1.179  12.392 -0.1687 -0.7000 -0.5547
  900MPD2    H113189   2.596   1.591  12.334 -2.4463  0.9255  3.1852
  900MPD2    H213190   2.881   1.370  12.542 -0.4480 -0.5349 -0.2115
  900MPD2    H313191   2.796   1.590  12.458 -2.8161  1.4945  0.0605
  900MPD2     N13192   2.416   1.393  12.289  0.0272 -0.5676  0.1637
  900MPD2    H513193   2.367   1.306  12.271 -1.1938  0.2657 -0.5578
  900MPD2    N113194   2.762   1.145  12.533  0.6042  0.6771  0.8744
  900MPD2    H713195   2.857   1.150  12.569  1.6825  1.6061 -2.0500
  901MPD2     C13196   2.613   0.404  13.240  0.8981  0.2880  0.4150
  901MPD2    C113197   2.715   0.378  13.151  0.3568  0.2016  0.3460
  901MPD2    C213198   2.767   0.495  13.086  0.2529 -0.1190 -0.7113
  901MPD2    C313199   2.718   0.618  13.106 -0.1525 -0.6237 -0.0408
  901MPD2    C413200   2.611   0.640  13.190  0.9560  0.0379  0.7555
  901MPD2    C513201   2.556   0.527  13.252 -0.8161  0.1586  0.2678
  901MPD2     H13202   2.854   0.494  13.021 -1.7970  0.2838 -3.4650
  901MPD2    H113203   2.567   0.740  13.198  0.3169 -0.2593  0.9871
  901MPD2    H213204   2.572   0.314  13.283  1.7755 -1.3308 -2.1499
  901MPD2    H313205   2.471   0.544  13.316  0.8523  1.7610  2.0740
  901MPD2     N13206   2.781   0.724  13.040 -0.3570 -0.4255  0.0781
  901MPD2    H513207   2.868   0.692  12.998 -0.2451  0.9705 -0.7619
  901MPD2    N113208   2.777   0.248  13.138  0.1006  0.0743  0.1708
  901MPD2    H713209   2.718   0.175  13.175 -0.2072  0.9313  1.4044
  902MPD2     C13210   1.396   3.959  12.812  0.4920  0.5874  1.1559
  902MPD2    C113211   1.302   3.961  12.703  0.3359  0.3795  0.0504
  902MPD2    C213212   1.286   3.842  12.630  1.1519  0.2432 -0.0937
  902MPD2    C313213   1.355   3.725  12.663  0.8100 -0.5635 -0.1274
  902MPD2    C413214   1.441   3.732  12.771 -0.1412 -0.2018  0.7624
  902MPD2    C513215   1.465   3.848  12.838 -0.2533 -0.5285 -0.5555
  902MPD2     H13216   1.210   3.834  12.553  1.4343 -1.1538 -0.2333
  902MPD2    H113217   1.492   3.640  12.793  0.1776 -0.1729  0.1269
  902MPD2    H213218   1.415   4.052  12.864 -1.7190 -1.0486  4.9454
  902MPD2    H313219   1.537   3.844  12.918  0.2416  2.4240 -0.8483
  902MPD2     N13220   1.349   3.601  12.592 -0.3636 -0.0954 -0.0971
  902MPD2    H513221   1.417   3.532  12.625  1.7205  1.8132 -0.3961
  902MPD2    N113222   1.229   4.078  12.683 -0.8669  0.0417  0.2824
  902MPD2    H713223   1.249   4.153  12.749  1.5982  0.7835 -1.3050
  903MPD2     C13224   1.433   3.314  11.832 -0.3045 -0.1538 -0.5176
  903MPD2    C113225   1.317   3.291  11.896 -0.1325 -0.1820 -0.5980
  903MPD2    C213226   1.198   3.264  11.831  0.1955 -0.2342  0.0497
  903MPD2    C313227   1.199   3.255  11.691  0.4452 -0.2853  0.3650
  903MPD2    C413228   1.318   3.273  11.625 -0.7750 -0.7255 -0.5740
  903MPD2    C513229   1.434   3.305  11.697 -0.0946 -0.1258  0.2725
  903MPD2     H13230   1.109   3.248  11.892 -0.6984 -0.4202 -1.3121
  903MPD2    H113231   1.330   3.255  11.519 -2.2815 -1.2478 -0.6605
  903MPD2    H213232   1.522   3.337  11.890  0.4443 -0.3131 -1.5974
  903MPD2    H313233   1.525   3.334  11.645 -0.2684  0.9090  0.5304
  903MPD2     N13234   1.073   3.216  11.621 -1.0583  0.3000 -0.2760
  903MPD2    H513235   0.994   3.197  11.681 -0.3529  1.1322  0.9217
  903MPD2    N113236   1.322   3.290  12.044  0.4247 -0.4799 -0.1758
  903MPD2    H713237   1.413   3.301  12.088  0.3645  1.1842 -0.4793
  904MPD2     C13238   1.497   2.566  13.801  0.5258 -0.1194 -0.1032
  904MPD2    C113239   1.537   2.697  13.790 -0.2075 -0.4575  0.5141
  904MPD2    C213240   1.670   2.733  13.801 -0.3669 -0.1780  0.8682
  904MPD2    C313241   1.758   2.637  13.832  0.2290 -0.2407 -0.1862
  904MPD2    C413242   1.722   2.501  13.836 -0.5720  0.0039  0.5858
  904MPD2    C513243   1.590   2.472  13.826 -0.3083 -0.7587  0.3916
  904MPD2     H13244   1.699   2.837  13.788  1.1953 -0.6998  0.1484
  904MPD2    H113245   1.789   2.417  13.848  2.0977  1.9074 -1.1469
  904MPD2    H213246   1.392   2.542  13.805  0.4075  0.6521  1.4133
  904MPD2    H313247   1.554   2.370  13.837 -0.2440 -0.7603  0.5892
  904MPD2     N13248   1.889   2.681  13.857 -0.0988  0.1824 -0.3168
  904MPD2    H513249   1.925   2.773  13.833 -0.0616  0.6204  1.4294
  904MPD2    N113250   1.443   2.797  13.758 -0.4601  0.3593  0.0249
  904MPD2    H713251   1.473   2.893  13.749 -1.6946  0.7350 -0.1737
  905MPD2     C13252   0.841   3.193  13.206 -0.6949  0.7817  1.0318
  905MPD2    C113253   0.961   3.128  13.239  0.8044  0.6894  0.4343
  905MPD2    C213254   1.063   3.108  13.147  0.2182 -0.3112 -0.4653
  905MPD2    C313255   1.051   3.155  13.026  0.3435 -0.1561  0.2759
  905MPD2    C413256   0.934   3.213  12.985  0.2829  0.3008  0.1022
  905MPD2    C513257   0.829   3.242  13.076 -0.5272  0.3078 -0.0609
  905MPD2     H13258   1.159   3.060  13.165  0.1549  0.2920  1.4934
  905MPD2    H113259   0.917   3.233  12.880 -0.8312 -0.8969  0.0495
  905MPD2    H213260   0.756   3.200  13.273 -0.4432  0.3499  1.4014
  905MPD2    H313261   0.739   3.292  13.044 -1.1175  0.4811  1.8693
  905MPD2     N13262   1.164   3.148  12.943  0.4211  0.5482 -0.1923
  905MPD2    H513263   1.240   3.100  12.989  1.1858  0.8965 -1.0836
  905MPD2    N113264   0.973   3.090  13.376 -0.2584  0.0146 -0.6930
  905MPD2    H713265   0.890   3.097  13.434  0.2686  0.6721 -0.0213
  906MPD2     C13266   3.443   2.693  11.162 -0.0831 -0.1227  0.1358
  906MPD2    C113267   3.355   2.671  11.061  0.5167  0.0277 -0.0229
  906MPD2    C213268   3.238   2.603  11.098 -0.2003  0.7405 -0.9613
  906MPD2    C313269   3.210   2.550  11.227  0.8585 -0.2849  0.3062
  906MPD2    C413270   3.310   2.564  11.321  0.2015  0.1737 -0.0877
  906MPD2    C513271   3.422   2.635  11.286  0.6556 -0.1683 -0.1302
  906MPD2     H13272   3.172   2.581  11.014  0.2552 -0.0968 -1.1062
  906MPD2    H113273   3.304   2.529  11.424 -1.2441  2.3541  0.5681
  906MPD2    H213274   3.535   2.749  11.151 -1.6510  2.2855 -0.6098
  906MPD2    H313275   3.488   2.653  11.370  0.7550 -1.9516  0.1775
  906MPD2     N13276   3.095   2.481  11.271  0.7113 -0.7230 -0.8188
  906MPD2    H513277   3.101   2.419  11.351 -0.9847 -2.0332 -1.6855
  906MPD2    N113278   3.367   2.720  10.929  0.5001  0.0174  0.6274
  906MPD2    H713279   3.289   2.715  10.864  0.8069 -1.4668  0.3695
  907MPD2     C13280   2.328   1.952  15.997 -0.1140 -0.9862  0.3190
  907MPD2    C113281   2.382   1.833  15.960  0.0517  0.1109 -0.2222
  907MPD2    C213282   2.423   1.736  16.053 -0.2521 -0.2318 -0.4798
  907MPD2    C313283   2.421   1.769  16.191 -0.8873  0.5979 -0.0827
  907MPD2    C413284   2.367   1.893  16.229 -0.3077 -0.6622 -0.0550
  907MPD2    C513285   2.325   1.984  16.131 -0.2903  1.0042 -0.0928
  907MPD2     H13286   2.466   1.643  16.016  2.5669  1.1104 -0.6119
  907MPD2    H113287   2.351   1.915  16.334 -1.2407 -0.7603 -0.1831
  907MPD2    H213288   2.276   2.023  15.933 -1.7406 -1.1085  1.5159
  907MPD2    H313289   2.282   2.079  16.162 -1.7935 -0.3320  1.9489
  907MPD2     N13290   2.489   1.688  16.290 -0.7930 -0.5212 -0.0741
  907MPD2    H513291   2.514   1.593  16.265 -0.8954 -0.3745 -0.7127
  907MPD2    N113292   2.394   1.799  15.823  0.0055  0.1186  0.6086
  907MPD2    H713293   2.428   1.704  15.809 -0.7455  0.0321 -0.5858
  908MPD2     C13294   0.845   2.000   9.882 -0.1861  0.1450 -1.0678
  908MPD2    C113295   0.732   1.971   9.955  0.3566  0.0889  0.5068
  908MPD2    C213296   0.683   2.080  10.030  0.6729 -0.0269  0.2349
  908MPD2    C313297   0.742   2.211  10.022 -0.0569 -0.5278  1.0242
  908MPD2    C413298   0.851   2.235   9.939 -0.2474  0.6123  0.0967
  908MPD2    C513299   0.898   2.127   9.870  0.2512  0.2687 -0.5770
  908MPD2     H13300   0.601   2.070  10.100  0.4201  3.4514  0.4683
  908MPD2    H113301   0.903   2.326   9.911 -1.3342  1.5150  1.0438
  908MPD2    H213302   0.904   1.926   9.828  1.0255 -1.2101  2.1207
  908MPD2    H313303   0.980   2.149   9.803  0.4558  0.2973 -0.3163
  908MPD2     N13304   0.686   2.318  10.098  0.3045  0.5541  0.9991
  908MPD2    H513305   0.625   2.291  10.174 -2.3060  1.1446 -0.9012
  908MPD2    N113306   0.677   1.840   9.945 -0.3982 -0.4021 -0.2672
  908MPD2    H713307   0.734   1.770   9.898  0.1225 -0.5456  0.5746
  909MPD2     C13308   0.497   0.483  11.794 -0.3888  0.4144 -0.4246
  909MPD2    C113309   0.530   0.609  11.746 -0.4221  1.2032 -0.0524
  909MPD2    C213310   0.505   0.718  11.831  0.1964 -0.2516  0.7871
  909MPD2    C313311   0.432   0.694  11.949  0.6572 -0.5262 -0.5787
  909MPD2    C413312   0.392   0.566  11.989  0.7155  0.3307  0.2161
  909MPD2    C513313   0.429   0.456  11.909 -0.2771  0.4994 -0.2564
  909MPD2     H13314   0.525   0.820  11.800 -1.7175  0.5149  2.0604
  909MPD2    H113315   0.343   0.543  12.083  3.2103 -0.4700  1.3044
  909MPD2    H213316   0.520   0.393  11.738 -1.4298 -0.1747  0.0946
  909MPD2    H313317   0.392   0.355  11.921  1.1650  0.0832  0.5837
  909MPD2     N13318   0.401   0.801  12.029  0.1272  0.5159  0.0525
  909MPD2    H513319   0.423   0.896  12.002  1.0437  0.3636  0.2636
  909MPD2    N113320   0.611   0.637  11.636  0.0037  0.2353  0.4229
  909MPD2    H713321   0.629   0.736  11.618 -2.6102  0.6102 -0.1299
  910MPD2     C13322   2.108   2.577  15.921 -0.1653  0.0387 -0.0340
  910MPD2    C113323   2.047   2.465  15.872  0.4275 -0.0467 -0.1440
  910MPD2    C213324   2.006   2.456  15.739 -0.0692  0.0175  0.4595
  910MPD2    C313325   2.026   2.566  15.660  0.0066 -0.1671  0.2682
  910MPD2    C413326   2.082   2.681  15.713  0.3210  0.1384  0.0802
  910MPD2    C513327   2.128   2.685  15.842  0.9356  0.1100  0.5767
  910MPD2     H13328   1.978   2.357  15.704  0.4215  0.4481 -1.1602
  910MPD2    H113329   2.089   2.770  15.652  1.0963  0.1886  0.2469
  910MPD2    H213330   2.143   2.590  16.023  0.4359 -1.6157 -0.0269
  910MPD2    H313331   2.170   2.779  15.876  0.7530  0.0954  0.8430
  910MPD2     N13332   1.955   2.582  15.538  0.1398  1.3222  0.2483
  910MPD2    H513333   1.958   2.673  15.494  1.5553 -0.5854 -3.6561
  910MPD2    N113334   2.006   2.361  15.957  0.9267  0.2765 -0.5530
  910MPD2    H713335   1.970   2.279  15.910  0.5883 -0.0500  0.2773
  911MPD2     C13336   4.411   2.894  15.907  1.1817  0.2700 -0.3369
  911MPD2    C113337   4.509   2.941  15.825  0.2823 -0.2745  0.3039
  911MPD2    C213338   4.501   2.925  15.686  0.3785  0.4568 -0.4934
  911MPD2    C313339   4.393   2.862  15.626  0.5644 -0.3004  0.0588
  911MPD2    C413340   4.298   2.811  15.709 -0.7581  0.1223  0.2469
  911MPD2    C513341   4.310   2.831  15.842 -0.2396 -0.5037  0.0320
  911MPD2     H13342   4.593   2.949  15.634  1.0587  2.3226  1.5598
  911MPD2    H113343   4.217   2.744  15.681  2.7194 -2.6272 -3.2013
  911MPD2    H213344   4.425   2.905  16.014  1.5445  2.1282 -0.5721
  911MPD2    H313345   4.236   2.781  15.903  0.9237 -3.1215 -0.6584
  911MPD2     N13346   4.381   2.828  15.487  0.1323 -0.1970 -0.3879
  911MPD2    H513347   4.297   2.778  15.462  2.0863 -3.0181 -1.2646
  911MPD2    N113348   4.633   2.999  15.866  0.1984  0.0909 -0.4335
  911MPD2    H713349   4.704   3.024  15.798  1.3867 -0.5881  0.5439
  912MPD2     C13350   4.589   2.125  15.274  0.3675  0.7044 -0.1395
  912MPD2    C113351   4.542   2.235  15.340 -0.2386 -0.6517 -0.4021
  912MPD2    C213352   4.447   2.224  15.440  0.0776  0.9559 -0.4633
  912MPD2    C313353   4.394   2.100  15.475  0.6368  0.4164  0.1631
  912MPD2    C413354   4.433   1.990  15.393 -0.4152 -0.3713 -0.1372
  912MPD2    C513355   4.533   2.002  15.297 -1.3970  0.3907  0.0447
  912MPD2     H13356   4.417   2.320  15.482 -3.0288 -0.7855  1.3706
  912MPD2    H113357   4.396   1.890  15.410  1.1047 -0.6433  1.6041
  912MPD2    H213358   4.678   2.130  15.211  0.4665  1.9921  0.1084
  912MPD2    H313359   4.572   1.913  15.248 -0.2707  0.1347  1.4020
  912MPD2     N13360   4.295   2.092  15.579  0.2705  0.3634 -0.0234
  912MPD2    H513361   4.257   2.173  15.625 -2.5771 -0.7616 -0.3858
  912MPD2    N113362   4.592   2.358  15.295 -0.1235  0.3057 -0.1966
  912MPD2    H713363   4.639   2.355  15.205 -0.4246  0.8078 -0.3733
  913MPD2     C13364   3.711   4.705   9.922  0.1890 -0.1402  0.6488
  913MPD2    C113365   3.835   4.659   9.970 -0.0084 -0.3102  0.9309
  913MPD2    C213366   3.908   0.000  10.061 -0.1839  0.1568  0.3347
  913MPD2    C313367   3.862   0.128  10.092  0.1559 -0.2223 -0.8703
  913MPD2    C413368   3.745   0.177  10.043  0.6690  0.5902  0.3569
  913MPD2    C513369   3.667   0.103   9.957  0.2736 -0.1027 -0.5708
  913MPD2     H13370   3.995   4.690  10.114 -0.3451 -0.1193  0.4043
  913MPD2    H113371   3.713   0.274  10.079  2.7301  2.0168 -1.6966
  913MPD2    H213372   3.648   4.651   9.852  0.0369  0.9444 -0.0506
  913MPD2    H313373   3.578   0.156   9.924 -0.6225  0.0774  2.0842
  913MPD2     N13374   3.933   0.216  10.174 -1.1422  0.2578 -0.1282
  913MPD2    H513375   3.892   0.307  10.189 -0.2606  0.7182 -0.5081
  913MPD2    N113376   3.878   4.534   9.919  0.1244  0.6345  0.5981
  913MPD2    H713377   3.826   4.500   9.839 -0.5130  1.8287  0.5035
  914MPD2     C13378   3.114   0.092  12.266 -0.4440 -0.9524  0.2514
  914MPD2    C113379   3.078   0.197  12.351  0.3360  1.2756  0.1849
  914MPD2    C213380   3.032   0.163  12.480  0.7803  0.5310 -0.1259
  914MPD2    C313381   3.024   0.028  12.522 -0.1316 -0.3327 -0.3399
  914MPD2    C413382   3.050   4.656  12.429  0.6174 -0.7818 -0.1328
  914MPD2    C513383   3.090   4.687  12.299  0.1395  0.0304  0.3372
  914MPD2     H13384   2.999   0.242  12.546 -0.6054 -1.0268  1.0396
  914MPD2    H113385   3.054   4.553  12.461 -0.2639 -0.3561  1.3722
  914MPD2    H213386   3.158   0.114  12.169 -2.7396 -0.8416 -0.7649
  914MPD2    H313387   3.109   4.611  12.223 -1.6446 -0.1356  0.0562
  914MPD2     N13388   2.988   0.006  12.655  0.0102 -0.9794  0.2164
  914MPD2    H513389   2.953   0.084  12.709  0.0452  0.3137 -1.6193
  914MPD2    N113390   3.088   0.332  12.300  0.1586 -0.2419 -0.2310
  914MPD2    H713391   3.113   0.344  12.202  0.4316  0.5993 -0.0619
  915MPD2     C13392   1.086   4.318  15.852  0.2580 -0.3151  0.0087
  915MPD2    C113393   0.985   4.366  15.776 -0.5380  0.6402 -0.4772
  915MPD2    C213394   0.896   4.449  15.841 -0.0442  0.0750  0.9514
  915MPD2    C313395   0.891   4.468  15.978 -0.2156  0.3116 -0.4245
  915MPD2    C413396   0.986   4.401  16.059  0.9373 -0.4478 -0.7989
  915MPD2    C513397   1.089   4.333  15.991 -0.4064 -0.2878  0.0427
  915MPD2     H13398   0.815   4.503  15.793  0.5875 -1.2072 -1.5440
  915MPD2    H113399   0.974   4.403  16.166  1.6942 -1.4942 -0.6943
  915MPD2    H213400   1.174   4.273  15.806  1.2167  0.7885  0.7524
  915MPD2    H313401   1.173   4.284  16.041  0.3660  1.1893  0.1789
  915MPD2     N13402   0.782   4.544  16.032  0.9730  0.1428  0.0841
  915MPD2    H513403   0.717   4.568  15.958 -0.1529 -0.5366  0.8626
  915MPD2    N113404   0.993   4.340  15.638 -0.3329 -0.4267 -0.2420
  915MPD2    H713405   1.060   4.274  15.600  2.0705  2.2391 -0.7379
  916MPD2     C13406   3.263   2.989  15.567 -0.6709 -1.1988  0.3117
  916MPD2    C113407   3.249   2.913  15.682 -0.1298  0.5967  0.5235
  916MPD2    C213408   3.250   2.775  15.677  0.5808 -0.5165 -0.2019
  916MPD2    C313409   3.252   2.714  15.555  0.8900  0.5635  0.4084
  916MPD2    C413410   3.276   2.786  15.435 -0.5537 -0.6076 -0.3991
  916MPD2    C513411   3.280   2.923  15.450  0.3106  0.7641  0.0323
  916MPD2     H13412   3.239   2.711  15.764  1.7140 -0.2086  0.1706
  916MPD2    H113413   3.286   2.744  15.336 -2.1385  1.3828 -1.4126
  916MPD2    H213414   3.273   3.096  15.562  2.2110 -1.5141 -0.8660
  916MPD2    H313415   3.296   2.984  15.362 -1.4919  0.2732 -0.6434
  916MPD2     N13416   3.245   2.573  15.557 -0.4063  0.7649 -0.4129
  916MPD2    H513417   3.231   2.538  15.651 -1.2953  1.8029 -0.1649
  916MPD2    N113418   3.236   2.985  15.806  0.6576 -0.0535 -0.4434
  916MPD2    H713419   3.216   3.084  15.796  0.1846 -0.2206 -1.1465
  917MPD2     C13420   4.027   0.368  11.351 -0.0057 -0.1500  0.3710
  917MPD2    C113421   4.065   0.429  11.471 -0.6336  0.7564  0.0486
  917MPD2    C213422   4.144   0.548  11.469 -0.6989 -0.5347 -0.5444
  917MPD2    C313423   4.177   0.598  11.348 -0.9311  0.4327  0.1184
  917MPD2    C413424   4.122   0.555  11.233  0.2279  0.3831 -0.3403
  917MPD2    C513425   4.049   0.439  11.238  0.0838  0.1687  0.4682
  917MPD2     H13426   4.199   0.584  11.556 -0.7447  1.5075 -1.3750
  917MPD2    H113427   4.148   0.595  11.136  0.5395  1.2979  0.1155
  917MPD2    H213428   3.960   0.283  11.353 -1.5681  1.0682 -0.6103
  917MPD2    H313429   4.010   0.396  11.147  0.1349 -0.1048  0.5781
  917MPD2     N13430   4.273   0.703  11.336 -0.2191  1.0429  0.5654
  917MPD2    H513431   4.289   0.730  11.239 -1.0695  0.9956  0.4164
  917MPD2    N113432   4.003   0.383  11.589 -0.3625  0.0051  0.7831
  917MPD2    H713433   3.947   0.300  11.570 -1.3433  1.2925 -1.9913
  918MPD2     C13434   3.985   0.784  12.482 -0.5168 -0.1428  0.1442
  918MPD2    C113435   4.087   0.719  12.414  0.3694  1.2314  0.2299
  918MPD2    C213436   4.049   0.635  12.306  0.0017 -0.2592  0.1572
  918MPD2    C313437   3.919   0.611  12.269  0.1297 -0.5105  0.3772
  918MPD2    C413438   3.822   0.672  12.339  0.0976 -0.1142  0.0141
  918MPD2    C513439   3.855   0.755  12.443 -0.4906 -0.9503  0.1796
  918MPD2     H13440   4.129   0.590  12.247 -0.0123 -0.7456  0.5096
  918MPD2    H113441   3.718   0.649  12.322 -0.4520  0.7989  2.1959
  918MPD2    H213442   4.004   0.856  12.560  1.4135 -0.4147 -0.0702
  918MPD2    H313443   3.776   0.783  12.512  0.9986  3.3260  0.1601
  918MPD2     N13444   3.897   0.509  12.171  0.2093 -0.3994  0.1524
  918MPD2    H513445   3.978   0.478  12.118 -0.5916  1.0798 -1.9735
  918MPD2    N113446   4.218   0.716  12.459  0.3000  0.1192  0.0155
  918MPD2    H713447   4.282   0.661  12.403 -1.6963 -0.9575 -1.1987
  919MPD2     C13448   4.337   3.989  11.109 -0.5150  0.5682  0.0181
  919MPD2    C113449   4.289   3.859  11.110  0.3429 -0.0327 -0.4047
  919MPD2    C213450   4.261   3.807  10.985 -0.3074  0.0958  0.3317
  919MPD2    C313451   4.265   3.887  10.870 -0.0706  0.2763  0.2739
  919MPD2    C413452   4.307   4.022  10.881 -0.0244 -0.4291  0.7747
  919MPD2    C513453   4.349   4.067  11.000  0.7891 -0.2679  0.6721
  919MPD2     H13454   4.233   3.703  10.977  0.1617  0.2304 -2.9567
  919MPD2    H113455   4.321   4.094  10.801 -0.7029  0.7058  1.6756
  919MPD2    H213456   4.371   4.033  11.202  0.0115  0.2818 -0.0407
  919MPD2    H313457   4.379   4.170  11.012  3.7730 -0.9548 -0.6660
  919MPD2     N13458   4.225   3.834  10.743  0.3594  0.1275  0.1766
  919MPD2    H513459   4.223   3.902  10.668  1.1075  0.7800  0.7434
  919MPD2    N113460   4.275   3.780  11.230 -0.4485  0.7450  0.1627
  919MPD2    H713461   4.253   3.681  11.220  0.5084  0.5528  0.0158
  920MPD2     C13462   3.724   4.299  10.075 -0.0128  0.4793  0.5052
  920MPD2    C113463   3.687   4.176  10.029  0.5310  0.1749 -0.6117
  920MPD2    C213464   3.736   4.066  10.102 -0.1342  0.5882  0.6148
  920MPD2    C313465   3.828   4.078  10.207 -0.5916 -0.2103  0.3664
  920MPD2    C413466   3.857   4.204  10.245 -0.0749  0.5467  0.1978
  920MPD2    C513467   3.797   4.314  10.191  0.0850 -0.1481 -0.8188
  920MPD2     H13468   3.703   3.966  10.078  0.3242  1.0865 -2.1404
  920MPD2    H113469   3.928   4.223  10.326  0.5156 -1.0254  0.0584
  920MPD2    H213470   3.678   4.389  10.034 -1.2070  0.1745  1.1777
  920MPD2    H313471   3.829   4.410  10.229 -0.9724 -1.1361  2.5601
  920MPD2     N13472   3.885   3.963  10.266 -0.3371 -0.5059 -0.4184
  920MPD2    H513473   3.854   3.874  10.230  1.6481 -0.4462 -2.2140
  920MPD2    N113474   3.592   4.158   9.935 -0.3237 -0.9415  0.4151
  920MPD2    H713475   3.550   4.066   9.929 -0.3146 -0.8191 -1.4456
  921MPD2     C13476   0.271   3.696  16.501  0.7556 -0.1495 -0.4743
  921MPD2    C113477   0.380   3.618  16.466  0.0387 -0.1866  0.3137
  921MPD2    C213478   0.358   3.515  16.377 -0.2790 -0.2666  0.1608
  921MPD2    C313479   0.234   3.481  16.333  0.1877  0.2461 -1.1337
  921MPD2    C413480   0.131   3.562  16.360  0.2654 -0.3635  0.5529
  921MPD2    C513481   0.148   3.661  16.445  0.1487 -0.0924 -1.2878
  921MPD2     H13482   0.442   3.457  16.340 -1.0644 -0.1075 -1.9197
  921MPD2    H113483   0.034   3.537  16.320 -0.0643  3.6821 -1.1682
  921MPD2    H213484   0.267   3.775  16.575 -1.6372  0.0797 -0.8451
  921MPD2    H313485   0.052   3.700  16.478  0.1097 -0.9255 -0.4095
  921MPD2     N13486   0.203   3.376  16.244  0.2376  0.1224 -0.4354
  921MPD2    H513487   0.110   3.372  16.202  0.7478  0.5141 -1.5875
  921MPD2    N113488   0.506   3.648  16.509 -0.0009 -0.4211  0.2367
  921MPD2    H713489   0.530   3.743  16.536  2.7519 -0.2636 -2.8780
  922MPD2     C13490   1.419   1.154  16.551 -0.3750 -0.0964 -0.4549
  922MPD2    C113491   1.426   1.125  16.687 -0.1240  0.1300 -0.2054
  922MPD2    C213492   1.341   1.022  16.732 -0.3225  0.1634  0.0250
  922MPD2    C313493   1.253   0.954  16.654  0.0364  0.5816 -0.5625
  922MPD2    C413494   1.248   0.983  16.519  0.9368  0.3602  0.3946
  922MPD2    C513495   1.334   1.084  16.472 -0.5829 -0.0798  1.2268
  922MPD2     H13496   1.337   0.999  16.837  1.3819  1.8221  0.4521
  922MPD2    H113497   1.181   0.935  16.448  2.5895  0.0973 -1.0024
  922MPD2    H213498   1.484   1.228  16.505 -1.5486  0.5107 -1.1051
  922MPD2    H313499   1.328   1.106  16.366 -0.4052  1.2255  1.4872
  922MPD2     N13500   1.177   0.853  16.713  0.1302  0.0328 -0.2126
  922MPD2    H513501   1.175   0.847  16.815  0.7248  4.4392  0.0590
  922MPD2    N113502   1.518   1.189  16.778  0.7980 -0.3986  0.2208
  922MPD2    H713503   1.546   1.128  16.854 -0.9390 -0.6087  0.6927
  923MPD2     C13504   2.343   2.473   8.997  0.1358  0.0689 -0.3004
  923MPD2    C113505   2.304   2.570   9.088  0.4566  0.6751  0.2281
  923MPD2    C213506   2.395   2.615   9.184  0.3452  0.2123 -0.0833
  923MPD2    C313507   2.523   2.553   9.196 -0.0340 -0.2632 -1.0913
  923MPD2    C413508   2.553   2.449   9.106 -0.2068 -0.6722  0.3293
  923MPD2    C513509   2.465   2.415   9.004  0.1247  0.2592  0.1128
  923MPD2     H13510   2.368   2.699   9.247  0.9250  2.3069 -2.6488
  923MPD2    H113511   2.655   2.414   9.097  0.0768  0.2806 -0.1956
  923MPD2    H213512   2.282   2.454   8.908 -0.0003 -3.5782  0.5515
  923MPD2    H313513   2.488   2.345   8.925 -0.6010  1.4084 -1.1288
  923MPD2     N13514   2.620   2.589   9.292 -0.1832  0.0483  0.1819
  923MPD2    H513515   2.699   2.524   9.294  1.2419  1.7904  0.8633
  923MPD2    N113516   2.173   2.623   9.075 -0.0075 -0.0985  0.3016
  923MPD2    H713517   2.124   2.579   8.999  2.8746  0.5812 -1.9585
  924MPD2     C13518   2.646   0.907  16.137 -0.0064  0.2833 -0.0760
  924MPD2    C113519   2.619   0.934  16.267 -0.2960  0.2041 -0.8956
  924MPD2    C213520   2.674   1.046  16.319 -0.0033  0.2502  0.1237
  924MPD2    C313521   2.719   1.149  16.235 -0.3641  0.3661 -0.1976
  924MPD2    C413522   2.725   1.129  16.100  1.1690 -0.2094  0.8976
  924MPD2    C513523   2.700   1.001  16.054  0.0235  0.2548 -0.2143
  924MPD2     H13524   2.677   1.063  16.427  0.9658 -0.2111  0.1669
  924MPD2    H113525   2.760   1.214  16.042  0.2457  0.5077  1.3929
  924MPD2    H213526   2.621   0.810  16.095 -0.1805  0.6109 -0.7172
  924MPD2    H313527   2.734   0.973  15.955  1.2259  1.7106 -0.2067
  924MPD2     N13528   2.764   1.276  16.287 -0.5500 -0.0301  0.4160
  924MPD2    H513529   2.770   1.352  16.220  0.8200 -1.7252 -1.3824
  924MPD2    N113530   2.560   0.835  16.357 -0.6902  0.5565  0.1682
  924MPD2    H713531   2.566   0.741  16.317  0.8191  0.6339  0.2360
  925MPD2     C13532   1.860   3.649  14.718 -0.1370  0.8057 -0.2878
  925MPD2    C113533   1.718   3.667  14.714  0.1078 -0.4318 -0.5416
  925MPD2    C213534   1.647   3.624  14.822 -0.0792  0.9615 -0.1642
  925MPD2    C313535   1.712   3.578  14.933  0.9214  0.3698  0.6796
  925MPD2    C413536   1.848   3.572  14.946  0.1893 -0.0614 -0.1767
  925MPD2    C513537   1.920   3.607  14.833 -0.3436 -0.1593  0.1683
  925MPD2     H13538   1.540   3.614  14.815  0.3141 -2.7140 -1.1176
  925MPD2    H113539   1.899   3.545  15.037 -0.9583  0.6264  0.6722
  925MPD2    H213540   1.920   3.674  14.631 -0.1430  1.7210 -0.0298
  925MPD2    H313541   2.028   3.597  14.840 -0.5265 -0.7822  2.1501
  925MPD2     N13542   1.628   3.564  15.045  0.4913  0.3467 -0.1756
  925MPD2    H513543   1.535   3.603  15.034 -1.2081 -3.5717  0.0996
  925MPD2    N113544   1.644   3.707  14.600  0.5021  0.2019  0.1290
  925MPD2    H713545   1.548   3.739  14.611 -0.1848 -1.0751 -2.1505
  926MPD2     C13546   0.121   2.561  13.399  0.9692 -0.2817  0.4234
  926MPD2    C113547   0.005   2.629  13.391 -0.1051  0.4479  0.4116
  926MPD2    C213548   4.697   2.700  13.274 -1.0731 -0.2257  0.0926
  926MPD2    C313549   0.054   2.705  13.161  0.3120  0.2014  0.0213
  926MPD2    C413550   0.179   2.640  13.173 -0.0007 -0.3701  0.1455
  926MPD2    C513551   0.203   2.566  13.289 -0.0618 -0.8505  0.0703
  926MPD2     H13552   4.604   2.755  13.271 -0.3353  0.9780 -0.5789
  926MPD2    H113553   0.249   2.635  13.091  1.3096  0.5578  1.2201
  926MPD2    H213554   0.139   2.486  13.475  0.2816  0.1478  1.0052
  926MPD2    H313555   0.286   2.497  13.284  0.2370 -0.4605 -0.5024
  926MPD2     N13556   0.013   2.748  13.032 -0.1169  0.1315 -0.0083
  926MPD2    H513557   0.068   2.708  12.956 -1.6545 -2.3256  0.1623
  926MPD2    N113558   4.629   2.621  13.484  0.7084 -0.4976  0.1750
  926MPD2    H713559   4.539   2.656  13.453  1.2090  0.5893 -0.0412
  927MPD2     C13560   0.373   4.114   0.122  0.0719  0.6715 -0.0178
  927MPD2    C113561   0.266   4.193   0.088 -0.2157  0.3721  0.5793
  927MPD2    C213562   0.197   4.156  17.676  0.6245  0.2685 -0.1476
  927MPD2    C313563   0.252   4.058  17.594  0.3499  0.2424  0.1281
  927MPD2    C413564   0.359   3.979  17.639  0.2609  0.3373  0.7599
  927MPD2    C513565   0.407   4.001   0.052 -0.0763  1.0151 -0.1398
  927MPD2     H13566   0.119   4.217  17.633 -0.1364 -1.0985 -0.7307
  927MPD2    H113567   0.396   3.902  17.572 -2.6073 -0.9181  0.6134
  927MPD2    H213568   0.424   4.125   0.217  2.0770  0.6762 -1.0874
  927MPD2    H313569   0.486   3.938   0.092  1.0492  2.6533  0.2551
  927MPD2     N13570   0.201   4.040  17.463 -0.8952 -0.7538 -0.7416
  927MPD2    H513571   0.139   4.112  17.427  1.1434 -0.3616 -3.4931
  927MPD2    N113572   0.235   4.306   0.164  0.3465  0.1374 -0.1429
  927MPD2    H713573   0.294   4.329   0.244  0.6662 -1.1766  0.0016
  928MPD2     C13574   2.756   3.146   0.799  0.1957  0.2028  0.3832
  928MPD2    C113575   2.867   3.215   0.853 -0.2003 -0.0698  0.3274
  928MPD2    C213576   2.970   3.246   0.765  0.0283  1.5871 -0.3880
  928MPD2    C313577   2.970   3.213   0.632  0.0819 -0.4858  0.2313
  928MPD2    C413578   2.859   3.147   0.582  0.0193  0.4211  0.3498
  928MPD2    C513579   2.762   3.114   0.668  0.5794 -0.3591  0.0107
  928MPD2     H13580   3.066   3.274   0.806 -0.2032  0.6620  0.7781
  928MPD2    H113581   2.857   3.119   0.477  0.7068 -0.3022  0.5247
  928MPD2    H213582   2.664   3.119   0.850  0.9201 -0.6809  1.2146
  928MPD2    H313583   2.673   3.067   0.626  0.2693 -0.4452  0.7725
  928MPD2     N13584   3.072   3.248   0.539 -0.0326 -0.4897 -0.1960
  928MPD2    H513585   3.066   3.215   0.444  0.1314  1.1145 -0.7582
  928MPD2    N113586   2.870   3.252   0.986 -0.0405 -0.0741  0.1553
  928MPD2    H713587   2.795   3.226   1.049 -1.0762  1.8573 -0.2725
  929MPD2     C13588   2.017   2.767  10.669  0.2052  0.2384 -0.6077
  929MPD2    C113589   2.141   2.705  10.644  0.8909  0.6829  0.3369
  929MPD2    C213590   2.213   2.749  10.532  0.6345 -0.2275  0.4479
  929MPD2    C313591   2.163   2.846  10.448  0.0962  0.0786  0.2519
  929MPD2    C413592   2.038   2.897  10.479  0.2924  0.0113  0.7502
  929MPD2    C513593   1.964   2.859  10.587 -1.0624  0.0755  0.4721
  929MPD2     H13594   2.317   2.719  10.525  0.9193  0.8996 -0.0354
  929MPD2    H113595   1.988   2.973  10.419  0.0493  1.0858  2.3331
  929MPD2    H213596   1.962   2.727  10.753 -0.4878  0.8373 -0.7711
  929MPD2    H313597   1.869   2.910  10.594 -0.4958  1.6736 -3.4054
  929MPD2     N13598   2.228   2.900  10.333 -0.4041  0.6689 -0.0820
  929MPD2    H513599   2.180   2.971  10.278  0.5513  1.2263 -0.1967
  929MPD2    N113600   2.176   2.611  10.743  0.0611 -0.8939 -0.1568
  929MPD2    H713601   2.110   2.605  10.820 -0.0845 -0.4470 -0.2428
  930MPD2     C13602   4.616   0.306  14.427 -0.3788  0.4019  0.5394
  930MPD2    C113603   4.697   0.373  14.340 -0.1083  0.7843  0.6279
  930MPD2    C213604   4.685   0.343  14.202  0.4216 -0.5120 -0.6722
  930MPD2    C313605   4.593   0.246  14.162 -0.0290  0.3660 -0.6639
  930MPD2    C413606   4.503   0.193  14.252  0.3519 -0.3908  0.5058
  930MPD2    C513607   4.523   0.209  14.387  0.0694  0.3902 -0.6419
  930MPD2     H13608   0.015   0.400  14.130 -0.4768 -0.0880 -1.0552
  930MPD2    H113609   4.436   0.118  14.212  0.3100 -0.8351  1.4082
  930MPD2    H213610   4.625   0.327  14.533 -0.1445  0.8404  0.4301
  930MPD2    H313611   4.448   0.167  14.453  0.6785  0.4450  0.0815
  930MPD2     N13612   4.577   0.202  14.023  0.3957  0.0973 -0.4306
  930MPD2    H513613   4.495   0.149  13.998 -1.1736  1.1634  2.4169
  930MPD2    N113614   0.049   0.481  14.374  0.4699 -0.2921  0.2722
  930MPD2    H713615   0.104   0.521  14.298 -0.5978 -0.3095 -0.5106
  931MPD2     C13616   0.621   4.678   0.530 -0.3871  0.4203 -0.0690
  931MPD2    C113617   0.494   4.661   0.578  0.6724 -0.0193  0.1281
  931MPD2    C213618   0.473   4.636   0.718 -0.2414 -0.2769 -0.2988
  931MPD2    C313619   0.584   4.613   0.798 -0.1587 -0.5088  0.0586
  931MPD2    C413620   0.708   4.618   0.738 -0.2541 -0.8255  0.0331
  931MPD2    C513621   0.726   4.658   0.607  0.4475 -0.2041 -0.8305
  931MPD2     H13622   0.376   4.603   0.753 -1.6971  2.5793 -1.6805
  931MPD2    H113623   0.804   4.593   0.783 -0.9622 -0.8524  1.5385
  931MPD2    H213624   0.646   4.716   0.432  0.0226 -0.1649 -0.1904
  931MPD2    H313625   0.826   4.651   0.565  1.0158 -0.3412  0.5721
  931MPD2     N13626   0.566   4.573   0.931  0.0743 -0.5203  0.1096
  931MPD2    H513627   0.646   4.529   0.975  0.6684 -1.1355 -1.6028
  931MPD2    N113628   0.382   4.669   0.484  0.8845 -0.0660 -0.2959
  931MPD2    H713629   0.409   4.684   0.388  1.5614  0.8388  0.0322
  932MPD2     C13630   1.451   3.178  11.244 -0.4404 -0.3276 -0.5871
  932MPD2    C113631   1.535   3.261  11.320 -0.0672  0.2540 -0.5209
  932MPD2    C213632   1.630   3.194  11.399  0.0060  0.2445  0.8899
  932MPD2    C313633   1.655   3.053  11.394  0.2258  0.4925  0.0438
  932MPD2    C413634   1.590   2.980  11.297 -0.7071 -0.3192 -0.5888
  932MPD2    C513635   1.485   3.039  11.233 -0.2333  0.1665 -0.6492
  932MPD2     H13636   1.678   3.261  11.469  3.3762  0.6704 -1.7829
  932MPD2    H113637   1.599   2.873  11.283 -0.3973 -0.3677 -0.0513
  932MPD2    H213638   1.361   3.216  11.197 -1.1157  0.3962  1.3148
  932MPD2    H313639   1.416   2.977  11.176 -2.6576  2.4979 -0.2661
  932MPD2     N13640   1.745   2.986  11.481  0.9038  0.5877  0.2403
  932MPD2    H513641   1.759   2.887  11.460 -0.4712  0.5222 -0.3617
  932MPD2    N113642   1.523   3.403  11.343 -0.5057  1.1899  0.5314
  932MPD2    H713643   1.591   3.448  11.404 -0.2643  0.0963  1.0619
  933MPD2     C13644   2.288   3.341   1.197 -0.2835  0.6111  0.5681
  933MPD2    C113645   2.372   3.416   1.279 -0.0864  0.4889  0.0787
  933MPD2    C213646   2.319   3.519   1.344 -0.6623 -0.3049 -0.8884
  933MPD2    C313647   2.185   3.556   1.321 -0.3171  0.2715  0.5102
  933MPD2    C413648   2.106   3.486   1.234 -0.4094 -0.5106  0.9640
  933MPD2    C513649   2.153   3.372   1.169 -0.4963 -0.1680 -0.0514
  933MPD2     H13650   2.385   3.585   1.399 -0.9431 -0.2255 -0.6517
  933MPD2    H113651   2.004   3.516   1.215 -0.1950  0.4420  1.2938
  933MPD2    H213652   2.323   3.250   1.151 -0.2424  0.9076  0.0146
  933MPD2    H313653   2.082   3.318   1.107 -1.7964  1.3500  0.1233
  933MPD2     N13654   2.145   3.677   1.387  0.2426  0.0738 -0.6369
  933MPD2    H513655   2.205   3.719   1.458 -1.8996  1.1549  0.5275
  933MPD2    N113656   2.510   3.379   1.285  0.1548  0.6571 -0.4344
  933MPD2    H713657   2.538   3.298   1.229 -1.7237  0.8090 -1.6039
  934MPD2     C13658   3.703   1.149   1.888 -0.7746 -0.7006 -0.1700
  934MPD2    C113659   3.786   1.059   1.823  0.5640  0.1776  0.8180
  934MPD2    C213660   3.738   0.949   1.756  0.2063  1.4933 -1.1259
  934MPD2    C313661   3.601   0.929   1.752 -0.6987  0.6206  0.1397
  934MPD2    C413662   3.520   1.024   1.814 -0.2891  0.3392 -0.6497
  934MPD2    C513663   3.572   1.127   1.880 -0.8492  0.0235  0.5088
  934MPD2     H13664   3.805   0.884   1.701 -0.5311  0.1608 -0.4511
  934MPD2    H113665   3.412   1.027   1.803 -0.4974  0.9974  1.5911
  934MPD2    H213666   3.737   1.234   1.947  0.6500 -0.8191 -0.8243
  934MPD2    H313667   3.504   1.199   1.924  0.9407  0.1574  3.0401
  934MPD2     N13668   3.534   0.818   1.683  0.1786  0.4540 -0.4297
  934MPD2    H513669   3.433   0.805   1.687  0.2707 -0.9839 -2.6291
  934MPD2    N113670   3.927   1.067   1.837  1.0313  0.3777 -0.4070
  934MPD2    H713671   3.973   1.004   1.772 -0.7851 -1.4301  0.0803
  935MPD2     C13672   3.943   0.139   1.084  0.2146 -0.0039  0.7073
  935MPD2    C113673   3.813   0.120   1.054 -1.1414  0.0051 -1.3775
  935MPD2    C213674   3.715   0.187   1.130  0.2959 -0.1280  0.3099
  935MPD2    C313675   3.754   0.279   1.227 -0.2721 -0.4492 -0.8318
  935MPD2    C413676   3.885   0.308   1.235  0.3786  0.8740  0.6773
  935MPD2    C513677   3.980   0.244   1.167  0.1044 -0.1670 -0.6761
  935MPD2     H13678   3.610   0.172   1.110 -0.0159 -0.5714  2.3964
  935MPD2    H113679   3.916   0.386   1.305 -3.0463  0.6544  2.4234
  935MPD2    H213680   4.027   0.082   1.045 -0.6716 -0.2761 -0.7948
  935MPD2    H313681   4.084   0.270   1.185  0.1436 -0.0424 -1.1040
  935MPD2     N13682   3.670   0.354   1.309 -0.4302 -0.0937 -0.2794
  935MPD2    H513683   3.717   0.428   1.361  1.6633 -0.2105 -1.9908
  935MPD2    N113684   3.771   0.031   0.954 -0.3197  0.3149 -0.4551
  935MPD2    H713685   3.669   0.025   0.949 -0.3329 -0.7325  1.1421
  936MPD2     C13686   1.548   1.819  12.534  0.0664 -0.3553 -0.2196
  936MPD2    C113687   1.592   1.888  12.645 -0.1228  0.0469  0.3009
  936MPD2    C213688   1.690   1.985  12.626  0.4610  0.2724  0.2753
  936MPD2    C313689   1.752   2.007  12.509  0.3169 -0.3107 -0.0457
  936MPD2    C413690   1.717   1.931  12.403 -0.4201  0.4116  0.8620
  936MPD2    C513691   1.616   1.842  12.416 -0.1074  0.6966 -0.2776
  936MPD2     H13692   1.699   2.050  12.712 -0.7527  0.4708  0.2581
  936MPD2    H113693   1.777   1.940  12.314 -0.1081 -1.7270  0.8452
  936MPD2    H213694   1.470   1.745  12.546  0.4793 -0.4280  2.0200
  936MPD2    H313695   1.589   1.782  12.330  1.8558  1.8972 -1.7216
  936MPD2     N13696   1.835   2.122  12.508  0.1473 -0.3453 -0.1140
  936MPD2    H513697   1.852   2.177  12.592 -0.0337  1.3003 -1.1494
  936MPD2    N113698   1.535   1.857  12.771  0.0765  0.3988 -0.3089
  936MPD2    H713699   1.460   1.789  12.766  0.3360  0.1568 -0.9568
  937MPD2     C13700   4.723   3.262  11.393 -0.3150  0.2226  0.1357
  937MPD2    C113701   4.706   3.391  11.355  0.6103 -0.8393 -0.2046
  937MPD2    C213702   0.059   3.426  11.243 -1.0238 -0.8069  0.0606
  937MPD2    C313703   0.165   3.354  11.207 -0.1419  0.4674 -0.0113
  937MPD2    C413704   0.179   3.229  11.253  0.0968 -0.0393 -0.6605
  937MPD2    C513705   0.098   3.188  11.353 -0.2583 -0.3209 -0.3041
  937MPD2     H13706   0.027   3.521  11.201 -1.8174 -1.8806 -1.7430
  937MPD2    H113707   0.250   3.152  11.224  0.3952  0.0006 -0.0406
  937MPD2    H213708   4.646   3.222  11.459  0.4019  0.4928  1.1477
  937MPD2    H313709   0.097   3.086  11.390  1.6005 -1.9047 -4.6387
  937MPD2     N13710   0.253   3.411  11.115  0.2040 -0.1161  0.1709
  937MPD2    H513711   0.238   3.510  11.096  3.3222  0.6991  1.9387
  937MPD2    N113712   4.594   3.465  11.398 -0.6937  0.6443 -0.0032
  937MPD2    H713713   4.576   3.552  11.348  0.0366  0.6516 -0.2573
  938MPD2     C13714   2.557   0.171   0.574 -0.2183  0.5034 -0.8139
  938MPD2    C113715   2.637   0.217   0.680  0.5254 -0.3731  0.1271
  938MPD2    C213716   2.627   0.148   0.811 -0.6391 -0.1112  0.1942
  938MPD2    C313717   2.535   0.044   0.830  0.1174  0.7028  0.5233
  938MPD2    C413718   2.445   0.018   0.723 -0.5006 -0.0233 -0.2738
  938MPD2    C513719   2.466   0.069   0.597 -0.7221  0.4748  0.1331
  938MPD2     H13720   2.687   0.185   0.894  0.1136 -2.0328  0.5129
  938MPD2    H113721   2.368   4.669   0.730 -1.0584  0.6375  0.7305
  938MPD2    H213722   2.548   0.224   0.480  0.9244 -1.1296 -1.8340
  938MPD2    H313723   2.388   0.050   0.524 -1.0662 -0.0059  0.6271
  938MPD2     N13724   2.515   4.702   0.948  0.0995 -0.0711 -0.8715
  938MPD2    H513725   2.435   4.641   0.962  0.9927 -1.0199  0.1060
  938MPD2    N113726   2.726   0.322   0.661 -0.1692  0.8127  0.6674
  938MPD2    H713727   2.781   0.342   0.744 -0.8378  1.4856  0.9410
  939MPD2     C13728   3.747   1.413   1.188  0.1105 -0.4400 -0.1305
  939MPD2    C113729   3.809   1.535   1.173  0.5693  0.3504 -0.1088
  939MPD2    C213730   3.902   1.549   1.070 -0.8476 -0.0872  0.3421
  939MPD2    C313731   3.935   1.436   0.992 -0.2412  0.5006 -0.3823
  939MPD2    C413732   3.872   1.311   1.002 -0.2991 -0.2998 -0.7646
  939MPD2    C513733   3.773   1.312   1.097 -0.5139  0.1555 -0.3910
  939MPD2     H13734   3.955   1.643   1.055 -1.5415  0.3812  0.8644
  939MPD2    H113735   3.876   1.224   0.937 -1.8930 -0.7472 -0.2539
  939MPD2    H213736   3.677   1.388   1.267  1.2488  1.7193  1.5813
  939MPD2    H313737   3.711   1.227   1.120  2.7483 -2.6986 -2.1551
  939MPD2     N13738   4.032   1.455   0.890 -0.2329  0.6495 -0.0436
  939MPD2    H513739   4.089   1.539   0.894 -1.4136  1.5613 -2.4220
  939MPD2    N113740   3.792   1.644   1.262  0.6788 -0.3389  0.7562
  939MPD2    H713741   3.860   1.718   1.246  1.0638 -0.9519 -0.4565
  940MPD2     C13742   2.915   2.008  13.180 -0.4094 -1.0858 -0.2926
  940MPD2    C113743   3.030   1.938  13.194  0.1285  0.1479  0.3888
  940MPD2    C213744   3.082   1.880  13.082  0.4134 -0.1027  0.3898
  940MPD2    C313745   3.022   1.888  12.961  0.5484 -0.3224 -0.0781
  940MPD2    C413746   2.912   1.961  12.943  0.4613  0.0289 -0.0905
  940MPD2    C513747   2.862   2.016  13.053  0.5409  0.5526 -0.8110
  940MPD2     H13748   3.172   1.819  13.089  0.0229 -0.7735 -0.4603
  940MPD2    H113749   2.868   1.963  12.844  0.3678  1.4623 -0.0212
  940MPD2    H213750   2.847   2.053  13.251  1.2481  1.6341 -0.4330
  940MPD2    H313751   2.765   2.064  13.048 -0.5227 -1.3523  1.5226
  940MPD2     N13752   3.076   1.820  12.848 -0.6028 -0.7558  0.5595
  940MPD2    H513753   3.043   1.851  12.757 -0.5749 -0.1752  0.7426
  940MPD2    N113754   3.104   1.942  13.315 -0.5310  0.7701  0.5346
  940MPD2    H713755   3.187   1.884  13.322  0.7678  2.3393 -1.9572
  941MPD2     C13756   1.987   1.017   9.238  0.5606  0.1942 -0.1390
  941MPD2    C113757   2.060   1.005   9.353 -0.4902  0.4817 -0.1871
  941MPD2    C213758   2.014   0.928   9.452 -0.0223 -0.2440 -0.6896
  941MPD2    C313759   1.898   0.856   9.444 -0.7856 -0.0678 -0.6642
  941MPD2    C413760   1.826   0.862   9.333 -0.3461 -0.4404  0.6154
  941MPD2    C513761   1.869   0.938   9.225 -0.0589  0.1943 -0.2459
  941MPD2     H13762   2.073   0.915   9.542 -0.5439 -1.5538 -0.5360
  941MPD2    H113763   1.731   0.809   9.326 -0.9401  0.7640 -0.4609
  941MPD2    H213764   2.018   1.075   9.151 -1.7419  1.0970 -0.3580
  941MPD2    H313765   1.823   0.946   9.128  1.4088  1.9668 -0.7903
  941MPD2     N13766   1.839   0.775   9.553 -0.2341  0.4767 -0.1441
  941MPD2    H513767   1.745   0.747   9.530 -0.3868  0.5552  0.3802
  941MPD2    N113768   2.184   1.073   9.376 -0.1157  0.0420 -0.0391
  941MPD2    H713769   2.224   1.063   9.468  0.3955 -2.0089 -0.4897
  942MPD2     C13770   0.638   1.605   9.623 -0.3098 -0.0635 -0.7794
  942MPD2    C113771   0.660   1.737   9.600 -0.0822 -0.3861  0.2752
  942MPD2    C213772   0.787   1.786   9.602 -0.4665  0.1088  0.1990
  942MPD2    C313773   0.895   1.703   9.620  0.3947  0.3135 -0.0255
  942MPD2    C413774   0.871   1.566   9.643  0.7129  0.4687  0.1644
  942MPD2    C513775   0.741   1.516   9.640  0.1769 -0.1562  0.2122
  942MPD2     H13776   0.806   1.892   9.593 -0.2549 -0.0146 -0.8305
  942MPD2    H113777   0.954   1.497   9.651  0.5922  0.3473  0.3502
  942MPD2    H213778   0.540   1.561   9.610  0.5422 -1.4229 -2.5844
  942MPD2    H313779   0.713   1.411   9.641  0.6521 -0.2902 -0.5485
  942MPD2     N13780   1.032   1.748   9.625 -0.0727 -0.7001 -0.0481
  942MPD2    H513781   1.099   1.683   9.665  0.6341 -0.2028 -0.4395
  942MPD2    N113782   0.552   1.826   9.581  0.2078  0.1445  0.8175
  942MPD2    H713783   0.584   1.918   9.555  2.1120 -0.9960 -0.9068
  943MPD2     C13784   0.836   1.049  10.157  0.2697 -0.0897 -0.1925
  943MPD2    C113785   0.756   0.939  10.167 -0.9073  0.8964  0.5669
  943MPD2    C213786   0.801   0.820  10.112 -0.4254  0.0209  0.1843
  943MPD2    C313787   0.928   0.808  10.056  0.6854  0.7786  0.1523
  943MPD2    C413788   1.009   0.919  10.064  0.2016 -0.2864 -0.0334
  943MPD2    C513789   0.963   1.040  10.099 -0.3277 -0.4624 -0.7530
  943MPD2     H13790   0.731   0.737  10.112  0.8144 -1.0252 -0.1576
  943MPD2    H113791   1.116   0.917  10.044  0.5194 -0.6612  1.7495
  943MPD2    H213792   0.816   1.142  10.209 -0.2753 -0.4242  0.1959
  943MPD2    H313793   1.041   1.116  10.097 -1.8346  1.1281  0.7398
  943MPD2     N13794   0.977   0.684  10.012  0.1205  0.1081 -0.0152
  943MPD2    H513795   1.075   0.675   9.987  0.1029  1.7851 -0.7430
  943MPD2    N113796   0.629   0.956  10.229 -0.0124  0.5164 -0.4487
  943MPD2    H713797   0.626   1.041  10.284 -1.2900  1.3952 -1.8695
  944MPD2     C13798   4.505   4.534  11.275 -0.0852 -0.4333  0.4144
  944MPD2    C113799   4.555   4.639  11.200  0.0903  0.2818 -0.2072
  944MPD2    C213800   4.614   0.018  11.257 -0.2837  0.2831 -0.3358
  944MPD2    C313801   4.623   0.035  11.394  0.3779 -0.2598  0.1115
  944MPD2    C413802   4.562   4.662  11.468 -0.6352 -0.0254 -0.3469
  944MPD2    C513803   4.502   4.556  11.412  0.1881  0.4160  0.0360
  944MPD2     H13804   4.662   0.099  11.205 -0.9953 -0.7297 -2.5429
  944MPD2    H113805   4.553   4.669  11.576  0.1177  0.7526 -0.3314
  944MPD2    H213806   4.477   4.439  11.232 -2.3659  0.9692 -1.2504
  944MPD2    H313807   4.485   4.469  11.474  0.9998  0.1439 -0.1229
  944MPD2     N13808   4.694   0.143  11.445  0.1961 -0.1139 -0.1488
  944MPD2    H513809   0.010   0.204  11.377 -1.4033 -0.0687 -1.1406
  944MPD2    N113810   4.543   4.620  11.063  0.0765  0.7985  0.4974
  944MPD2    H713811   4.511   4.532  11.024 -2.1005  0.5436  2.8083
    1TCq1    O113812   3.587   0.710  14.024  0.3192  0.1912 -0.0769
    1TCq1    C113813   3.493   0.772  14.110  0.2791  0.2328 -0.2565
    1TCq1    O213814   3.422   0.870  14.086 -0.5499  0.1856 -0.6231
    1TCq1    C213815   3.561   0.755  14.240 -0.6974 -1.5930  0.0282
    1TCq1    C313816   3.590   0.630  14.286  0.1882  0.1869 -0.2327
    1TCq1    C413817   3.636   0.618  14.417  0.3045  0.2877 -0.0603
    1TCq1    C513818   3.658   0.723  14.500  0.3390  0.4757 -0.6567
    1TCq1    C613819   3.618   0.843  14.447 -0.7817 -0.3333 -0.5284
    1TCq1    C713820   3.574   0.870  14.314 -0.3256  0.3523 -0.7744
    1TCq1    C813821   3.598   0.957  14.543 -0.5098 -0.0061  0.4981
    1TCq1    O413822   3.544   0.934  14.653  0.3410 -0.8005 -0.1216
    1TCq1    C913823   3.650   0.491  14.479 -0.3729  0.0028 -0.1143
    1TCq1    O513824   3.630   0.394  14.402 -0.2476 -0.3440 -0.1817
    1TCq1    O613825   3.682   0.484  14.599  0.1557 -0.0824 -0.0265
    1TCq1    H113826   3.639   0.643  14.074  0.6951  0.2577 -0.3729
    1TCq1    H213827   3.567   0.540  14.230 -3.0322  1.2335 -0.5878
    1TCq1    H313828   3.687   0.720  14.604  0.3762 -0.9346 -0.7068
    1TCq1    H413829   3.547   0.969  14.281 -1.7648  0.0408 -0.5125
    2MPD2     C13830   3.686   1.441  14.716  0.2832  0.2720 -0.6172
    2MPD2    C113831   3.712   1.434  14.576  0.0187  0.1663 -0.4266
    2MPD2    C213832   3.695   1.315  14.511  0.4072  0.1135 -0.7541
    2MPD2    C313833   3.645   1.204  14.570 -0.0029  0.5490 -0.4870
    2MPD2    C413834   3.605   1.214  14.706 -0.4366  0.0088  0.4848
    2MPD2    C513835   3.623   1.333  14.776  0.5396 -0.6977 -0.2886
    2MPD2     H13836   3.704   1.307  14.403 -0.1246 -0.7376 -0.7321
    2MPD2    H113837   3.576   1.124  14.760 -1.9055  0.6212  0.7159
    2MPD2    H213838   3.708   1.525  14.781 -2.0898  2.5141 -2.7090
    2MPD2    H313839   3.603   1.323  14.882  0.8245  0.7129 -0.1042
    2MPD2     N13840   3.635   1.081  14.493 -0.2942 -0.0212  0.8625
    2MPD2    H513841   3.663   1.085  14.395  0.1945 -0.1346  0.9966
    2MPD2    N113842   3.765   1.559  14.519 -0.3066 -0.0994 -0.6959
    2MPD2    H713843   3.749   1.647  14.567  2.3724 -1.3958  2.5316
    3TMC2    C113844   3.799   1.717  14.345 -0.2371  0.8651  0.0604
    3TMC2    C213845   3.859   1.814  14.426 -0.5252  0.6279 -0.7176
    3TMC2    C313846   3.863   1.937  14.366 -0.2334 -0.0457  0.3259
    3TMC2    C413847   3.753   1.743  14.221  0.1749 -0.1462 -0.7072
    3TMC2    C513848   3.733   1.869  14.180  0.5416 -0.1630  0.0982
    3TMC2    C613849   3.796   1.971  14.254  0.7016  0.8846  0.1344
    3TMC2     C13850   3.792   1.581  14.385 -1.0870  0.5372  0.8161
    3TMC2     O13851   3.811   1.497  14.297  0.9635  0.0262  0.4718
    3TMC2     H13852   3.924   1.783  14.507  0.0514  0.6818 -1.1660
    3TMC2    H113853   3.695   1.665  14.174  0.2285 -1.6767  1.7929
    3TMC2    H213854   3.765   2.072  14.228  0.2487  0.5346 -0.6835
    3TMC2    C713855   3.590   1.890  14.178  0.5666 -0.4746  0.9175
    3TMC2    C813856   3.969   2.024  14.406  0.2012 -0.7953  0.2973
    3TMC2    O113857   3.531   1.858  14.277 -0.1127 -0.1300 -0.2809
    3TMC2    O213858   3.955   2.143  14.382  0.3128 -0.1500 -0.1061
    3TMC2    O513859   4.084   1.958  14.396 -0.0490  0.0295  0.0938
    3TMC2    H513860   4.087   1.860  14.391 -0.2695  0.1115 -1.6365
    4MPD2     C13861   2.717   3.135  13.705 -0.0430  0.3468 -0.0896
    4MPD2    C113862   2.766   3.106  13.582  0.2421 -0.3891  0.3788
    4MPD2    C213863   2.859   3.001  13.566 -0.7142  0.6429 -1.2115
    4MPD2    C313864   2.908   2.937  13.674  0.2144 -0.6060 -0.6179
    4MPD2    C413865   2.855   2.968  13.795 -0.2289 -0.3128 -0.0387
    4MPD2    C513866   2.762   3.064  13.813 -0.2579  0.7496  0.7730
    4MPD2     H13867   2.893   2.975  13.467 -0.9645  1.5537 -1.5366
    4MPD2    H113868   2.878   2.920  13.889  0.3580  1.0693  0.5284
    4MPD2    H213869   2.647   3.217  13.716 -1.8156 -0.8135 -2.7735
    4MPD2    H313870   2.730   3.082  13.915 -0.3726 -1.5294  1.1254
    4MPD2     N13871   3.016   2.853  13.656  0.0275 -0.3826 -0.1509
    4MPD2    H513872   3.053   2.827  13.565 -0.0876  0.0484 -0.3200
    4MPD2    N113873   2.705   3.179  13.479 -0.2958 -0.1209 -0.1808
    4MPD2    H713874   2.644   3.252  13.514 -0.8573 -0.2559 -0.8930
    5TCq2    C113875   3.065   2.769  13.751 -0.0020 -0.6743 -0.0866
    5TCq2    O213876   3.019   2.726  13.858 -0.5386  0.2786 -0.3635
    5TCq2    C213877   3.176   2.689  13.697 -0.0309 -0.4500  0.6677
    5TCq2    C313878   3.257   2.729  13.590  0.9819  0.0091 -0.4187
    5TCq2    C413879   3.372   2.662  13.565 -0.6550  0.0705  0.6009
    5TCq2    C513880   3.401   2.545  13.636 -0.1324 -0.2189 -0.1113
    5TCq2    C613881   3.319   2.505  13.733 -0.6494  0.1579  0.5482
    5TCq2    C713882   3.211   2.579  13.767 -0.3390  0.0528  0.8476
    5TCq2    C813883   3.361   2.378  13.795 -0.3435  0.4637  0.4708
    5TCq2    O413884   3.477   2.346  13.774 -0.0083 -0.1804  0.5327
    5TCq2    C913885   3.432   2.681  13.435  0.6018  0.7529 -0.0420
    5TCq2    O513886   3.545   2.630  13.427 -0.5083  0.5559  0.7172
    5TCq2    O613887   3.365   2.745  13.347  0.1231 -0.6199 -0.1821
    5TCq2    H213888   3.244   2.819  13.531 -2.0279 -0.5255 -0.5282
    5TCq2    H313889   3.469   2.477  13.586  3.4770  1.2358  2.8770
    5TCq2    H413890   3.148   2.542  13.847 -0.6262  0.2968  0.7380
    6MPD1     C13891   1.122   2.279  13.249  0.3238  0.5501  0.5675
    6MPD1    C113892   1.145   2.321  13.120 -1.0615 -0.3287  0.0906
    6MPD1    C213893   1.275   2.372  13.088 -0.0845 -0.1406  0.1391
    6MPD1    C313894   1.374   2.375  13.181  0.6959  0.0636  0.3074
    6MPD1    C413895   1.350   2.322  13.303 -0.0882 -0.3384  0.1520
    6MPD1    C513896   1.231   2.264  13.333  0.0596 -0.2008 -0.2834
    6MPD1     H13897   1.280   2.427  12.995 -1.9116 -1.5524 -0.7973
    6MPD1    H113898   1.423   2.306  13.381  0.6981  2.0827 -0.0783
    6MPD1    H213899   1.030   2.232  13.281  0.9083 -1.8918 -1.2795
    6MPD1    H313900   1.219   2.221  13.432 -4.3376  2.8204  0.5115
    6MPD1     N13901   1.495   2.434  13.173 -0.6463  0.2190 -0.3615
    6MPD1    H513902   1.543   2.445  13.262  1.2195  1.0591 -1.4544
    6MPD1    N113903   1.036   2.351  13.041  0.2229 -0.6504 -0.3300
    6MPD1    H613904   1.050   2.333  12.942 -0.2224 -0.6347 -0.3993
    6MPD1    H713905   0.947   2.306  13.063  0.0713 -0.1460  0.0843
    7MPD2     C13906   2.085   2.791  13.516  0.0567 -0.0637  0.7043
    7MPD2    C113907   2.032   2.867  13.413  0.1332 -0.3346 -0.3060
    7MPD2    C213908   2.097   2.986  13.381 -0.7440 -0.3324  0.1682
    7MPD2    C313909   2.218   3.018  13.439 -0.3228 -0.0588 -0.0870
    7MPD2    C413910   2.266   2.940  13.542  0.7651  0.1982  0.2196
    7MPD2    C513911   2.192   2.833  13.587  0.1243 -0.0794 -0.1722
    7MPD2     H13912   2.054   3.048  13.304 -0.0664 -0.0070  0.0467
    7MPD2    H113913   2.363   2.957  13.588 -0.0207  1.4543  1.4193
    7MPD2    H213914   2.045   2.693  13.540 -0.9703  0.0531 -0.5445
    7MPD2    H313915   2.242   2.784  13.670 -0.3600  0.2338  0.3026
    7MPD2     N13916   2.298   3.131  13.395 -0.4726 -0.3265  0.0254
    7MPD2    H513917   2.384   3.141  13.449 -2.2493  1.1888  2.5308
    7MPD2    N113918   1.924   2.832  13.337 -0.1047  0.6520  0.2191
    7MPD2    H713919   1.914   2.882  13.249 -0.8148  0.5548  0.2399
    8TMC3    C113920   2.386   3.292  13.259  0.0494  0.0972  0.4062
    8TMC3    C213921   2.498   3.268  13.332  0.0751  0.1815  0.3989
    8TMC3    C313922   2.616   3.241  13.268 -0.2001  0.2744 -0.3096
    8TMC3    C413923   2.397   3.296  13.126  0.4894  0.2225  0.4806
    8TMC3    C513924   2.511   3.253  13.065 -0.8540 -0.3997 -0.2261
    8TMC3    C613925   2.623   3.226  13.135  0.3084 -0.4302  0.2871
    8TMC3     C13926   2.273   3.221  13.298 -0.3230  0.4413 -0.1761
    8TMC3     O13927   2.177   3.215  13.219  0.0280  0.8707 -0.6578
    8TMC3     H13928   2.489   3.281  13.439  0.5210  0.7142  0.3689
    8TMC3    H113929   2.308   3.318  13.068  0.7873 -5.0114 -1.9476
    8TMC3    H213930   2.718   3.217  13.083 -0.1004  0.3573 -0.5910
    8TMC3    C713931   2.491   3.163  12.948 -0.2753 -0.1826 -0.0188
    8TMC3    C813932   2.717   3.163  13.340 -0.4111 -0.2091 -0.2259
    8TMC3    O113933   2.593   3.101  12.923  0.0184 -0.0884 -0.0197
    8TMC3    O213934   2.790   3.088  13.279  0.0134  0.5360 -0.2311
    9TMC3    C113935   1.662   2.563  13.068 -0.2784 -0.1669 -0.1270
    9TMC3    C213936   1.731   2.600  12.956 -0.1634  0.6229 -0.3367
    9TMC3    C313937   1.839   2.678  12.976 -0.2017 -0.0406  0.3942
    9TMC3    C413938   1.692   2.602  13.198  0.2272 -0.0579 -0.3497
    9TMC3    C513939   1.815   2.675  13.211  0.8247 -0.4179 -0.3132
    9TMC3    C613940   1.889   2.711  13.099 -0.2720 -0.6906  0.0472
    9TMC3     C13941   1.550   2.477  13.050  0.0874  0.2547 -0.1579
    9TMC3     O13942   1.524   2.451  12.934 -0.4196  0.1212 -0.0829
    9TMC3     H13943   1.713   2.559  12.857  0.6380  0.6582 -0.4984
    9TMC3    H113944   1.649   2.572  13.293 -0.2378 -0.3479 -0.6500
    9TMC3    H213945   1.990   2.742  13.123 -0.5259  1.1349 -1.2883
    9TMC3    C713946   1.854   2.709  13.346  0.6269  0.1270  0.4124
    9TMC3    C813947   1.919   2.720  12.861 -0.2444  0.0183 -0.4861
    9TMC3    O113948   1.832   2.632  13.441 -0.0626 -0.5516  0.8469
    9TMC3    O213949   1.911   2.653  12.756  0.6171  0.8024 -0.0549
   10MPD2     C13950   2.384   2.939  12.776 -0.1077  0.7594 -0.5421
   10MPD2    C113951   2.319   3.010  12.880  0.4017  0.5752  0.3025
   10MPD2    C213952   2.192   2.967  12.904  0.8924  0.5695  0.1931
   10MPD2    C313953   2.122   2.865  12.846  0.2566  0.3063  0.0140
   10MPD2    C413954   2.183   2.808  12.742  0.1760 -0.4187  0.4734
   10MPD2    C513955   2.315   2.842  12.713 -0.3310 -0.3802  0.5125
   10MPD2     H13956   2.157   3.011  12.997  1.1769  0.2937  0.4290
   10MPD2    H113957   2.142   2.717  12.700 -1.7277 -0.4585  2.3863
   10MPD2    H213958   2.489   2.951  12.750 -0.4181 -0.5245 -2.3670
   10MPD2    H313959   2.353   2.790  12.626 -2.9817 -2.8264  0.8227
   10MPD2     N13960   1.998   2.831  12.898 -0.2966  0.1725  0.0025
   10MPD2    H513961   1.972   2.874  12.986  0.7444 -1.4638  1.1137
   10MPD2    N113962   2.365   3.111  12.959  0.0429  0.3133 -1.0129
   10MPD2    H713963   2.300   3.158  13.021  1.7998  1.3833  0.0160
   11MPD2     C13964   3.329   2.013  14.154  0.0506 -0.1534 -0.1440
   11MPD2    C113965   3.430   2.046  14.063  0.2232  0.1202 -0.6467
   11MPD2    C213966   3.413   2.140  13.967 -0.0415 -0.0759 -0.9455
   11MPD2    C313967   3.297   2.222  13.973  0.3068 -0.2096 -0.2752
   11MPD2    C413968   3.197   2.187  14.062  0.2656 -0.5428 -0.4228
   11MPD2    C513969   3.210   2.074  14.145 -0.0184  0.4166 -0.1068
   11MPD2     H13970   3.500   2.167  13.908 -1.1795 -0.9939 -3.0459
   11MPD2    H113971   3.101   2.238  14.070  0.7668  0.5654 -1.4726
   11MPD2    H213972   3.332   1.958  14.247 -1.2476 -0.9123 -0.5479
   11MPD2    H313973   3.141   2.063  14.228 -0.5346 -0.7564 -0.6770
   11MPD2     N13974   3.275   2.329  13.892 -0.3915 -0.7320  0.1872
   11MPD2    H513975   3.191   2.384  13.908  0.6991  1.2447 -0.8990
   11MPD2    N113976   3.557   1.986  14.081 -0.2921  0.0780 -0.0160
   11MPD2    H713977   3.627   2.006  14.011  1.0101  1.5316  1.7153
    1MPD1     C13978   0.792   3.754  16.856 -0.1998  0.0375 -0.5019
    1MPD1    C113979   0.869   3.865  16.823 -0.0960  0.5326  0.1110
    1MPD1    C213980   1.003   3.857  16.818  1.2158  0.1284  0.4604
    1MPD1    C313981   1.059   3.733  16.852 -0.7580  0.0276  0.1611
    1MPD1    C413982   0.989   3.626  16.894  0.5441  0.4383  0.3090
    1MPD1    C513983   0.852   3.634  16.886 -0.2631  0.8143 -0.2009
    1MPD1     H13984   1.064   3.945  16.805  1.9763 -0.2202  1.6285
    1MPD1    H113985   1.033   3.533  16.929 -3.0791 -1.2286  0.4165
    1MPD1    H213986   0.685   3.759  16.871 -0.1966  1.7946 -1.1308
    1MPD1    H313987   0.791   3.552  16.921  0.5902 -0.0381 -0.7296
    1MPD1     N13988   1.199   3.704  16.862  0.0467  0.7427 -0.2725
    1MPD1    H513989   1.238   3.614  16.885 -0.9155  0.1821 -0.8149
    1MPD1    N113990   0.801   3.988  16.815  0.3974 -0.7263 -0.9626
    1MPD1    H613991   0.843   4.059  16.756  3.5204 -2.3634 -0.7070
    1MPD1    H713992   0.701   3.976  16.801  0.3423 -1.1567 -0.2325
    2MPD1     C13993   1.841   3.180  17.354 -0.0305  0.5308 -0.4874
    2MPD1    C113994   1.922   3.287  17.329 -0.1845  0.9832  0.1062
    2MPD1    C213995   1.873   3.391  17.254 -0.0998  0.8416 -0.7287
    2MPD1    C313996   1.738   3.398  17.217 -0.6729 -0.1163  0.6459
    2MPD1    C413997   1.656   3.297  17.260 -0.3352 -0.7715  0.2122
    2MPD1    C513998   1.708   3.186  17.329 -0.1239 -0.5428  0.6169
    2MPD1     H13999   1.942   3.458  17.203 -0.8988  2.7243  0.6550
    2MPD1    H114000   1.551   3.289  17.234 -0.1660 -2.3345 -0.0031
    2MPD1    H214001   1.873   3.092  17.409 -1.4755  0.5470  0.3896
    2MPD1    H314002   1.639   3.109  17.360 -0.2492 -1.3415 -1.6527
    2MPD1     N14003   1.708   3.490  17.115 -0.5129  0.1653 -0.0197
    2MPD1    H514004   1.786   3.545  17.081  0.1534 -1.5017 -1.2112
    2MPD1    N114005   2.061   3.264  17.348  0.2394 -0.3978 -0.0912
    2MPD1    H614006   2.088   3.192  17.415 -0.1564  0.3909  0.9283
    2MPD1    H714007   2.119   3.346  17.364  1.5263 -1.3418  0.0976
    3TMC3    C114008   1.565   3.604  16.965 -0.2296  0.7746  0.6696
    3TMC3    C214009   1.674   3.643  16.887 -0.0755  0.3343 -0.5651
    3TMC3    C314010   1.659   3.739  16.788  0.6984  0.1096  0.3310
    3TMC3    C414011   1.442   3.659  16.950  0.4747  0.0086  0.5048
    3TMC3    C514012   1.425   3.748  16.845 -0.5819 -0.1367  0.2473
    3TMC3    C614013   1.530   3.790  16.771  0.4181 -0.9631 -0.4427
    3TMC3     C14014   1.576   3.499  17.059 -0.3802  0.6817  0.3045
    3TMC3     O14015   1.470   3.448  17.083  0.5920 -0.1261 -0.1979
    3TMC3     H14016   1.768   3.589  16.892  0.1447  1.0588  2.9141
    3TMC3    H114017   1.368   3.640  17.027 -1.5232  1.1426 -1.1463
    3TMC3    H214018   1.516   3.854  16.684  1.3047  2.4871  1.9864
    3TMC3    C714019   1.287   3.790  16.807 -0.0649  0.6225 -0.1867
    3TMC3    C814020   1.759   3.737  16.677  0.2163  0.0080 -0.1127
    3TMC3    O114021   1.276   3.876  16.723  0.7599  0.0248 -0.2466
    3TMC3    O214022   1.721   3.782  16.570  0.4146  0.1313 -0.5493
    4MPD1     C14023   2.166   3.554  16.434  0.3624 -0.3031 -0.7057
    4MPD1    C114024   2.179   3.526  16.569 -0.3950  0.5486 -0.1006
    4MPD1    C214025   2.079   3.565  16.653 -0.3512  0.1362  0.4831
    4MPD1    C314026   1.976   3.649  16.616  0.5585 -0.5111 -0.3729
    4MPD1    C414027   1.979   3.691  16.483  0.4333 -0.5204  0.5085
    4MPD1    C514028   2.077   3.652  16.391 -0.1865  0.1872 -0.0044
    4MPD1     H14029   2.090   3.546  16.760  3.5644 -0.6689 -0.0771
    4MPD1    H114030   1.905   3.758  16.443  0.4774 -1.0945 -0.5221
    4MPD1    H214031   2.246   3.510  16.375  1.7334  2.0672 -0.6217
    4MPD1    H314032   2.069   3.681  16.287  0.7354  0.2267 -0.0661
    4MPD1     N14033   1.871   3.667  16.706  0.2972  0.4169  0.5187
    4MPD1    H514034   1.882   3.629  16.800 -1.2701 -0.7427  0.2457
    4MPD1    N114035   2.272   3.431  16.606  0.3258  0.1064 -0.4287
    4MPD1    H614036   2.290   3.432  16.707  1.5551  1.5730 -0.6613
    4MPD1    H714037   2.356   3.437  16.550 -0.0056  1.2404 -0.8091
    1TCq1    O114038   1.532   4.227  12.538  0.0576  0.2722  0.1953
    1TCq1    C114039   1.514   4.169  12.418 -0.2427  0.8749  0.1277
    1TCq1    O214040   1.456   4.227  12.324 -0.1170  0.1167  0.4134
    1TCq1    C214041   1.543   4.026  12.412 -0.2186  0.0847  0.6372
    1TCq1    C314042   1.639   3.971  12.492  0.1432 -0.8706  0.2028
    1TCq1    C414043   1.661   3.840  12.477 -0.7695  0.2581 -0.0250
    1TCq1    C514044   1.606   3.770  12.369  0.1178  0.8233 -0.4840
    1TCq1    C614045   1.510   3.830  12.296 -0.3647  0.3920 -0.2642
    1TCq1    C714046   1.470   3.957  12.326 -0.4781 -0.1614  0.0579
    1TCq1    C814047   1.463   3.769  12.173  0.3721 -0.6213  0.6303
    1TCq1    O414048   1.475   3.650  12.176 -0.4429 -0.2602  0.9419
    1TCq1    C914049   1.766   3.777  12.546 -0.1179  0.5828 -0.1159
    1TCq1    O514050   1.827   3.854  12.622  0.4179 -0.1917  0.6012
    1TCq1    O614051   1.798   3.661  12.517 -0.1957 -0.3007  0.6245
    1TCq1    H114052   1.591   4.175  12.598  0.8998 -1.8430 -2.4898
    1TCq1    H214053   1.680   4.019  12.581  0.6896 -2.0889  0.6139
    1TCq1    H314054   1.623   3.665  12.348  1.2359  0.9702 -0.3413
    1TCq1    H414055   1.391   4.005  12.268  1.1818  1.5387 -0.7771
    2MPD1     C14056   1.284   3.774  11.695  0.4147 -0.4335  0.8354
    2MPD1    C114057   1.276   3.902  11.743  0.1215 -0.5747 -0.4195
    2MPD1    C214058   1.305   3.924  11.874  0.2872 -0.2394 -0.0838
    2MPD1    C314059   1.358   3.819  11.950  0.8114 -1.0686 -0.1853
    2MPD1    C414060   1.369   3.690  11.907  0.6306 -0.3411 -0.0829
    2MPD1    C514061   1.335   3.672  11.776 -0.0879  0.1889  0.0096
    2MPD1     H14062   1.295   4.019  11.926 -0.8515 -2.1528  3.1734
    2MPD1    H114063   1.402   3.604  11.965  3.2541  1.1129  0.5900
    2MPD1    H214064   1.265   3.749  11.591 -0.7192  0.1020  0.9080
    2MPD1    H314065   1.337   3.571  11.735  1.7987 -0.3097  1.3080
    2MPD1     N14066   1.413   3.854  12.074 -0.7457 -0.2616  0.0269
    2MPD1    H514067   1.399   3.949  12.106 -0.8118  0.1608 -1.2520
    2MPD1    N114068   1.213   3.996  11.666 -0.5492  0.4726  0.2381
    2MPD1    H614069   1.251   4.088  11.688  0.7828  0.1376 -0.7014
    2MPD1    H714070   1.242   3.977  11.570  1.5513 -0.1065  0.9918
    1TCq1    O114071   0.635   4.320   0.429  0.5133 -0.7426  0.0223
    1TCq1    C114072   0.511   4.299   0.476 -0.5716 -0.2052 -0.0709
    1TCq1    O214073   0.409   4.294   0.414  0.3352 -0.7923  0.4896
    1TCq1    C214074   0.532   4.236   0.615  0.1237 -0.6744  0.2692
    1TCq1    C314075   0.595   4.115   0.616  0.6362  0.5993 -0.8197
    1TCq1    C414076   0.575   4.037   0.723 -0.1004 -0.6076  0.5391
    1TCq1    C514077   0.468   4.054   0.802 -1.1443  0.8954  0.3303
    1TCq1    C614078   0.397   4.171   0.791  0.0601  0.7551 -0.0275
    1TCq1    C714079   0.436   4.267   0.707 -0.4181 -0.0597 -0.0316
    1TCq1    C814080   0.278   4.190   0.874  0.7199 -0.0639  0.6584
    1TCq1    O414081   0.238   4.309   0.875  0.4764  0.3222  0.6087
    1TCq1    C914082   0.638   3.901   0.712  0.6535  0.1492  0.0925
    1TCq1    O514083   0.745   3.896   0.648  0.0289  0.2813 -0.4070
    1TCq1    O614084   0.571   3.807   0.765 -0.0019 -0.0603 -0.1652
    1TCq1    H114085   0.707   4.319   0.496  0.2888  0.9830  0.2675
    1TCq1    H214086   0.686   4.108   0.557  0.7941  0.3990 -0.5504
    1TCq1    H314087   0.447   3.977   0.876  0.6417 -0.1415 -0.2563
    1TCq1    H414088   0.369   4.351   0.692  0.5454  0.2960 -2.3061
    2MPD1     C14089   4.656   4.129   1.241  0.6015  0.4401 -0.5500
    2MPD1    C114090   4.675   4.006   1.186  0.5820  0.7884  0.1052
    2MPD1    C214091   0.054   3.994   1.092  0.5945  0.4652  0.0422
    2MPD1    C314092   0.126   4.104   1.037  0.1721  0.2241 -0.0417
    2MPD1    C414093   0.102   4.220   1.110  0.2899  0.0329 -0.1746
    2MPD1    C514094   0.001   4.238   1.202 -0.2586 -0.1574 -0.3697
    2MPD1     H14095   0.072   3.895   1.052 -0.4868 -0.4291  1.7584
    2MPD1    H114096   0.157   4.308   1.078  0.0526  0.8481  1.6553
    2MPD1    H214097   4.587   4.148   1.322  1.3777  0.7411  0.0423
    2MPD1    H314098   4.697   4.339   1.226 -1.1529 -0.3404 -0.7570
    2MPD1     N14099   0.224   4.084   0.939 -0.0302  1.0238 -0.1077
    2MPD1    H514100   0.251   3.986   0.926  1.4822  1.0834  2.4770
    2MPD1    N114101   4.620   3.897   1.254 -0.5990  0.3128  0.7708
    2MPD1    H614102   4.608   3.824   1.185 -1.0484  2.6908 -1.6965
    2MPD1    H714103   4.531   3.912   1.300 -0.3128 -2.1900  2.1000
    1MPD1     C14104   3.403   2.964  12.029  0.0158 -0.0574 -0.0683
    1MPD1    C114105   3.496   3.035  11.957  0.3135 -0.1749  0.1339
    1MPD1    C214106   3.486   3.173  11.968 -0.6119 -0.1382 -0.8469
    1MPD1    C314107   3.379   3.238  12.033 -0.6293  0.8011  0.2438
    1MPD1    C414108   3.293   3.157  12.096 -0.0020  0.3197 -0.1768
    1MPD1    C514109   3.307   3.025  12.098 -0.1828 -0.3488 -0.4722
    1MPD1     H14110   3.564   3.239  11.931 -2.0684  2.0158 -0.0850
    1MPD1    H114111   3.221   3.190  12.170  0.9979  1.4220  0.3023
    1MPD1    H214112   3.409   2.856  12.036 -1.1035 -0.0747  0.5152
    1MPD1    H314113   3.238   2.966  12.156  0.0457  0.1439  0.2945
    1MPD1     N14114   3.369   3.381  12.033 -0.1357  0.2553  0.4969
    1MPD1    H514115   3.434   3.431  11.973  1.6919 -0.2710  2.0266
    1MPD1    N114116   3.610   2.968  11.930 -0.3353 -0.4034 -0.2115
    1MPD1    H614117   3.586   2.873  11.900  1.0837 -1.7296  2.8547
    1MPD1    H714118   3.670   3.021  11.867 -1.0984  2.4341  1.4821
    2MPD1     C14119   3.399   2.977  11.572  0.2174 -0.2328  0.3913
    2MPD1    C114120   3.329   2.900  11.485  0.2964  0.0965  0.3676
    2MPD1    C214121   3.300   2.951  11.353 -0.4968  0.5155  0.2181
    2MPD1    C314122   3.366   3.073  11.313  0.2365  0.4198 -0.0689
    2MPD1    C414123   3.446   3.139  11.399  0.4317  0.6902 -0.4384
    2MPD1    C514124   3.461   3.094  11.526  0.0455  0.7411 -0.1580
    2MPD1     H14125   3.241   2.889  11.287  0.3300 -0.0863  0.0404
    2MPD1    H114126   3.488   3.236  11.374 -0.9763  0.7099 -2.7244
    2MPD1    H214127   3.410   2.957  11.677 -0.5862 -0.7265  0.3765
    2MPD1    H314128   3.518   3.148  11.601  1.3269  0.6313 -1.0384
    2MPD1     N14129   3.355   3.136  11.188  0.1089 -0.2850  0.2468
    2MPD1    H514130   3.408   3.221  11.169 -1.4572 -0.0022 -2.8202
    2MPD1    N114131   3.264   2.788  11.533 -0.3322 -0.9365 -0.1992
    2MPD1    H614132   3.247   2.713  11.467  1.3263 -1.4694 -0.0246
    2MPD1    H714133   3.311   2.748  11.614  0.3426 -0.1384 -0.1877
    3MPD1     C14134   2.909   2.815  10.360  0.2483 -0.5605  0.1309
    3MPD1    C114135   2.902   2.774  10.494 -0.3799 -0.2078 -0.1822
    3MPD1    C214136   2.945   2.869  10.583  0.2984 -0.3019 -0.1778
    3MPD1    C314137   3.022   2.975  10.539  0.5870  0.1058  0.5632
    3MPD1    C414138   3.049   2.998  10.408  0.5021  0.6742  0.0498
    3MPD1    C514139   2.983   2.922  10.314 -0.9718  0.6825 -0.2200
    3MPD1     H14140   2.933   2.843  10.688  1.1824 -1.8773 -0.4651
    3MPD1    H114141   3.112   3.078  10.370 -0.2158  0.4591 -1.5793
    3MPD1    H214142   2.871   2.754  10.279  1.1463  0.3254 -0.9508
    3MPD1    H314143   2.998   2.941  10.208 -2.2443 -0.6633 -0.6253
    3MPD1     N14144   3.083   3.061  10.640 -0.0313  0.1258 -0.3950
    3MPD1    H514145   3.057   3.043  10.736  0.6093 -0.8463 -0.4077
    3MPD1    N114146   2.812   2.678  10.538  0.2437  0.1233 -0.2215
    3MPD1    H614147   2.798   2.595  10.481  1.4604  0.6871 -1.3468
    3MPD1    H714148   2.839   2.640  10.629 -1.2338 -0.4648 -0.0299
    4MPD2     C14149   2.929   3.907  11.634 -0.5117  0.1222  0.6792
    4MPD2    C114150   3.055   3.931  11.687  0.8856 -0.0499  0.3839
    4MPD2    C214151   3.149   4.000  11.614 -0.7231  0.7564  0.1038
    4MPD2    C314152   3.115   4.053  11.485 -0.1192 -0.6499 -0.6791
    4MPD2    C414153   2.986   4.026  11.439  1.0870  0.3991 -0.2815
    4MPD2    C514154   2.892   3.966  11.515  0.4555  0.0133  0.3873
    4MPD2     H14155   3.244   4.007  11.665  0.9942 -0.6694 -2.9135
    4MPD2    H114156   2.953   4.069  11.345 -2.7604 -0.8693  0.4915
    4MPD2    H214157   2.858   3.842  11.683 -0.2341 -0.9883 -0.3765
    4MPD2    H314158   2.791   3.955  11.478 -0.2098  0.5711  2.0353
    4MPD2     N14159   3.218   4.115  11.407 -0.0344 -0.2008 -0.4688
    4MPD2    H514160   3.183   4.128  11.313 -0.6398 -2.2500 -0.5243
    4MPD2    N114161   3.103   3.888  11.809  0.1184 -0.8824  0.2601
    4MPD2    H714162   3.201   3.911  11.825  0.4389  0.3100 -3.2547
    5TMC3    C114163   3.127   3.785  12.006  0.3133 -0.3193  0.0894
    5TMC3    C214164   3.140   3.655  12.046  0.0002 -0.6215 -0.1560
    5TMC3    C314165   3.265   3.604  12.061 -0.9281  0.1914  0.0917
    5TMC3    C414166   3.234   3.867  11.997 -0.6557  0.4776  0.4460
    5TMC3    C514167   3.359   3.808  12.010 -0.0274 -1.0903  0.1934
    5TMC3    C614168   3.377   3.678  12.035  0.0606 -0.0314  0.5042
    5TMC3     C14169   3.041   3.800  11.891  0.9439 -1.2265 -0.4915
    5TMC3     O14170   2.943   3.729  11.879  0.1904 -0.7817  0.1285
    5TMC3     H14171   3.056   3.586  12.051 -0.1862 -0.2414  1.8488
    5TMC3    H114172   3.221   3.975  11.999  0.1989  0.5604  1.4806
    5TMC3    H214173   3.469   3.628  12.061  0.6472  1.2012  0.8310
    5TMC3    C714174   3.448   3.869  11.916 -0.8809  0.0825 -0.0766
    5TMC3    C814175   3.270   3.461  12.097 -1.0692 -0.5445 -0.5297
    5TMC3    O114176   3.396   3.964  11.865  0.0278  0.5938  0.1391
    5TMC3    O214177   3.172   3.420  12.153  1.0364  0.0418  0.1528
    6TMC3    C114178   3.279   3.189  10.972 -0.2260 -0.7065  0.2620
    6TMC3    C214179   3.230   3.138  10.855 -1.2157  0.0675 -0.4879
    6TMC3    C314180   3.205   3.222  10.752 -0.6486  0.1499 -0.5869
    6TMC3    C414181   3.305   3.324  10.989  0.2722 -0.9569  0.1306
    6TMC3    C514182   3.271   3.404  10.886 -0.1613 -0.2631  1.1627
    6TMC3    C614183   3.233   3.350  10.758  0.3604 -0.1894  0.4585
    6TMC3     C14184   3.281   3.095  11.081  0.4543  0.0699  0.0539
    6TMC3     O14185   3.208   2.997  11.075  0.2668  0.0050 -0.2066
    6TMC3     H14186   3.222   3.031  10.845 -2.4436  0.0882  0.3129
    6TMC3    H114187   3.334   3.356  11.089  1.1118  2.7889 -1.3155
    6TMC3    H214188   3.193   3.408  10.675 -2.9032  1.9574  3.5010
    6TMC3    C714189   3.304   3.538  10.896  0.7187 -0.0526 -0.3296
    6TMC3    C814190   3.162   3.170  10.623 -0.3379 -0.3092 -0.0697
    6TMC3    O114191   3.332   3.574  11.010  0.2339 -0.0066 -0.4498
    6TMC3    O214192   3.192   3.226  10.519 -0.8709 -0.2744 -0.7658
    7MPD2     C14193   3.878   3.965  11.664 -0.0030  0.0316  0.0334
    7MPD2    C114194   3.747   3.978  11.639 -0.5066  0.3861 -0.2452
    7MPD2    C214195   3.649   3.928  11.723  0.5264  0.4608  0.9101
    7MPD2    C314196   3.682   3.864  11.840 -0.6637 -0.4567  0.0654
    7MPD2    C414197   3.816   3.849  11.872  0.1229  0.3771 -0.3116
    7MPD2    C514198   3.912   3.903  11.783  0.0238 -0.1247  1.0395
    7MPD2     H14199   3.547   3.924  11.686 -0.0541 -0.7019  2.6170
    7MPD2    H114200   3.852   3.816  11.969 -1.0318  1.5384  0.5256
    7MPD2    H214201   3.961   4.011  11.611 -0.1416 -2.0517 -1.9791
    7MPD2    H314202   4.018   3.899  11.808  0.2360  0.0668  0.1891
    7MPD2     N14203   3.579   3.818  11.925 -0.3457 -0.5080 -0.1861
    7MPD2    H514204   3.599   3.758  12.004 -0.7970 -0.0199  0.3018
    7MPD2    N114205   3.694   4.053  11.529  0.4928 -0.7042  0.3613
    7MPD2    H714206   3.593   4.058  11.525  0.3991 -1.9897  0.8868
    8TMC3    C114207   3.659   4.177  11.338  0.5836 -0.3926 -0.1235
    8TMC3    C214208   3.655   4.130  11.209 -0.1516 -0.1823  0.5576
    8TMC3    C314209   3.533   4.119  11.150 -0.3161  0.6129 -0.1520
    8TMC3    C414210   3.548   4.227  11.401 -0.3815 -1.0642  0.7020
    8TMC3    C514211   3.425   4.202  11.347  0.3431  0.6857  0.4322
    8TMC3    C614212   3.418   4.151  11.216  0.0729  0.7678  0.1372
    8TMC3     C14213   3.757   4.108  11.425 -0.4688  0.2649 -0.6470
    8TMC3     O14214   3.874   4.098  11.390 -0.0782  0.1354 -0.2673
    8TMC3     H14215   3.735   4.062  11.183 -0.6037  0.4903 -2.5956
    8TMC3    H114216   3.555   4.271  11.500 -0.2306 -2.4577  1.3153
    8TMC3    H214217   3.327   4.115  11.169 -0.3710 -1.7439  2.8953
    8TMC3    C714218   3.342   4.138  11.451  0.1693 -0.3781  0.7946
    8TMC3    C814219   3.507   4.009  11.063  0.8011  0.4122  0.6060
    8TMC3    O114220   3.411   4.114  11.548  0.3628  0.0695  0.2509
    8TMC3    O214221   3.495   3.906  11.129 -0.1444  0.1567 -0.0319
    9MPD2     C14222   3.375   4.013  10.710 -0.5247  0.3682  0.5474
    9MPD2    C114223   3.396   3.964  10.839  0.1640 -0.0169  0.0513
    9MPD2    C214224   3.357   3.830  10.866 -0.5588  0.7879  0.2094
    9MPD2    C314225   3.300   3.752  10.766 -0.3100 -0.1853 -0.8518
    9MPD2    C414226   3.276   3.810  10.640  0.6248 -0.4806  0.8649
    9MPD2    C514227   3.314   3.938  10.616  0.4297 -0.1364  1.0365
    9MPD2     H14228   3.368   3.796  10.969 -0.7473  0.7066  0.2022
    9MPD2    H114229   3.242   3.748  10.558 -0.1267  0.4066  0.5084
    9MPD2    H214230   3.412   4.113  10.691  0.9810 -1.0166 -3.7809
    9MPD2    H314231   3.315   3.978  10.515  0.4136 -0.1481  1.0318
    9MPD2     N14232   3.279   3.614  10.784 -0.4895  0.1521  0.0666
    9MPD2    H514233   3.217   3.577  10.713  1.2588 -3.7026  0.5257
    9MPD2    N114234   3.467   4.045  10.933 -0.6291 -0.0597 -0.6021
    9MPD2    H714235   3.462   4.145  10.916 -0.6827  0.0711  0.1487
    1MPD1     C14236   2.794   1.952  16.365  0.2538 -0.2830 -0.6990
    1MPD1    C114237   2.719   2.004  16.269 -0.1806 -0.1601  0.0512
    1MPD1    C214238   2.740   1.966  16.137 -0.4973  0.3746 -0.3692
    1MPD1    C314239   2.837   1.872  16.103  0.2728  0.8079 -0.6079
    1MPD1    C414240   2.912   1.813  16.204  0.4393 -0.1111 -0.1532
    1MPD1    C514241   2.888   1.858  16.333  0.0044 -0.1920  0.1619
    1MPD1     H14242   2.678   2.013  16.062 -3.1830 -0.1050  1.5578
    1MPD1    H114243   2.988   1.742  16.174  0.9913  1.3890 -2.2806
    1MPD1    H214244   2.805   2.005  16.459 -1.1903  1.1231 -1.3208
    1MPD1    H314245   2.955   1.818  16.409 -1.0215 -3.2330 -0.5269
    1MPD1     N14246   2.864   1.843  15.971  0.4451  0.1548 -0.7022
    1MPD1    H514247   2.935   1.773  15.953  0.1936 -0.8210  2.1401
    1MPD1    N114248   2.628   2.112  16.292 -0.0391 -0.0992 -0.2262
    1MPD1    H614249   2.544   2.104  16.235 -0.9880  1.0150  1.0221
    1MPD1    H714250   2.599   2.130  16.388  0.8770  0.5233 -0.0716
    2MPD1     C14251   3.194   1.163  15.320  0.6337 -0.2462 -0.1207
    2MPD1    C114252   3.242   1.285  15.266  0.4402 -0.8233 -0.5509
    2MPD1    C214253   3.200   1.397  15.332  0.6088  0.3079 -0.1957
    2MPD1    C314254   3.116   1.397  15.437 -0.6432  0.1746  0.1553
    2MPD1    C414255   3.070   1.277  15.485 -0.0600 -0.0253  0.3837
    2MPD1    C514256   3.116   1.159  15.429 -0.2622 -0.3687 -0.0812
    2MPD1     H14257   3.229   1.490  15.285 -0.7444  1.0391  0.4265
    2MPD1    H114258   2.997   1.270  15.565 -0.2321 -2.0654  0.0525
    2MPD1    H214259   3.223   1.071  15.271  1.0123 -0.2881  0.1778
    2MPD1    H314260   3.089   1.062  15.468 -0.2912 -0.9988 -1.6744
    2MPD1     N14261   3.082   1.527  15.483  0.4316 -0.6429  0.2346
    2MPD1    H514262   3.109   1.609  15.428  0.1929 -0.8159 -0.1396
    2MPD1    N114263   3.334   1.302  15.162 -0.5660  0.1522  0.2365
    2MPD1    H614264   3.386   1.388  15.177  0.5882 -0.3991 -0.5739
    2MPD1    H714265   3.399   1.224  15.166  0.1966  0.7134 -1.2267
    3TCq2    C114266   3.024   1.554  15.607 -0.5234 -0.2685  0.0669
    3TCq2    O214267   3.026   1.491  15.709 -0.1495 -0.3576 -0.2362
    3TCq2    C214268   2.965   1.689  15.606 -0.0542 -0.6941 -0.3491
    3TCq2    C314269   2.916   1.749  15.494  0.1825  0.0780  0.6853
    3TCq2    C414270   2.826   1.851  15.501 -0.6660 -0.1893  0.2449
    3TCq2    C514271   2.773   1.884  15.622 -0.0183  0.0221  0.1685
    3TCq2    C614272   2.842   1.836  15.733 -0.6340 -0.4491 -0.5527
    3TCq2    C714273   2.935   1.736  15.730  0.4984 -1.2562  0.0394
    3TCq2    C814274   2.801   1.895  15.863 -0.6560 -0.0543 -0.2012
    3TCq2    O414275   2.740   1.999  15.856  0.3087  0.2713 -0.2749
    3TCq2    C914276   2.764   1.905  15.384  0.0926 -0.4296 -0.2235
    3TCq2    O514277   2.696   2.012  15.396 -0.0569  0.1933 -0.1612
    3TCq2    O614278   2.752   1.828  15.285  0.5404  0.2637 -0.1989
    3TCq2    H214279   2.937   1.697  15.401  0.4771  0.7276  0.3873
    3TCq2    H314280   2.695   1.958  15.628 -1.2067 -1.0330 -2.3846
    3TCq2    H414281   2.986   1.702  15.820 -0.5221 -0.3412  0.9572
    1TCq1    O114282   1.842   1.140  12.901  0.5244 -0.1775 -0.1111
    1TCq1    C114283   1.966   1.184  12.864 -0.2089  0.6478 -0.1829
    1TCq1    O214284   2.060   1.118  12.819 -0.0496  0.0597 -0.0191
    1TCq1    C214285   1.998   1.296  12.951 -0.5170 -0.4122  0.1476
    1TCq1    C314286   1.897   1.379  13.001  0.0239 -0.9799  0.0238
    1TCq1    C414287   1.915   1.467  13.100  0.2486 -0.6898 -0.8717
    1TCq1    C514288   2.039   1.468  13.159  0.0486  0.5592  0.6279
    1TCq1    C614289   2.134   1.385  13.109 -0.4776  0.2912  0.7299
    1TCq1    C714290   2.122   1.301  13.001 -0.0483 -0.7126 -0.3101
    1TCq1    C814291   2.264   1.391  13.177 -0.4088 -0.9157 -0.1703
    1TCq1    O414292   2.350   1.322  13.125  0.1894  0.3425  0.1261
    1TCq1    C914293   1.812   1.557  13.149 -0.3287 -0.0660  0.0146
    1TCq1    O514294   1.842   1.634  13.246  0.1587 -0.4300  0.2866
    1TCq1    O614295   1.695   1.522  13.119 -0.2153 -0.2248  0.4576
    1TCq1    H114296   1.799   1.213  12.951  1.6673  0.3208  0.1513
    1TCq1    H214297   1.795   1.380  12.963 -0.4943  0.3892  1.4463
    1TCq1    H314298   2.052   1.551  13.228 -1.2606  0.2297  1.2662
    1TCq1    H414299   2.208   1.247  12.965  0.9286  1.4086 -1.1912
    2MPD2     C14300   2.520   1.466  13.326 -0.2010 -0.2953  0.7118
    2MPD2    C114301   2.390   1.491  13.369 -0.6605  0.5778 -0.5213
    2MPD2    C214302   2.387   1.554  13.490  0.9786  0.1549 -0.0166
    2MPD2    C314303   2.500   1.587  13.575 -0.0849  0.1904 -0.1801
    2MPD2    C414304   2.619   1.547  13.531  0.1210 -0.2835  0.5212
    2MPD2    C514305   2.629   1.489  13.407 -0.3802 -0.9517 -0.4020
    2MPD2     H14306   2.292   1.596  13.521  0.8597  0.1486 -0.3771
    2MPD2    H114307   2.709   1.563  13.589 -0.0868  0.7821  0.5520
    2MPD2    H214308   2.538   1.414  13.233  0.0723  0.4616  0.3355
    2MPD2    H314309   2.727   1.456  13.374 -0.9252 -1.1500 -1.8170
    2MPD2     N14310   2.475   1.654  13.691 -0.2823  0.2009 -0.3102
    2MPD2    H514311   2.385   1.701  13.693  0.2098  1.1560 -0.4697
    2MPD2    N114312   2.275   1.462  13.292  0.3458  0.2829 -0.2709
    2MPD2    H714313   2.188   1.490  13.337  2.3503  1.7140  2.7037
    3TCq1    O114314   2.261   2.085  14.044 -0.3245  0.5430 -0.0737
    3TCq1    C114315   2.377   2.040  13.995  0.4608 -1.0998  0.4108
    3TCq1    O214316   2.447   2.100  13.911  0.6374 -0.6499  0.0458
    3TCq1    C214317   2.387   1.891  14.006 -0.2753  0.2267 -0.3510
    3TCq1    C314318   2.383   1.837  14.133  0.4951  0.2386  1.1151
    3TCq1    C414319   2.439   1.711  14.142 -0.2410  0.1855  1.3853
    3TCq1    C514320   2.500   1.651  14.041 -0.5035  0.7422 -0.0385
    3TCq1    C614321   2.507   1.719  13.921 -0.0420  0.1615 -0.0246
    3TCq1    C714322   2.434   1.833  13.898 -0.0068 -0.3445  0.0626
    3TCq1    C814323   2.555   1.647  13.804 -0.4107 -0.1920 -0.0690
    3TCq1    O414324   2.657   1.584  13.827 -0.7730  0.5321 -0.2697
    3TCq1    C914325   2.436   1.648  14.269 -0.6467  0.4481 -0.6060
    3TCq1    O514326   2.333   1.657  14.338  0.0952 -0.0082 -0.0067
    3TCq1    O614327   2.534   1.565  14.289 -0.1920  0.0484  0.0464
    3TCq1    H114328   2.215   2.015  14.095  1.3081  0.4178  1.2226
    3TCq1    H214329   2.358   1.895  14.221 -1.5562  1.9127 -0.5798
    3TCq1    H314330   2.545   1.552  14.049 -1.5105  0.1894 -1.1073
    3TCq1    H414331   2.423   1.884  13.803  2.6351 -2.2508 -1.2911
    1MPD2     C14332   1.621   2.331  14.988  0.2870  0.6052 -0.6233
    1MPD2    C114333   1.598   2.221  15.063  0.2949  0.1774  0.2217
    1MPD2    C214334   1.695   2.178  15.147  0.1620  0.0769 -0.4241
    1MPD2    C314335   1.825   2.234  15.148  0.8872 -0.0603  0.9718
    1MPD2    C414336   1.859   2.339  15.068 -0.1139 -0.1629 -0.0138
    1MPD2    C514337   1.752   2.391  14.996  0.0099 -0.7164 -0.1852
    1MPD2     H14338   1.688   2.087  15.206  2.8666 -0.2567 -0.5988
    1MPD2    H114339   1.958   2.378  15.053 -0.2181 -0.2787 -1.0257
    1MPD2    H214340   1.546   2.373  14.923  0.8283  3.0896  0.3107
    1MPD2    H314341   1.777   2.474  14.932 -1.7821 -1.1215 -1.4096
    1MPD2     N14342   1.913   2.171  15.236  0.3220 -0.1325 -0.1537
    1MPD2    H514343   1.884   2.088  15.286 -0.1475 -0.0026 -0.2087
    1MPD2    N114344   1.476   2.155  15.051 -0.2817 -0.4883  0.4747
    1MPD2    H714345   1.400   2.197  14.998 -0.1422 -1.4327 -0.4784
    2TMC3    C114346   1.298   1.999  15.099 -0.1357 -0.0890 -0.4470
    2TMC3    C214347   1.285   1.864  15.128  0.6147  0.2035  0.3907
    2TMC3    C314348   1.244   1.769  15.037  0.2603 -0.0761  0.2837
    2TMC3    C414349   1.230   2.048  14.986 -0.4666 -0.1287  0.0416
    2TMC3    C514350   1.175   1.955  14.909  0.1677  0.3029 -0.2698
    2TMC3    C614351   1.179   1.821  14.928 -0.4763  0.4112  0.4872
    2TMC3     C14352   1.434   2.047  15.125 -0.3595 -0.1602  0.5110
    2TMC3     O14353   1.495   1.986  15.210 -0.4567  0.5768  0.0063
    2TMC3     H14354   1.330   1.836  15.222 -0.9653 -1.8777  0.5253
    2TMC3    H114355   1.226   2.155  14.970 -0.3117 -0.0804  0.3232
    2TMC3    H214356   1.150   1.752  14.849 -0.9316  1.2269 -0.0540
    2TMC3    C714357   1.097   1.989  14.793 -0.0531 -0.8283  0.2619
    2TMC3    C814358   1.346   1.672  14.995  1.0845 -0.5363  0.4175
    2TMC3    O114359   1.027   1.911  14.729 -0.2494 -0.1675 -0.7090
    2TMC3    O214360   1.330   1.584  14.913 -0.2739 -0.2551 -0.4761
    3TCq1    O114361   1.131   3.180  14.614 -0.0254  0.3094  0.4875
    3TCq1    C114362   1.032   3.122  14.543 -0.0568  0.6389  0.0094
    3TCq1    O214363   0.912   3.139  14.554 -0.2508  0.0796  0.3599
    3TCq1    C214364   1.080   2.996  14.487 -0.0627  0.1302  0.3591
    3TCq1    C314365   1.222   2.987  14.466 -0.1563  0.9672 -0.3364
    3TCq1    C414366   1.278   2.864  14.465 -0.2039 -0.2180  0.0190
    3TCq1    C514367   1.203   2.751  14.478 -0.6541 -0.2924  0.6422
    3TCq1    C614368   1.070   2.766  14.506 -0.3637 -0.3133 -0.0760
    3TCq1    C714369   1.005   2.886  14.503 -0.3354 -0.0388  0.5928
    3TCq1    C814370   0.986   2.653  14.548  0.4186 -0.0238  0.2619
    3TCq1    O414371   0.866   2.670  14.573  0.0578 -0.3608 -0.2254
    3TCq1    C914372   1.415   2.853  14.420  1.0873  0.3698  0.7655
    3TCq1    O514373   1.477   2.742  14.430 -0.0507  0.2722  0.5088
    3TCq1    O614374   1.465   2.953  14.361 -1.3021  0.1651  0.0749
    3TCq1    H114375   1.215   3.130  14.618  0.5189  1.1125 -1.1000
    3TCq1    H214376   1.280   3.077  14.449 -0.2521  0.8428 -1.3525
    3TCq1    H314377   1.251   2.655  14.461 -1.5011 -0.8458  1.3662
    3TCq1    H414378   0.898   2.900  14.511 -0.4379  0.6064 -2.0075
    4MPD2     C14379   0.882   2.378  14.531  0.4061  0.4374 -0.4713
    4MPD2    C114380   1.002   2.417  14.579 -0.3473  0.3769 -0.5229
    4MPD2    C214381   1.083   2.321  14.636 -0.0016  0.1656 -0.2144
    4MPD2    C314382   1.047   2.190  14.666 -0.1306  0.0435 -0.3713
    4MPD2    C414383   0.929   2.148  14.609 -0.1013 -0.6539  0.7898
    4MPD2    C514384   0.852   2.241  14.544  0.8912 -0.1094  0.7643
    4MPD2     H14385   1.172   2.352  14.691 -1.1383  1.1115  1.0711
    4MPD2    H114386   0.891   2.047  14.619 -1.0984 -0.3267  0.2406
    4MPD2    H214387   0.808   2.444  14.488 -0.3513  0.0045  0.1520
    4MPD2    H314388   0.753   2.215  14.508  1.2251 -0.8890  0.4223
    4MPD2     N14389   1.131   2.109  14.744  0.5333 -0.0161 -0.2217
    4MPD2    H514390   1.222   2.144  14.772  0.5814 -0.3079 -0.0143
    4MPD2    N114391   1.062   2.545  14.578  0.2861 -0.2016 -0.3363
    4MPD2    H714392   1.162   2.554  14.589  0.0232  1.5839  0.6489
    5TMC2    C114393   1.991   1.895  15.389 -0.2973  0.3678  0.3963
    5TMC2    C214394   1.972   1.928  15.520  0.1616 -0.3504  0.2222
    5TMC2    C314395   2.025   2.041  15.572 -0.1401 -0.9568  0.3318
    5TMC2    C414396   2.052   1.984  15.307  0.7773 -0.6109 -0.1700
    5TMC2    C514397   2.095   2.107  15.360  0.6723  0.6585 -0.3068
    5TMC2    C614398   2.086   2.141  15.495 -0.2825 -0.7820  0.2430
    5TMC2     C14399   1.877   1.837  15.328  0.0744 -0.4802  0.4817
    5TMC2     O14400   1.766   1.879  15.358 -0.0801 -0.0754  0.2030
    5TMC2     H14401   1.933   1.856  15.591 -0.8143  1.6515  1.7021
    5TMC2    H114402   2.070   1.973  15.201 -0.9588  1.3225 -0.6461
    5TMC2    H214403   2.110   2.238  15.536  1.3319 -0.6288 -1.0539
    5TMC2    C714404   2.042   2.215  15.277 -0.5228 -0.7002 -0.1723
    5TMC2    C814405   1.982   2.088  15.701  0.4014  0.2828 -0.5812
    5TMC2    O114406   2.094   2.328  15.265 -0.0181 -0.4092  0.3171
    5TMC2    O214407   1.867   2.127  15.720 -0.6931 -0.6009 -0.1690
    5TMC2    O514408   2.091   2.138  15.761  0.0777 -0.5141  0.0116
    5TMC2    H514409   2.176   2.105  15.724  1.8816  2.5067  1.4775
    6MPD2     C14410   1.644   1.578  14.955  0.4969 -0.3053 -0.7968
    6MPD2    C114411   1.595   1.677  15.038 -0.1319 -0.0112  0.1608
    6MPD2    C214412   1.689   1.745  15.117 -1.3821 -0.0528  0.3166
    6MPD2    C314413   1.823   1.710  15.118 -0.8120  0.1532 -0.2736
    6MPD2    C414414   1.868   1.616  15.023  0.0248  0.7532 -0.8512
    6MPD2    C514415   1.778   1.553  14.944  0.0176  0.8280  0.2454
    6MPD2     H14416   1.653   1.823  15.183 -0.9901  0.0533  0.4061
    6MPD2    H114417   1.970   1.580  15.012  0.0888  0.7086 -0.1176
    6MPD2    H214418   1.576   1.512  14.902  1.3250 -1.4510 -0.4313
    6MPD2    H314419   1.808   1.481  14.868  2.4549  3.1237 -1.0125
    6MPD2     N14420   1.911   1.760  15.221  0.8067  0.3051  0.2165
    6MPD2    H514421   2.010   1.739  15.215  0.0589 -3.3467  1.1480
    6MPD2    N114422   1.462   1.716  15.055  0.1949  0.5396 -0.7554
    6MPD2    H714423   1.458   1.801  15.110  1.1172  0.1029 -0.0105
  945NH4     N114424   1.152   1.171  12.891  0.0946 -0.7078 -0.1459
  945NH4     H214425   1.196   1.239  12.957 -3.1258  0.8252  0.4030
  945NH4     H314426   1.226   1.113  12.847 -0.6123 -1.2261 -0.6350
  945NH4     H414427   1.097   1.220  12.818  1.0148  0.3689 -0.1113
  945NH4     H514428   1.086   1.111  12.944  0.9126 -1.6634 -0.2095
  946SOD     NA14429   4.200   2.575   1.015 -0.2065 -0.0495 -0.3805
  947SOD     NA14430   3.000   0.030  16.802 -0.6087  0.5627  0.3450
  948SOD     NA14431   0.450   1.112  10.926  0.2664  0.1026  0.0096
  949SOD     NA14432   1.037   1.850  11.041  0.0807 -0.3459  0.3600
  950SOD     NA14433   0.914   3.726  12.043 -0.1359 -0.3232  0.4716
  951SOD     NA14434   2.358   1.225  11.677 -0.3028 -0.1010 -0.0891
  952SOD     NA14435   0.325   3.290   0.489 -0.1209  0.1225 -0.4056
  953SOD     NA14436   2.319   2.090  13.118 -0.3534 -0.3098 -0.2158
  954SOD     NA14437   2.389   1.044  11.985 -0.3362  0.4823  0.3920
  955SOD     NA14438   1.396   1.097  10.153  0.2447 -0.6948 -0.4778
  956SOD     NA14439   4.341   4.613  13.955 -0.5092 -0.6925  0.2469
  957SOD     NA14440   2.145   0.593  10.720  0.0818  0.0828  0.5166
  958SOD     NA14441   3.692   3.078  14.750  0.1531 -0.5727 -0.2078
  959SOD     NA14442   0.069   1.583  10.504 -0.2996 -0.1039  0.4134
  960SOD     NA14443   0.606   2.267  12.664  0.0086 -0.5691  0.0193
  961SOD     NA14444   3.703   0.289   0.803 -0.4016  0.3843  0.0255
  962SOD     NA14445   2.337   1.552   9.798 -0.7411  0.1474 -0.0923
  963SOD     NA14446   4.632   1.384   2.206 -0.2951  0.2657  0.1663
  964SOD     NA14447   1.125   2.298  10.847 -0.1270  0.2096 -0.4609
  965SOD     NA14448   3.697   0.238  14.529 -0.2903  0.0809  0.3458
  966SOD     NA14449   3.493   2.702  17.147 -0.5656  0.2038 -0.1660
  967SOD     NA14450   2.383   2.667  11.494 -0.7903  0.0813 -0.3029
  968SOD     NA14451   2.280   4.484   6.342  0.1167 -0.3116 -0.2022
  969SOD     NA14452   1.168   2.532  15.132 -0.2077 -0.2894 -0.3953
  970SOD     NA14453   2.837   2.658  16.208 -0.0126  0.0782  0.0035
  971SOD     NA14454   0.729   1.475  13.123  0.1782  0.0264  0.3173
  972SOD     NA14455   2.594   1.492  14.490 -0.4013  0.2318  0.1728
  973SOD     NA14456   2.110   0.968  11.901  0.4576 -0.2707  0.1228
  974SOD     NA14457   1.522   3.682   3.157  0.0087 -0.1440  0.6446
  975SOD     NA14458   1.096   2.274   0.774  0.1782  0.0350 -0.2371
  976SOD     NA14459   1.437   0.808  10.245  0.4546 -0.3864  0.0913
  977SOD     NA14460   2.984   2.673  13.237 -0.5019 -0.0119  0.2194
  978SOD     NA14461   4.129   0.821  11.768  0.2861  0.0701 -0.5242
  979SOD     NA14462   0.482   0.042   3.177  0.4558  0.0138  0.4679
  980SOD     NA14463   2.708   1.443  14.229  0.1158  0.0593  0.1471
  981SOD     NA14464   3.005   4.718   7.451 -0.3066  0.1124 -0.3084
  982SOD     NA14465   3.789   0.259   0.159  0.2462 -0.2891 -0.0250
  983SOD     NA14466   3.246   2.304   2.851  0.1816  0.1452  0.0774
  984SOD     NA14467   1.218   0.038   9.988  0.1266  0.2544  0.1142
  985SOD     NA14468   0.010   4.130  10.522 -0.3718 -0.0263  0.0453
  986SOD     NA14469   1.559   1.924  15.418 -0.0386 -0.3753 -0.2661
  987SOD     NA14470   3.022   2.288  15.012  0.2693 -0.2857 -0.6637
  988SOD     NA14471   3.872   1.465   9.438 -0.7037 -0.2830 -0.1897
  989SOD     NA14472   1.502   0.302  10.089 -0.2061 -0.0236 -0.2355
  990SOD     NA14473   2.012   3.230  10.286 -0.4962 -0.2653  0.1708
  991SOD     NA14474   2.930   2.067  14.716 -0.0575 -0.1358 -0.2162
  992SOD     NA14475   0.006   4.221  14.106 -0.1900  0.3615 -0.0938
  993SOD     NA14476   3.803   2.291  13.489 -0.0834  0.2530  0.6988
  994SOD     NA14477   0.668   0.587  15.095 -0.7462  0.2100  0.4195
  995SOD     NA14478   3.131   1.960  15.000 -0.1689  0.0230  0.2762
  996SOD     NA14479   2.119   0.946  12.690 -0.1499  0.4828 -0.0011
  997SOD     NA14480   2.184   3.625   6.502 -0.0631  0.0267  0.0428
  998SOD     NA14481   3.865   0.938   2.365 -0.1592 -0.4427  0.2770
  999SOD     NA14482   1.399   4.418   2.263 -0.1140  0.1535 -0.2066
 1000SOD     NA14483   1.940   1.927  11.948 -0.1073 -0.2555  0.3756
 1001SOD     NA14484   2.851   1.267  14.455 -0.1644 -0.0407  0.1166
 1002SOD     NA14485   0.534   3.721   7.955 -0.2648  0.2869  0.2992
 1003SOD     NA14486   0.480   3.588   1.178 -0.1632 -0.5924  0.2231
 1004SOD     NA14487   1.960   2.407  14.188 -0.9366 -0.3330  0.1281
 1005SOD     NA14488   1.721   3.234   8.546 -0.1337 -0.1687  0.0740
 1006SOD     NA14489   1.900   1.174  11.716 -0.2618  0.1273 -0.2435
 1007SOD     NA14490   3.078   3.542   0.820 -0.3257  0.2817 -0.6159
 1008SOD     NA14491   0.982   0.987   1.260 -0.3194  0.1109 -0.2995
 1009SOD     NA14492   3.176   2.274  10.782 -0.0721  0.0339  0.0317
 1010SOD     NA14493   3.660   0.633   0.838 -0.6370 -0.2824 -0.1332
 1011SOL     OW14494   1.282   0.259   4.290  0.4266 -0.8746  1.1595
 1011SOL    HW114495   1.343   0.308   4.235 -1.3522  0.9177  0.7667
 1011SOL    HW214496   1.224   0.217   4.226  0.5452 -0.2964  0.6676
 1012SOL     OW14497   3.783   2.147   1.123  0.7905  0.3604 -0.1264
 1012SOL    HW114498   3.689   2.159   1.109  0.2133  0.2288  3.6627
 1012SOL    HW214499   3.782   2.055   1.147 -1.8360  0.6987  1.1160
 1013SOL     OW14500   2.495   3.010   3.716  0.2532  0.7848  0.4843
 1013SOL    HW114501   2.476   3.082   3.775  2.5771  0.5327  1.5647
 1013SOL    HW214502   2.531   3.055   3.639 -1.7771 -0.2705 -1.0719
 1014SOL     OW14503   0.235   3.339   7.896  0.5438  0.1896  0.9201
 1014SOL    HW114504   0.295   3.316   7.967  0.0471 -1.5972  0.7798
 1014SOL    HW214505   0.146   3.316   7.925 -0.1699  1.3569 -0.3638
 1015SOL     OW14506   1.803   2.647   3.151  0.2393  0.8555 -0.2739
 1015SOL    HW114507   1.709   2.653   3.134 -0.0123  2.0094  1.4852
 1015SOL    HW214508   1.804   2.622   3.244 -2.2687  0.2857 -0.4058
 1016SOL     OW14509   1.396   0.953   2.580 -0.4546  0.5328 -0.1281
 1016SOL    HW114510   1.321   1.013   2.580 -0.2046  0.8364  4.4827
 1016SOL    HW214511   1.345   0.877   2.611  0.3950  0.1957  0.4414
 1017SOL     OW14512   2.623   0.124   3.478  0.4754 -0.4177 -0.1024
 1017SOL    HW114513   2.642   0.173   3.557  1.8323 -1.4613  0.2221
 1017SOL    HW214514   2.671   0.047   3.508  2.2775  0.4115 -0.8853
 1018SOL     OW14515   0.866   3.540   0.892 -0.0343 -0.6751  0.7808
 1018SOL    HW114516   0.925   3.609   0.861 -0.9264 -0.6865 -0.9911
 1018SOL    HW214517   0.791   3.547   0.833 -1.0422  1.9067  2.3664
 1019SOL     OW14518   1.928   1.210   5.548 -0.6458  0.2881  0.8072
 1019SOL    HW114519   1.891   1.148   5.484 -2.1461  0.3757  1.5788
 1019SOL    HW214520   1.984   1.259   5.488 -1.7342 -1.7026 -1.8311
 1020SOL     OW14521   0.013   1.750   6.539  0.0713  0.2022 -0.0378
 1020SOL    HW114522   4.705   1.662   6.525 -2.4920  1.1672  0.4693
 1020SOL    HW214523   0.019   1.745   6.635  0.8239 -1.2330 -0.1699
 1021SOL     OW14524   3.789   0.351   5.687 -0.1193  0.3517 -0.6279
 1021SOL    HW114525   3.841   0.282   5.727  1.1130  0.9042 -1.2671
 1021SOL    HW214526   3.717   0.298   5.652 -1.2916  1.0707  0.6936
 1022SOL     OW14527   2.534   2.916  13.154  0.4159  0.0981 -0.2395
 1022SOL    HW114528   2.627   2.891  13.157  1.2363  3.3357  0.4372
 1022SOL    HW214529   2.539   2.968  13.074  0.9460 -0.3184 -0.4762
 1023SOL     OW14530   0.247   4.578   8.125  0.4418 -0.2286 -0.0774
 1023SOL    HW114531   0.265   4.599   8.216 -0.1324  0.4048 -0.1107
 1023SOL    HW214532   0.223   4.667   8.101 -1.2224 -0.7965 -0.5506
 1024SOL     OW14533   3.219   2.498   4.876 -0.1261  0.0224 -0.6326
 1024SOL    HW114534   3.140   2.495   4.822 -1.3433  1.6954  1.0787
 1024SOL    HW214535   3.228   2.590   4.899  0.6142 -0.3463  0.5755
 1025SOL     OW14536   4.633   1.952   8.580 -0.5406  0.0297 -0.1905
 1025SOL    HW114537   4.709   1.896   8.596 -0.5361  0.3996  1.0864
 1025SOL    HW214538   4.653   1.988   8.494  2.3673  1.2591  0.9964
 1026SOL     OW14539   1.006   1.968   8.479 -0.5708  0.3469 -0.2777
 1026SOL    HW114540   1.092   1.967   8.521 -0.2621  0.3034 -0.9021
 1026SOL    HW214541   0.955   1.973   8.560 -1.4457  1.7141 -0.8963
 1027SOL     OW14542   2.643   2.976   7.007  0.2045 -0.4919 -1.0254
 1027SOL    HW114543   2.566   2.945   6.959 -0.6174 -1.6366  0.9967
 1027SOL    HW214544   2.618   3.062   7.040  0.0068 -1.2132  0.7384
 1028SOL     OW14545   1.832   2.454   4.257 -0.4950  0.1060  0.0116
 1028SOL    HW114546   1.739   2.460   4.280  0.0649 -0.4258  2.4538
 1028SOL    HW214547   1.838   2.542   4.221 -0.2888 -1.0277 -2.6946
 1029SOL     OW14548   3.098   2.838  13.347 -0.0375  0.0566  0.5436
 1029SOL    HW114549   3.186   2.801  13.343 -0.3944 -0.7070 -0.1081
 1029SOL    HW214550   3.122   2.930  13.345 -0.9666  0.2778 -0.7315
 1030SOL     OW14551   2.761   1.056  14.511  0.9225  0.4709 -0.3555
 1030SOL    HW114552   2.744   1.032  14.420  2.4038  0.7215 -0.6889
 1030SOL    HW214553   2.764   0.969  14.551  0.6024  0.2286 -0.8654
 1031SOL     OW14554   0.092   2.234   5.804 -0.4336 -0.1905  0.0659
 1031SOL    HW114555   0.128   2.287   5.734  0.2014 -2.1388 -1.0912
 1031SOL    HW214556   0.022   2.184   5.761  0.1102 -0.4603 -0.5073
 1032SOL     OW14557   3.030   2.398  16.518  0.2394  0.7050 -0.2782
 1032SOL    HW114558   2.981   2.375  16.597  0.8948 -2.8447 -0.9129
 1032SOL    HW214559   2.988   2.355  16.444  0.9094  1.9706 -1.4025
 1033SOL     OW14560   3.441   4.547   2.760  0.1487 -0.2900 -0.4261
 1033SOL    HW114561   3.467   4.621   2.706  2.2106 -0.0673  0.8690
 1033SOL    HW214562   3.447   4.473   2.699  1.2811  1.7477 -2.8125
 1034SOL     OW14563   4.495   0.259   6.003 -0.4512 -0.9131 -0.0434
 1034SOL    HW114564   4.582   0.269   5.965 -0.0835 -1.0877  0.7595
 1034SOL    HW214565   4.482   0.165   5.989  0.0373 -1.1836  1.3129
 1035SOL     OW14566   3.045   2.269   2.513  0.1023  0.4671  0.4516
 1035SOL    HW114567   3.102   2.287   2.438  0.5508  1.1327  0.9453
 1035SOL    HW214568   3.063   2.348   2.565  1.1684  0.5942 -0.1049
 1036SOL     OW14569   4.704   1.988  11.390  0.0310  0.3388 -0.1626
 1036SOL    HW114570   4.634   1.945  11.340  0.7516  0.4235 -1.2403
 1036SOL    HW214571   0.041   2.009  11.322  0.7573 -2.4124 -0.3395
 1037SOL     OW14572   4.577   2.021   1.803 -0.1242  0.6196  0.3681
 1037SOL    HW114573   4.510   1.984   1.747 -1.5884  0.6607  2.0941
 1037SOL    HW214574   4.610   2.089   1.745 -0.2802 -0.0982 -0.5539
 1038SOL     OW14575   0.255   0.997   9.767  0.4022 -0.1027  0.0527
 1038SOL    HW114576   0.244   1.092   9.772 -1.4261 -0.2019 -2.1333
 1038SOL    HW214577   0.263   0.981   9.861  2.0218  0.2225 -0.0195
 1039SOL     OW14578   3.751   3.472   6.068  0.2955 -0.0592 -0.1925
 1039SOL    HW114579   3.720   3.520   6.145 -1.0084 -1.4475  0.1470
 1039SOL    HW214580   3.826   3.418   6.092 -0.7172 -0.4013  2.1840
 1040SOL     OW14581   1.112   1.700  12.927  0.1178 -0.7186 -0.1792
 1040SOL    HW114582   1.128   1.694  13.021 -0.9020  2.2610  0.1847
 1040SOL    HW214583   1.024   1.739  12.923  0.4876  0.3469  2.1464
 1041SOL     OW14584   3.507   3.490  11.832 -0.3291 -0.2173 -0.2304
 1041SOL    HW114585   3.596   3.512  11.805 -0.9808  0.8704 -1.4637
 1041SOL    HW214586   3.450   3.555  11.791 -0.4457 -1.0709 -1.4257
 1042SOL     OW14587   1.182   4.564   6.077 -0.2641  0.2941  0.2059
 1042SOL    HW114588   1.212   4.489   6.025 -0.4601 -0.5863  1.3611
 1042SOL    HW214589   1.168   4.616   5.998  0.8843  2.0440  1.1595
 1043SOL     OW14590   0.546   4.284   3.187  0.6461  0.8380  0.3394
 1043SOL    HW114591   0.554   4.254   3.096  0.0867 -1.0480  0.9283
 1043SOL    HW214592   0.637   4.305   3.208  0.5794  1.1615  0.3150
 1044SOL     OW14593   3.477   2.191  16.801 -0.3640 -0.5338 -0.4252
 1044SOL    HW114594   3.500   2.098  16.800 -2.2697 -0.9947 -2.3765
 1044SOL    HW214595   3.563   2.229  16.780 -0.5837  0.1362 -0.0901
 1045SOL     OW14596   2.427   1.844   5.437  0.0370 -0.4562 -0.2613
 1045SOL    HW114597   2.466   1.881   5.516 -1.1832 -1.0749  0.6270
 1045SOL    HW214598   2.365   1.914   5.416  2.4936  2.0710  0.9134
 1046SOL     OW14599   1.558   2.940   4.252  0.1751 -0.4486 -0.2867
 1046SOL    HW114600   1.547   2.924   4.346  1.7685 -0.3174 -0.0771
 1046SOL    HW214601   1.582   2.850   4.229  1.6167  0.0963 -0.8894
 1047SOL     OW14602   0.948   1.410   8.458  0.4922 -0.1025  0.0521
 1047SOL    HW114603   1.029   1.455   8.482  0.2379 -0.7167  2.0957
 1047SOL    HW214604   0.942   1.444   8.369 -2.8589 -1.3446 -0.1987
 1048SOL     OW14605   1.119   2.151   6.428 -0.2591  0.3677 -0.2220
 1048SOL    HW114606   1.075   2.085   6.481  0.7113  0.3734  0.5898
 1048SOL    HW214607   1.207   2.115   6.436  0.9605  2.7924 -2.4652
 1049SOL     OW14608   0.931   0.679   8.390  0.2299  0.2263  0.0779
 1049SOL    HW114609   0.949   0.673   8.484 -1.1490 -1.4854  0.2376
 1049SOL    HW214610   1.018   0.707   8.361  0.9419 -0.8181  1.1327
 1050SOL     OW14611   2.262   2.819   8.339  0.6188 -0.2262 -0.6708
 1050SOL    HW114612   2.357   2.823   8.327  0.6691  2.2229  0.5198
 1050SOL    HW214613   2.230   2.747   8.285 -1.6858  0.1583  0.1583
 1051SOL     OW14614   3.655   1.862   7.272  0.0951 -0.1878  0.2641
 1051SOL    HW114615   3.604   1.929   7.317 -1.6476 -1.2497 -0.1189
 1051SOL    HW214616   3.637   1.886   7.181  3.0940 -1.9196 -0.7636
 1052SOL     OW14617   3.877   0.653   8.710 -0.2244 -0.5300 -0.2167
 1052SOL    HW114618   3.938   0.719   8.740 -1.4099  1.0038 -1.2129
 1052SOL    HW214619   3.920   0.572   8.740 -1.6074 -1.1577  0.0913
 1053SOL     OW14620   2.803   0.305   5.376  0.3626  0.1095 -0.3392
 1053SOL    HW114621   2.722   0.273   5.334 -0.2484 -0.5585  1.3701
 1053SOL    HW214622   2.813   0.387   5.328  1.2288  0.1485 -0.0798
 1054SOL     OW14623   4.680   3.468   0.316 -0.3991  0.3716  0.1284
 1054SOL    HW114624   4.628   3.531   0.364 -1.1181  0.9913 -1.4551
 1054SOL    HW214625   4.654   3.497   0.228 -2.6720 -0.9723  0.3583
 1055SOL     OW14626   4.591   0.070   7.429  0.3062  0.0810  0.3281
 1055SOL    HW114627   4.649   0.144   7.406  1.4129 -1.0559 -0.5740
 1055SOL    HW214628   4.585   0.092   7.522 -0.6055  0.0098  0.2832
 1056SOL     OW14629   1.250   3.127   6.017  0.0322 -0.2744  0.0585
 1056SOL    HW114630   1.343   3.140   6.033  0.1916  2.2513 -2.8867
 1056SOL    HW214631   1.250   3.104   5.924 -0.9319 -2.2063  0.5296
 1057SOL     OW14632   3.028   0.712  10.750  0.0728 -0.0456  0.5703
 1057SOL    HW114633   3.026   0.662  10.668 -0.8727  2.5253 -0.9957
 1057SOL    HW214634   3.098   0.669  10.800  0.1020  0.3883  0.9031
 1058SOL     OW14635   1.788   3.437   0.876  0.2321  0.7543 -0.2042
 1058SOL    HW114636   1.713   3.477   0.921 -1.7129 -0.3065 -2.5105
 1058SOL    HW214637   1.833   3.520   0.860 -2.3230  2.2489  0.2285
 1059SOL     OW14638   3.498   4.021  13.246  0.3683 -0.4063  0.4248
 1059SOL    HW114639   3.466   4.085  13.310  1.7859 -1.0283  1.7660
 1059SOL    HW214640   3.427   3.956  13.247 -0.4741  0.5243  0.4612
 1060SOL     OW14641   0.742   2.921   6.704  0.4457  0.0604  0.3026
 1060SOL    HW114642   0.823   2.971   6.718  1.0085 -0.7411 -0.1429
 1060SOL    HW214643   0.762   2.831   6.681  1.3770 -0.1056  1.7809
 1061SOL     OW14644   4.615   2.744   1.916 -0.2981 -0.5578  0.0222
 1061SOL    HW114645   4.670   2.799   1.971 -0.1698 -1.1685  0.5023
 1061SOL    HW214646   4.599   2.673   1.979  1.6044 -1.0365 -0.0262
 1062SOL     OW14647   1.079   2.334   7.536  0.4190  0.4845 -0.2871
 1062SOL    HW114648   1.157   2.331   7.591 -1.0063  4.2718  1.9225
 1062SOL    HW214649   1.089   2.418   7.493 -0.0677  0.4221 -0.5114
 1063SOL     OW14650   1.388   1.689   8.125 -0.5923 -0.3134  0.3188
 1063SOL    HW114651   1.424   1.775   8.147  0.4284 -1.1353  1.8694
 1063SOL    HW214652   1.457   1.647   8.075 -0.9868 -1.1123  0.4526
 1064SOL     OW14653   0.363   2.834   2.059  0.6610 -0.2723  0.0299
 1064SOL    HW114654   0.407   2.781   1.993 -0.2441 -0.0917 -0.7181
 1064SOL    HW214655   0.309   2.899   2.014  0.8115  0.6602  1.1769
 1065SOL     OW14656   1.581   3.600   5.343  0.1380  0.0951 -0.1811
 1065SOL    HW114657   1.606   3.686   5.309  0.2163  0.3979  0.6512
 1065SOL    HW214658   1.635   3.539   5.292  1.5719  0.3212  1.0827
 1066SOL     OW14659   4.397   3.070   6.558  0.0704 -0.2036 -0.3109
 1066SOL    HW114660   4.481   3.035   6.528  0.3037  1.2937 -1.4095
 1066SOL    HW214661   4.377   3.019   6.637 -1.4219 -1.1272 -1.2834
 1067SOL     OW14662   2.084   0.713   2.679 -0.3475 -0.2877 -0.5513
 1067SOL    HW114663   2.155   0.648   2.677 -0.2729 -0.1756 -1.6319
 1067SOL    HW214664   2.019   0.659   2.724  0.9953 -0.2858  1.3951
 1068SOL     OW14665   1.449   3.234   3.115  0.0255  0.3828 -0.0361
 1068SOL    HW114666   1.377   3.177   3.085 -0.2964  1.4041 -1.2034
 1068SOL    HW214667   1.397   3.295   3.167 -1.1538 -0.2815 -0.4348
 1069SOL     OW14668   1.012   2.173   7.288 -0.3402  0.5168  0.0810
 1069SOL    HW114669   1.006   2.265   7.264 -1.3639 -0.7127 -4.5270
 1069SOL    HW214670   0.990   2.202   7.376 -0.9450 -1.1768  0.4842
 1070SOL     OW14671   3.622   3.073   7.124 -0.7982  0.1830 -0.4153
 1070SOL    HW114672   3.681   3.070   7.049 -0.4803 -1.9989 -0.0615
 1070SOL    HW214673   3.659   3.139   7.183 -0.4863  0.2743 -0.7141
 1071SOL     OW14674   2.143   3.538   5.712  0.3114  0.1851 -0.4020
 1071SOL    HW114675   2.070   3.539   5.649  1.3319 -0.9247 -1.5915
 1071SOL    HW214676   2.165   3.446   5.721  2.4959  0.8573  0.9414
 1072SOL     OW14677   4.099   4.692   4.809  0.3584 -0.4655 -0.3824
 1072SOL    HW114678   4.079   4.610   4.854  0.4956  0.0312  0.5769
 1072SOL    HW214679   4.175   4.717   4.862  1.2402  0.7589 -2.2395
 1073SOL     OW14680   0.245   4.333   8.000 -0.1223  0.3101 -0.4417
 1073SOL    HW114681   0.319   4.362   8.054 -0.1473 -1.7315  0.7208
 1073SOL    HW214682   0.184   4.406   8.015  1.7108  1.3825  1.7286
 1074SOL     OW14683   0.030   4.664   5.864  0.3105  0.0018 -0.1585
 1074SOL    HW114684   0.106   4.648   5.807  2.0466  0.6364  2.0085
 1074SOL    HW214685   4.702   0.001   5.820  2.8528  1.0375 -1.8601
 1075SOL     OW14686   2.164   4.342   4.321  0.1127  0.1718  0.4621
 1075SOL    HW114687   2.202   4.261   4.288  1.7579  0.9723  0.3924
 1075SOL    HW214688   2.235   4.375   4.376  1.4836 -1.6083 -0.2628
 1076SOL     OW14689   1.152   2.842  12.847 -0.3979  0.0633 -0.0464
 1076SOL    HW114690   1.060   2.817  12.838 -0.2945 -0.1517 -0.5398
 1076SOL    HW214691   1.194   2.756  12.854 -1.6577 -0.5951 -0.4796
 1077SOL     OW14692   3.857   2.703   7.801 -0.0459  0.3469  0.1565
 1077SOL    HW114693   3.876   2.639   7.871 -3.3169 -0.9576 -0.1657
 1077SOL    HW214694   3.763   2.697   7.814 -0.1650  2.7491  0.3408
 1078SOL     OW14695   2.614   1.500   1.675 -0.3689  0.4603  0.3195
 1078SOL    HW114696   2.700   1.535   1.700 -0.7860  0.7809  1.3465
 1078SOL    HW214697   2.557   1.504   1.752  0.8864  2.5771  1.1705
 1079SOL     OW14698   3.422   1.555   9.285 -0.4364 -0.2622  0.3976
 1079SOL    HW114699   3.391   1.466   9.272 -1.1430 -0.3695  2.8075
 1079SOL    HW214700   3.491   1.561   9.219 -0.6211  2.5841  0.4660
 1080SOL     OW14701   2.682   0.215   7.185  0.9105 -0.1167 -0.3966
 1080SOL    HW114702   2.605   0.160   7.168 -0.8160  2.1658 -0.0620
 1080SOL    HW214703   2.680   0.276   7.112  0.4514 -0.6299 -0.8157
 1081SOL     OW14704   1.436   2.009   6.203  0.2896  0.6352 -0.2884
 1081SOL    HW114705   1.471   2.034   6.118 -1.8616  2.5296 -0.6295
 1081SOL    HW214706   1.351   1.969   6.180 -0.4491  2.0781 -0.0295
 1082SOL     OW14707   3.617   1.412   0.780 -0.0419 -0.7681 -0.4523
 1082SOL    HW114708   3.676   1.377   0.847  0.3753  0.0045 -0.4196
 1082SOL    HW214709   3.563   1.334   0.770 -1.5227 -0.0271  1.5990
 1083SOL     OW14710   3.223   0.377   4.881  0.5599 -0.3639  0.8910
 1083SOL    HW114711   3.253   0.304   4.827  1.8110  1.5977 -1.0544
 1083SOL    HW214712   3.205   0.448   4.820  0.8175 -0.5134  0.6382
 1084SOL     OW14713   4.230   2.445   1.372 -0.5707  0.5268  0.5606
 1084SOL    HW114714   4.255   2.520   1.318  1.7574  0.1601  1.1130
 1084SOL    HW214715   4.295   2.380   1.342 -0.0026  1.0080  0.7571
 1085SOL     OW14716   4.100   0.386   2.153  0.1713  0.8691  0.8132
 1085SOL    HW114717   4.170   0.406   2.215  1.1783  0.0686 -0.0645
 1085SOL    HW214718   4.122   0.293   2.151 -0.8868  0.6415 -0.3911
 1086SOL     OW14719   1.143   1.393   6.676 -0.0279 -1.0441  0.0351
 1086SOL    HW114720   1.078   1.379   6.746 -1.6506 -3.0391 -1.8661
 1086SOL    HW214721   1.159   1.486   6.690  0.4779 -1.2431  0.8141
 1087SOL     OW14722   4.169   3.804  15.495 -0.1888  0.5614 -0.5055
 1087SOL    HW114723   4.139   3.855  15.571  1.2449 -0.0481  0.4676
 1087SOL    HW214724   4.089   3.790  15.444 -0.0569  1.7751 -1.0411
 1088SOL     OW14725   1.956   1.362   7.511  0.0504  0.3787 -0.4324
 1088SOL    HW114726   1.982   1.326   7.595 -1.1476 -0.7701 -0.5615
 1088SOL    HW214727   1.931   1.291   7.453 -2.6531  1.6633 -0.8536
 1089SOL     OW14728   3.791   3.467  10.273 -0.2892 -0.2015 -0.0305
 1089SOL    HW114729   3.716   3.444  10.328 -0.4662 -1.5126 -0.8243
 1089SOL    HW214730   3.869   3.419  10.300  0.8060  1.2538 -0.6110
 1090SOL     OW14731   2.871   0.839   8.331 -0.4521 -0.0383 -0.0965
 1090SOL    HW114732   2.850   0.854   8.239 -1.4879  2.6991  0.5824
 1090SOL    HW214733   2.898   0.747   8.330  1.8919  0.6752 -0.4875
 1091SOL     OW14734   3.655   3.636   6.270 -0.4638 -0.3314 -0.2823
 1091SOL    HW114735   3.654   3.598   6.358 -0.7481 -1.0120 -0.5746
 1091SOL    HW214736   3.565   3.669   6.273 -0.7141 -1.0117 -0.2144
 1092SOL     OW14737   0.949   4.218  10.842  0.7052  0.2368  0.2253
 1092SOL    HW114738   0.967   4.301  10.798  1.7234  0.7602  1.6351
 1092SOL    HW214739   0.909   4.253  10.922  0.3704  0.3682  0.0024
 1093SOL     OW14740   3.853   1.394   6.699  0.3918 -0.1082  0.3609
 1093SOL    HW114741   3.772   1.442   6.684  0.4208  0.3066  1.5209
 1093SOL    HW214742   3.877   1.374   6.608  0.9205  0.4811  0.3697
 1094SOL     OW14743   4.610   2.186   4.957 -0.5043 -0.0876 -0.6773
 1094SOL    HW114744   4.591   2.166   4.865 -2.0267  0.5955 -0.5021
 1094SOL    HW214745   4.704   2.169   4.959 -0.7526 -1.4963 -0.4317
 1095SOL     OW14746   2.677   4.575   5.166  0.0325 -0.1066 -0.8644
 1095SOL    HW114747   2.687   4.480   5.162  0.5278 -0.1701  1.5508
 1095SOL    HW214748   2.608   4.597   5.104 -1.3209  1.2683  1.1414
 1096SOL     OW14749   4.696   3.382   2.334  0.6404  0.6091 -0.5080
 1096SOL    HW114750   0.063   3.391   2.339  0.7203 -0.0809 -0.8011
 1096SOL    HW214751   4.680   3.449   2.401 -1.0433  0.4343 -0.7224
 1097SOL     OW14752   4.121   1.468   7.747 -0.0723 -0.7432  0.0689
 1097SOL    HW114753   4.042   1.432   7.787  0.3359 -0.4754  1.1078
 1097SOL    HW214754   4.167   1.511   7.819 -0.5815  1.2451 -0.7860
 1098SOL     OW14755   2.800   0.907   4.485 -0.3842 -0.9476 -0.0784
 1098SOL    HW114756   2.826   0.826   4.529 -2.8095 -1.2937  0.7606
 1098SOL    HW214757   2.796   0.882   4.393  0.5266 -0.8279 -0.1477
 1099SOL     OW14758   4.070   1.782   1.806  0.2732  0.1946  0.5399
 1099SOL    HW114759   3.983   1.754   1.776  1.1057 -0.9882 -0.7669
 1099SOL    HW214760   4.083   1.712   1.869  1.5581 -0.4358 -0.4318
 1100SOL     OW14761   2.980   3.380   7.041  0.1225  0.3072 -0.6336
 1100SOL    HW114762   3.042   3.314   7.011  1.8546  1.5346  0.2297
 1100SOL    HW214763   2.957   3.420   6.957 -0.1337 -2.0040 -1.6488
 1101SOL     OW14764   2.210   2.929   1.569  0.5596  0.5329  0.5163
 1101SOL    HW114765   2.153   2.991   1.523  1.9457  0.0824 -1.8076
 1101SOL    HW214766   2.228   2.863   1.502 -1.3883 -0.0014  0.5181
 1102SOL     OW14767   3.039   3.877  16.368 -0.2532 -0.1691  0.4043
 1102SOL    HW114768   3.060   3.967  16.391  1.1367 -0.5460  0.6243
 1102SOL    HW214769   2.977   3.880  16.295 -0.2217  1.9083  0.4725
 1103SOL     OW14770   0.885   0.949   7.064  0.0629  0.4087  0.2159
 1103SOL    HW114771   0.936   1.030   7.062  1.7343 -0.6191  0.5857
 1103SOL    HW214772   0.954   0.897   7.105  0.1272  0.6819  0.4546
 1104SOL     OW14773   4.469   1.209   3.063  0.4997 -0.0921 -0.2610
 1104SOL    HW114774   4.502   1.168   3.143 -1.9676 -0.3633  0.6081
 1104SOL    HW214775   4.487   1.303   3.063  0.8475 -0.1529 -0.9460
 1105SOL     OW14776   3.648   2.835   4.243 -0.4787  0.4652 -0.3532
 1105SOL    HW114777   3.573   2.791   4.283 -0.2328  1.0116  0.7122
 1105SOL    HW214778   3.675   2.875   4.326 -1.3181 -0.4833  0.3824
 1106SOL     OW14779   0.918   1.337   9.178 -0.3602 -0.1620  0.1235
 1106SOL    HW114780   1.014   1.336   9.178 -0.3761 -1.5373  0.0136
 1106SOL    HW214781   0.899   1.243   9.170 -2.6247  0.3169  0.0591
 1107SOL     OW14782   1.342   1.844  11.270 -0.4178 -0.0727  0.3908
 1107SOL    HW114783   1.399   1.849  11.193  1.8075  0.7612  2.1376
 1107SOL    HW214784   1.289   1.924  11.266  2.5644  1.9079  0.7433
 1108SOL     OW14785   2.521   0.270  10.874  0.8930 -0.1715 -0.1047
 1108SOL    HW114786   2.479   0.221  10.803 -1.7629 -0.3951  1.6231
 1108SOL    HW214787   2.448   0.296  10.930  0.1128 -0.4443 -1.0061
 1109SOL     OW14788   3.308   1.595   0.186 -0.2153  0.1813 -0.4887
 1109SOL    HW114789   3.237   1.561   0.131 -2.4664  3.1385  0.6126
 1109SOL    HW214790   3.344   1.667   0.134 -1.8058  1.8808  0.7455
 1110SOL     OW14791   1.983   1.251   4.426 -0.7552  1.0389  0.2204
 1110SOL    HW114792   1.991   1.161   4.456 -0.2782  0.8632 -0.4333
 1110SOL    HW214793   2.036   1.289   4.496  1.0255 -0.0056 -0.5710
 1111SOL     OW14794   2.413   1.024  15.807 -0.0036 -0.0384  0.3706
 1111SOL    HW114795   2.357   1.067  15.872 -0.4660 -0.3980  0.2089
 1111SOL    HW214796   2.470   1.099  15.792 -0.5317  0.4417  0.7144
 1112SOL     OW14797   2.002   2.040   4.643  1.1700  0.4385 -0.2095
 1112SOL    HW114798   1.991   2.090   4.724 -0.8560 -2.1478  1.1554
 1112SOL    HW214799   2.088   2.001   4.657  0.3485 -1.3365 -0.0555
 1113SOL     OW14800   3.290   1.361  12.342 -0.3642 -0.0098  0.5014
 1113SOL    HW114801   3.262   1.307  12.416 -4.8716  1.4865 -0.1061
 1113SOL    HW214802   3.317   1.286  12.289  0.8405  0.1410  0.9038
 1114SOL     OW14803   2.890   2.565   1.597  0.0342  0.0788 -0.5195
 1114SOL    HW114804   2.913   2.483   1.642  0.2625 -0.1450 -1.0464
 1114SOL    HW214805   2.845   2.525   1.522  1.3502  1.5053 -2.0588
 1115SOL     OW14806   1.456   2.916   2.237  0.6619 -0.0091 -0.4107
 1115SOL    HW114807   1.363   2.926   2.219  0.2768 -0.1825  1.4425
 1115SOL    HW214808   1.478   3.009   2.244 -1.2200  0.3516  0.7943
 1116SOL     OW14809   3.789   3.973  12.884 -0.1065  0.7218 -0.0770
 1116SOL    HW114810   3.784   3.905  12.952  0.8207  0.6281 -0.0957
 1116SOL    HW214811   3.714   4.025  12.912  0.3540  1.9206 -1.0665
 1117SOL     OW14812   1.991   1.400   9.096  0.4870  0.7209  0.4392
 1117SOL    HW114813   2.056   1.330   9.086 -0.9174 -0.7712  1.8859
 1117SOL    HW214814   1.936   1.359   9.162  2.0009 -1.4179  0.3808
 1118SOL     OW14815   0.435   2.991   4.471  0.1371 -0.2620  0.6526
 1118SOL    HW114816   0.422   2.900   4.495  0.3614  0.0496  1.9687
 1118SOL    HW214817   0.380   3.005   4.394 -2.0686 -0.2094  2.2439
 1119SOL     OW14818   3.011   3.072   5.404  0.6774  0.1454 -0.1392
 1119SOL    HW114819   3.061   3.082   5.485 -1.1134 -2.1353  1.2531
 1119SOL    HW214820   3.078   3.041   5.343 -0.0455  0.0036 -0.8598
 1120SOL     OW14821   2.642   0.330   1.171 -0.4915  0.4201  0.0175
 1120SOL    HW114822   2.709   0.265   1.194 -0.5611  0.5868  0.6887
 1120SOL    HW214823   2.566   0.316   1.228 -2.3664 -0.2251 -2.6059
 1121SOL     OW14824   0.977   0.142   7.579  0.7913  0.2251  0.2712
 1121SOL    HW114825   0.890   0.115   7.609  1.4019 -1.0678  0.8503
 1121SOL    HW214826   1.030   0.075   7.622 -0.5540  0.2598  1.9988
 1122SOL     OW14827   1.430   2.078  16.495 -0.4427 -0.0386 -0.4750
 1122SOL    HW114828   1.385   2.160  16.472 -1.0067  0.2628  1.7185
 1122SOL    HW214829   1.463   2.119  16.575  1.4389 -4.0734  0.8417
 1123SOL     OW14830   4.202   0.271   4.793 -0.0150 -0.3385 -0.0076
 1123SOL    HW114831   4.297   0.284   4.792  0.0697 -0.9713 -0.0718
 1123SOL    HW214832   4.195   0.176   4.791 -0.4327 -0.3033 -0.2582
 1124SOL     OW14833   3.035   3.016   5.115  0.2483 -0.5760 -0.0449
 1124SOL    HW114834   3.087   3.019   5.035  0.7366 -2.0242  0.2122
 1124SOL    HW214835   3.010   3.107   5.129  0.8027 -0.3931 -0.2336
 1125SOL     OW14836   2.401   1.833  10.390  0.2502  0.1045 -0.3686
 1125SOL    HW114837   2.376   1.922  10.364 -2.0374 -0.6718 -0.8855
 1125SOL    HW214838   2.483   1.823  10.343  0.7330 -0.5757  0.6218
 1126SOL     OW14839   3.435   3.344   2.292  0.0805  0.2253 -0.0239
 1126SOL    HW114840   3.394   3.417   2.245  0.8701  0.5945 -0.1510
 1126SOL    HW214841   3.465   3.390   2.371 -3.1484  0.3293  1.1462
 1127SOL     OW14842   2.239   0.740   5.230 -0.0092  0.1289  0.3619
 1127SOL    HW114843   2.175   0.716   5.163 -1.4121 -0.1410  1.7878
 1127SOL    HW214844   2.238   0.835   5.231  1.2074  0.1437 -0.4302
 1128SOL     OW14845   2.006   0.258   6.185  0.0260 -0.2066 -0.5783
 1128SOL    HW114846   2.057   0.304   6.119 -0.5198  2.0052  0.5500
 1128SOL    HW214847   2.080   0.214   6.228 -1.2258 -0.2734  1.5283
 1129SOL     OW14848   4.719   3.777  15.465 -0.1492 -0.4827  0.5011
 1129SOL    HW114849   0.075   3.773  15.511 -0.2730  0.0695  0.7724
 1129SOL    HW214850   4.685   3.864  15.485  1.2537  0.0182  0.6758
 1130SOL     OW14851   1.045   3.367  14.798  0.8770  0.0921 -0.0970
 1130SOL    HW114852   1.013   3.444  14.752  1.3074 -1.0232 -2.2736
 1130SOL    HW214853   1.080   3.314  14.726  1.3907  1.6772 -1.0100
 1131SOL     OW14854   1.427   4.684   9.100 -0.7655 -0.3402 -0.3746
 1131SOL    HW114855   1.511   4.721   9.073  0.4773 -3.0192 -0.1446
 1131SOL    HW214856   1.406   4.727   9.183  2.1442  0.2923  0.0136
 1132SOL     OW14857   3.696   2.495   2.963  0.1090 -0.3711 -0.4855
 1132SOL    HW114858   3.761   2.452   2.907 -1.9649 -2.6231 -1.1410
 1132SOL    HW214859   3.693   2.584   2.927 -1.5921  0.6709  2.2303
 1133SOL     OW14860   0.098   0.107  10.597  0.2564  0.6104 -0.2939
 1133SOL    HW114861   0.157   0.032  10.596 -0.4405  0.0687 -0.9514
 1133SOL    HW214862   0.161   0.178  10.614  0.0847  0.6283  0.2426
 1134SOL     OW14863   1.685   1.919   0.873 -0.4631  0.6726  0.3121
 1134SOL    HW114864   1.739   1.988   0.911  0.1005  0.2772  0.2335
 1134SOL    HW214865   1.673   1.856   0.945 -0.3955  1.6528  1.1862
 1135SOL     OW14866   4.119   1.478   4.312 -0.1390 -0.2948 -0.1193
 1135SOL    HW114867   4.150   1.492   4.401 -1.4705  0.5889  0.2056
 1135SOL    HW214868   4.203   1.486   4.268  0.4434 -1.5925  0.7928
 1136SOL     OW14869   2.062   0.409   0.369 -0.4662  0.1260 -0.0285
 1136SOL    HW114870   2.018   0.480   0.323 -2.7467 -0.4626  1.3072
 1136SOL    HW214871   2.121   0.379   0.299 -0.9691  0.4038 -0.5664
 1137SOL     OW14872   4.155   2.875   8.487 -0.0899 -0.0685 -0.4295
 1137SOL    HW114873   4.167   2.873   8.392 -1.3993 -1.8016 -0.5450
 1137SOL    HW214874   4.173   2.785   8.512  0.6067 -0.0688 -0.9404
 1138SOL     OW14875   3.358   2.818  12.413  0.2399 -0.2862  0.1740
 1138SOL    HW114876   3.353   2.757  12.487 -1.2207  0.1606  0.4536
 1138SOL    HW214877   3.443   2.859  12.428 -0.0665 -0.3179  2.0149
 1139SOL     OW14878   4.447   2.294  12.042 -0.1857 -0.6208  0.2495
 1139SOL    HW114879   4.523   2.245  12.011  0.7340 -0.1440  1.7626
 1139SOL    HW214880   4.462   2.386  12.021 -1.4958 -0.6028 -0.6316
 1140SOL     OW14881   3.018   0.408   7.266  0.0715  0.2980  0.2470
 1140SOL    HW114882   3.028   0.496   7.229  0.5487 -0.4214 -1.3407
 1140SOL    HW214883   2.978   0.365   7.190 -0.1902 -2.2163  1.7954
 1141SOL     OW14884   2.569   1.651   3.533 -0.3433 -0.1822 -0.1677
 1141SOL    HW114885   2.501   1.626   3.597  0.8458 -0.1218  1.1279
 1141SOL    HW214886   2.547   1.587   3.465  0.3834 -0.8993  0.2666
 1142SOL     OW14887   2.582   3.920   5.745 -0.3774  0.1630 -0.5514
 1142SOL    HW114888   2.587   3.908   5.651 -1.7570  0.3815 -0.6449
 1142SOL    HW214889   2.639   3.997   5.749 -0.6324  0.3464 -0.4365
 1143SOL     OW14890   0.214   1.282   4.595  0.5273  0.7475  0.1137
 1143SOL    HW114891   0.307   1.302   4.602  0.2764  1.4974  1.5214
 1143SOL    HW214892   0.200   1.289   4.501  0.4468  0.3197  0.0983
 1144SOL     OW14893   3.284   0.973   6.284 -0.1586 -0.1853 -0.1576
 1144SOL    HW114894   3.318   1.039   6.344  1.7887 -0.5998 -0.7981
 1144SOL    HW214895   3.245   1.030   6.217 -0.0585  1.2766  1.0242
 1145SOL     OW14896   1.257   2.294  12.667  0.0879  0.4361 -0.1671
 1145SOL    HW114897   1.314   2.218  12.653  0.8395  0.8821  0.4494
 1145SOL    HW214898   1.290   2.360  12.605  0.4802  0.0410 -0.3788
 1146SOL     OW14899   2.246   0.214   7.922  0.8289 -0.1346  0.0906
 1146SOL    HW114900   2.294   0.150   7.869  3.5996  1.1184  1.0597
 1146SOL    HW214901   2.295   0.293   7.900 -0.2032  0.7230  0.8776
 1147SOL     OW14902   4.271   4.491   8.307  0.4596 -0.1543 -0.2593
 1147SOL    HW114903   4.257   4.467   8.398 -1.7071  0.2006 -0.4997
 1147SOL    HW214904   4.304   4.408   8.273  1.3368  0.0766  0.0248
 1148SOL     OW14905   2.121   0.414  15.387  0.2146  1.0323 -0.2243
 1148SOL    HW114906   2.173   0.445  15.461  1.4220 -1.8807  0.1381
 1148SOL    HW214907   2.187   0.408  15.319 -0.4630  2.6431 -1.0431
 1149SOL     OW14908   1.904   0.280   0.041  0.0696  0.0281 -0.4716
 1149SOL    HW114909   1.823   0.328   0.020 -0.4777 -0.0785  1.3668
 1149SOL    HW214910   1.961   0.355   0.028  0.1422 -0.3914 -2.6459
 1150SOL     OW14911   2.304   0.449   7.582 -0.5037  0.2403 -0.4869
 1150SOL    HW114912   2.333   0.361   7.561  0.4443  0.7134 -1.1366
 1150SOL    HW214913   2.278   0.485   7.497  4.2035  1.8399 -1.2272
 1151SOL     OW14914   4.292   1.229   2.665 -0.1133  0.3584  0.5455
 1151SOL    HW114915   4.268   1.158   2.725 -0.1727 -0.8066 -0.8741
 1151SOL    HW214916   4.304   1.301   2.727  0.5969  1.2862 -0.6885
 1152SOL     OW14917   3.447   4.096   0.044 -0.1345  0.3287 -0.3023
 1152SOL    HW114918   3.423   4.005   0.026  2.1434  0.6355 -4.9484
 1152SOL    HW214919   3.531   4.079   0.086 -0.2604 -2.0069 -0.9848
 1153SOL     OW14920   2.176   3.302   2.760 -0.0873  0.5375  0.1389
 1153SOL    HW114921   2.212   3.214   2.750  0.8123  1.0841 -1.4157
 1153SOL    HW214922   2.118   3.280   2.833 -2.1533  1.3766 -1.2556
 1154SOL     OW14923   3.057   4.296   3.315 -0.3877 -0.2173 -0.7188
 1154SOL    HW114924   3.038   4.321   3.406 -1.6501 -0.5053 -0.9173
 1154SOL    HW214925   3.152   4.292   3.328 -0.5745 -0.7996  0.5034
 1155SOL     OW14926   2.328   4.679   1.991  0.0734 -0.4657 -0.4764
 1155SOL    HW114927   2.322   4.590   2.026 -1.1342  0.8874  2.8054
 1155SOL    HW214928   2.242   4.710   2.021 -0.7512 -1.3330 -1.9577
 1156SOL     OW14929   0.112   0.525   5.073  0.0944  0.9362  0.2640
 1156SOL    HW114930   0.201   0.501   5.098  0.4092  0.5218 -1.2712
 1156SOL    HW214931   0.137   0.591   5.009 -0.4237  1.0464  0.1763
 1157SOL     OW14932   0.529   2.337   6.664 -0.1409  0.7154 -0.0940
 1157SOL    HW114933   0.620   2.318   6.687 -0.7305 -1.2502  0.6728
 1157SOL    HW214934   0.484   2.270   6.716  3.7040 -0.2728  1.9474
 1158SOL     OW14935   3.355   2.145   2.162  0.3677 -0.1972  0.2369
 1158SOL    HW114936   3.365   2.204   2.088  2.7598 -0.3210  0.4405
 1158SOL    HW214937   3.260   2.145   2.163  0.3725 -1.3909  0.8839
 1159SOL     OW14938   4.353   0.766   4.054 -0.3183 -0.2007 -0.8376
 1159SOL    HW114939   4.341   0.861   4.056 -1.6440 -0.3540 -1.5057
 1159SOL    HW214940   4.287   0.741   4.119  0.4502  1.8647  0.7223
 1160SOL     OW14941   2.312   3.136  11.743  0.6680 -0.1856 -0.0984
 1160SOL    HW114942   2.373   3.200  11.778 -0.9566  2.1494 -1.5523
 1160SOL    HW214943   2.230   3.184  11.758  0.8430 -0.1380  0.7505
 1161SOL     OW14944   1.681   1.539   4.626 -0.2937 -0.2262  0.2495
 1161SOL    HW114945   1.745   1.515   4.693 -0.8976  2.2840  1.7446
 1161SOL    HW214946   1.607   1.545   4.686 -0.3805 -2.2781  0.3570
 1162SOL     OW14947   1.928   3.341  16.894 -0.4149  0.4270 -0.1331
 1162SOL    HW114948   1.951   3.258  16.851  0.4973  0.8854 -0.5130
 1162SOL    HW214949   1.844   3.320  16.936 -0.5626 -1.1432 -1.2134
 1163SOL     OW14950   2.241   2.034   2.964  0.7563  0.1161  0.2786
 1163SOL    HW114951   2.229   1.940   2.953 -0.1268  0.2841 -0.1871
 1163SOL    HW214952   2.220   2.047   3.056  2.2471  1.6457  0.4108
 1164SOL     OW14953   0.268   0.311  10.549 -0.2396 -1.0257 -0.3370
 1164SOL    HW114954   0.249   0.404  10.558 -1.8251 -1.4478  0.7006
 1164SOL    HW214955   0.336   0.300  10.615  1.5037  2.4043 -1.5884
 1165SOL     OW14956   4.309   1.752   5.254  0.3573 -0.0866  0.5947
 1165SOL    HW114957   4.379   1.719   5.311 -0.5504 -1.0820  1.1384
 1165SOL    HW214958   4.264   1.669   5.241  1.9478 -0.8845  0.1724
 1166SOL     OW14959   3.947   3.653   2.472  0.1353 -0.3371 -0.7367
 1166SOL    HW114960   3.952   3.594   2.397 -1.1868 -1.5038  0.0899
 1166SOL    HW214961   3.954   3.736   2.424 -1.0359  0.3101  0.2264
 1167SOL     OW14962   0.367   2.643  10.564 -0.8390  0.2751  0.1194
 1167SOL    HW114963   0.283   2.609  10.534 -1.1069  1.7748 -0.8284
 1167SOL    HW214964   0.400   2.559  10.597  2.0961  1.0964 -0.7148
 1168SOL     OW14965   0.280   4.046   1.495  0.3624 -0.4403 -0.2801
 1168SOL    HW114966   0.223   3.971   1.477  2.7109 -2.4451  0.5541
 1168SOL    HW214967   0.290   4.082   1.407 -2.5505 -0.9595 -0.8220
 1169SOL     OW14968   3.771   0.061   9.510  0.2850  0.3666 -0.1970
 1169SOL    HW114969   3.795   0.142   9.554 -1.2313  1.4853 -1.4330
 1169SOL    HW214970   3.827   0.066   9.433 -1.8173 -0.0865 -1.7600
 1170SOL     OW14971   3.632   0.656  16.914  0.0966  0.2133 -0.3661
 1170SOL    HW114972   3.633   0.616  16.827 -0.8173 -1.4811  0.3921
 1170SOL    HW214973   3.539   0.676  16.918  0.3939  1.6245 -0.7027
 1171SOL     OW14974   4.706   2.193   7.782 -0.0420 -0.5284  0.1392
 1171SOL    HW114975   4.715   2.262   7.848 -1.1807  0.3698 -0.6443
 1171SOL    HW214976   4.619   2.158   7.805 -0.8868 -0.2416 -2.5555
 1172SOL     OW14977   1.265   3.809   8.094  0.4486 -0.1198 -0.1050
 1172SOL    HW114978   1.213   3.728   8.092 -0.8063  0.6435  1.5600
 1172SOL    HW214979   1.247   3.844   8.007  1.3565 -1.7663 -0.9455
 1173SOL     OW14980   2.697   1.599   6.049 -0.7642 -0.3163  0.0497
 1173SOL    HW114981   2.627   1.535   6.057 -0.4139 -0.5577  1.2041
 1173SOL    HW214982   2.774   1.552   6.016 -0.4298  1.2412 -1.3682
 1174SOL     OW14983   0.439   3.975   7.629 -0.1997 -0.4258 -0.1409
 1174SOL    HW114984   0.453   4.008   7.540 -0.9009  0.4821  0.0815
 1174SOL    HW214985   0.356   3.928   7.626  0.5227 -1.8975  2.4568
 1175SOL     OW14986   3.539   2.083  16.134  0.1461  0.0547  0.2226
 1175SOL    HW114987   3.524   2.064  16.041  1.4808  0.7345 -0.1281
 1175SOL    HW214988   3.614   2.142  16.125  0.3825 -0.5632 -1.8402
 1176SOL     OW14989   4.268   0.616   8.878  0.4395  0.0070  0.0803
 1176SOL    HW114990   4.292   0.638   8.968 -1.3867  1.8190  0.1109
 1176SOL    HW214991   4.322   0.538   8.863 -0.6500 -0.9374  1.0760
 1177SOL     OW14992   3.730   3.936   6.628  0.1493  0.0974 -0.2151
 1177SOL    HW114993   3.822   3.911   6.626  0.8125  2.4144  1.4855
 1177SOL    HW214994   3.697   3.926   6.539 -1.2927  1.4665  0.1682
 1178SOL     OW14995   1.790   1.916   8.902 -0.1530 -0.0402 -0.1216
 1178SOL    HW114996   1.823   1.872   8.980 -0.6098 -1.9912 -1.0379
 1178SOL    HW214997   1.805   2.007   8.927 -2.1583  0.5494 -1.0198
 1179SOL     OW14998   0.223   1.881   3.255  0.9519  0.7165  0.7173
 1179SOL    HW114999   0.193   1.890   3.164  2.1041  4.5765  0.7184
 1179SOL    HW215000   0.317   1.890   3.239  0.8260  0.8758  0.0538
 1180SOL     OW15001   1.929   3.698  15.876 -0.1124  0.0813 -0.3723
 1180SOL    HW115002   1.974   3.772  15.835 -2.5583  2.0348  0.4785
 1180SOL    HW215003   2.005   3.641  15.886 -0.1459  0.1184  0.0782
 1181SOL     OW15004   0.265   1.761   5.541  0.2791  0.3247 -0.0961
 1181SOL    HW115005   0.341   1.816   5.556  0.5366 -0.0735  0.0600
 1181SOL    HW215006   0.292   1.693   5.479  0.2378 -1.1447  1.4965
 1182SOL     OW15007   4.523   2.000   7.386 -0.4522 -0.2437  0.0039
 1182SOL    HW115008   4.576   1.953   7.450 -0.9824 -0.1350  0.5261
 1182SOL    HW215009   4.503   1.939   7.315 -0.9655  0.7697 -0.7361
 1183SOL     OW15010   3.265   3.908   8.157 -0.2242 -0.1503 -0.0778
 1183SOL    HW115011   3.356   3.897   8.130 -0.7996  0.3899 -2.1781
 1183SOL    HW215012   3.224   3.825   8.134  1.3629 -1.1224  0.5990
 1184SOL     OW15013   1.619   2.520  14.460  0.1074 -0.4973 -0.8609
 1184SOL    HW115014   1.557   2.591  14.440 -0.5205 -1.4841 -2.4829
 1184SOL    HW215015   1.681   2.569  14.514 -0.9026 -0.0189 -0.1313
 1185SOL     OW15016   1.820   4.383   4.987  0.2847  0.6007  0.1769
 1185SOL    HW115017   1.849   4.332   5.063 -0.5284  0.3342  0.3098
 1185SOL    HW215018   1.725   4.375   4.988  0.3827 -0.4402  0.8297
 1186SOL     OW15019   3.292   4.682   4.398  0.6564  0.0590 -0.1946
 1186SOL    HW115020   3.245   4.642   4.325  0.3585 -0.4437  0.2669
 1186SOL    HW215021   3.214   4.694   4.451  0.1236 -1.3722 -0.6307
 1187SOL     OW15022   3.595   0.941   8.495  0.8341 -0.4513  0.4749
 1187SOL    HW115023   3.624   0.971   8.408 -0.4976 -1.6944 -0.3900
 1187SOL    HW215024   3.526   1.003   8.519 -0.1307 -0.8915 -1.1477
 1188SOL     OW15025   4.633   3.656   1.040 -0.2556 -0.8316 -0.1166
 1188SOL    HW115026   4.622   3.717   0.968  0.0207  0.1383  0.6681
 1188SOL    HW215027   4.554   3.602   1.042  0.3145 -1.6060  2.0412
 1189SOL     OW15028   1.410   2.718   1.966 -0.2027 -0.2753 -0.9991
 1189SOL    HW115029   1.398   2.721   2.061 -0.0765 -2.0231 -0.9203
 1189SOL    HW215030   1.326   2.761   1.952 -0.8779 -2.3368 -3.4168
 1190SOL     OW15031   3.747   0.062   3.954  0.3850 -0.2013  0.5782
 1190SOL    HW115032   3.771   0.133   4.014  1.8173 -0.5441  0.4118
 1190SOL    HW215033   3.814   0.055   3.887  0.7953 -1.0582  1.0752
 1191SOL     OW15034   3.133   1.560   1.709  0.0261  0.0866  0.0388
 1191SOL    HW115035   3.148   1.474   1.669  1.1135  0.2333  0.1304
 1191SOL    HW215036   3.162   1.625   1.644  0.2812  1.6568  1.7314
 1192SOL     OW15037   0.430   2.594   4.705  0.3955  0.1086  0.3874
 1192SOL    HW115038   0.523   2.615   4.717  0.3282 -1.7797  4.3554
 1192SOL    HW215039   0.393   2.611   4.792 -0.2395  1.3728 -0.1269
 1193SOL     OW15040   3.314   0.412  15.493 -0.4262  0.5027  0.2955
 1193SOL    HW115041   3.306   0.370  15.407  0.7199 -1.2297  1.0371
 1193SOL    HW215042   3.330   0.338  15.551 -2.2502  0.1328  0.3098
 1194SOL     OW15043   1.255   0.671   0.540  0.9034 -0.1634 -0.0598
 1194SOL    HW115044   1.165   0.641   0.527  0.4445  1.5740 -0.8821
 1194SOL    HW215045   1.261   0.654   0.634  2.8255  0.2871 -0.0974
 1195SOL     OW15046   3.789   0.257   6.885  0.3429 -0.4273  0.0758
 1195SOL    HW115047   3.733   0.300   6.821 -0.8133 -1.0330  0.6769
 1195SOL    HW215048   3.878   0.266   6.850 -0.8341  0.8560 -2.6082
 1196SOL     OW15049   4.416   2.827   6.195  0.6219  0.2622  0.1922
 1196SOL    HW115050   4.380   2.849   6.281  0.0047 -0.8078  0.2003
 1196SOL    HW215051   4.403   2.909   6.147  0.5372  1.1648  1.7539
 1197SOL     OW15052   3.746   1.689   5.593  0.2667  0.1738  0.0721
 1197SOL    HW115053   3.657   1.717   5.568  0.3383  0.9515  0.7272
 1197SOL    HW215054   3.785   1.770   5.623 -0.3761  1.3813 -2.3076
 1198SOL     OW15055   2.423   4.562   7.987  0.2163  0.2050 -0.0704
 1198SOL    HW115056   2.361   4.583   7.916 -0.5290 -0.4789  0.3809
 1198SOL    HW215057   2.468   4.482   7.959  0.4257  0.3436 -0.1291
 1199SOL     OW15058   2.824   3.926   2.633  0.2582  0.0646 -0.3122
 1199SOL    HW115059   2.863   4.007   2.666  4.3503 -1.9821 -0.1607
 1199SOL    HW215060   2.839   3.940   2.539  0.6791 -1.1336 -0.4297
 1200SOL     OW15061   0.296   2.231   2.561  0.0598 -0.5740 -0.0824
 1200SOL    HW115062   0.243   2.284   2.621 -0.7622 -0.9648 -0.4760
 1200SOL    HW215063   0.373   2.224   2.618  0.0893 -2.8387 -0.4155
 1201SOL     OW15064   3.535   2.038  15.865  0.0816  0.3601  0.3297
 1201SOL    HW115065   3.544   1.973  15.796  0.6120 -0.3810  1.1142
 1201SOL    HW215066   3.503   2.104  15.803 -0.1356  0.3935  0.4749
 1202SOL     OW15067   4.431   0.913   8.760 -0.2249  0.2553 -0.4842
 1202SOL    HW115068   4.439   0.907   8.664  0.6277  0.4952 -0.4236
 1202SOL    HW215069   4.511   0.869   8.787  1.1036  1.6825 -2.0446
 1203SOL     OW15070   0.640   4.413   7.800  0.0984 -0.5124  0.7593
 1203SOL    HW115071   0.588   4.358   7.859  0.8026  0.4118  2.2333
 1203SOL    HW215072   0.618   4.501   7.828  3.0021  0.1397  1.0158
 1204SOL     OW15073   2.647   2.170   1.637  0.4531 -0.6368 -0.6381
 1204SOL    HW115074   2.669   2.084   1.671  2.4502  0.2829  0.3964
 1204SOL    HW215075   2.575   2.191   1.695  0.7877  0.6733 -0.6954
 1205SOL     OW15076   2.553   0.727  11.811 -0.4629  0.5575  0.1524
 1205SOL    HW115077   2.542   0.661  11.879  2.1858  1.3149  1.3059
 1205SOL    HW215078   2.490   0.788  11.848 -5.0213 -3.4999 -0.8545
 1206SOL     OW15079   0.380   0.137   2.098 -0.2151  1.0312  0.2518
 1206SOL    HW115080   0.448   0.146   2.031 -0.1977 -0.5369  0.0551
 1206SOL    HW215081   0.427   0.113   2.178 -0.5004 -1.4188 -0.3046
 1207SOL     OW15082   2.647   4.014   4.876 -0.5241 -0.5260 -0.6375
 1207SOL    HW115083   2.688   4.097   4.850 -0.8564  0.0078  0.5715
 1207SOL    HW215084   2.555   4.038   4.887  0.0211  1.3544 -0.2719
 1208SOL     OW15085   3.238   2.817   5.566  0.5599 -0.1770 -0.2065
 1208SOL    HW115086   3.218   2.905   5.598 -1.4838  0.2837 -2.6700
 1208SOL    HW215087   3.226   2.757   5.640  2.1148  1.8983  1.7152
 1209SOL     OW15088   2.034   0.233   3.931  0.4464  0.1662 -0.0782
 1209SOL    HW115089   2.007   0.195   3.848 -0.6317 -1.5643  1.0558
 1209SOL    HW215090   2.024   0.327   3.914  0.8702  0.2541  0.1503
 1210SOL     OW15091   3.367   4.579  13.891 -0.0121 -0.0788  0.5091
 1210SOL    HW115092   3.307   4.653  13.880 -1.8436 -1.4094  1.5411
 1210SOL    HW215093   3.315   4.499  13.881 -0.1653  0.0800  0.0345
 1211SOL     OW15094   2.616   4.215   8.983  0.6514  0.4166 -0.2264
 1211SOL    HW115095   2.532   4.193   9.024  0.7684 -0.0321 -0.2280
 1211SOL    HW215096   2.634   4.306   9.004 -1.3268  0.4822  1.2180
 1212SOL     OW15097   4.276   0.755   6.182  0.6633  0.0193  0.5323
 1212SOL    HW115098   4.210   0.722   6.120  0.4839 -0.1638  0.8228
 1212SOL    HW215099   4.320   0.813   6.120  2.6952 -2.6527 -0.5002
 1213SOL     OW15100   3.827   3.485   5.483 -0.3916 -0.0050 -0.1772
 1213SOL    HW115101   3.873   3.513   5.404  3.5594 -1.5827  1.5611
 1213SOL    HW215102   3.778   3.407   5.455  1.7609 -1.9915  1.6343
 1214SOL     OW15103   3.920   2.231   0.207  0.0641  0.0781  0.5443
 1214SOL    HW115104   3.947   2.313   0.250  1.5626 -0.9544  1.5690
 1214SOL    HW215105   3.897   2.180   0.284 -1.8251  1.9762  1.2335
 1215SOL     OW15106   2.798   3.396   8.708 -0.0696 -0.0284 -0.1463
 1215SOL    HW115107   2.844   3.480   8.705  0.2604 -0.2075 -0.1117
 1215SOL    HW215108   2.778   3.380   8.800  1.2354 -0.0245  0.1298
 1216SOL     OW15109   2.097   2.747   1.743 -0.5510  0.1634  0.0070
 1216SOL    HW115110   2.128   2.826   1.699 -2.6543  0.4927 -0.8827
 1216SOL    HW215111   2.125   2.768   1.832 -0.3424  2.3088 -0.5691
 1217SOL     OW15112   2.149   1.134  16.928 -0.3073 -0.1240  0.2044
 1217SOL    HW115113   2.086   1.078  16.883  1.8763 -2.1260 -0.3398
 1217SOL    HW215114   2.134   1.208  16.869 -2.8553  0.5416  1.6935
 1218SOL     OW15115   3.090   3.393   7.291  0.2173  0.2394 -0.6565
 1218SOL    HW115116   3.038   3.438   7.224  0.0502 -0.6945 -1.1575
 1218SOL    HW215117   3.081   3.302   7.263  2.1745 -0.2277  0.2230
 1219SOL     OW15118   0.131   1.302   6.709 -0.0075  0.0304 -0.1379
 1219SOL    HW115119   0.048   1.254   6.717 -0.2924  0.5481 -0.0121
 1219SOL    HW215120   0.130   1.304   6.614  3.4237 -1.4055 -0.1877
 1220SOL     OW15121   1.983   3.313   1.552  0.0969  0.6403  0.4607
 1220SOL    HW115122   1.936   3.373   1.611 -3.4548 -0.5455 -1.1255
 1220SOL    HW215123   2.064   3.363   1.549  0.5344 -0.2097 -1.3635
 1221SOL     OW15124   3.113   4.225   6.989  0.1541  0.5827 -0.0969
 1221SOL    HW115125   3.162   4.205   6.909  0.5467  1.8901 -0.1757
 1221SOL    HW215126   3.025   4.218   6.950  0.5125 -1.1511 -0.6340
 1222SOL     OW15127   0.898   3.669   5.429 -0.4763 -0.2957 -0.2226
 1222SOL    HW115128   0.840   3.743   5.452  1.1691  0.3097  1.9367
 1222SOL    HW215129   0.858   3.642   5.346 -1.6548  2.7692 -0.6776
 1223SOL     OW15130   0.181   1.774   8.532  0.5704 -0.2367  0.1857
 1223SOL    HW115131   0.273   1.770   8.509  1.1850 -0.8273  2.6749
 1223SOL    HW215132   0.184   1.714   8.607 -2.8604 -1.1842 -0.4300
 1224SOL     OW15133   4.510   3.591  14.671 -0.0406 -0.4902  0.2866
 1224SOL    HW115134   4.487   3.548  14.589 -1.2238  0.5184  0.1047
 1224SOL    HW215135   4.571   3.522  14.698  1.2140 -0.1533 -1.6921
 1225SOL     OW15136   3.762   1.300  16.046 -0.4252  0.4529 -0.1656
 1225SOL    HW115137   3.750   1.326  15.954  2.6070 -0.5497 -0.8422
 1225SOL    HW215138   3.679   1.253  16.054 -0.1635  0.0382  0.1019
 1226SOL     OW15139   3.928   0.281  17.648 -0.3426 -0.2251  0.3190
 1226SOL    HW115140   3.894   0.348  17.588  1.7899 -0.2782 -0.9578
 1226SOL    HW215141   4.009   0.254  17.605 -1.8563 -2.3013 -1.1989
 1227SOL     OW15142   0.804   3.304   5.355  1.1494 -0.7339 -0.0501
 1227SOL    HW115143   0.737   3.319   5.289  1.5569  0.7281 -0.1250
 1227SOL    HW215144   0.880   3.290   5.298 -0.2623 -2.3787 -1.5475
 1228SOL     OW15145   3.093   3.605   8.695 -0.0424  0.0343  0.3791
 1228SOL    HW115146   3.134   3.613   8.609 -1.2306  0.0321 -0.2008
 1228SOL    HW215147   3.131   3.519   8.713  0.2273 -0.1808 -1.2049
 1229SOL     OW15148   2.112   1.706   3.802 -0.4446  0.4722  0.0356
 1229SOL    HW115149   2.134   1.769   3.734 -0.8703  0.6163  0.0291
 1229SOL    HW215150   2.113   1.625   3.752 -1.6966  0.3516  0.1908
 1230SOL     OW15151   0.303   4.572   2.795  0.3486 -0.1667  0.2332
 1230SOL    HW115152   0.233   4.635   2.782 -0.3016 -0.6492  1.3580
 1230SOL    HW215153   0.296   4.544   2.887 -0.9340 -0.0435  0.1761
 1231SOL     OW15154   3.707   2.710   7.111  0.0963 -0.5656 -0.2574
 1231SOL    HW115155   3.737   2.638   7.056 -0.2605 -1.4639  0.7213
 1231SOL    HW215156   3.763   2.786   7.093  0.5361 -0.1656  2.7856
 1232SOL     OW15157   0.492   2.326  11.267  0.2090  0.0238 -0.0507
 1232SOL    HW115158   0.506   2.407  11.218 -0.1860  0.6951  0.9327
 1232SOL    HW215159   0.479   2.271  11.190  0.9878  0.3145 -0.3887
 1233SOL     OW15160   3.741   3.697  16.236  0.1004  0.0778 -0.0840
 1233SOL    HW115161   3.797   3.654  16.301 -2.0708  0.7038  2.1907
 1233SOL    HW215162   3.657   3.654  16.254 -0.4874  0.8825 -0.8673
 1234SOL     OW15163   3.911   0.274   6.370  0.2115  0.4963  0.0384
 1234SOL    HW115164   3.913   0.194   6.422 -1.6330  0.8650  0.7008
 1234SOL    HW215165   3.979   0.247   6.309 -0.1771  1.0905 -0.6656
 1235SOL     OW15166   2.907   4.118   8.462  0.0473 -0.4424 -0.4123
 1235SOL    HW115167   2.989   4.076   8.435 -0.8987 -2.5780  0.0571
 1235SOL    HW215168   2.887   4.096   8.553 -0.7526  0.8712 -0.2733
 1236SOL     OW15169   2.715   1.462  15.537 -0.1063  0.3276 -0.1862
 1236SOL    HW115170   2.758   1.376  15.535  0.8263  0.7653  1.1501
 1236SOL    HW215171   2.732   1.496  15.449  3.6522  0.9878  0.7630
 1237SOL     OW15172   3.782   4.348   6.727  0.4525  0.0872 -0.6371
 1237SOL    HW115173   3.752   4.368   6.815 -0.6041 -0.7002 -0.8187
 1237SOL    HW215174   3.867   4.391   6.732 -0.5037  2.0949 -1.4497
 1238SOL     OW15175   0.676   2.444   0.672 -0.1990 -0.0930 -0.0150
 1238SOL    HW115176   0.692   2.389   0.595 -0.3877 -1.0567  0.6258
 1238SOL    HW215177   0.586   2.418   0.692  1.0332 -1.3309  3.8387
 1239SOL     OW15178   1.767   0.712   1.446 -0.0835  0.1424  0.0109
 1239SOL    HW115179   1.738   0.712   1.538 -1.4226 -0.4840 -0.4101
 1239SOL    HW215180   1.810   0.626   1.441  0.8045  0.7192 -2.0762
 1240SOL     OW15181   1.952   1.941   0.422 -0.0462 -0.2052  0.1983
 1240SOL    HW115182   1.932   1.849   0.439 -0.3032 -0.8494 -3.6238
 1240SOL    HW215183   1.964   1.976   0.511  1.7635 -1.2696  0.3646
 1241SOL     OW15184   4.597   0.635   4.066 -0.5449 -0.7528 -0.3379
 1241SOL    HW115185   4.508   0.669   4.054 -0.3856 -0.4778 -0.7616
 1241SOL    HW215186   4.649   0.684   4.002  1.0930 -2.2465 -0.1704
 1242SOL     OW15187   3.375   2.965   4.850  0.0575  0.1971  0.2576
 1242SOL    HW115188   3.431   3.030   4.808 -2.3659  0.9899 -1.7927
 1242SOL    HW215189   3.325   3.028   4.902  1.1229  2.9382 -2.0900
 1243SOL     OW15190   4.425   3.422   5.325 -0.5011 -0.2644  0.5770
 1243SOL    HW115191   4.514   3.389   5.314 -0.6473  0.4439 -2.8485
 1243SOL    HW215192   4.433   3.488   5.256 -1.4012  0.4476  1.1392
 1244SOL     OW15193   1.550   3.254   5.079 -0.3405  0.0873  0.1248
 1244SOL    HW115194   1.637   3.255   5.039 -1.0118 -0.7186 -1.3883
 1244SOL    HW215195   1.509   3.307   5.011 -1.2885  1.1080  1.4842
 1245SOL     OW15196   0.862   0.091   4.674  0.1623 -0.4833  0.2155
 1245SOL    HW115197   0.808   0.167   4.696  2.6351  1.4757 -0.4856
 1245SOL    HW215198   0.894   0.067   4.761 -0.8808 -0.2173  0.6783
 1246SOL     OW15199   3.185   2.980   6.013 -0.2983  0.0913  0.0184
 1246SOL    HW115200   3.185   3.039   6.088 -1.4580  0.8657 -0.5950
 1246SOL    HW215201   3.099   2.939   6.022  1.8900 -4.3320  0.6463
 1247SOL     OW15202   0.270   0.938   8.128 -0.0478  0.7898 -0.1131
 1247SOL    HW115203   0.204   0.888   8.176  0.4421  0.1414 -0.1179
 1247SOL    HW215204   0.209   0.971   8.062 -1.0036  1.0703  0.9127
 1248SOL     OW15205   2.452   1.812   3.059  0.0174  0.6285  0.4247
 1248SOL    HW115206   2.370   1.776   3.025  1.0506  0.2725 -1.6224
 1248SOL    HW215207   2.423   1.899   3.089 -0.7564  1.2064 -2.0325
 1249SOL     OW15208   0.923   3.900   6.803 -0.0127  0.5367 -0.5099
 1249SOL    HW115209   0.896   3.982   6.763  0.7313  0.4903 -1.1094
 1249SOL    HW215210   0.994   3.871   6.745 -2.1891 -0.7116 -2.5179
 1250SOL     OW15211   2.232   0.552   6.702  0.4758 -0.6157 -0.3500
 1250SOL    HW115212   2.318   0.588   6.724 -0.6444  0.5242  2.1455
 1250SOL    HW215213   2.241   0.458   6.694  0.3006 -0.7054  0.5011
 1251SOL     OW15214   0.674   2.007  11.913 -0.1134 -0.2564  0.0614
 1251SOL    HW115215   0.711   1.922  11.935  1.4165  0.8445  1.7311
 1251SOL    HW215216   0.744   2.071  11.909  1.8875 -2.4749 -0.2217
 1252SOL     OW15217   0.088   1.913   2.006  0.0829 -0.0936  0.4347
 1252SOL    HW115218   0.138   1.992   2.025 -2.2376  1.2875  0.7751
 1252SOL    HW215219   0.009   1.943   1.961  0.6465  1.4894  0.5365
 1253SOL     OW15220   3.840   1.442   5.646  0.2733  0.6926 -0.0124
 1253SOL    HW115221   3.773   1.382   5.680  1.1170 -0.6431 -0.7088
 1253SOL    HW215222   3.795   1.520   5.615 -1.1759  0.2736  1.0264
 1254SOL     OW15223   3.991   2.251   0.965  0.3849  0.1740 -0.1475
 1254SOL    HW115224   3.942   2.234   1.045 -1.5852  1.5434 -1.0583
 1254SOL    HW215225   4.054   2.318   0.992  0.2263  0.5604 -0.7233
 1255SOL     OW15226   1.070   4.168   7.522  0.2953  0.6369  0.3483
 1255SOL    HW115227   1.039   4.258   7.529  1.4034  0.8479  2.4208
 1255SOL    HW215228   1.098   4.165   7.430 -1.6931 -0.6137 -0.2310
 1256SOL     OW15229   0.035   3.666   8.702  0.0016 -0.3004 -0.2905
 1256SOL    HW115230   0.127   3.683   8.678 -0.7601  0.0476 -2.9960
 1256SOL    HW215231   0.009   3.610   8.629 -0.2555 -0.3659 -0.1474
 1257SOL     OW15232   3.463   1.641   1.645  0.6080  0.3100  0.9309
 1257SOL    HW115233   3.417   1.629   1.562  0.5912  3.8294  0.4391
 1257SOL    HW215234   3.420   1.718   1.681 -1.2998 -0.2103 -0.2441
 1258SOL     OW15235   0.359   0.073   4.485 -0.0176 -0.0926 -0.3228
 1258SOL    HW115236   0.405   0.148   4.522  1.9867 -1.1323 -0.7234
 1258SOL    HW215237   0.275   0.082   4.531 -0.9568  3.0036 -2.6240
 1259SOL     OW15238   4.008   1.154  14.738  0.1178  0.0972 -0.2539
 1259SOL    HW115239   3.952   1.167  14.814  0.7498  1.7702 -0.0777
 1259SOL    HW215240   3.978   1.225  14.680  1.5313  0.7692 -0.1707
 1260SOL     OW15241   2.201   1.807   4.731 -0.5835  0.4568 -0.2942
 1260SOL    HW115242   2.169   1.737   4.788 -0.3181  0.0987 -0.5858
 1260SOL    HW215243   2.212   1.876   4.796 -0.2797  0.1671 -0.0427
 1261SOL     OW15244   1.587   3.081  13.664  0.6317 -0.8173  0.6241
 1261SOL    HW115245   1.532   3.071  13.586 -0.1376  1.0654  0.9159
 1261SOL    HW215246   1.674   3.076  13.626  0.8326  0.1888  0.9439
 1262SOL     OW15247   3.365   2.043   4.665 -0.0173 -0.2507 -0.2045
 1262SOL    HW115248   3.402   2.131   4.668 -1.2540  0.2744  0.0005
 1262SOL    HW215249   3.317   2.049   4.583  1.1310  0.3461 -0.8195
 1263SOL     OW15250   1.002   1.846  14.464  0.0989 -0.1050  0.3476
 1263SOL    HW115251   1.029   1.875  14.551 -2.2020  0.8595  0.7363
 1263SOL    HW215252   0.915   1.814  14.489 -0.0725  1.1710  1.4020
 1264SOL     OW15253   3.003   2.870   3.775 -0.5850 -0.6114  0.0583
 1264SOL    HW115254   2.975   2.873   3.684 -0.4687  1.1421  0.0807
 1264SOL    HW215255   3.004   2.777   3.798  2.3497 -0.7324 -0.5873
 1265SOL     OW15256   3.949   3.531  15.680 -0.5717 -0.3252 -0.1842
 1265SOL    HW115257   4.025   3.484  15.713  0.1071  0.8570 -0.0780
 1265SOL    HW215258   3.939   3.492  15.593 -1.7944  0.3884 -0.3600
 1266SOL     OW15259   1.487   0.752   2.915 -0.2134 -0.2047  0.3694
 1266SOL    HW115260   1.504   0.660   2.934  1.6674  0.2263  0.8071
 1266SOL    HW215261   1.448   0.751   2.827  0.6229  0.2576 -0.0086
 1267SOL     OW15262   1.410   1.347  14.196 -0.0850  0.1545 -0.6501
 1267SOL    HW115263   1.408   1.282  14.265  0.7998  1.4202  0.5709
 1267SOL    HW215264   1.423   1.296  14.116 -0.5084  1.1277 -1.3503
 1268SOL     OW15265   3.233   2.888   1.616 -0.6086  0.2464  0.6431
 1268SOL    HW115266   3.217   2.977   1.585  3.0194  0.6444 -0.0915
 1268SOL    HW215267   3.324   2.904   1.641 -0.1293  0.4729 -1.2459
 1269SOL     OW15268   0.395   2.676   5.586 -0.2038  0.0123  0.7996
 1269SOL    HW115269   0.363   2.662   5.497  2.1703  0.3851 -0.1115
 1269SOL    HW215270   0.455   2.748   5.565  0.9919 -1.3253 -0.3531
 1270SOL     OW15271   4.055   3.377  12.900  0.2894  0.1817  0.5001
 1270SOL    HW115272   4.120   3.367  12.970  2.1480 -1.1661 -1.4064
 1270SOL    HW215273   4.091   3.458  12.862  0.1013 -0.4556 -0.9912
 1271SOL     OW15274   2.503   3.901   4.169  0.1898  0.3231 -0.1860
 1271SOL    HW115275   2.445   3.878   4.242 -0.0447  1.2366 -0.0738
 1271SOL    HW215276   2.441   3.881   4.099  0.2237  1.5543 -0.5631
 1272SOL     OW15277   3.651   1.915   4.881  0.0669  0.0964  0.7088
 1272SOL    HW115278   3.737   1.949   4.856 -0.6699  0.5171 -1.2878
 1272SOL    HW215279   3.631   1.858   4.807  0.1199  0.7487  0.1843
 1273SOL     OW15280   4.143   2.613   7.534  0.1502 -0.3531 -0.2268
 1273SOL    HW115281   4.225   2.568   7.515  0.5827  0.2189  0.2706
 1273SOL    HW215282   4.075   2.547   7.545 -1.3218  1.0153 -1.0988
 1274SOL     OW15283   2.220   1.840  12.345 -0.7787  0.2263 -0.2287
 1274SOL    HW115284   2.254   1.751  12.333  2.3842  1.5183 -0.6264
 1274SOL    HW215285   2.256   1.885  12.269 -1.9655  1.1309 -0.2695
 1275SOL     OW15286   1.462   0.986  13.493 -0.5661 -0.3832  1.3243
 1275SOL    HW115287   1.407   0.912  13.469  0.1557 -0.0427 -1.3472
 1275SOL    HW215288   1.428   1.057  13.438  1.4129  1.2768  2.2390
 1276SOL     OW15289   2.053   0.783   1.560  0.1503 -0.7006  0.4032
 1276SOL    HW115290   1.981   0.775   1.497 -1.2911 -2.0968  2.2270
 1276SOL    HW215291   2.078   0.875   1.551 -0.8610 -0.5181 -0.4888
 1277SOL     OW15292   3.560   2.847   3.360  0.4226  0.1941 -0.3748
 1277SOL    HW115293   3.525   2.849   3.449  0.1897  1.6104 -0.4992
 1277SOL    HW215294   3.531   2.935   3.336  1.0420  0.3791 -0.4569
 1278SOL     OW15295   4.141   3.875   2.616  0.3022  0.4214  0.1121
 1278SOL    HW115296   4.159   3.830   2.533  1.1908  0.1972  0.4361
 1278SOL    HW215297   4.077   3.942   2.591 -0.4517 -0.7784 -1.2524
 1279SOL     OW15298   0.712   4.200   3.916 -0.2325  0.0820 -0.5428
 1279SOL    HW115299   0.624   4.240   3.914  0.1907  1.1045  1.4894
 1279SOL    HW215300   0.708   4.129   3.853  0.2057 -0.2001 -0.2470
 1280SOL     OW15301   3.160   3.119   5.612  0.2962 -0.2284  0.5309
 1280SOL    HW115302   3.254   3.132   5.597  0.2942 -0.5432  0.2667
 1280SOL    HW215303   3.159   3.170   5.694 -0.2594  1.0175 -0.2464
 1281SOL     OW15304   0.882   4.176   7.303  0.2016  0.0696  0.3790
 1281SOL    HW115305   0.908   4.266   7.323  0.8208  0.2390 -1.2146
 1281SOL    HW215306   0.916   4.182   7.214 -0.8863 -0.5749 -0.0712
 1282SOL     OW15307   3.335   3.916   2.813  0.2951 -0.2505  0.5201
 1282SOL    HW115308   3.275   3.988   2.833  0.3770  0.0263 -0.2363
 1282SOL    HW215309   3.325   3.866   2.894  2.3435 -1.5015 -0.0078
 1283SOL     OW15310   0.574   3.900  10.044  0.5537  0.1402  0.3412
 1283SOL    HW115311   0.633   3.888   9.970  0.0844 -1.1144  0.1784
 1283SOL    HW215312   0.558   3.994  10.051 -2.5308 -0.5051  1.9867
 1284SOL     OW15313   2.819   3.203   3.637 -0.3101  0.3477 -0.0332
 1284SOL    HW115314   2.831   3.296   3.616  2.1635  0.0559  0.0324
 1284SOL    HW215315   2.734   3.191   3.595 -0.2024  0.1708 -0.2002
 1285SOL     OW15316   3.904   4.695   3.736  0.5151  0.4443 -1.0703
 1285SOL    HW115317   3.847   4.666   3.665 -0.7695 -0.2492  0.2492
 1285SOL    HW215318   3.894   4.624   3.800 -1.9477  1.3828 -0.4408
 1286SOL     OW15319   2.274   2.884   9.474 -0.3554  0.9443 -0.2722
 1286SOL    HW115320   2.217   2.815   9.441  1.5428 -0.4710 -0.5464
 1286SOL    HW215321   2.355   2.853   9.434  0.3799  1.7174  0.6005
 1287SOL     OW15322   0.688   0.262   9.342  0.1897 -0.0396  0.2232
 1287SOL    HW115323   0.710   0.206   9.268  2.0297  2.0059 -0.7782
 1287SOL    HW215324   0.621   0.205   9.379 -1.7925  0.6048 -2.3426
 1288SOL     OW15325   3.556   3.927   7.291  0.3895 -0.3953 -0.4054
 1288SOL    HW115326   3.595   3.858   7.344  0.5438 -0.5952 -0.7836
 1288SOL    HW215327   3.616   3.997   7.319 -1.3972  0.4237  1.3706
 1289SOL     OW15328   2.965   3.218  12.074 -0.6109  0.3332  0.4878
 1289SOL    HW115329   2.998   3.174  12.152 -0.9260 -1.4542 -0.3937
 1289SOL    HW215330   3.026   3.292  12.076 -1.0007  0.6878 -1.0612
 1290SOL     OW15331   3.312   4.063  16.825  0.1957  0.0565  0.0192
 1290SOL    HW115332   3.382   4.122  16.854  2.1990 -1.2805 -2.1770
 1290SOL    HW215333   3.305   4.067  16.730 -0.2927 -0.5931  0.0294
 1291SOL     OW15334   2.188   1.764   3.051  0.3732 -0.0351  0.2616
 1291SOL    HW115335   2.201   1.775   3.145  0.6421 -0.0714  0.2289
 1291SOL    HW215336   2.117   1.699   3.045 -0.7806  1.3415 -1.0950
 1292SOL     OW15337   0.858   3.232   7.326 -0.2254 -0.0917  0.2570
 1292SOL    HW115338   0.928   3.297   7.333 -0.8901  0.6129  0.2393
 1292SOL    HW215339   0.906   3.150   7.342 -1.8384 -1.3141 -1.2004
 1293SOL     OW15340   4.639   0.083   4.008  0.3609 -0.1971  0.5846
 1293SOL    HW115341   4.602   0.171   4.019 -1.4186 -0.5043 -2.9932
 1293SOL    HW215342   4.694   0.076   4.086 -3.5830 -0.4242  3.3771
 1294SOL     OW15343   2.782   1.376   8.836 -0.4683 -0.2775 -0.6780
 1294SOL    HW115344   2.736   1.317   8.776 -1.4372 -1.3744  1.1496
 1294SOL    HW215345   2.739   1.371   8.921  0.4953 -0.7132 -0.2208
 1295SOL     OW15346   2.726   3.438   5.217  0.0015  0.4196  0.0741
 1295SOL    HW115347   2.714   3.533   5.216  1.9236  0.6604  1.1020
 1295SOL    HW215348   2.705   3.416   5.308  0.2555 -0.7738 -0.1441
 1296SOL     OW15349   0.357   3.745   4.154 -0.0613  0.2741  0.4766
 1296SOL    HW115350   0.332   3.804   4.083 -0.5237  0.3923  0.7392
 1296SOL    HW215351   0.272   3.739   4.198  0.5950  1.8728  1.9440
 1297SOL     OW15352   1.607   3.309   8.883  0.5315 -0.0798 -0.0612
 1297SOL    HW115353   1.684   3.256   8.904  2.0776  1.6403 -1.4160
 1297SOL    HW215354   1.639   3.393   8.913 -1.2371  0.8697 -0.8029
 1298SOL     OW15355   0.380   3.551   6.031 -0.1811 -0.2365  0.1926
 1298SOL    HW115356   0.466   3.565   5.991 -0.5574  0.8327 -0.2451
 1298SOL    HW215357   0.369   3.456   6.029  1.2606 -0.4108  1.0094
 1299SOL     OW15358   2.791   3.306   4.809 -0.3166 -0.1346  0.0849
 1299SOL    HW115359   2.823   3.289   4.720  2.5843 -2.8084  1.6416
 1299SOL    HW215360   2.718   3.363   4.784 -1.3895 -2.0603 -1.1354
 1300SOL     OW15361   0.528   0.002   2.355 -0.0825 -0.0674  0.4795
 1300SOL    HW115362   0.610   0.007   2.308 -1.1275 -1.8711 -1.4882
 1300SOL    HW215363   0.512   4.638   2.377  0.5379 -0.3242 -0.1769
 1301SOL     OW15364   0.364   1.348   8.348 -0.4059 -0.3555  0.0478
 1301SOL    HW115365   0.359   1.415   8.416 -0.8905  0.4127 -0.7358
 1301SOL    HW215366   0.359   1.269   8.402 -2.4247  1.0253  1.9155
 1302SOL     OW15367   1.035   4.689   0.320  0.4319 -0.1156  0.9003
 1302SOL    HW115368   0.963   4.726   0.372  0.8584  1.1797  0.5750
 1302SOL    HW215369   1.080   0.046   0.310 -0.6527  0.4923  1.0911
 1303SOL     OW15370   4.035   1.124  10.003  0.2279  0.2778  0.0458
 1303SOL    HW115371   4.071   1.036   9.989  2.3363  0.9333  1.3619
 1303SOL    HW215372   4.053   1.136  10.096 -0.5282  0.3377  0.1836
 1304SOL     OW15373   1.976   3.976  13.007  0.0887  0.1871  0.0940
 1304SOL    HW115374   1.923   3.918  12.953  1.0047 -0.0691 -0.5375
 1304SOL    HW215375   2.022   3.908  13.056 -0.7131  0.0407  0.6260
 1305SOL     OW15376   2.168   1.835  17.627 -0.0225 -0.2107  0.5029
 1305SOL    HW115377   2.215   1.792  17.699  1.3925  0.6056  0.0740
 1305SOL    HW215378   2.076   1.829  17.651 -0.3200  1.0533 -0.3540
 1306SOL     OW15379   3.347   0.085   4.758 -0.1222  0.3153  0.0510
 1306SOL    HW115380   3.440   0.062   4.756 -0.5776 -1.4905  0.1483
 1306SOL    HW215381   3.321   0.001   4.795  1.3214  0.6569  1.8533
 1307SOL     OW15382   0.447   0.352  11.131 -0.0519 -0.2838  0.2896
 1307SOL    HW115383   0.518   0.416  11.133  0.7339 -1.2077  1.7959
 1307SOL    HW215384   0.427   0.351  11.225 -0.9861  2.3914  0.1488
 1308SOL     OW15385   4.474   4.022   8.145  0.5296 -0.2395 -0.1002
 1308SOL    HW115386   4.433   3.938   8.124 -1.0051  0.8721 -1.5328
 1308SOL    HW215387   4.566   4.002   8.125  0.5984 -0.6456  0.6259
 1309SOL     OW15388   3.127   4.232   4.180  0.1426  0.1828 -0.4168
 1309SOL    HW115389   3.043   4.193   4.157  0.2630 -0.5508  0.3544
 1309SOL    HW215390   3.180   4.153   4.193 -1.5806 -0.6217  1.7333
 1310SOL     OW15391   0.340   2.310  10.276 -0.1696  0.1862 -0.1500
 1310SOL    HW115392   0.425   2.290  10.315 -0.1552  1.3842  0.4201
 1310SOL    HW215393   0.291   2.228  10.283  0.5325 -0.2826 -0.7584
 1311SOL     OW15394   2.407   2.394   0.917 -0.2570 -0.0082  0.3258
 1311SOL    HW115395   2.365   2.471   0.879 -0.1305 -0.5007 -0.8054
 1311SOL    HW215396   2.498   2.394   0.887 -1.3771 -0.3230 -3.0846
 1312SOL     OW15397   1.065   2.497   6.948  0.1282  0.0907 -0.0756
 1312SOL    HW115398   1.084   2.507   7.042 -1.0901 -0.2067  0.1951
 1312SOL    HW215399   1.129   2.427   6.932 -0.4483 -0.2242 -0.9482
 1313SOL     OW15400   3.373   4.297   4.359  0.0120 -0.2935 -0.4358
 1313SOL    HW115401   3.394   4.229   4.294 -0.3768  0.0347 -0.9032
 1313SOL    HW215402   3.323   4.368   4.320 -1.0969 -1.3368 -0.9290
 1314SOL     OW15403   1.186   2.578   7.715  0.0029  0.4384  0.4285
 1314SOL    HW115404   1.279   2.603   7.722 -0.8831  3.6935  0.2419
 1314SOL    HW215405   1.167   2.568   7.808  0.1992 -0.6316  0.3560
 1315SOL     OW15406   3.768   1.839   4.031 -0.1108  0.0912  0.3367
 1315SOL    HW115407   3.795   1.811   3.943 -0.7742 -0.4294  0.3006
 1315SOL    HW215408   3.829   1.790   4.086  1.1506 -0.2461 -1.3451
 1316SOL     OW15409   1.989   1.926  17.124  0.5660  0.2879  0.0532
 1316SOL    HW115410   1.991   2.022  17.119  1.4873  0.2591  0.0051
 1316SOL    HW215411   2.055   1.902  17.188 -0.3964  0.4779  1.1283
 1317SOL     OW15412   2.975   0.238   8.654 -0.1244 -0.4864 -0.2478
 1317SOL    HW115413   3.020   0.275   8.731 -0.9703  0.0259 -0.0020
 1317SOL    HW215414   2.939   0.166   8.705 -0.5882  0.1738  0.3676
 1318SOL     OW15415   3.988   4.394   0.096  0.1845  0.0344  0.2282
 1318SOL    HW115416   4.063   4.453   0.098  0.5298 -0.4110  0.4504
 1318SOL    HW215417   3.966   4.388   0.003  0.5797  2.3781  0.0027
 1319SOL     OW15418   3.434   3.596   7.992  0.1254  0.8194 -0.2825
 1319SOL    HW115419   3.473   3.678   8.023  1.4931 -0.2846  0.9994
 1319SOL    HW215420   3.508   3.545   7.959  1.3161  1.1735  1.7733
 1320SOL     OW15421   2.383   1.749   8.686 -0.8289 -0.3621 -0.4133
 1320SOL    HW115422   2.455   1.686   8.691 -0.9139 -0.6448 -2.8749
 1320SOL    HW215423   2.309   1.688   8.679 -2.4168  1.1601  3.2121
 1321SOL     OW15424   0.228   0.817   2.842  0.3451 -0.0398  0.1452
 1321SOL    HW115425   0.187   0.786   2.923  1.4528 -0.9437  0.3709
 1321SOL    HW215426   0.321   0.828   2.862 -0.0724  1.6100  1.1249
 1322SOL     OW15427   4.401   0.528   6.348 -0.6619 -0.6789  0.1959
 1322SOL    HW115428   4.406   0.538   6.443  2.5595 -3.2545  0.3208
 1322SOL    HW215429   4.340   0.599   6.329  0.7256  0.8600  1.5000
 1323SOL     OW15430   1.262   0.317   9.198 -0.1500  0.6808  0.1699
 1323SOL    HW115431   1.292   0.230   9.224 -0.6816  0.6856  0.7956
 1323SOL    HW215432   1.207   0.333   9.275  1.1123 -1.4730  1.5338
 1324SOL     OW15433   0.780   0.222   7.830  0.0645  0.4519  0.0447
 1324SOL    HW115434   0.743   0.142   7.792 -0.2687  0.8382 -0.4320
 1324SOL    HW215435   0.819   0.195   7.913 -0.9620 -0.0428  0.3570
 1325SOL     OW15436   1.905   1.765   4.158  0.1219  0.1386  0.6680
 1325SOL    HW115437   1.952   1.692   4.117 -3.1771 -0.6987 -1.6469
 1325SOL    HW215438   1.869   1.727   4.238 -1.3161 -1.5477 -0.7813
 1326SOL     OW15439   2.379   4.364   6.036 -0.4700 -0.2431  0.8270
 1326SOL    HW115440   2.314   4.375   5.966 -0.4585 -0.6382  0.7523
 1326SOL    HW215441   2.435   4.296   5.999 -2.2108 -1.3582  0.2182
 1327SOL     OW15442   1.048   1.158   5.364 -0.2453 -0.3558 -0.3428
 1327SOL    HW115443   1.091   1.074   5.353 -1.4809 -0.8919 -1.0501
 1327SOL    HW215444   0.988   1.169   5.290  0.2054 -1.0901 -0.8190
 1328SOL     OW15445   0.540   3.968   6.819 -0.5362  0.3367 -0.4468
 1328SOL    HW115446   0.542   3.957   6.724  1.5614 -0.0650 -0.3400
 1328SOL    HW215447   0.515   4.060   6.832  1.2783  0.5010  1.8423
 1329SOL     OW15448   4.113   2.669  10.248  0.0867 -0.1417  0.1566
 1329SOL    HW115449   4.131   2.591  10.300  1.8611  0.7343  0.8735
 1329SOL    HW215450   4.198   2.712  10.255 -0.1967  0.3302  0.7040
 1330SOL     OW15451   3.215   1.623   0.452  0.3696  0.1218 -0.2384
 1330SOL    HW115452   3.266   1.614   0.371  2.9957 -1.8756  1.6263
 1330SOL    HW215453   3.128   1.605   0.417  0.8924  0.8265 -1.9168
 1331SOL     OW15454   4.270   0.583   6.633  0.1519 -0.7395 -0.1657
 1331SOL    HW115455   4.258   0.670   6.594 -0.5407 -0.8268 -0.1475
 1331SOL    HW215456   4.209   0.582   6.707  1.9750  2.2620  1.3581
 1332SOL     OW15457   0.275   4.011  12.003 -0.5771 -0.0622  0.1520
 1332SOL    HW115458   0.303   4.030  11.914 -2.5662  1.8509 -0.0948
 1332SOL    HW215459   0.185   3.984  11.983 -1.6550  1.9743  2.2354
 1333SOL     OW15460   3.416   4.479   7.037  0.0280 -0.1638 -0.4059
 1333SOL    HW115461   3.324   4.502   7.035 -0.2138 -0.9808  0.8738
 1333SOL    HW215462   3.457   4.563   7.059 -3.0724  1.1964  0.1006
 1334SOL     OW15463   4.492   1.029  11.707  0.9168  0.2335 -0.6871
 1334SOL    HW115464   4.553   1.091  11.667  0.5035  0.5097 -0.8916
 1334SOL    HW215465   4.433   1.086  11.757  1.0171 -0.2651 -0.0001
 1335SOL     OW15466   2.959   2.658   4.259 -0.5221  0.2702 -0.2594
 1335SOL    HW115467   3.010   2.726   4.303  1.2795 -1.4495  0.3164
 1335SOL    HW215468   2.964   2.695   4.170 -2.7034  3.1378  0.8219
 1336SOL     OW15469   2.525   2.316   6.215 -0.0040  0.3540  0.1874
 1336SOL    HW115470   2.570   2.353   6.139  1.3763 -1.8522 -0.0452
 1336SOL    HW215471   2.594   2.284   6.272 -0.6274 -2.3007 -0.5571
 1337SOL     OW15472   0.249   2.661   5.021 -0.5590  0.0882  0.0582
 1337SOL    HW115473   0.296   2.578   5.025 -0.9272 -0.0834  0.8226
 1337SOL    HW215474   0.306   2.721   5.068 -0.6999 -1.1272  1.7607
 1338SOL     OW15475   0.116   4.542   3.978  0.0907  0.1346 -0.6151
 1338SOL    HW115476   0.142   4.622   3.931  1.9698 -1.2186 -1.8739
 1338SOL    HW215477   0.073   4.577   4.057 -0.5005 -0.9371 -0.4688
 1339SOL     OW15478   1.705   1.950  11.954  0.5382  0.1886  0.0987
 1339SOL    HW115479   1.660   1.899  11.886 -0.0469 -0.7535  1.2044
 1339SOL    HW215480   1.647   2.026  11.952 -0.4054 -0.5528 -1.4462
 1340SOL     OW15481   2.940   4.248   5.434 -0.6837  0.1138  0.4254
 1340SOL    HW115482   2.851   4.217   5.416 -0.0789 -1.0635 -0.5466
 1340SOL    HW215483   2.920   4.293   5.516 -0.9988  4.2879 -1.9585
 1341SOL     OW15484   1.908   4.696   6.181  0.4198 -0.2621 -0.6994
 1341SOL    HW115485   1.880   0.047   6.226  0.4440 -0.6691  0.0185
 1341SOL    HW215486   1.829   4.682   6.128 -1.0736  0.2701  1.4107
 1342SOL     OW15487   3.330   0.702   9.926  0.1939 -0.3264  0.8937
 1342SOL    HW115488   3.319   0.676  10.017  0.7991  0.3502  1.1559
 1342SOL    HW215489   3.384   0.629   9.896 -0.0773 -1.0255  2.0860
 1343SOL     OW15490   3.045   0.540  10.517 -0.1196  1.1050  0.4561
 1343SOL    HW115491   2.971   0.486  10.545 -1.5548  2.3716 -0.8591
 1343SOL    HW215492   3.102   0.473  10.479 -1.9672  0.6205 -1.4621
 1344SOL     OW15493   4.428   0.258   9.200  0.1249  0.4044  0.4444
 1344SOL    HW115494   4.343   0.220   9.222  0.8544 -0.8939  0.9997
 1344SOL    HW215495   4.432   0.328   9.266 -2.1936  0.0258  1.0235
 1345SOL     OW15496   0.297   3.779   8.950  0.3533 -0.1007  0.0543
 1345SOL    HW115497   0.370   3.833   8.979  1.0707 -1.1211  0.1275
 1345SOL    HW215498   0.229   3.790   9.018  1.2444  1.7837  0.6389
 1346SOL     OW15499   4.602   1.219   9.290  0.4034  0.5401 -0.1585
 1346SOL    HW115500   4.517   1.261   9.275 -0.2369 -0.5321  0.4286
 1346SOL    HW215501   4.664   1.292   9.286  0.5217  0.3547 -1.7419
 1347SOL     OW15502   1.546   1.843  15.627 -0.3288 -0.1712 -0.2665
 1347SOL    HW115503   1.593   1.855  15.710  0.3059 -0.7733 -0.5465
 1347SOL    HW215504   1.480   1.778  15.650  0.6592 -1.2776 -0.5604
 1348SOL     OW15505   4.478   1.379   3.393  0.1575 -0.1036 -0.4055
 1348SOL    HW115506   4.491   1.318   3.466 -2.9156 -0.1065  0.1209
 1348SOL    HW215507   4.386   1.366   3.370 -0.5622 -0.4419  2.7566
 1349SOL     OW15508   1.711   0.259  12.779 -0.6398 -0.3761  0.3940
 1349SOL    HW115509   1.732   0.203  12.703 -0.5715  0.3101 -0.0885
 1349SOL    HW215510   1.781   0.323  12.776 -0.6836 -0.3044  0.9181
 1350SOL     OW15511   2.428   4.578  12.342  0.1207 -0.1972 -0.1475
 1350SOL    HW115512   2.349   4.609  12.386 -1.5917  0.0645 -3.3708
 1350SOL    HW215513   2.378   4.503  12.310 -0.8046  0.6229 -0.6274
 1351SOL     OW15514   2.258   3.725   1.666  0.4393  0.2014  0.2320
 1351SOL    HW115515   2.330   3.747   1.726  0.8015 -1.4509  0.3953
 1351SOL    HW215516   2.180   3.730   1.720  1.6273  1.7880  1.8103
 1352SOL     OW15517   3.485   4.258   7.227  0.4911  0.2231  0.0450
 1352SOL    HW115518   3.434   4.330   7.189 -0.2090 -0.9756 -1.2953
 1352SOL    HW215519   3.472   4.193   7.158 -1.5128  1.1286 -0.4373
 1353SOL     OW15520   3.926   1.175   6.858  0.1924  0.4329  0.1240
 1353SOL    HW115521   3.891   1.260   6.832 -0.0777  0.5953  1.0430
 1353SOL    HW215522   4.018   1.189   6.836 -0.5416  1.8791 -2.0251
 1354SOL     OW15523   1.786   4.329   8.658 -0.2612  0.3707 -0.8400
 1354SOL    HW115524   1.791   4.424   8.670 -0.6249  0.2538  0.2374
 1354SOL    HW215525   1.740   4.312   8.741  4.0687  3.3428  2.1502
 1355SOL     OW15526   4.650   3.869  13.916 -0.4938  0.0044 -0.1873
 1355SOL    HW115527   4.633   3.821  13.835  0.1998  0.0656 -0.3688
 1355SOL    HW215528   4.682   3.793  13.963  0.4036  0.7584  0.4172
 1356SOL     OW15529   0.014   4.159   6.289  0.2206 -0.2481  0.7253
 1356SOL    HW115530   4.719   4.176   6.381 -0.1316  0.2421  0.5482
 1356SOL    HW215531   0.083   4.094   6.304  0.2310 -0.9490 -2.3850
 1357SOL     OW15532   2.226   1.180  17.658  0.0297  0.7529  0.3767
 1357SOL    HW115533   2.290   1.250  17.646 -0.1646  0.5362 -2.0267
 1357SOL    HW215534   2.194   1.172  17.568 -0.3987 -0.4586  0.6370
 1358SOL     OW15535   1.192   3.644   5.092  0.3249  0.2294 -0.4241
 1358SOL    HW115536   1.282   3.616   5.078  0.2455 -0.8025  1.1591
 1358SOL    HW215537   1.175   3.672   5.002 -1.4747 -0.4234 -0.2763
 1359SOL     OW15538   2.204   0.900   1.988 -0.1267 -0.7407 -0.0423
 1359SOL    HW115539   2.120   0.945   1.976 -0.3349  0.0025  4.2743
 1359SOL    HW215540   2.164   0.824   2.030  1.1146 -2.0933 -1.3325
 1360SOL     OW15541   1.709   2.274   3.130  0.2311  0.1010  0.0750
 1360SOL    HW115542   1.799   2.304   3.138  0.2881  0.2393 -1.0842
 1360SOL    HW215543   1.662   2.324   3.197 -1.8097  1.1589 -2.1508
 1361SOL     OW15544   4.373   2.561   8.318 -0.0076  0.4366  0.1123
 1361SOL    HW115545   4.283   2.577   8.348  0.4415 -0.8879  2.2090
 1361SOL    HW215546   4.427   2.599   8.387  0.3871  1.7563 -0.9395
 1362SOL     OW15547   3.648   3.402  17.701  0.2181 -0.0191 -0.5770
 1362SOL    HW115548   3.658   3.409  17.606  0.7534 -0.2161 -0.5313
 1362SOL    HW215549   3.652   3.495   0.014 -3.2143 -0.5304  2.1897
 1363SOL     OW15550   2.317   0.855   0.339  0.4826 -0.2461  0.1714
 1363SOL    HW115551   2.405   0.891   0.347 -0.0712  1.1845 -0.1439
 1363SOL    HW215552   2.301   0.804   0.419 -0.2917  0.4823  0.4744
 1364SOL     OW15553   1.330   2.281   6.645  0.0057 -0.0235 -0.1786
 1364SOL    HW115554   1.326   2.338   6.569 -1.3829  1.6388  1.1424
 1364SOL    HW215555   1.384   2.343   6.693  1.5739  0.0782 -2.1170
 1365SOL     OW15556   2.121   2.961  14.514 -0.3301  0.2236 -0.2497
 1365SOL    HW115557   2.169   3.024  14.568  0.8423  0.8587 -2.0283
 1365SOL    HW215558   2.096   2.897  14.580  0.2607  0.9933  0.7173
 1366SOL     OW15559   2.461   0.504   2.265  0.2427 -0.7418 -0.2591
 1366SOL    HW115560   2.454   0.409   2.263 -1.3889 -0.6284 -0.4957
 1366SOL    HW215561   2.436   0.518   2.356  2.1154 -2.0296  0.4373
 1367SOL     OW15562   2.886   2.790   3.325 -0.1991 -0.4902 -0.0121
 1367SOL    HW115563   2.945   2.759   3.393 -0.8855 -2.6930 -0.4344
 1367SOL    HW215564   2.936   2.870   3.311 -0.3271 -0.0337  2.1298
 1368SOL     OW15565   2.817   3.210   6.401 -0.3315 -0.3805  0.2041
 1368SOL    HW115566   2.890   3.257   6.442  0.6823  0.0306 -2.0622
 1368SOL    HW215567   2.836   3.230   6.310 -1.3153  1.4365  0.4034
 1369SOL     OW15568   0.747   1.295   5.807 -0.4336  0.2769  0.5898
 1369SOL    HW115569   0.749   1.389   5.825  0.5843  0.5579 -1.0013
 1369SOL    HW215570   0.781   1.263   5.890 -0.5113  0.7171  0.7925
 1370SOL     OW15571   0.951   4.059   0.583  0.1708 -0.5403 -0.0313
 1370SOL    HW115572   0.867   4.029   0.618  1.1831 -2.4972  0.7298
 1370SOL    HW215573   1.008   3.984   0.601 -0.9454 -1.4695 -0.3696
 1371SOL     OW15574   2.148   3.235   5.757 -0.0779  0.3790 -0.7282
 1371SOL    HW115575   2.125   3.168   5.692  1.4076 -0.9029  0.0774
 1371SOL    HW215576   2.242   3.225   5.769  0.0255  1.4845 -0.5707
 1372SOL     OW15577   1.005   0.388  13.535  0.4984 -0.1745 -0.0492
 1372SOL    HW115578   1.000   0.429  13.621  0.6885  1.1581 -0.6780
 1372SOL    HW215579   0.985   0.297  13.560  3.2971 -0.9236 -0.4541
 1373SOL     OW15580   1.470   4.646  15.891 -0.1822  0.1436 -0.3661
 1373SOL    HW115581   1.501   4.558  15.870 -0.7946  0.5812 -3.1981
 1373SOL    HW215582   1.547   4.672  15.942 -0.4133  2.1132 -1.0230
 1374SOL     OW15583   0.356   2.121   4.398  0.0279 -0.1908  0.9859
 1374SOL    HW115584   0.404   2.191   4.442  0.3367 -0.6111  1.3232
 1374SOL    HW215585   0.410   2.100   4.321 -0.6593  1.3373  0.0808
 1375SOL     OW15586   2.910   1.922   7.362  0.1276 -0.0321  0.0929
 1375SOL    HW115587   2.997   1.957   7.345 -0.4902  1.5803  0.2336
 1375SOL    HW215588   2.861   2.003   7.374  1.3253  0.6895  0.0543
 1376SOL     OW15589   1.152   0.366   3.923 -0.2337  0.1797  0.5581
 1376SOL    HW115590   1.158   0.449   3.971  1.0590  0.8412 -0.7629
 1376SOL    HW215591   1.241   0.332   3.925  1.2310  3.9092 -1.3233
 1377SOL     OW15592   2.360   1.404   2.143  0.1534  0.3832 -0.0262
 1377SOL    HW115593   2.400   1.319   2.164 -3.8442 -1.8733 -1.6076
 1377SOL    HW215594   2.303   1.406   2.220  0.6575  0.5254  0.3470
 1378SOL     OW15595   2.875   3.232   8.498  0.2024  0.3091  0.0120
 1378SOL    HW115596   2.968   3.216   8.510  0.0961 -1.8509 -2.0927
 1378SOL    HW215597   2.852   3.290   8.571 -1.2929 -0.5450  0.2208
 1379SOL     OW15598   1.581   4.508   2.380 -0.0387  0.9890 -0.6713
 1379SOL    HW115599   1.586   4.508   2.476  2.1943 -3.6198 -0.8319
 1379SOL    HW215600   1.634   4.585   2.364 -0.0259  0.6933 -2.0088
 1380SOL     OW15601   4.535   4.690   3.313 -0.1689  0.1970 -0.1861
 1380SOL    HW115602   4.466   4.670   3.377 -1.1858  1.2962 -0.9370
 1380SOL    HW215603   4.566   4.608   3.276 -1.3139 -0.4163  0.2159
 1381SOL     OW15604   1.060   3.231   8.796 -0.2334 -0.2263  0.0894
 1381SOL    HW115605   1.155   3.236   8.806 -0.2462  3.1139 -1.3118
 1381SOL    HW215606   1.050   3.324   8.818  0.3712 -0.2800  0.5995
 1382SOL     OW15607   2.968   0.232   0.878 -0.0743 -0.0646  0.6497
 1382SOL    HW115608   2.965   0.151   0.827  1.9749  1.0751 -1.3105
 1382SOL    HW215609   3.056   0.261   0.854 -0.3353  0.7710  0.7069
 1383SOL     OW15610   3.026   1.505  17.460  0.1618  0.1613 -0.9062
 1383SOL    HW115611   2.969   1.435  17.490  3.9368 -2.0300  1.1638
 1383SOL    HW215612   3.009   1.500  17.366 -0.2435 -0.5805 -0.7877
 1384SOL     OW15613   3.220   2.403   7.225  0.0398  0.0348 -0.1947
 1384SOL    HW115614   3.189   2.480   7.178  0.6722  1.3866  1.6355
 1384SOL    HW215615   3.311   2.413   7.196  0.3915 -1.7026  0.2996
 1385SOL     OW15616   4.594   2.789  13.850  0.1448 -0.4773 -0.0446
 1385SOL    HW115617   4.600   2.856  13.918 -2.3157 -0.0661 -0.2225
 1385SOL    HW215618   4.662   2.739  13.896 -0.5229  1.1209  2.7412
 1386SOL     OW15619   3.647   3.192   1.665 -0.3626 -0.1177 -0.2172
 1386SOL    HW115620   3.592   3.214   1.739 -1.3324 -1.5118 -0.5178
 1386SOL    HW215621   3.617   3.245   1.591 -0.3920  1.4213  0.8949
 1387SOL     OW15622   1.024   1.910   5.107  0.4419  0.3380  0.1037
 1387SOL    HW115623   1.057   1.886   5.194  1.1655  1.0374  0.0257
 1387SOL    HW215624   1.102   1.924   5.054  0.3423 -0.0147 -0.1347
 1388SOL     OW15625   0.771   4.095   7.552 -0.3682  0.0623  0.1549
 1388SOL    HW115626   0.855   4.071   7.511  0.1123  1.8074  0.1307
 1388SOL    HW215627   0.786   4.068   7.643  2.5368  0.1798 -0.2671
 1389SOL     OW15628   4.517   0.847   4.605 -0.0004 -0.0756  0.2960
 1389SOL    HW115629   4.578   0.919   4.619  1.4906 -1.3007  0.0594
 1389SOL    HW215630   4.520   0.802   4.690  1.9830 -2.5192 -1.0741
 1390SOL     OW15631   3.236   4.363   5.949  0.7727 -0.0183  0.2842
 1390SOL    HW115632   3.250   4.449   5.911  0.1671 -0.0872 -0.0947
 1390SOL    HW215633   3.217   4.299   5.881 -0.6820  1.3200 -0.5598
 1391SOL     OW15634   3.300   0.004   2.128 -0.0488  0.3621 -0.0251
 1391SOL    HW115635   3.372   4.714   2.067 -0.1133  2.7696 -0.7818
 1391SOL    HW215636   3.245   4.654   2.115 -0.1801  0.4649 -0.0704
 1392SOL     OW15637   4.125   4.028  15.667 -0.6393  0.0603 -0.1571
 1392SOL    HW115638   4.030   4.035  15.682 -0.4711  2.1207 -0.0879
 1392SOL    HW215639   4.136   4.083  15.590  0.3152 -1.2946 -0.9949
 1393SOL     OW15640   4.369   0.728   3.492  0.2109 -0.1076 -0.0439
 1393SOL    HW115641   4.275   0.710   3.491 -0.1267  1.5888  0.9548
 1393SOL    HW215642   4.386   0.747   3.584 -0.4943  3.3244 -0.6005
 1394SOL     OW15643   1.518   1.687  13.819 -0.1604  0.2551 -0.3157
 1394SOL    HW115644   1.594   1.631  13.805 -0.0167  0.7035 -1.3552
 1394SOL    HW215645   1.453   1.616  13.817  1.0850 -0.9348  1.0871
 1395SOL     OW15646   2.524   3.880   7.670 -0.6697  0.0026  0.2570
 1395SOL    HW115647   2.530   3.843   7.758 -1.1995 -2.3732 -0.6939
 1395SOL    HW215648   2.457   3.948   7.681 -2.8980 -2.3282  1.1418
 1396SOL     OW15649   3.978   2.738  10.023  0.1481 -0.1676  0.4639
 1396SOL    HW115650   4.042   2.778   9.964 -0.7365  0.0127 -0.3709
 1396SOL    HW215651   4.024   2.713  10.103  0.7554 -2.0047 -0.4410
 1397SOL     OW15652   1.610   4.526   6.688  0.5026  0.6880  0.0872
 1397SOL    HW115653   1.658   4.576   6.754  0.3651  1.6364 -0.5277
 1397SOL    HW215654   1.541   4.592   6.678  0.1841  0.3535  0.0699
 1398SOL     OW15655   4.153   3.463   0.957  0.5534 -0.5325  0.3455
 1398SOL    HW115656   4.070   3.497   0.924  1.3239  0.4487 -0.5747
 1398SOL    HW215657   4.131   3.372   0.936 -2.3307  0.1256  0.4520
 1399SOL     OW15658   0.541   2.165  11.042  0.2883 -0.4324  0.0120
 1399SOL    HW115659   0.589   2.102  11.095 -0.2853 -0.0956  0.9382
 1399SOL    HW215660   0.608   2.199  10.983 -0.1830 -0.1667 -0.3798
 1400SOL     OW15661   1.967   0.705  14.379 -0.0280 -0.4396  0.9217
 1400SOL    HW115662   1.918   0.667  14.452 -0.1801  2.0876  2.1317
 1400SOL    HW215663   1.915   0.783  14.363 -1.2973 -1.0183  2.2568
 1401SOL     OW15664   0.276   3.469  12.301 -0.2627  0.1647 -0.1089
 1401SOL    HW115665   0.260   3.562  12.287 -0.2444  0.0881 -0.6444
 1401SOL    HW215666   0.197   3.421  12.326 -0.1509  0.2702  0.4459
 1402SOL     OW15667   3.680   2.263   2.450 -0.4040 -0.0032 -0.0008
 1402SOL    HW115668   3.653   2.257   2.542 -0.5912  1.5857  0.0548
 1402SOL    HW215669   3.660   2.176   2.416 -1.0947 -0.8778  2.6213
 1403SOL     OW15670   0.216   2.934   7.684 -0.0651  0.5422  0.5962
 1403SOL    HW115671   0.201   2.841   7.668 -0.5069  0.9561 -1.4250
 1403SOL    HW215672   0.302   2.928   7.726  0.6539  2.9179 -0.5627
 1404SOL     OW15673   1.663   1.450   8.302 -0.1016 -0.1519 -0.5906
 1404SOL    HW115674   1.725   1.377   8.296 -0.8055 -0.7542 -0.6156
 1404SOL    HW215675   1.601   1.410   8.363  0.7425 -0.6191 -0.0566
 1405SOL     OW15676   0.836   4.365  10.483  0.1620 -0.0077 -0.1474
 1405SOL    HW115677   0.827   4.414  10.565  0.5261 -1.2700  0.6480
 1405SOL    HW215678   0.903   4.305  10.517  0.5147  0.7712  0.5140
 1406SOL     OW15679   3.758   2.028   0.511 -0.0009 -0.2422  0.5131
 1406SOL    HW115680   3.850   2.056   0.512 -0.8773  2.6181 -1.1822
 1406SOL    HW215681   3.712   2.111   0.519  0.2025 -0.0568 -0.2046
 1407SOL     OW15682   2.719   3.326  12.020 -0.2074 -0.4231  0.1359
 1407SOL    HW115683   2.803   3.280  12.020  1.3083  2.3296 -1.1773
 1407SOL    HW215684   2.734   3.377  12.100 -0.9070  0.0984 -0.0646
 1408SOL     OW15685   3.668   2.608   7.985  0.0509 -0.5218  0.2309
 1408SOL    HW115686   3.678   2.626   8.079  1.2561  1.4178 -0.2673
 1408SOL    HW215687   3.578   2.633   7.963 -0.0031  0.1116  1.1739
 1409SOL     OW15688   0.890   4.296  11.624  0.4002  0.4933  0.2200
 1409SOL    HW115689   0.945   4.320  11.550 -0.5152  1.2527 -0.2148
 1409SOL    HW215690   0.908   4.202  11.628 -0.5546  0.2954 -0.1773
 1410SOL     OW15691   0.097   1.864   3.686 -0.1616 -0.2443 -0.4204
 1410SOL    HW115692   0.126   1.955   3.696 -2.2828  0.3526  0.2675
 1410SOL    HW215693   0.039   1.876   3.611 -0.9252 -1.8623 -0.0929
 1411SOL     OW15694   0.724   2.924   9.156 -0.5905  0.3534  0.0815
 1411SOL    HW115695   0.729   3.008   9.111  1.5812  0.2580  0.1141
 1411SOL    HW215696   0.653   2.876   9.113 -0.7628  1.0979 -0.4644
 1412SOL     OW15697   2.556   0.992   5.655  0.5682  0.6439 -0.4250
 1412SOL    HW115698   2.644   0.983   5.620  0.3025 -0.9474 -0.6888
 1412SOL    HW215699   2.562   0.938   5.734  1.2027  0.0635 -0.8766
 1413SOL     OW15700   1.853   1.615   7.552 -0.6725 -0.0450  0.4928
 1413SOL    HW115701   1.905   1.535   7.557  1.1783  1.1512  0.5839
 1413SOL    HW215702   1.821   1.613   7.462  1.5439 -2.5362 -0.2366
 1414SOL     OW15703   1.913   0.599   3.654 -0.0787 -0.2369 -0.1209
 1414SOL    HW115704   1.914   0.525   3.594  2.6952 -0.3726  0.0710
 1414SOL    HW215705   1.836   0.646   3.623  2.0101  2.3680 -1.4602
 1415SOL     OW15706   0.610   3.665  16.038 -0.0720  0.1174 -0.8317
 1415SOL    HW115707   0.526   3.708  16.055  0.6861 -0.1779  3.8054
 1415SOL    HW215708   0.678   3.711  16.087  1.2758 -1.6824 -1.0232
 1416SOL     OW15709   3.315   2.679   3.214  0.1813 -0.3758  0.4224
 1416SOL    HW115710   3.394   2.630   3.234  1.0469  0.3817 -1.1909
 1416SOL    HW215711   3.324   2.719   3.127 -1.2681 -1.4954 -0.2464
 1417SOL     OW15712   3.817   1.883   8.170 -0.7028 -0.3854  0.1490
 1417SOL    HW115713   3.833   1.971   8.205 -1.0916 -0.1650 -0.2305
 1417SOL    HW215714   3.856   1.878   8.083 -1.7959  0.0158 -0.3559
 1418SOL     OW15715   0.897   1.155  13.249  0.4691  0.8219  0.2788
 1418SOL    HW115716   0.882   1.064  13.273  2.2558  0.9705  2.0184
 1418SOL    HW215717   0.927   1.130  13.162 -1.5268  0.7717 -0.3875
 1419SOL     OW15718   2.796   4.393   2.194  0.3038  0.2803 -0.2496
 1419SOL    HW115719   2.822   4.474   2.149 -0.5906  0.6601 -0.0770
 1419SOL    HW215720   2.841   4.319   2.153  0.3703  0.4649 -0.5108
 1420SOL     OW15721   1.947   0.307   6.485  0.3514 -0.0198 -0.1680
 1420SOL    HW115722   1.887   0.382   6.487  0.0858 -0.2145 -0.7415
 1420SOL    HW215723   1.969   0.286   6.394  1.9329  1.7477 -0.1855
 1421SOL     OW15724   1.399   3.161   2.671  0.3215  0.5254  0.5053
 1421SOL    HW115725   1.373   3.111   2.748 -1.4723 -0.1658 -0.5586
 1421SOL    HW215726   1.476   3.109   2.649  0.1922  0.9379 -0.9647
 1422SOL     OW15727   3.416   2.307  16.496 -0.3350 -0.6549 -0.6345
 1422SOL    HW115728   3.385   2.217  16.490  0.9206 -1.0714 -0.7411
 1422SOL    HW215729   3.444   2.317  16.587  0.1295  0.3988 -0.8954
 1423SOL     OW15730   0.856   0.766   2.544  0.7051 -0.2417 -0.3006
 1423SOL    HW115731   0.825   0.760   2.634  1.0695 -1.8719 -0.2790
 1423SOL    HW215732   0.919   0.694   2.537 -0.7784 -1.5531 -0.3390
 1424SOL     OW15733   0.538   3.280   4.203 -0.3939  0.2306 -0.1032
 1424SOL    HW115734   0.473   3.232   4.152  0.8728 -2.1345  0.5412
 1424SOL    HW215735   0.577   3.208   4.253  0.8765  1.3135  0.4757
 1425SOL     OW15736   3.756   1.654   6.185 -0.1131  0.6517  0.1986
 1425SOL    HW115737   3.703   1.691   6.115 -2.0194 -1.7673  0.3581
 1425SOL    HW215738   3.823   1.610   6.132 -1.6124 -1.2387 -0.1217
 1426SOL     OW15739   0.793   0.141  11.015 -0.5046  0.8909  0.4913
 1426SOL    HW115740   0.757   0.108  11.097  0.3921  0.4280  0.7006
 1426SOL    HW215741   0.831   0.221  11.051 -0.1792  0.6843  0.6089
 1427SOL     OW15742   2.153   3.966   9.578  0.0053 -0.2745  0.2949
 1427SOL    HW115743   2.086   3.899   9.562 -3.2415  3.1908 -0.3870
 1427SOL    HW215744   2.147   3.958   9.673 -1.3448  1.9289  0.3716
 1428SOL     OW15745   1.944   3.053   2.254 -0.0192 -0.2936 -0.1404
 1428SOL    HW115746   1.905   3.008   2.179 -0.9136 -1.6171  1.1252
 1428SOL    HW215747   1.873   3.077   2.314 -1.3015 -2.0579 -0.9489
 1429SOL     OW15748   4.579   0.310   3.144  0.9170  0.6447 -0.0851
 1429SOL    HW115749   4.498   0.308   3.196  0.2575 -0.3577 -1.1535
 1429SOL    HW215750   4.551   0.323   3.054  0.5495 -1.2443 -0.2495
 1430SOL     OW15751   3.484   2.722  13.090  0.2028 -0.5180 -0.4861
 1430SOL    HW115752   3.471   2.744  13.183 -1.5729  1.4811 -1.1894
 1430SOL    HW215753   3.531   2.639  13.094 -0.6534 -0.9621  0.7559
 1431SOL     OW15754   3.343   3.973   7.468  0.7898  0.3735  0.7818
 1431SOL    HW115755   3.404   3.968   7.395 -0.0692  0.4782  0.0568
 1431SOL    HW215756   3.335   3.879   7.482 -1.6622  0.8326  2.4503
 1432SOL     OW15757   1.223   4.230  12.952  0.6047  0.0888 -0.6896
 1432SOL    HW115758   1.307   4.225  12.997  1.4178 -1.9775 -2.4446
 1432SOL    HW215759   1.175   4.202  13.030  0.5219  2.9882  0.3266
 1433SOL     OW15760   2.240   2.149   4.156 -0.0913 -0.1772  0.0424
 1433SOL    HW115761   2.315   2.117   4.106 -0.2050  1.7884 -1.4196
 1433SOL    HW215762   2.216   2.070   4.204 -0.1980 -0.7182 -0.8887
 1434SOL     OW15763   1.223   1.442   1.464 -0.1776  0.0758  0.2626
 1434SOL    HW115764   1.261   1.423   1.378  0.7337  0.0992  0.6654
 1434SOL    HW215765   1.299   1.444   1.523  0.1094  1.4969 -0.1481
 1435SOL     OW15766   2.026   3.670   3.550 -0.4865  0.8662 -0.0461
 1435SOL    HW115767   2.021   3.654   3.456  1.9326 -0.8111  0.1273
 1435SOL    HW215768   2.103   3.623   3.582 -0.2870  1.7708  0.8192
 1436SOL     OW15769   0.791   3.211  15.933 -0.3085 -0.2253  0.5049
 1436SOL    HW115770   0.747   3.282  15.979 -0.7016  0.8488 -1.5113
 1436SOL    HW215771   0.781   3.150  16.006  0.0792 -1.6814 -0.6424
 1437SOL     OW15772   2.691   1.308   2.213 -0.4115 -0.3824  0.2016
 1437SOL    HW115773   2.739   1.226   2.221  0.6577  0.4845  2.7178
 1437SOL    HW215774   2.605   1.297   2.254 -0.6741 -2.9122 -1.0501
 1438SOL     OW15775   3.857   3.732   9.325 -0.9582  0.2256 -1.1887
 1438SOL    HW115776   3.785   3.758   9.268  0.9750  0.8024 -3.3328
 1438SOL    HW215777   3.855   3.636   9.327  2.7230  0.1789 -0.1384
 1439SOL     OW15778   3.526   0.760  11.407  0.1779 -0.2968  0.0077
 1439SOL    HW115779   3.467   0.769  11.482 -1.5440 -0.7062 -1.3265
 1439SOL    HW215780   3.568   0.846  11.402  0.1282 -0.3451 -1.1788
 1440SOL     OW15781   3.120   1.010   1.855 -0.5444  0.1788 -0.0510
 1440SOL    HW115782   3.026   0.994   1.866 -0.6365  0.6830 -0.1103
 1440SOL    HW215783   3.117   1.081   1.919 -2.7735  1.1816 -1.2793
 1441SOL     OW15784   0.928   1.553   8.924 -0.1230  0.2631 -0.1320
 1441SOL    HW115785   0.957   1.475   8.878  0.1273 -1.6795  3.3416
 1441SOL    HW215786   0.860   1.593   8.869  1.5708  2.9977 -0.2386
 1442SOL     OW15787   3.318   4.235   6.182  0.4999  0.1529 -0.2854
 1442SOL    HW115788   3.289   4.286   6.106 -0.5835 -0.3903 -0.2474
 1442SOL    HW215789   3.411   4.252   6.197  0.6272 -1.2801  0.5406
 1443SOL     OW15790   2.924   3.808   1.761 -0.2806 -0.4573  0.1276
 1443SOL    HW115791   2.868   3.880   1.732  0.0478  0.1767  1.0879
 1443SOL    HW215792   2.908   3.739   1.697  2.1313 -1.9098  1.0822
 1444SOL     OW15793   4.499   4.648   1.105 -0.1567 -0.5201  0.2405
 1444SOL    HW115794   4.489   4.723   1.046 -2.5650  0.6225  2.0971
 1444SOL    HW215795   4.594   4.651   1.109 -0.3161  2.2068  2.0674
 1445SOL     OW15796   3.177   3.964   2.146 -0.5192  0.5031  0.5750
 1445SOL    HW115797   3.136   4.001   2.225 -1.8372  1.0495 -0.3601
 1445SOL    HW215798   3.232   3.898   2.188  1.2353  2.1669  0.8627
 1446SOL     OW15799   4.576   4.131  12.824 -0.2682  0.1785 -0.6210
 1446SOL    HW115800   4.568   4.035  12.829  0.8730  0.1541  0.7238
 1446SOL    HW215801   4.667   4.134  12.853 -1.5524  0.0127  3.3959
 1447SOL     OW15802   0.584   3.584   6.831 -0.1035  0.4614 -0.9231
 1447SOL    HW115803   0.627   3.628   6.757  0.2331  1.7245  0.0360
 1447SOL    HW215804   0.526   3.660   6.842  0.0304  0.3441  0.5241
 1448SOL     OW15805   0.628   0.861   3.628  0.0632  0.1869 -0.0321
 1448SOL    HW115806   0.539   0.855   3.593 -0.1697 -1.1982  0.8112
 1448SOL    HW215807   0.673   0.900   3.553 -0.2554 -1.7152 -1.2111
 1449SOL     OW15808   2.481   0.848   3.505  0.1686 -0.1473 -0.1263
 1449SOL    HW115809   2.468   0.935   3.468 -0.9066 -0.7934 -1.2564
 1449SOL    HW215810   2.394   0.824   3.538  0.0661 -0.5152 -0.6720
 1450SOL     OW15811   2.283   4.001   3.087  0.5546  0.5175  0.3546
 1450SOL    HW115812   2.225   3.996   3.163  0.9765 -0.1322  0.6379
 1450SOL    HW215813   2.313   3.911   3.077  1.7432  0.9335  0.1965
 1451SOL     OW15814   1.378   0.878  12.439 -0.4211  0.2452 -0.2153
 1451SOL    HW115815   1.421   0.858  12.356  0.1955  0.8492 -0.0396
 1451SOL    HW215816   1.288   0.852  12.421 -0.6752  0.4440  0.7593
 1452SOL     OW15817   0.049   1.765   4.085 -0.2067 -0.5007 -0.1558
 1452SOL    HW115818   0.077   1.852   4.111  2.1330 -1.7492  1.5137
 1452SOL    HW215819   4.689   1.764   4.124 -1.7635 -2.6727 -3.7204
 1453SOL     OW15820   2.734   4.619   8.621  0.5536 -0.1045 -0.0590
 1453SOL    HW115821   2.667   4.556   8.645  1.1534 -0.7911 -0.1794
 1453SOL    HW215822   2.762   4.601   8.531 -2.1815 -0.6864 -0.8019
 1454SOL     OW15823   4.567   3.186   4.233 -0.5652  0.2583 -0.1740
 1454SOL    HW115824   4.541   3.103   4.273  3.3790 -0.2445  1.3871
 1454SOL    HW215825   4.531   3.176   4.145  0.8045  0.6163 -0.7799
 1455SOL     OW15826   2.454   3.515   8.358 -0.8276  0.0028 -0.6290
 1455SOL    HW115827   2.491   3.595   8.397 -0.8178  0.6030 -1.8436
 1455SOL    HW215828   2.361   3.527   8.375 -0.2608  0.2610  2.2211
 1456SOL     OW15829   3.456   1.504  14.368  0.3045 -0.2067  0.2806
 1456SOL    HW115830   3.384   1.468  14.420 -1.8067 -0.3509 -2.7201
 1456SOL    HW215831   3.485   1.432  14.311  0.2770  0.4411 -0.5471
 1457SOL     OW15832   1.179   2.271   8.163 -0.0977  0.0400 -0.1513
 1457SOL    HW115833   1.239   2.326   8.215  2.2574 -2.1439 -0.5465
 1457SOL    HW215834   1.195   2.182   8.195 -1.0370  0.6950  2.1741
 1458SOL     OW15835   2.285   1.405   9.982  0.2263  0.4009  0.2092
 1458SOL    HW115836   2.213   1.415  10.045  0.6697 -0.8337  0.9060
 1458SOL    HW215837   2.307   1.313   9.994 -5.6512 -0.9816  0.4192
 1459SOL     OW15838   4.700   1.469   3.832 -0.0328 -0.4842  0.1844
 1459SOL    HW115839   0.042   1.404   3.817 -2.4468 -3.1634  0.7809
 1459SOL    HW215840   4.704   1.521   3.751 -1.7524 -0.7135 -0.0321
 1460SOL     OW15841   4.243   2.901   4.729 -0.5292 -0.4322  0.7705
 1460SOL    HW115842   4.301   2.951   4.672  0.6146 -4.8663 -2.0113
 1460SOL    HW215843   4.301   2.894   4.806  0.6732  0.5887 -0.0454
 1461SOL     OW15844   3.893   4.026   3.561 -0.0198 -0.0891  0.6135
 1461SOL    HW115845   3.800   4.014   3.542  0.6176 -2.0324 -1.2703
 1461SOL    HW215846   3.923   3.940   3.532 -0.4863  0.6954 -2.1574
 1462SOL     OW15847   3.252   2.143   2.665  0.5187 -0.2753  0.5560
 1462SOL    HW115848   3.168   2.166   2.626  0.0552 -1.4492  0.8698
 1462SOL    HW215849   3.312   2.134   2.591  0.2511  0.9001  0.1960
 1463SOL     OW15850   4.245   1.614   7.920  0.3283 -0.2449 -0.6020
 1463SOL    HW115851   4.238   1.598   8.014 -0.9472  3.9901  0.0561
 1463SOL    HW215852   4.236   1.709   7.914  1.8067 -0.0580  0.1601
 1464SOL     OW15853   1.161   1.063   2.573  0.3632 -0.4144 -0.3587
 1464SOL    HW115854   1.106   1.016   2.510 -0.0565  0.6191 -0.7616
 1464SOL    HW215855   1.120   1.149   2.564  0.3779 -0.3602  0.0678
 1465SOL     OW15856   1.172   2.825   2.456 -0.6299 -0.5657  0.0425
 1465SOL    HW115857   1.175   2.833   2.361 -0.6737  0.7056  0.1475
 1465SOL    HW215858   1.231   2.896   2.481 -1.0164 -0.5641  0.9405
 1466SOL     OW15859   2.866   4.391   7.295 -0.0469 -0.7123  0.1933
 1466SOL    HW115860   2.952   4.385   7.253 -0.6474  1.2889 -1.3557
 1466SOL    HW215861   2.831   4.302   7.285 -0.4616 -0.4797 -0.4188
 1467SOL     OW15862   0.207   2.596   8.930 -0.1129  0.2917 -0.3219
 1467SOL    HW115863   0.231   2.681   8.967  1.3410 -0.4528  0.4399
 1467SOL    HW215864   0.207   2.551   9.014 -0.2896  1.7210  0.4385
 1468SOL     OW15865   2.096   3.529  10.828 -0.6517 -0.3785 -0.0735
 1468SOL    HW115866   2.011   3.559  10.859 -1.1554 -0.1496 -1.6520
 1468SOL    HW215867   2.100   3.443  10.870  0.4690  0.6940  1.9843
 1469SOL     OW15868   0.910   3.848   7.059  0.1437 -0.3037 -0.1883
 1469SOL    HW115869   0.906   3.878   6.968 -3.5267 -1.3854 -0.3717
 1469SOL    HW215870   0.941   3.758   7.052  2.4209  0.4081  0.6338
 1470SOL     OW15871   0.869   3.876  15.109  0.3532 -0.2376  0.1592
 1470SOL    HW115872   0.821   3.799  15.080  1.4159 -1.2074  0.9808
 1470SOL    HW215873   0.790   3.930  15.100 -0.9594 -2.4383 -1.3737
 1471SOL     OW15874   1.275   1.640   7.686 -0.0737 -0.1954 -0.3656
 1471SOL    HW115875   1.261   1.731   7.659  2.0435  0.7872  1.8798
 1471SOL    HW215876   1.323   1.607   7.611  1.1749  0.2336  0.2509
 1472SOL     OW15877   4.398   2.148  17.432 -0.6730 -0.0036 -0.6004
 1472SOL    HW115878   4.473   2.175  17.485 -0.5044  0.6007 -1.1619
 1472SOL    HW215879   4.334   2.160  17.502  0.2729 -1.0647  0.4598
 1473SOL     OW15880   1.500   0.314   3.638 -0.3910  0.1738 -0.5058
 1473SOL    HW115881   1.579   0.261   3.637 -2.0011 -2.2088 -1.0117
 1473SOL    HW215882   1.458   0.293   3.721  1.3074 -2.1464 -0.2507
 1474SOL     OW15883   3.018   3.313   8.954 -0.1248  0.0865  0.0157
 1474SOL    HW115884   2.995   3.403   8.976 -0.0348 -0.5059  2.5593
 1474SOL    HW215885   3.077   3.332   8.881 -1.9775  1.2859 -1.1823
 1475SOL     OW15886   0.128   1.299   8.821 -0.3263  0.0147 -0.5198
 1475SOL    HW115887   0.121   1.254   8.905 -1.8725 -0.1953 -0.7574
 1475SOL    HW215888   0.214   1.267   8.793 -0.3564 -0.2254 -0.3379
 1476SOL     OW15889   2.141   0.394   5.992  0.0124  0.0488  0.1504
 1476SOL    HW115890   2.233   0.371   5.980 -0.8544 -3.3174 -0.0120
 1476SOL    HW215891   2.120   0.450   5.917 -2.4502 -1.7398 -0.4758
 1477SOL     OW15892   3.052   4.488  11.169  0.2103  0.0853 -0.2733
 1477SOL    HW115893   3.078   4.482  11.261 -0.6234 -0.3897 -0.0704
 1477SOL    HW215894   3.083   4.406  11.132  0.5542  0.6295 -1.2087
 1478SOL     OW15895   0.407   1.548  15.874 -0.1074 -0.5442  0.2115
 1478SOL    HW115896   0.424   1.513  15.786 -1.4010  0.3456 -0.4119
 1478SOL    HW215897   0.315   1.524  15.888 -0.1868 -0.0732  0.4685
 1479SOL     OW15898   1.608   3.987   1.562  0.1423  0.2197  0.5698
 1479SOL    HW115899   1.693   3.981   1.607  0.9774  1.3269 -0.8753
 1479SOL    HW215900   1.619   4.057   1.499  0.2173 -0.2944  0.0085
 1480SOL     OW15901   4.238   3.949   3.375  0.2970 -0.0831  0.0241
 1480SOL    HW115902   4.179   3.894   3.426 -1.2797 -0.4064 -2.1521
 1480SOL    HW215903   4.240   3.910   3.287 -3.2885 -0.4657  0.1275
 1481SOL     OW15904   0.708   0.763   8.643  0.2652  0.7676 -0.1123
 1481SOL    HW115905   0.692   0.826   8.713 -2.2261 -1.4261  1.3041
 1481SOL    HW215906   0.712   0.682   8.693  0.0306  0.6439 -0.2941
 1482SOL     OW15907   1.414   3.592   6.095  0.0225 -0.1031 -0.3096
 1482SOL    HW115908   1.335   3.567   6.046  0.7857 -0.8604 -1.1612
 1482SOL    HW215909   1.468   3.591   6.016  1.1262 -1.2603  0.4669
 1483SOL     OW15910   0.569   0.657  15.304 -0.0151 -0.4587 -0.0867
 1483SOL    HW115911   0.535   0.727  15.248  0.0427  1.0195  1.7459
 1483SOL    HW215912   0.583   0.712  15.381 -1.8823 -1.1391  0.7278
 1484SOL     OW15913   0.262   2.381   1.592 -0.1017 -0.7275 -0.0981
 1484SOL    HW115914   0.271   2.291   1.561 -0.5324 -1.4096  1.7509
 1484SOL    HW215915   0.246   2.434   1.514 -1.2519  1.8470  1.8949
 1485SOL     OW15916   2.686   3.602  13.101 -0.1980  0.8302  0.3561
 1485SOL    HW115917   2.602   3.642  13.082  1.0229  1.5877 -3.3389
 1485SOL    HW215918   2.681   3.596  13.197  1.3353 -2.4030  0.2643
 1486SOL     OW15919   3.109   3.492   9.714 -0.3988 -0.4138  0.0578
 1486SOL    HW115920   3.119   3.504   9.620 -0.9734  0.8162  0.1378
 1486SOL    HW215921   3.199   3.489   9.746  0.3445 -0.6373 -2.0658
 1487SOL     OW15922   1.290   4.617   9.813  0.0966  0.0057 -0.0398
 1487SOL    HW115923   1.211   4.573   9.781  0.5907 -1.1682  0.3524
 1487SOL    HW215924   1.360   4.553   9.804  0.3561  0.3710 -0.5802
 1488SOL     OW15925   1.887   4.266   9.426  0.3821 -0.3628 -0.4331
 1488SOL    HW115926   1.979   4.242   9.413  1.2322  4.1349 -2.8294
 1488SOL    HW215927   1.881   4.249   9.520  0.3382  0.5329 -0.2718
 1489SOL     OW15928   3.505   2.551   8.541 -0.0551  0.6738 -0.1878
 1489SOL    HW115929   3.501   2.466   8.585 -0.8182  2.0685  2.4628
 1489SOL    HW215930   3.595   2.547   8.510  1.0273 -0.0898  2.9857
 1490SOL     OW15931   0.432   1.354   1.877  0.2849 -0.3074 -0.4422
 1490SOL    HW115932   0.442   1.367   1.783 -2.3415  2.6582 -0.2968
 1490SOL    HW215933   0.385   1.272   1.889 -2.0250  0.9500 -0.8431
 1491SOL     OW15934   0.660   2.688   8.102 -0.7751  0.5696 -0.2359
 1491SOL    HW115935   0.721   2.646   8.161  1.0655  0.6422 -2.0897
 1491SOL    HW215936   0.574   2.654   8.125  1.5916 -2.4265  4.0381
 1492SOL     OW15937   3.926   2.214   7.036 -0.0823 -0.6224 -0.5254
 1492SOL    HW115938   3.957   2.145   7.095  1.1778  1.8134  1.6398
 1492SOL    HW215939   3.910   2.156   6.961 -3.1585  2.6719 -2.4099
 1493SOL     OW15940   0.748   0.387   5.630  0.3855 -0.1438  0.4786
 1493SOL    HW115941   0.726   0.466   5.679 -0.0796  0.4661 -0.7113
 1493SOL    HW215942   0.841   0.377   5.652  0.6751  2.1918  0.3401
 1494SOL     OW15943   1.603   2.387   5.461 -0.1475 -0.2849  0.6438
 1494SOL    HW115944   1.697   2.403   5.466 -0.6344  2.3558  1.0912
 1494SOL    HW215945   1.568   2.470   5.430 -0.8178 -1.1182 -0.7950
 1495SOL     OW15946   4.592   2.181  16.134  0.6213 -0.2370  0.2579
 1495SOL    HW115947   4.596   2.149  16.224 -2.8116 -0.2967  0.4071
 1495SOL    HW215948   4.534   2.109  16.108  1.1528 -0.6145  0.1225
 1496SOL     OW15949   2.258   3.529   4.435 -0.4219  0.1712  0.1247
 1496SOL    HW115950   2.293   3.450   4.476  1.4197  2.1038  2.2764
 1496SOL    HW215951   2.214   3.497   4.356 -1.6815  1.1533  0.4117
 1497SOL     OW15952   4.231   2.684   2.880  0.2124  0.0935 -0.1089
 1497SOL    HW115953   4.210   2.672   2.787 -0.6440  0.1230  0.0760
 1497SOL    HW215954   4.271   2.771   2.881 -0.0801  0.2370 -0.8693
 1498SOL     OW15955   3.122   1.038   5.315 -0.0916  0.2754 -0.4081
 1498SOL    HW115956   3.046   1.048   5.258 -0.0772 -0.9730 -0.6518
 1498SOL    HW215957   3.080   0.980   5.379 -2.2439  0.4686 -1.6398
 1499SOL     OW15958   1.978   1.216  15.797  0.0444 -0.5549  1.0743
 1499SOL    HW115959   2.040   1.287  15.808  1.1582 -1.1792 -1.0832
 1499SOL    HW215960   2.034   1.157  15.746  0.7390  1.7322 -0.8069
 1500SOL     OW15961   3.328   3.192   7.341 -0.7505 -0.1228  0.4985
 1500SOL    HW115962   3.338   3.209   7.248  1.1436  4.4825  1.5399
 1500SOL    HW215963   3.268   3.117   7.334  0.5092 -1.1424  0.7652
 1501SOL     OW15964   1.991   1.097   6.775  0.4373 -0.5882 -0.5726
 1501SOL    HW115965   2.001   1.186   6.741  2.5963 -0.8924 -0.7313
 1501SOL    HW215966   2.051   1.043   6.724  2.4315 -0.8717  2.0691
 1502SOL     OW15967   0.578   3.513   9.237  0.5138  0.0033  0.1911
 1502SOL    HW115968   0.586   3.479   9.148  0.6203 -0.1926  0.2744
 1502SOL    HW215969   0.491   3.550   9.228  1.5233  2.1645 -0.6415
 1503SOL     OW15970   2.230   2.352   4.361  0.6270 -0.9630 -0.1077
 1503SOL    HW115971   2.253   2.306   4.280  0.8935 -1.1878  0.0940
 1503SOL    HW215972   2.188   2.273   4.396  3.6406 -1.2493  2.8769
 1504SOL     OW15973   2.566   2.431   0.393  0.2375 -0.0180 -0.3069
 1504SOL    HW115974   2.588   2.522   0.375  0.5461  0.3809  2.0461
 1504SOL    HW215975   2.626   2.410   0.465 -0.0543  0.0938 -0.0313
 1505SOL     OW15976   3.918   3.992   2.934 -0.0086  0.4843  0.1525
 1505SOL    HW115977   3.972   4.056   2.888  1.0697  0.7046  1.7586
 1505SOL    HW215978   3.837   4.042   2.945 -0.4307 -0.1413 -0.0910
 1506SOL     OW15979   3.458   4.125   7.968  0.3036  0.1197  0.3694
 1506SOL    HW115980   3.429   4.203   8.015 -1.2096 -0.4846  0.4349
 1506SOL    HW215981   3.496   4.162   7.888  2.6970 -0.4983  1.2112
 1507SOL     OW15982   0.945   3.238  12.523  0.6156  0.2586  0.8502
 1507SOL    HW115983   0.893   3.315  12.502 -0.1683 -0.9970 -1.8129
 1507SOL    HW215984   0.975   3.242  12.614 -1.0256  1.0699  1.3480
 1508SOL     OW15985   2.700   1.556   8.392 -0.0088 -0.2308 -0.4242
 1508SOL    HW115986   2.693   1.590   8.481 -1.7242 -0.9553 -0.2744
 1508SOL    HW215987   2.726   1.633   8.343  1.1038 -0.2949  0.0685
 1509SOL     OW15988   0.104   1.363   5.427  0.0321 -0.0294  0.1895
 1509SOL    HW115989   0.169   1.431   5.412 -0.9180  0.7247 -0.5194
 1509SOL    HW215990   0.069   1.359   5.338 -1.5248 -0.0626  0.7973
 1510SOL     OW15991   2.377   1.601   7.818  0.2471  0.5517 -0.4927
 1510SOL    HW115992   2.320   1.558   7.882  1.1986  0.3185  0.1897
 1510SOL    HW215993   2.311   1.663   7.787 -1.5469 -0.6534  0.9498
 1511SOL     OW15994   3.473   0.767   6.223  0.1777  0.8260  0.4795
 1511SOL    HW115995   3.466   0.786   6.129  2.1454 -2.7284 -0.3628
 1511SOL    HW215996   3.394   0.811   6.256 -0.2467 -0.0617  0.6357
 1512SOL     OW15997   2.559   4.334   7.868  0.6972 -0.1597 -0.5678
 1512SOL    HW115998   2.587   4.356   7.779 -0.0082  0.0742 -0.7392
 1512SOL    HW215999   2.620   4.266   7.897 -0.6137 -0.6804  0.9977
 1513SOL     OW16000   2.004   0.008  12.350  0.6714  0.7195 -0.0759
 1513SOL    HW116001   2.019   4.678  12.275 -1.0272 -0.7847  0.7409
 1513SOL    HW216002   2.080   4.710  12.402  0.5754  0.1480 -0.2182
 1514SOL     OW16003   2.212   0.791  12.529 -0.0258  0.0345 -0.2772
 1514SOL    HW116004   2.216   0.764  12.437  3.7844  0.5977 -0.2680
 1514SOL    HW216005   2.233   0.707  12.571  0.5628 -0.2099 -1.0645
 1515SOL     OW16006   3.928   4.640  14.321  0.2359  0.0028 -0.4185
 1515SOL    HW116007   3.849   4.673  14.365  0.9011  0.1691  0.6613
 1515SOL    HW216008   3.996   4.707  14.336 -0.8481  1.1410 -0.5603
 1516SOL     OW16009   4.695   2.750  11.450 -0.1620  0.1173  0.1029
 1516SOL    HW116010   0.048   2.770  11.402 -0.6254 -2.3196 -1.6698
 1516SOL    HW216011   4.719   2.784  11.537  0.6236 -0.9951  0.3224
 1517SOL     OW16012   0.409   3.252  10.608  0.4666  0.0053 -0.2882
 1517SOL    HW116013   0.408   3.209  10.522  0.2043  0.7398 -0.6593
 1517SOL    HW216014   0.357   3.330  10.587  0.6109  0.7092  1.9659
 1518SOL     OW16015   3.249   2.791   8.817 -0.0830  0.1335  0.3491
 1518SOL    HW116016   3.273   2.781   8.724 -1.5609 -2.4801  0.2494
 1518SOL    HW216017   3.162   2.831   8.817 -0.2878 -0.3112  0.1418
 1519SOL     OW16018   4.187   1.052   4.290  0.0567  0.1634  0.2934
 1519SOL    HW116019   4.260   0.999   4.321 -0.3249 -1.4329 -1.5702
 1519SOL    HW216020   4.234   1.105   4.225 -0.1502  0.3292  0.2765
 1520SOL     OW16021   3.476   4.686   8.830 -0.0838 -0.6492  0.1773
 1520SOL    HW116022   3.562   0.001   8.831 -0.5319  0.2771 -0.7722
 1520SOL    HW216023   3.498   4.600   8.795  0.4752 -0.1438 -0.6920
 1521SOL     OW16024   0.767   4.699  10.001  0.6807 -0.8446 -0.0281
 1521SOL    HW116025   0.760   4.676  10.094 -1.1888  1.1085  0.3172
 1521SOL    HW216026   0.732   0.060  10.012 -1.1799 -1.4932 -0.7440
 1522SOL     OW16027   0.050   2.416  16.155  0.3303 -0.0545 -0.6840
 1522SOL    HW116028   4.726   2.336  16.149  0.2423 -0.1039  0.7038
 1522SOL    HW216029   0.125   2.387  16.208  0.2626 -0.4934 -0.8264
 1523SOL     OW16030   4.186   0.246   5.941 -0.1362 -0.3741  0.5542
 1523SOL    HW116031   4.280   0.230   5.932 -0.3095  0.3358 -2.4935
 1523SOL    HW216032   4.186   0.341   5.924  0.9861 -0.3750  0.5726
 1524SOL     OW16033   1.109   1.700   6.462  0.0684  0.1251  0.4861
 1524SOL    HW116034   1.197   1.721   6.429 -0.3910  1.9802  0.4606
 1524SOL    HW216035   1.122   1.606   6.474  1.7235  0.4275  1.0722
 1525SOL     OW16036   2.747   4.638   7.842 -0.4786 -0.1362 -0.0503
 1525SOL    HW116037   2.785   4.564   7.795  1.8908  1.0747 -0.0261
 1525SOL    HW216038   2.721   4.608   7.929 -3.0175  0.4840 -0.6084
 1526SOL     OW16039   0.833   3.354   3.468 -0.3753  0.2036  0.1844
 1526SOL    HW116040   0.900   3.309   3.519 -0.6212  0.1122  0.4304
 1526SOL    HW216041   0.759   3.360   3.530  0.7172  0.6701  1.4436
 1527SOL     OW16042   2.408   0.900   7.818  0.0752  0.0790 -0.1778
 1527SOL    HW116043   2.399   0.816   7.863 -0.8086  1.0755  1.5037
 1527SOL    HW216044   2.481   0.877   7.760 -1.3733 -0.5982 -1.7156
 1528SOL     OW16045   1.826   2.391   2.295  0.0156 -0.0359  0.0955
 1528SOL    HW116046   1.818   2.484   2.275  0.3958 -0.1912 -0.7945
 1528SOL    HW216047   1.909   2.357   2.260 -1.1239 -1.2422 -1.4256
 1529SOL     OW16048   2.952   2.375   6.211 -0.1862  0.1963 -0.7977
 1529SOL    HW116049   2.895   2.299   6.220  2.6564 -1.8561 -0.1103
 1529SOL    HW216050   2.909   2.417   6.136 -1.0625  1.2381  0.3125
 1530SOL     OW16051   1.462   1.497  12.995  0.7409  0.9695 -0.2095
 1530SOL    HW116052   1.549   1.510  13.033  0.1027  0.2654  1.5013
 1530SOL    HW216053   1.471   1.549  12.915  0.0679 -0.3397 -1.1279
 1531SOL     OW16054   3.493   2.087   9.184  0.4795  0.7942  0.4430
 1531SOL    HW116055   3.463   2.005   9.222 -0.3789  0.4294 -1.0008
 1531SOL    HW216056   3.435   2.083   9.108  0.0127 -0.6793  0.8814
 1532SOL     OW16057   1.236   4.284   2.329  0.6265  0.3830 -0.3490
 1532SOL    HW116058   1.220   4.195   2.298  0.2479  0.2619  0.2043
 1532SOL    HW216059   1.147   4.313   2.348  1.2895  1.8368  0.4967
 1533SOL     OW16060   0.159   0.469  15.556 -0.0574 -0.0447  0.2871
 1533SOL    HW116061   0.219   0.397  15.575  2.0755  1.5227 -0.5449
 1533SOL    HW216062   0.193   0.520  15.482 -1.4644 -0.2555 -0.5039
 1534SOL     OW16063   2.947   4.598   5.817 -0.8151  0.4766 -0.2016
 1534SOL    HW116064   2.934   4.614   5.911 -0.5059 -1.1260  0.1010
 1534SOL    HW216065   3.012   4.666   5.802 -0.4368  0.0514 -0.4784
 1535SOL     OW16066   2.704   3.880   6.123  0.0920  0.2278 -0.3199
 1535SOL    HW116067   2.799   3.872   6.116 -0.2346 -0.8527 -3.5689
 1535SOL    HW216068   2.671   3.825   6.052  1.7145 -0.6226 -0.4139
 1536SOL     OW16069   2.780   2.753   3.604  0.2112  0.3686 -0.0465
 1536SOL    HW116070   2.839   2.816   3.564  1.2384  0.1257  1.0764
 1536SOL    HW216071   2.780   2.677   3.545 -0.5704  0.2749  0.0645
 1537SOL     OW16072   2.661   2.861  14.138  0.3668 -0.5988 -0.4702
 1537SOL    HW116073   2.663   2.878  14.232  2.2003 -1.2012 -0.3977
 1537SOL    HW216074   2.580   2.906  14.115  0.2849 -0.0189  0.9585
 1538SOL     OW16075   4.120   4.170  17.622  0.0370 -0.3261 -0.4960
 1538SOL    HW116076   4.145   4.127  17.704  0.4726 -1.4523 -1.2106
 1538SOL    HW216077   4.027   4.154  17.611  0.0033 -0.5990  0.1420
 1539SOL     OW16078   1.304   1.678  12.739 -0.1456 -0.4038 -0.3415
 1539SOL    HW116079   1.247   1.684  12.815 -1.2138 -0.8449 -1.0995
 1539SOL    HW216080   1.291   1.585  12.726 -1.3114 -0.3551  0.4910
 1540SOL     OW16081   0.194   4.234  10.843  0.2825  0.1591  0.0967
 1540SOL    HW116082   0.164   4.273  10.761  3.0479 -0.9401 -1.4566
 1540SOL    HW216083   0.109   4.206  10.877 -0.0824  3.3966  1.8460
 1541SOL     OW16084   4.077   2.180   1.693  0.1253  0.7272  0.0302
 1541SOL    HW116085   4.050   2.199   1.603 -1.4301  2.4542  0.8639
 1541SOL    HW216086   4.171   2.198   1.686  0.3211 -0.1552  0.4860
 1542SOL     OW16087   3.953   3.713   2.782  0.5356 -0.1900 -0.2593
 1542SOL    HW116088   3.922   3.803   2.780  0.6430 -0.1404  0.3634
 1542SOL    HW216089   3.972   3.693   2.690  2.4726  0.2905  0.0488
 1543SOL     OW16090   2.123   1.801   0.226  0.0440  0.0149  0.4007
 1543SOL    HW116091   2.189   1.851   0.272 -0.4824  0.8437  0.2566
 1543SOL    HW216092   2.040   1.825   0.269 -1.0567 -1.1284 -1.0743
 1544SOL     OW16093   1.768   4.403   3.575 -0.1390 -0.1800  0.3560
 1544SOL    HW116094   1.844   4.456   3.598 -1.2509  0.4899  2.4388
 1544SOL    HW216095   1.782   4.343   3.648 -0.6767 -1.3859 -0.5365
 1545SOL     OW16096   3.050   4.460   6.692 -0.5349  0.0877  0.1249
 1545SOL    HW116097   3.106   4.437   6.618 -0.8890 -0.1701 -0.0637
 1545SOL    HW216098   2.992   4.383   6.686 -0.9356  0.4827 -1.1725
 1546SOL     OW16099   3.562   0.264   9.677  0.4961  0.4661 -0.3327
 1546SOL    HW116100   3.576   0.171   9.695 -0.3918  0.7719  1.8668
 1546SOL    HW216101   3.654   0.289   9.665  0.9398 -1.3521 -0.6642
 1547SOL     OW16102   4.535   1.991   0.278  0.1056  0.2680  0.5480
 1547SOL    HW116103   4.512   2.083   0.288 -1.9881 -0.2265  0.4214
 1547SOL    HW216104   4.588   2.001   0.199 -0.4660 -1.6071 -0.0761
 1548SOL     OW16105   0.235   1.398   7.228  0.3229  0.2233 -1.0531
 1548SOL    HW116106   0.262   1.443   7.308 -1.4090  1.3732 -1.0981
 1548SOL    HW216107   0.318   1.391   7.181 -0.2082 -4.1486 -1.3005
 1549SOL     OW16108   3.718   1.119   7.424 -0.0396  0.2974  0.2489
 1549SOL    HW116109   3.627   1.146   7.431 -0.2488  0.1137 -1.6464
 1549SOL    HW216110   3.705   1.043   7.481  3.4464 -0.8676 -0.4678
 1550SOL     OW16111   1.750   2.517   2.865 -0.2161  0.0426  0.8159
 1550SOL    HW116112   1.703   2.441   2.830  2.7715 -0.9352 -1.0111
 1550SOL    HW216113   1.773   2.487   2.953 -1.3516 -0.5891  0.9036
 1551SOL     OW16114   3.861   0.999   1.224 -0.2945 -0.3782 -0.3193
 1551SOL    HW116115   3.940   1.037   1.186 -1.0481  1.9199  0.3790
 1551SOL    HW216116   3.834   0.956   1.143  0.4038  1.3957 -1.4969
 1552SOL     OW16117   0.818   4.034   9.660 -0.5312  0.1006 -0.3444
 1552SOL    HW116118   0.793   3.967   9.724  2.0958 -1.5145 -0.9927
 1552SOL    HW216119   0.897   3.994   9.624 -0.5734 -2.0588  1.9961
 1553SOL     OW16120   0.682   2.743   3.739 -0.1021  0.1950  0.0913
 1553SOL    HW116121   0.752   2.793   3.782  1.3233  0.3200 -2.3519
 1553SOL    HW216122   0.676   2.789   3.655  0.1515 -2.1729 -1.2216
 1554SOL     OW16123   2.303   4.238   7.147 -0.2043  0.4357  0.6516
 1554SOL    HW116124   2.208   4.234   7.142 -0.0383 -2.2484 -0.2982
 1554SOL    HW216125   2.344   4.265   7.065  1.8264 -1.9973  0.8485
 1555SOL     OW16126   3.079   4.179  16.284 -0.1904  0.2187  0.3745
 1555SOL    HW116127   3.104   4.198  16.194  0.0959  0.3142  0.4735
 1555SOL    HW216128   2.986   4.199  16.285 -0.0966  0.6317  0.9138
 1556SOL     OW16129   0.236   0.340  12.240 -0.2151 -0.3743 -0.6288
 1556SOL    HW116130   0.152   0.341  12.284 -1.0312 -0.2033 -2.1780
 1556SOL    HW216131   0.233   0.423  12.192  0.9927 -0.7323 -1.3399
 1557SOL     OW16132   3.597   2.368  15.499 -0.0728  0.0686  0.4587
 1557SOL    HW116133   3.598   2.462  15.517 -0.2176 -0.5509  3.8751
 1557SOL    HW216134   3.575   2.345  15.590  0.6347 -2.7696 -0.0871
 1558SOL     OW16135   4.272   2.589   1.804  0.6497 -0.7190 -0.2817
 1558SOL    HW116136   4.238   2.601   1.716  0.1503  2.5188  0.3646
 1558SOL    HW216137   4.297   2.676   1.834  1.1775 -1.2510  0.8118
 1559SOL     OW16138   1.969   2.185   0.295  0.0904  0.6005 -0.1028
 1559SOL    HW116139   1.876   2.207   0.304  0.1649 -0.2265  2.6221
 1559SOL    HW216140   1.971   2.112   0.357  0.3136 -0.3205 -1.2011
 1560SOL     OW16141   2.393   4.298   4.102  0.2420 -0.5078  0.2720
 1560SOL    HW116142   2.317   4.242   4.117  0.9752 -1.9280 -1.2502
 1560SOL    HW216143   2.360   4.360   4.037  0.9633  1.5658  1.8626
 1561SOL     OW16144   2.795   2.385  14.193  0.3935  0.2687  0.2454
 1561SOL    HW116145   2.784   2.450  14.263  1.1573  2.5818 -1.7710
 1561SOL    HW216146   2.731   2.422  14.132 -0.4640 -0.5175  0.6712
 1562SOL     OW16147   3.432   1.177   3.989  0.2457 -0.5927 -0.4287
 1562SOL    HW116148   3.502   1.232   3.954 -0.8917  0.3078 -1.2712
 1562SOL    HW216149   3.472   1.136   4.066  0.4959  1.0647  0.3393
 1563SOL     OW16150   3.790   2.055   6.546  0.3344 -0.1290 -0.2638
 1563SOL    HW116151   3.833   1.979   6.586  0.9141 -1.2615 -3.0470
 1563SOL    HW216152   3.844   2.060   6.467  0.3948  1.0766 -0.1367
 1564SOL     OW16153   1.418   1.481   2.960 -0.5687 -0.4387 -0.2472
 1564SOL    HW116154   1.404   1.399   2.913  2.0792 -0.8098 -0.3743
 1564SOL    HW216155   1.474   1.534   2.903  1.1476 -2.0064 -0.0291
 1565SOL     OW16156   2.819   2.373  12.472  0.0575  0.1263 -0.6862
 1565SOL    HW116157   2.762   2.401  12.543  1.6618  0.4599  0.4683
 1565SOL    HW216158   2.780   2.427  12.403 -1.1725  0.4211  0.2465
 1566SOL     OW16159   2.548   2.435  17.029  0.3810 -0.5990 -0.2236
 1566SOL    HW116160   2.583   2.351  17.059 -0.4027 -1.4123 -1.5881
 1566SOL    HW216161   2.498   2.454  17.108  0.1270 -1.0413 -0.2773
 1567SOL     OW16162   4.287   1.940   2.036  0.0040  0.1743 -0.6160
 1567SOL    HW116163   4.319   1.921   1.948  1.5184  3.0908 -0.6941
 1567SOL    HW216164   4.216   2.003   2.027 -0.1643  0.2455  1.3014
 1568SOL     OW16165   4.582   1.601   8.533 -0.0434  0.3804  0.2414
 1568SOL    HW116166   4.623   1.631   8.614  2.8357 -2.8445 -0.0161
 1568SOL    HW216167   4.563   1.509   8.553  1.6083  0.0075  0.0284
 1569SOL     OW16168   3.825   4.464   2.796  0.4845 -0.2163 -0.2661
 1569SOL    HW116169   3.806   4.473   2.702  0.9482 -0.8072 -0.4156
 1569SOL    HW216170   3.760   4.402   2.830 -0.4055 -0.5621 -2.5425
 1570SOL     OW16171   3.296   1.336   9.241 -0.3227 -0.0795  0.3284
 1570SOL    HW116172   3.320   1.245   9.257  0.4307 -0.0346 -0.5576
 1570SOL    HW216173   3.205   1.326   9.216 -0.8608 -0.4332  2.3991
 1571SOL     OW16174   1.893   3.282   8.687  0.6288 -0.2836  0.0673
 1571SOL    HW116175   1.982   3.315   8.686  0.4999  0.1145  1.7038
 1571SOL    HW216176   1.896   3.268   8.782  0.6221  1.3742  0.3106
 1572SOL     OW16177   2.238   3.834   5.580  0.3203 -0.7238  0.0781
 1572SOL    HW116178   2.196   3.763   5.531  1.5980 -1.9870  0.8246
 1572SOL    HW216179   2.170   3.899   5.599  0.8994  0.1097 -0.6872
 1573SOL     OW16180   1.629   0.887   4.399 -0.4592 -0.5642 -0.3160
 1573SOL    HW116181   1.640   0.949   4.327  0.0577  0.8493  0.9786
 1573SOL    HW216182   1.636   0.805   4.351 -0.4391 -0.1198 -1.0688
 1574SOL     OW16183   1.729   3.490   7.232  0.7958  0.1230 -0.2513
 1574SOL    HW116184   1.646   3.530   7.205  0.5271 -0.6129 -0.5284
 1574SOL    HW216185   1.796   3.554   7.208  0.1704  0.1136 -2.0223
 1575SOL     OW16186   0.920   1.594   4.394  0.4074 -0.1375 -0.4922
 1575SOL    HW116187   0.967   1.675   4.376  1.0696  0.0264  1.9603
 1575SOL    HW216188   0.859   1.622   4.462 -0.3362 -0.3077 -1.0902
 1576SOL     OW16189   0.838   3.491   7.628  0.5489 -0.4012 -0.4084
 1576SOL    HW116190   0.844   3.404   7.669  1.3400  0.7971  2.0252
 1576SOL    HW216191   0.746   3.516   7.627  0.6724  0.0020 -1.3533
 1577SOL     OW16192   4.617   3.156   2.445  0.2283  0.5219  0.0929
 1577SOL    HW116193   4.696   3.102   2.450 -0.1220  0.2044  2.4919
 1577SOL    HW216194   4.652   3.239   2.413  0.2482 -0.0020 -1.2438
 1578SOL     OW16195   2.559   4.668   4.297  0.3798 -0.0235  0.1436
 1578SOL    HW116196   2.530   4.612   4.225 -1.9121  0.2936  0.8226
 1578SOL    HW216197   2.506   0.019   4.288  1.6057  1.0133  1.8869
 1579SOL     OW16198   3.430   4.162   3.831  0.3864  0.1424 -0.0827
 1579SOL    HW116199   3.475   4.078   3.839  1.3482  0.5469 -1.1897
 1579SOL    HW216200   3.497   4.224   3.860  0.2953  0.1280  0.1510
 1580SOL     OW16201   3.223   3.288  14.198 -0.5495 -0.1682 -0.9953
 1580SOL    HW116202   3.209   3.247  14.113  0.7652 -0.6056 -1.0030
 1580SOL    HW216203   3.317   3.278  14.213 -1.6034 -3.6048  3.2551
 1581SOL     OW16204   0.563   1.451   6.331  0.2089 -0.1411 -0.1459
 1581SOL    HW116205   0.503   1.488   6.266  1.7981  1.2521 -0.8159
 1581SOL    HW216206   0.553   1.520   6.396  1.4586  0.3231 -0.4435
 1582SOL     OW16207   3.722   1.233   8.806 -0.0944  0.4588 -0.0789
 1582SOL    HW116208   3.788   1.301   8.797 -0.6644  1.1523  0.9767
 1582SOL    HW216209   3.772   1.160   8.769 -2.6090 -1.3825  0.1218
 1583SOL     OW16210   3.819   3.686   9.826 -0.5555 -0.7185 -0.4120
 1583SOL    HW116211   3.805   3.620   9.894 -0.3880 -0.5038 -0.1724
 1583SOL    HW216212   3.914   3.676   9.824 -0.4220  0.4580  0.3383
 1584SOL     OW16213   4.295   0.059   4.976 -0.2776 -0.0055  0.5000
 1584SOL    HW116214   4.359   0.109   5.027 -2.0241  1.7459  0.9283
 1584SOL    HW216215   4.312   4.696   5.004 -0.4825 -0.5185 -1.0256
 1585SOL     OW16216   3.351   3.741   6.298 -0.0078  0.4316 -0.2933
 1585SOL    HW116217   3.332   3.835   6.291  0.8346  0.6307  0.2013
 1585SOL    HW216218   3.286   3.708   6.235  1.0317 -2.2259  0.0386
 1586SOL     OW16219   4.604   3.763  13.670 -0.1592  0.2457  1.1588
 1586SOL    HW116220   4.536   3.826  13.692  0.9523  1.0300  2.3509
 1586SOL    HW216221   4.627   3.783  13.580 -0.3877 -1.9126  0.6188
 1587SOL     OW16222   2.944   0.663  11.904  0.4702  0.2626  0.1754
 1587SOL    HW116223   2.867   0.657  11.847  0.2030  0.4601  0.5163
 1587SOL    HW216224   2.894   0.670  11.985  2.5049  1.5345  1.3069
 1588SOL     OW16225   3.763   2.532  13.525 -0.4510 -0.4706  0.1232
 1588SOL    HW116226   3.781   2.594  13.596 -0.2582 -1.8475  1.2700
 1588SOL    HW216227   3.674   2.560  13.506  0.2535  1.7560 -0.0092
 1589SOL     OW16228   3.095   0.755   6.081  0.2480  0.2849 -0.7862
 1589SOL    HW116229   3.122   0.733   6.170 -2.3434  1.2361  0.2150
 1589SOL    HW216230   3.117   0.676   6.033  1.3015  0.1163 -0.0302
 1590SOL     OW16231   3.099   2.722  11.923  0.1896  0.5802  0.3268
 1590SOL    HW116232   3.026   2.679  11.967  0.2944 -1.6844 -1.7209
 1590SOL    HW216233   3.058   2.803  11.893 -2.6831 -0.7619  0.5780
 1591SOL     OW16234   2.869   1.407  15.255  0.3057 -0.7305 -0.0996
 1591SOL    HW116235   2.920   1.410  15.174  0.3083 -2.1233 -0.1472
 1591SOL    HW216236   2.840   1.316  15.257  2.2139 -1.3652 -0.7988
 1592SOL     OW16237   4.666   2.491   5.275  0.2147  0.2589 -0.4283
 1592SOL    HW116238   4.584   2.448   5.296  0.2177  0.4039 -0.1193
 1592SOL    HW216239   4.699   2.524   5.359  0.3466  0.0563 -0.3993
 1593SOL     OW16240   0.191   1.683   3.857 -0.0779  0.0343  0.1330
 1593SOL    HW116241   0.163   1.748   3.793 -1.0930 -1.7889 -1.2865
 1593SOL    HW216242   0.126   1.694   3.926 -0.5901 -1.6264 -0.0759
 1594SOL     OW16243   1.685   0.303   6.671 -0.5404  0.3459  0.3773
 1594SOL    HW116244   1.616   0.251   6.629  1.0386 -1.3846 -0.0351
 1594SOL    HW216245   1.718   0.344   6.591 -1.9803  2.7190  0.9845
 1595SOL     OW16246   1.499   3.163   2.237  0.1977 -0.5408 -0.0486
 1595SOL    HW116247   1.499   3.195   2.146  0.2903  1.5321  0.6768
 1595SOL    HW216248   1.431   3.220   2.274 -0.6502 -1.3004 -0.4139
 1596SOL     OW16249   4.575   3.511   4.662  0.2728 -0.2106 -0.2229
 1596SOL    HW116250   4.644   3.575   4.682  1.3186 -0.9011 -1.6440
 1596SOL    HW216251   4.494   3.556   4.681  0.6820  1.1200 -1.6059
 1597SOL     OW16252   2.357   1.120   3.372  0.2956  0.3876 -0.3136
 1597SOL    HW116253   2.274   1.154   3.407  0.1637  0.1618 -0.4075
 1597SOL    HW216254   2.423   1.178   3.410 -2.3783  1.1440  3.2330
 1598SOL     OW16255   0.667   2.322   3.209 -0.0226  0.3185  0.9783
 1598SOL    HW116256   0.696   2.410   3.185 -1.8879  0.2388 -1.5950
 1598SOL    HW216257   0.644   2.337   3.301 -0.2862 -0.8918  1.1064
 1599SOL     OW16258   4.494   3.697   3.528  0.2418 -0.3967 -0.0408
 1599SOL    HW116259   4.544   3.779   3.526  0.7991 -0.6882  1.4153
 1599SOL    HW216260   4.540   3.648   3.597  0.1352  2.1348  1.8395
 1600SOL     OW16261   1.611   0.657   7.287  0.5760 -0.4102 -0.1824
 1600SOL    HW116262   1.672   0.591   7.254  1.2600 -0.8079  1.8549
 1600SOL    HW216263   1.612   0.632   7.380  1.3605  0.1970 -0.0371
 1601SOL     OW16264   1.577   0.973   1.715 -0.0510 -0.1881 -0.1954
 1601SOL    HW116265   1.514   0.952   1.784 -0.5829  0.3592 -0.5190
 1601SOL    HW216266   1.521   1.028   1.661  0.9548 -2.2447 -3.3089
 1602SOL     OW16267   1.406   2.310   8.359 -0.4021  0.1094 -0.3134
 1602SOL    HW116268   1.460   2.332   8.435  0.8563  3.2781 -2.1345
 1602SOL    HW216269   1.396   2.215   8.362 -2.6011  0.3799  0.7032
 1603SOL     OW16270   0.559   0.714  10.825  0.2212 -0.2283  0.6578
 1603SOL    HW116271   0.630   0.742  10.768 -0.7636 -0.5741 -0.7199
 1603SOL    HW216272   0.503   0.789  10.847  0.0554 -0.0075 -0.5461
 1604SOL     OW16273   3.401   0.283   7.331  0.3301 -0.2865 -0.1483
 1604SOL    HW116274   3.442   0.299   7.246  0.4072 -1.2836 -0.2979
 1604SOL    HW216275   3.346   0.211   7.302 -2.7495  2.8176 -1.9476
 1605SOL     OW16276   0.650   1.717   5.011 -0.0366  0.2190  0.3225
 1605SOL    HW116277   0.720   1.714   5.077 -0.6093 -0.4514  0.8943
 1605SOL    HW216278   0.669   1.807   4.983  0.7423 -0.0192  0.0910
 1606SOL     OW16279   1.225   3.350  17.046  0.5098  0.1550 -0.5599
 1606SOL    HW116280   1.314   3.384  17.052  0.6751 -1.0465  3.4502
 1606SOL    HW216281   1.212   3.334  17.139 -0.7316  0.3118 -0.7093
 1607SOL     OW16282   3.765   2.829  12.134  0.2303 -0.0299  0.8271
 1607SOL    HW116283   3.717   2.887  12.075 -0.2742 -0.3253  0.9481
 1607SOL    HW216284   3.711   2.842  12.212 -0.4058 -1.3849  0.6117
 1608SOL     OW16285   0.742   4.511   6.378  0.1163  0.5854  0.2055
 1608SOL    HW116286   0.680   4.504   6.305  0.8833 -0.4078 -0.3606
 1608SOL    HW216287   0.696   4.578   6.428  1.5230  1.0997  0.8246
 1609SOL     OW16288   1.958   4.717   8.403  0.3812 -0.3998 -0.1645
 1609SOL    HW116289   2.037   0.040   8.420  1.3749 -1.8290 -0.6089
 1609SOL    HW216290   1.963   4.655   8.476  2.3361 -1.4558 -1.2025
 1610SOL     OW16291   2.082   4.040   6.449 -0.1887 -0.2212 -0.1084
 1610SOL    HW116292   2.009   3.995   6.491  0.8861  0.6706  2.7239
 1610SOL    HW216293   2.046   4.126   6.469 -0.8786 -0.5174 -0.0857
 1611SOL     OW16294   4.127   1.236  11.828 -0.2679 -0.2416 -0.0057
 1611SOL    HW116295   4.210   1.212  11.869  0.0619 -0.4006 -0.7696
 1611SOL    HW216296   4.107   1.324  11.862 -2.4605  0.3710 -2.7797
 1612SOL     OW16297   2.246   2.483   0.153  0.0762 -0.1838  0.1972
 1612SOL    HW116298   2.228   2.477   0.247  0.5812  0.1425  0.3165
 1612SOL    HW216299   2.338   2.456   0.153  0.2708  0.4563 -1.6691
 1613SOL     OW16300   0.862   1.640  13.241  0.3096 -0.3328  0.9734
 1613SOL    HW116301   0.957   1.653  13.230  0.5846 -2.2696  1.1383
 1613SOL    HW216302   0.845   1.723  13.287 -2.2080 -0.8153  0.8917
 1614SOL     OW16303   3.785   2.830   3.206 -0.4810 -0.1834  0.7666
 1614SOL    HW116304   3.739   2.869   3.132  0.0733 -1.9588 -0.5287
 1614SOL    HW216305   3.710   2.821   3.264 -0.0204  1.1543  1.5641
 1615SOL     OW16306   3.077   0.223  15.450  0.8251  0.0369  0.6163
 1615SOL    HW116307   3.069   0.314  15.478  0.0444 -0.4678  2.0188
 1615SOL    HW216308   3.133   0.240  15.374 -1.0997  2.9347 -0.1206
 1616SOL     OW16309   4.070   2.570   2.572  0.5189  0.3365  0.8053
 1616SOL    HW116310   4.039   2.657   2.596  1.7596  1.1091 -0.4064
 1616SOL    HW216311   4.093   2.588   2.480 -0.0627 -1.8438  0.2111
 1617SOL     OW16312   0.349   1.152   6.243 -0.5796 -0.3473 -0.2487
 1617SOL    HW116313   0.436   1.116   6.262  0.2559  3.2468  2.6413
 1617SOL    HW216314   0.362   1.180   6.153  0.0409  1.5139  0.4296
 1618SOL     OW16315   3.976   2.629   5.030 -0.5577 -0.4277 -0.2832
 1618SOL    HW116316   3.958   2.540   4.999  0.1882 -1.4118  2.1605
 1618SOL    HW216317   4.071   2.632   5.026 -0.5845  1.9096  0.9302
 1619SOL     OW16318   2.600   2.029   7.128 -0.4139  0.0062 -0.2246
 1619SOL    HW116319   2.563   1.993   7.048 -1.4976  1.2022 -0.2646
 1619SOL    HW216320   2.684   1.983   7.124 -0.5702 -0.2380 -0.6283
 1620SOL     OW16321   1.606   4.015   5.011  0.1764 -0.1962  0.0319
 1620SOL    HW116322   1.573   4.090   4.961 -0.1303 -0.0963  0.3885
 1620SOL    HW216323   1.687   4.007   4.960 -0.1853  0.8092 -0.7072
 1621SOL     OW16324   2.045   4.052   3.901  0.7089  0.1179 -0.2554
 1621SOL    HW116325   2.038   3.958   3.890 -2.8168  0.5639 -1.7811
 1621SOL    HW216326   2.124   4.057   3.848  0.4956  0.9049 -0.5073
 1622SOL     OW16327   0.423   1.053   3.982 -0.0940 -1.2908 -0.7165
 1622SOL    HW116328   0.392   1.118   3.919 -0.5151 -0.9436 -0.1434
 1622SOL    HW216329   0.449   1.112   4.052  0.1020 -0.3522 -1.5823
 1623SOL     OW16330   0.044   4.390   9.447 -0.1313  0.0629 -0.9709
 1623SOL    HW116331   0.037   4.307   9.400  1.0910 -0.3689 -0.4090
 1623SOL    HW216332   0.136   4.410   9.430  0.3095 -0.0628  1.2746
 1624SOL     OW16333   1.467   4.528   7.526 -0.0412 -0.1430  0.2796
 1624SOL    HW116334   1.527   4.602   7.514 -1.3633  0.9629  0.4683
 1624SOL    HW216335   1.478   4.475   7.447  0.5298 -0.6916  0.7339
 1625SOL     OW16336   3.736   1.986  16.341 -0.2604  0.1017 -0.0469
 1625SOL    HW116337   3.699   2.036  16.268  2.3371  2.2069  0.0547
 1625SOL    HW216338   3.716   1.900  16.305  0.8891  0.2958 -1.1828
 1626SOL     OW16339   1.369   1.378  17.666 -0.4255 -0.2466  0.1231
 1626SOL    HW116340   1.423   1.457  17.663  1.5632 -1.6228 -0.7813
 1626SOL    HW216341   1.432   1.308  17.651 -0.5460  0.1879 -2.5040
 1627SOL     OW16342   0.837   2.697   4.480 -0.3326 -0.3754 -0.5975
 1627SOL    HW116343   0.808   2.745   4.402 -1.9171  1.4620  1.1307
 1627SOL    HW216344   0.843   2.607   4.448 -0.0170 -0.9808  1.1675
 1628SOL     OW16345   1.594   4.302  13.368  0.0766 -0.2963 -0.6193
 1628SOL    HW116346   1.576   4.208  13.370  1.1208 -0.5096 -1.1209
 1628SOL    HW216347   1.644   4.309  13.286 -0.4092 -1.4972 -1.0167
 1629SOL     OW16348   0.480   1.696   2.627 -0.0538  0.1994  0.3238
 1629SOL    HW116349   0.530   1.615   2.634  0.3589  0.5183  1.0535
 1629SOL    HW216350   0.432   1.690   2.710  0.7734  0.7187  0.8373
 1630SOL     OW16351   4.466   4.499  12.770 -0.3375  0.1089  0.5812
 1630SOL    HW116352   4.382   4.479  12.727 -0.4496  1.3940  0.1996
 1630SOL    HW216353   4.532   4.475  12.705 -1.6170 -0.9895 -0.3054
 1631SOL     OW16354   4.011   1.500  15.946 -0.7517 -0.1931 -0.2065
 1631SOL    HW116355   4.027   1.583  15.990 -1.2738  1.2145 -2.7226
 1631SOL    HW216356   3.916   1.505  15.955 -0.7295  0.5258 -0.4440
 1632SOL     OW16357   2.754   3.250  17.083  0.1169  0.5807  0.0317
 1632SOL    HW116358   2.780   3.282  16.997 -1.0167 -0.5208 -0.7296
 1632SOL    HW216359   2.701   3.173  17.059  0.4278  0.5504 -0.5557
 1633SOL     OW16360   3.770   0.937   4.197  0.6338 -0.3279  0.2187
 1633SOL    HW116361   3.863   0.925   4.180  0.7492  1.3804 -0.4030
 1633SOL    HW216362   3.735   0.865   4.250 -0.5864  0.3084  0.2856
 1634SOL     OW16363   4.649   2.909   6.928  0.0414  0.5957 -0.3520
 1634SOL    HW116364   4.637   2.969   6.855  1.2323  0.1380 -0.9363
 1634SOL    HW216365   4.708   2.838   6.899  1.0775  2.4068 -2.7005
 1635SOL     OW16366   4.516   1.472   1.487 -0.0967 -0.6345  1.0152
 1635SOL    HW116367   4.520   1.378   1.504  0.8873 -1.0172 -1.3459
 1635SOL    HW216368   4.494   1.505   1.574  1.0490  0.8962  0.7157
 1636SOL     OW16369   3.794   1.642   7.791  0.2774  0.4552 -0.1842
 1636SOL    HW116370   3.820   1.550   7.789  0.6669  0.6115 -1.9800
 1636SOL    HW216371   3.701   1.634   7.767 -0.1700  1.5790  1.1830
 1637SOL     OW16372   1.207   2.178   8.619 -0.5444  0.5316 -0.3171
 1637SOL    HW116373   1.227   2.162   8.711 -0.8980 -0.4699 -0.4223
 1637SOL    HW216374   1.292   2.162   8.579  0.1356  0.6124  1.0833
 1638SOL     OW16375   2.417   0.914   4.490  0.6455  0.5551 -0.5646
 1638SOL    HW116376   2.344   0.960   4.531  0.1488 -1.3136  0.6540
 1638SOL    HW216377   2.447   0.859   4.562 -2.7130 -0.6594 -0.1001
 1639SOL     OW16378   1.893   1.764   5.697 -0.2857 -0.3173  0.0242
 1639SOL    HW116379   1.873   1.671   5.706 -3.5405  0.2982 -0.8778
 1639SOL    HW216380   1.982   1.765   5.733 -0.4119  0.0984  0.3219
 1640SOL     OW16381   2.386   0.778   7.142 -0.6060  0.2655 -0.4573
 1640SOL    HW116382   2.379   0.871   7.165 -0.4271  0.7327 -2.2490
 1640SOL    HW216383   2.297   0.753   7.168 -0.9808  1.3487 -0.6873
 1641SOL     OW16384   4.514   2.906   4.619 -0.3010  0.6659  0.5930
 1641SOL    HW116385   4.486   2.920   4.529 -0.5826 -1.2284  0.3967
 1641SOL    HW216386   4.582   2.974   4.624  0.7953 -0.4152  0.4563
 1642SOL     OW16387   3.693   4.018   7.681 -0.3116 -0.1794 -0.6617
 1642SOL    HW116388   3.663   4.090   7.736 -0.6014 -0.6406 -0.2098
 1642SOL    HW216389   3.722   4.064   7.602 -0.5175  0.8416 -0.1450
 1643SOL     OW16390   2.934   2.438   9.045  0.0102 -0.4070  0.3698
 1643SOL    HW116391   2.874   2.478   8.982 -0.8317  2.3123  2.8601
 1643SOL    HW216392   3.006   2.493   9.013  2.1000 -3.1451  0.3468
 1644SOL     OW16393   1.908   1.334   7.011 -0.5796 -0.1491  0.3398
 1644SOL    HW116394   1.950   1.419   6.996  1.4390 -1.2041 -0.0062
 1644SOL    HW216395   1.951   1.338   7.097 -0.6604 -1.4119  0.4257
 1645SOL     OW16396   1.565   1.790  13.569  0.3889  0.5673  0.4912
 1645SOL    HW116397   1.512   1.869  13.558 -1.6360 -0.6759  1.3867
 1645SOL    HW216398   1.540   1.758  13.656  0.0884 -1.2864 -0.2765
 1646SOL     OW16399   1.958   2.773   6.420 -0.3626  0.4505  0.3643
 1646SOL    HW116400   2.014   2.751   6.495  1.1165  3.3725  0.1117
 1646SOL    HW216401   1.904   2.839   6.463 -0.2353 -0.1204  1.4025
 1647SOL     OW16402   3.190   4.662  11.868 -0.1159 -0.0313 -0.1991
 1647SOL    HW116403   3.107   4.676  11.914 -0.2721 -1.7251  0.0654
 1647SOL    HW216404   3.254   4.675  11.938 -0.4557  0.1114  0.0899
 1648SOL     OW16405   2.638   1.578  15.822 -0.5576  0.4835 -0.0157
 1648SOL    HW116406   2.672   1.537  15.743 -0.6511  1.6440 -0.6652
 1648SOL    HW216407   2.584   1.509  15.860  0.2613 -0.6575 -0.9084
 1649SOL     OW16408   2.453   0.313  11.221  0.4598 -0.3126  0.2037
 1649SOL    HW116409   2.428   0.401  11.249  0.2745  0.0748 -1.1688
 1649SOL    HW216410   2.459   0.265  11.303 -0.0662 -0.1130  0.3590
 1650SOL     OW16411   3.684   3.754   7.438 -0.6101  0.5540  0.5796
 1650SOL    HW116412   3.674   3.704   7.519  0.8443 -1.1058 -0.2799
 1650SOL    HW216413   3.766   3.796   7.465 -0.4499  1.3953 -1.2255
 1651SOL     OW16414   1.176   2.042   9.066  1.0704  0.3753 -0.2476
 1651SOL    HW116415   1.120   2.092   9.126  0.0414 -1.8893  0.6798
 1651SOL    HW216416   1.122   1.974   9.027 -0.4763  0.8573  1.0661
 1652SOL     OW16417   1.303   0.330   8.279  0.0876  0.0203 -0.7526
 1652SOL    HW116418   1.310   0.239   8.249 -2.1130 -1.1653  2.2945
 1652SOL    HW216419   1.236   0.313   8.346  0.9544  0.6629  0.2775
 1653SOL     OW16420   2.744   4.528  17.416 -0.0120  0.6831 -0.4731
 1653SOL    HW116421   2.659   4.570  17.404 -0.8193 -0.6932  0.3785
 1653SOL    HW216422   2.715   4.474  17.490 -0.4229  2.0298  0.3607
 1654SOL     OW16423   3.059   1.496   1.962 -0.2812 -0.4251  0.5386
 1654SOL    HW116424   3.054   1.401   1.955  1.9442 -0.1168 -4.3807
 1654SOL    HW216425   3.076   1.524   1.873  0.0935 -1.2872  0.3392
 1655SOL     OW16426   0.748   1.403   3.308  0.2966 -0.2582 -0.0640
 1655SOL    HW116427   0.666   1.374   3.269 -0.3100  0.0621  0.9951
 1655SOL    HW216428   0.803   1.423   3.232 -0.4044  0.2999 -0.4247
 1656SOL     OW16429   1.142   0.823   4.345  0.0190 -0.1218  0.6015
 1656SOL    HW116430   1.065   0.861   4.388 -0.9392 -1.5921  0.1552
 1656SOL    HW216431   1.207   0.894   4.349 -0.6465  0.5776 -0.9707
 1657SOL     OW16432   2.741   2.695   7.930 -0.0805  0.0015 -0.0809
 1657SOL    HW116433   2.787   2.616   7.905 -1.0891 -0.4908 -0.3852
 1657SOL    HW216434   2.652   2.659   7.937  0.6930 -1.6415  1.0532
 1658SOL     OW16435   3.076   3.130   2.070  0.6559 -0.8517 -0.0106
 1658SOL    HW116436   3.000   3.157   2.018  1.2738 -0.1116 -0.5234
 1658SOL    HW216437   3.090   3.037   2.056 -2.3876 -1.1547 -0.9448
 1659SOL     OW16438   2.658   3.495   5.628 -0.2681 -0.1123  0.1119
 1659SOL    HW116439   2.578   3.517   5.676 -1.2022 -1.1542 -0.9764
 1659SOL    HW216440   2.726   3.490   5.696  1.3576  0.2924 -1.4610
 1660SOL     OW16441   0.839   1.758  12.959 -0.2355 -0.3630  0.3652
 1660SOL    HW116442   0.831   1.797  13.046 -0.2379  2.0486 -0.7209
 1660SOL    HW216443   0.755   1.793  12.928  0.6129  2.1060  0.8463
 1661SOL     OW16444   0.843   4.144  12.154 -0.8578 -0.1999  0.0263
 1661SOL    HW116445   0.859   4.208  12.085  2.2795 -1.4015 -0.3639
 1661SOL    HW216446   0.803   4.197  12.223 -0.4470 -1.5586  1.3180
 1662SOL     OW16447   0.699   0.070   9.138  0.0357  0.1864 -0.6439
 1662SOL    HW116448   0.697   0.097   9.046  1.8670 -0.1537 -0.7817
 1662SOL    HW216449   0.700   4.702   9.130  1.4891  0.1063  0.5193
 1663SOL     OW16450   0.719   2.966   4.552 -0.4632  0.3478  0.1790
 1663SOL    HW116451   0.637   2.955   4.504 -1.0096  0.7424  1.0339
 1663SOL    HW216452   0.782   2.979   4.481 -0.6218  3.0889  0.5491
 1664SOL     OW16453   4.202   2.000   3.433 -0.2642  0.6378  0.1999
 1664SOL    HW116454   4.176   2.061   3.502 -1.4082  1.3069 -0.8273
 1664SOL    HW216455   4.200   1.913   3.474  1.4291  0.8270  0.6951
 1665SOL     OW16456   1.047   3.948   7.269  0.4718 -0.0587 -0.1448
 1665SOL    HW116457   1.014   3.901   7.192 -3.3126  0.3101  1.2069
 1665SOL    HW216458   0.972   4.006   7.282  0.5953 -0.5944  2.9266
 1666SOL     OW16459   3.350   1.221   6.424  0.3783  0.1205 -0.6813
 1666SOL    HW116460   3.416   1.216   6.493 -0.8385  2.1437  0.6360
 1666SOL    HW216461   3.289   1.272   6.478  1.4319 -0.1241  0.7234
 1667SOL     OW16462   0.327   0.988   2.419 -0.1494  0.3404  0.2033
 1667SOL    HW116463   0.319   0.951   2.331  0.1978 -3.1075  1.6210
 1667SOL    HW216464   0.243   1.034   2.425 -0.3462  0.0117 -0.0279
 1668SOL     OW16465   0.996   4.146   1.851  0.5132 -0.5786 -0.7359
 1668SOL    HW116466   1.002   4.227   1.901  2.3854 -1.8480  1.0738
 1668SOL    HW216467   0.900   4.146   1.853  0.5983 -2.8014  1.8935
 1669SOL     OW16468   0.473   0.258  14.310  1.0154  0.6397 -0.6618
 1669SOL    HW116469   0.493   0.347  14.341 -1.5265  0.7446  0.6557
 1669SOL    HW216470   0.454   0.215  14.393 -0.9933  3.2440  0.2432
 1670SOL     OW16471   0.264   1.078   3.502 -0.0833 -0.2693  0.4463
 1670SOL    HW116472   0.335   1.030   3.459 -2.0177 -1.0029 -1.9317
 1670SOL    HW216473   0.315   1.121   3.570  0.8969 -0.7436  0.0117
 1671SOL     OW16474   1.645   1.281   0.410  0.0356  0.1294 -0.6449
 1671SOL    HW116475   1.589   1.356   0.431  1.5647  0.7805  1.0865
 1671SOL    HW216476   1.727   1.328   0.395  1.0608 -0.6620  2.5681
 1672SOL     OW16477   4.490   4.252   9.983 -0.2763  0.3591  0.1632
 1672SOL    HW116478   4.460   4.316   9.918 -0.7481  0.0386  0.0627
 1672SOL    HW216479   4.544   4.311  10.035 -0.6717  0.2482  0.7047
 1673SOL     OW16480   3.527   0.930   2.164 -0.3541 -0.2666  0.3969
 1673SOL    HW116481   3.532   1.025   2.159 -1.1755 -0.0785  2.8609
 1673SOL    HW216482   3.435   0.919   2.139 -0.4648  0.8840  0.3153
 1674SOL     OW16483   1.868   4.187   5.182 -0.2423  0.1179 -0.1505
 1674SOL    HW116484   1.782   4.216   5.213 -1.1111 -0.1340 -2.3267
 1674SOL    HW216485   1.846   4.130   5.108  0.1646 -1.1566  0.7157
 1675SOL     OW16486   4.020   0.669   2.668 -0.3867  0.0065 -0.5272
 1675SOL    HW116487   4.075   0.690   2.593  0.2782 -1.1630 -0.3801
 1675SOL    HW216488   3.992   0.758   2.686  0.7201  0.3098 -0.3429
 1676SOL     OW16489   2.091   1.958   1.371 -0.0848 -0.4157 -0.2039
 1676SOL    HW116490   2.172   2.007   1.380 -1.6876  2.3172 -0.6486
 1676SOL    HW216491   2.097   1.900   1.447  0.5543  1.0878  0.8653
 1677SOL     OW16492   3.639   4.527   9.104  0.3102  0.3824  0.1939
 1677SOL    HW116493   3.564   4.503   9.159  0.9932 -0.5595  0.7261
 1677SOL    HW216494   3.628   4.621   9.111 -1.0900  0.1977  0.4159
 1678SOL     OW16495   1.867   4.561   7.476  0.3887 -0.5268 -0.3335
 1678SOL    HW116496   1.957   4.533   7.490  0.1134 -1.5987 -0.6987
 1678SOL    HW216497   1.868   4.640   7.531  1.9580 -1.0937  0.4514
 1679SOL     OW16498   2.745   2.829   6.750 -0.0318 -0.0025  0.0947
 1679SOL    HW116499   2.762   2.849   6.658  1.0023  1.2620  0.5701
 1679SOL    HW216500   2.781   2.911   6.785 -0.4895 -1.2215  3.3741
 1680SOL     OW16501   2.403   4.165   0.741  0.3547  0.2668  0.3238
 1680SOL    HW116502   2.424   4.085   0.693 -0.8254  0.8678 -1.1809
 1680SOL    HW216503   2.445   4.161   0.828  1.1734 -0.5005 -0.1084
 1681SOL     OW16504   3.001   0.950   8.999  0.0411  0.4366 -0.0179
 1681SOL    HW116505   3.064   0.879   8.993  0.7978  1.0421  0.7127
 1681SOL    HW216506   2.917   0.912   9.027 -1.1659  2.6547 -0.5879
 1682SOL     OW16507   3.729   1.646   4.481  0.0566  0.3886 -0.3174
 1682SOL    HW116508   3.768   1.727   4.449 -2.3658  0.9510 -1.8178
 1682SOL    HW216509   3.764   1.644   4.570 -1.4653  2.6822  0.3128
 1683SOL     OW16510   3.447   3.427  15.380  0.2941 -0.2937  0.0379
 1683SOL    HW116511   3.474   3.356  15.321  0.1983 -0.7018  0.4767
 1683SOL    HW216512   3.453   3.503  15.323  0.1572 -1.1692 -1.1440
 1684SOL     OW16513   2.247   0.438   4.569  0.5588  0.0538 -0.4519
 1684SOL    HW116514   2.269   0.506   4.506  0.0914 -1.8173 -2.6540
 1684SOL    HW216515   2.335   0.400   4.564  0.1138 -0.7076 -2.2717
 1685SOL     OW16516   1.631   2.846   3.934  0.2290  0.2872 -0.0302
 1685SOL    HW116517   1.623   2.797   4.016 -1.9066 -2.1635 -1.6937
 1685SOL    HW216518   1.725   2.864   3.923 -0.1561  2.6111  0.5905
 1686SOL     OW16519   3.417   1.004  13.836 -0.0513  0.2354 -0.1367
 1686SOL    HW116520   3.322   0.989  13.837 -0.0071 -0.0095  0.1189
 1686SOL    HW216521   3.448   0.924  13.877 -0.4995  0.5793  0.8577
 1687SOL     OW16522   0.222   0.860   4.095 -0.2846 -0.1534 -0.1919
 1687SOL    HW116523   0.248   0.856   4.187 -0.7266  3.9148  0.1053
 1687SOL    HW216524   0.281   0.923   4.054 -0.0652 -0.6429 -0.6357
 1688SOL     OW16525   4.343   1.115  12.878  0.0075 -0.4199 -0.2818
 1688SOL    HW116526   4.336   1.090  12.970 -2.6891 -1.7070 -0.8423
 1688SOL    HW216527   4.391   1.197  12.891  1.8296 -1.5059 -0.3090
 1689SOL     OW16528   4.595   1.052   5.997 -0.3683  0.1826 -0.2756
 1689SOL    HW116529   4.594   1.089   5.909  0.9420  0.0399 -0.3420
 1689SOL    HW216530   4.628   0.964   5.979  0.2970 -0.3638  3.5858
 1690SOL     OW16531   2.999   0.195   6.762 -0.0046  0.9182  0.3934
 1690SOL    HW116532   3.074   0.180   6.703  1.2112  0.0186  2.1606
 1690SOL    HW216533   2.939   0.247   6.709  1.2732  1.9618 -0.0416
 1691SOL     OW16534   4.695   4.030   2.871 -0.1708  0.3350  0.0948
 1691SOL    HW116535   4.727   4.075   2.793  2.5586 -0.8011  0.5519
 1691SOL    HW216536   4.727   4.077   2.948  0.4698 -1.5131  0.9578
 1692SOL     OW16537   1.349   4.015   8.284 -0.5988  0.3466  0.3766
 1692SOL    HW116538   1.311   3.992   8.369 -0.1037 -1.0445  0.2185
 1692SOL    HW216539   1.299   3.962   8.222 -0.6580 -0.6768  1.2787
 1693SOL     OW16540   0.954   0.129   2.484  0.3819  0.1386 -0.0932
 1693SOL    HW116541   0.932   0.053   2.539  1.9072  0.5756  1.1334
 1693SOL    HW216542   0.919   0.203   2.534 -1.4925  0.1816 -1.4628
 1694SOL     OW16543   2.070   2.012   2.342  0.1140  0.2101 -0.6501
 1694SOL    HW116544   2.145   2.070   2.349  2.5584 -2.9728 -0.6212
 1694SOL    HW216545   2.048   2.013   2.435  0.7890  2.1862 -0.5104
 1695SOL     OW16546   1.505   1.410   5.469 -0.1850 -0.2973 -0.6132
 1695SOL    HW116547   1.413   1.409   5.442 -1.1618  1.5806  2.6029
 1695SOL    HW216548   1.495   1.381   5.560 -2.0722  0.0371 -0.7093
 1696SOL     OW16549   2.653   4.223   4.069 -0.0833  0.2506  0.1339
 1696SOL    HW116550   2.609   4.169   4.003  0.0380  0.3115  0.0031
 1696SOL    HW216551   2.581   4.283   4.089 -1.4170 -0.8403 -1.4093
 1697SOL     OW16552   0.726   4.180   1.866  0.1986 -0.4949 -0.2678
 1697SOL    HW116553   0.690   4.213   1.949  0.3339 -0.2848 -0.2945
 1697SOL    HW216554   0.662   4.214   1.803 -1.9730  0.6764  2.5655
 1698SOL     OW16555   3.051   4.541   5.101 -0.0640 -0.3628  0.4281
 1698SOL    HW116556   3.102   4.481   5.154  1.7130  0.2756 -0.5402
 1698SOL    HW216557   3.012   4.588   5.175 -2.3907  1.0290 -1.6519
 1699SOL     OW16558   3.867   3.073  11.831 -0.3731 -0.4206 -0.3294
 1699SOL    HW116559   3.819   3.154  11.818  0.5911  0.2446  0.2560
 1699SOL    HW216560   3.848   3.027  11.749 -0.3533  0.5291 -0.8622
 1700SOL     OW16561   1.802   1.540   0.900  0.1064 -0.1635  0.6549
 1700SOL    HW116562   1.727   1.600   0.905 -0.9438 -1.3064 -0.9636
 1700SOL    HW216563   1.838   1.538   0.988 -1.5728  0.4053  1.3585
 1701SOL     OW16564   1.331   2.654   2.692  0.4283  0.2226  0.4572
 1701SOL    HW116565   1.248   2.702   2.697  0.2874 -0.1345  1.4423
 1701SOL    HW216566   1.295   2.569   2.668 -0.4535  0.2414  1.7180
 1702SOL     OW16567   0.595   1.246   4.197 -0.5416 -0.0200 -0.0201
 1702SOL    HW116568   0.645   1.199   4.131 -1.7406  1.6998 -2.1431
 1702SOL    HW216569   0.596   1.338   4.172  1.1286 -0.0013  0.1011
 1703SOL     OW16570   3.328   2.770   3.976 -0.0156 -0.1109 -0.2267
 1703SOL    HW116571   3.340   2.768   3.881  0.3048 -0.1442 -0.1873
 1703SOL    HW216572   3.362   2.857   3.998  0.4495 -0.2812 -0.2741
 1704SOL     OW16573   2.170   1.095  13.929  0.0159  0.3653 -0.1336
 1704SOL    HW116574   2.195   1.162  13.864 -0.6307  2.8525  2.1736
 1704SOL    HW216575   2.097   1.139  13.974 -0.1740 -1.1800  1.0377
 1705SOL     OW16576   1.729   3.857   5.913 -0.2135 -0.5990 -0.0850
 1705SOL    HW116577   1.691   3.794   5.851 -2.3454  0.7616 -0.1684
 1705SOL    HW216578   1.735   3.939   5.864  0.0488 -0.5173  0.0893
 1706SOL     OW16579   0.812   4.450   8.110 -0.1529  0.3709  0.1023
 1706SOL    HW116580   0.844   4.535   8.082  0.3490  0.2639  0.3611
 1706SOL    HW216581   0.871   4.391   8.064 -0.8494 -0.6653  0.5270
 1707SOL     OW16582   2.313   3.908   4.698  0.4071 -0.3506 -0.3183
 1707SOL    HW116583   2.248   3.841   4.676 -0.8132  0.7188 -0.0020
 1707SOL    HW216584   2.388   3.852   4.716  1.2112  0.7438 -0.2975
 1708SOL     OW16585   1.897   2.192  14.268 -0.1897 -0.3212 -0.6135
 1708SOL    HW116586   1.864   2.107  14.239 -0.0419 -0.7824  0.5571
 1708SOL    HW216587   1.935   2.171  14.353  0.7719  2.8858 -0.2540
 1709SOL     OW16588   2.714   4.034   8.310  0.5557 -0.0877 -0.1273
 1709SOL    HW116589   2.790   4.084   8.338 -0.0500  1.1343 -0.6898
 1709SOL    HW216590   2.658   4.105   8.278  1.3097  0.1474 -0.9253
 1710SOL     OW16591   1.422   1.512  14.670  0.3162 -0.0060  0.1802
 1710SOL    HW116592   1.415   1.417  14.669 -0.8432  0.0851 -0.6335
 1710SOL    HW216593   1.371   1.533  14.749  2.0437 -5.2692  2.7128
 1711SOL     OW16594   3.036   1.377   6.125  0.5627 -0.7666 -0.3317
 1711SOL    HW116595   2.980   1.341   6.193  0.7508 -0.1807  0.1305
 1711SOL    HW216596   2.982   1.387   6.047 -1.7987 -1.9575  1.1415
 1712SOL     OW16597   0.098   4.582  13.777 -0.1750 -0.1642  0.7079
 1712SOL    HW116598   0.140   4.625  13.703  0.4826 -3.6190 -0.9282
 1712SOL    HW216599   0.161   4.614  13.842  0.5163  2.1740 -1.1249
 1713SOL     OW16600   4.627   1.470  15.324 -0.1584  0.2115  0.1157
 1713SOL    HW116601   4.709   1.431  15.295 -0.4101 -1.6438  1.9639
 1713SOL    HW216602   4.618   1.446  15.416  0.6379 -0.0796  0.1110
 1714SOL     OW16603   2.295   2.648   8.685  0.5029 -0.0810  0.6979
 1714SOL    HW116604   2.212   2.669   8.644  0.7827 -3.5733 -1.6399
 1714SOL    HW216605   2.302   2.553   8.672 -3.5832 -0.2738  0.0640
 1715SOL     OW16606   2.466   0.433  12.390 -0.0493 -0.9253 -0.0063
 1715SOL    HW116607   2.500   0.505  12.444 -1.5329 -0.0277 -0.2756
 1715SOL    HW216608   2.545   0.379  12.387 -0.4282 -1.4700  0.0018
 1716SOL     OW16609   0.856   2.650   6.693  0.1649  0.0094  0.1692
 1716SOL    HW116610   0.950   2.637   6.682  0.7809  2.5248  2.5050
 1716SOL    HW216611   0.826   2.567   6.655  1.9953 -0.8225  0.5381
 1717SOL     OW16612   2.194   2.392   8.642  0.3630  0.0537 -0.4949
 1717SOL    HW116613   2.193   2.300   8.617  0.2790 -0.0042 -0.2758
 1717SOL    HW216614   2.121   2.398   8.704  1.5270  1.0366  0.7987
 1718SOL     OW16615   3.458   3.024   7.746  0.4530 -0.0140 -0.2720
 1718SOL    HW116616   3.464   3.000   7.653 -0.9584  0.7617 -0.5668
 1718SOL    HW216617   3.520   3.096   7.744  1.0465 -0.4978  0.6657
 1719SOL     OW16618   0.569   3.534   4.944  0.2641 -0.2749 -0.0580
 1719SOL    HW116619   0.517   3.587   4.883  0.0353  0.1483  0.5029
 1719SOL    HW216620   0.533   3.554   5.030 -0.0616  1.1620 -0.5363
 1720SOL     OW16621   2.637   1.721   1.866  0.3492 -0.0621 -0.3129
 1720SOL    HW116622   2.641   1.661   1.941  0.5355  0.8741  0.4273
 1720SOL    HW216623   2.542   1.723   1.855  0.1862 -2.6647  0.6506
 1721SOL     OW16624   1.173   0.126   4.964  0.4238 -0.2376 -0.5128
 1721SOL    HW116625   1.249   0.162   5.009 -2.1117  3.5034  0.8166
 1721SOL    HW216626   1.202   0.034   4.960 -0.2548 -0.4941  0.4150
 1722SOL     OW16627   1.415   1.609   8.519  0.1547  0.3181  0.3448
 1722SOL    HW116628   1.447   1.548   8.453 -1.3580 -0.0405 -0.0575
 1722SOL    HW216629   1.326   1.621   8.486 -0.2426 -0.2198  1.1977
 1723SOL     OW16630   1.154   0.113   3.374  0.0385 -0.0517 -0.1009
 1723SOL    HW116631   1.089   0.133   3.441 -0.2154  1.6085 -0.8383
 1723SOL    HW216632   1.223   0.175   3.400  0.8124 -0.0446 -2.1369
 1724SOL     OW16633   1.067   3.560  12.015  0.1759  0.2365  0.0999
 1724SOL    HW116634   1.060   3.468  12.039 -0.0130  0.1287 -0.3767
 1724SOL    HW216635   1.156   3.582  12.043 -0.3214  0.7078  1.3576
 1725SOL     OW16636   3.913   4.515  11.612  0.2777  0.3110 -0.2503
 1725SOL    HW116637   3.818   4.526  11.610  0.2367  0.2481  1.0433
 1725SOL    HW216638   3.923   4.472  11.697 -0.4420  1.7229  0.5584
 1726SOL     OW16639   4.138   2.235   5.386  0.1150 -0.2056  0.7380
 1726SOL    HW116640   4.205   2.244   5.319 -0.6457 -0.9722 -0.1138
 1726SOL    HW216641   4.102   2.324   5.392  1.0455  0.2407 -0.2492
 1727SOL     OW16642   3.253   3.314   5.860  0.1981 -0.3414 -0.4417
 1727SOL    HW116643   3.300   3.397   5.862  2.1722 -1.5528  2.3496
 1727SOL    HW216644   3.321   3.250   5.878 -0.0321 -0.2184  0.8561
 1728SOL     OW16645   1.869   3.995   6.753  0.5419 -0.3379  0.3409
 1728SOL    HW116646   1.848   3.906   6.780  0.3056 -0.6352 -0.8516
 1728SOL    HW216647   1.825   4.012   6.670  1.1317 -0.3818  0.0201
 1729SOL     OW16648   4.114   2.034   2.774  0.3521 -0.3822  0.1664
 1729SOL    HW116649   4.136   2.126   2.759 -1.9419  0.5205  2.4058
 1729SOL    HW216650   4.128   2.033   2.869 -0.7477 -1.4650  0.3149
 1730SOL     OW16651   3.712   0.451  15.012  0.1897  0.4815 -0.1507
 1730SOL    HW116652   3.707   0.515  15.083 -0.6059 -1.3121  1.4141
 1730SOL    HW216653   3.710   0.517  14.943  0.4999  2.9391  2.1823
 1731SOL     OW16654   4.655   0.712   6.559 -0.3861  0.3332  0.9276
 1731SOL    HW116655   4.667   0.805   6.539  0.5330  0.5139  2.3156
 1731SOL    HW216656   4.647   0.713   6.654 -1.0000 -0.9273  0.8749
 1732SOL     OW16657   2.575   1.021  13.720  0.0405 -0.0139 -0.3917
 1732SOL    HW116658   2.597   0.978  13.803  1.9841  1.2169 -0.2795
 1732SOL    HW216659   2.653   1.066  13.689  0.7945 -0.7919  0.3452
 1733SOL     OW16660   1.974   3.842   3.060 -0.3002  0.2545 -0.1809
 1733SOL    HW116661   2.022   3.791   2.996 -0.6933 -0.7230  0.3122
 1733SOL    HW216662   1.994   3.931   3.031  0.9622  0.2871  0.7809
 1734SOL     OW16663   2.849   3.193  15.782 -0.5287  0.3752 -0.1656
 1734SOL    HW116664   2.940   3.222  15.786 -0.5096  0.4205 -0.9870
 1734SOL    HW216665   2.805   3.260  15.836 -0.3505  0.4513 -0.1169
 1735SOL     OW16666   1.462   1.321   8.460  0.1653  0.1789  0.2547
 1735SOL    HW116667   1.497   1.238   8.494  1.4545  0.8178  0.4667
 1735SOL    HW216668   1.371   1.312   8.490  0.2643  0.1502  0.5498
 1736SOL     OW16669   1.046   4.685   1.668  0.5388  0.2241  0.3510
 1736SOL    HW116670   0.985   4.691   1.595  2.6025  0.0026 -1.4069
 1736SOL    HW216671   0.990   4.669   1.744 -0.2720  1.2224 -0.0388
 1737SOL     OW16672   2.379   0.114   3.344 -0.1301 -0.1759  0.2279
 1737SOL    HW116673   2.459   0.121   3.396 -1.0055  0.4675  1.5085
 1737SOL    HW216674   2.315   0.075   3.403  1.3142 -2.0169  0.5535
 1738SOL     OW16675   3.073   3.565  13.409  0.1678 -0.0762  0.5217
 1738SOL    HW116676   3.077   3.616  13.328 -0.4912  0.1242  0.6130
 1738SOL    HW216677   3.040   3.630  13.471  0.0717  0.0657  0.3218
 1739SOL     OW16678   1.098   3.153   4.921 -0.1995  0.2907  0.2219
 1739SOL    HW116679   1.103   3.148   4.825 -1.6004  1.1904  0.0942
 1739SOL    HW216680   1.056   3.239   4.927  1.3188  1.0029  0.5459
 1740SOL     OW16681   2.684   1.734   4.868 -0.1770 -0.1189 -0.5738
 1740SOL    HW116682   2.726   1.730   4.782 -1.3173 -0.8859 -1.0939
 1740SOL    HW216683   2.741   1.795   4.915 -0.1278  0.2464 -1.1025
 1741SOL     OW16684   0.820   1.090   6.604 -0.4609  0.0664  0.3155
 1741SOL    HW116685   0.753   1.068   6.668  0.4375 -0.4103  1.0814
 1741SOL    HW216686   0.879   1.016   6.618 -1.2877 -0.6858 -0.1602
 1742SOL     OW16687   3.725   2.211   1.717  0.2747 -0.0811  0.2883
 1742SOL    HW116688   3.808   2.164   1.707  0.6021  0.1809  1.6478
 1742SOL    HW216689   3.749   2.301   1.696 -0.5704 -0.0464 -0.5107
 1743SOL     OW16690   3.970   1.956   9.333  0.5926  0.1719 -0.2995
 1743SOL    HW116691   3.918   2.036   9.329  0.7459  0.3125  0.4118
 1743SOL    HW216692   3.970   1.947   9.429 -2.4538  2.3310 -0.1172
 1744SOL     OW16693   3.681   3.527   4.295  0.3350  0.0014 -0.2681
 1744SOL    HW116694   3.761   3.502   4.341  0.4772  0.1052 -0.4574
 1744SOL    HW216695   3.623   3.454   4.316  2.1436 -1.5310 -0.6143
 1745SOL     OW16696   4.340   2.976   1.550 -0.5911  0.2246  0.2661
 1745SOL    HW116697   4.368   2.952   1.639 -1.1894  0.7820  0.5978
 1745SOL    HW216698   4.430   2.997   1.522 -0.3359  0.0914  0.9873
 1746SOL     OW16699   0.022   2.138   6.436  0.5801  0.0989 -0.1769
 1746SOL    HW116700   4.712   2.169   6.353 -1.2594  0.0367  0.6296
 1746SOL    HW216701   0.080   2.212   6.455  0.3617  1.1048 -3.2910
 1747SOL     OW16702   4.192   1.501   4.574 -0.3024 -0.1907  0.4378
 1747SOL    HW116703   4.191   1.477   4.667  0.2896 -2.5472 -0.1662
 1747SOL    HW216704   4.281   1.534   4.566 -0.3051 -0.1022  0.7474
 1748SOL     OW16705   2.039   1.639   4.866  0.3858  0.6928  0.8599
 1748SOL    HW116706   1.976   1.711   4.869 -0.3569  0.1561 -1.5137
 1748SOL    HW216707   1.972   1.571   4.875 -0.9379  1.6097 -1.9295
 1749SOL     OW16708   0.340   3.907   5.821  0.3389  0.1433  0.1623
 1749SOL    HW116709   0.406   3.974   5.840 -1.6323  1.5186  2.1261
 1749SOL    HW216710   0.339   3.914   5.725  2.4316 -0.0353  0.1320
 1750SOL     OW16711   0.662   1.849   7.423 -0.1169 -0.3318 -0.5785
 1750SOL    HW116712   0.587   1.900   7.455  0.2594 -0.3714  0.3370
 1750SOL    HW216713   0.644   1.849   7.329 -0.6883 -0.9010 -0.4689
 1751SOL     OW16714   2.869   0.164   5.742  0.1914 -0.0409 -0.1099
 1751SOL    HW116715   2.852   0.108   5.818  2.5366 -1.5637 -0.7304
 1751SOL    HW216716   2.797   0.227   5.739 -0.8394 -1.3577 -2.7535
 1752SOL     OW16717   2.582   3.164   3.509  0.1898  0.6717  0.3140
 1752SOL    HW116718   2.572   3.098   3.440  4.0699 -1.8669  2.2037
 1752SOL    HW216719   2.541   3.238   3.465 -2.6664  0.0872  1.9835
 1753SOL     OW16720   4.394   3.753   7.683 -0.2803  0.9833 -0.2597
 1753SOL    HW116721   4.423   3.685   7.744  0.5305  2.0103  0.4879
 1753SOL    HW216722   4.300   3.736   7.681 -0.2323  0.9846 -2.3722
 1754SOL     OW16723   3.428   3.618   1.452 -0.2060 -0.3562 -0.0988
 1754SOL    HW116724   3.334   3.600   1.444 -0.0842 -1.1305  0.2510
 1754SOL    HW216725   3.447   3.659   1.368 -0.3465 -1.9593 -0.9120
 1755SOL     OW16726   2.375   0.302   1.876  0.4504 -0.2953  0.3053
 1755SOL    HW116727   2.351   0.237   1.809 -1.3517  0.3778  0.2800
 1755SOL    HW216728   2.470   0.300   1.866  0.7702  0.2496  3.3136
 1756SOL     OW16729   1.313   1.944  13.555 -0.6922  0.2067 -0.3804
 1756SOL    HW116730   1.331   1.918  13.645 -2.7828  0.0193 -0.0154
 1756SOL    HW216731   1.281   2.029  13.586 -0.2113 -0.2809  1.4357
 1757SOL     OW16732   2.027   3.773   1.813  0.0177 -0.1393 -0.3064
 1757SOL    HW116733   1.952   3.727   1.849 -0.2025  1.1291  0.8095
 1757SOL    HW216734   2.085   3.785   1.888  1.3808 -1.4353 -1.1475
 1758SOL     OW16735   2.197   3.217  12.044  0.2322 -0.0657  0.0581
 1758SOL    HW116736   2.274   3.248  11.995  0.3065 -0.1584  0.1157
 1758SOL    HW216737   2.204   3.251  12.133  2.5899 -0.8532  0.1974
 1759SOL     OW16738   1.756   1.776   2.925  0.0574 -0.5068 -0.5283
 1759SOL    HW116739   1.691   1.736   2.983  1.8076 -2.3941  0.1454
 1759SOL    HW216740   1.753   1.711   2.855 -1.0174  2.9729 -3.7248
 1760SOL     OW16741   3.451   4.228   8.398 -0.0549 -0.1144  0.2939
 1760SOL    HW116742   3.399   4.272   8.466  0.5376 -0.5918  1.0557
 1760SOL    HW216743   3.398   4.249   8.321 -1.0358  0.1138  1.0345
 1761SOL     OW16744   4.069   0.784   8.847  0.4879  0.2516 -0.4115
 1761SOL    HW116745   4.135   0.715   8.846 -0.9530 -1.1133 -1.6182
 1761SOL    HW216746   4.050   0.790   8.941 -0.2235 -2.6348 -0.3575
 1762SOL     OW16747   3.490   0.508   4.688  0.1240  0.4612  0.0408
 1762SOL    HW116748   3.571   0.559   4.692  0.5187  0.0753 -3.5760
 1762SOL    HW216749   3.460   0.527   4.599  1.8922  1.0769 -0.4177
 1763SOL     OW16750   0.391   1.443  12.564  0.1401  0.5614  0.1845
 1763SOL    HW116751   0.486   1.437  12.551  0.1502  0.7679  0.1679
 1763SOL    HW216752   0.382   1.415  12.655 -0.2606 -3.1671 -0.9614
 1764SOL     OW16753   1.340   0.798   5.905  0.3748 -0.0438  0.5695
 1764SOL    HW116754   1.403   0.741   5.948 -0.6735 -2.2552 -0.8195
 1764SOL    HW216755   1.353   0.882   5.949 -0.1114  1.3411 -1.9627
 1765SOL     OW16756   2.330   2.014  11.708 -0.2111 -0.6806  0.4459
 1765SOL    HW116757   2.355   2.049  11.623  2.7968 -0.0495  1.6037
 1765SOL    HW216758   2.353   1.922  11.694  0.8215 -0.4232  0.4679
 1766SOL     OW16759   2.879   4.308   4.347  0.5026 -0.0530 -0.2393
 1766SOL    HW116760   2.811   4.343   4.404  0.5893  0.2180 -0.2996
 1766SOL    HW216761   2.913   4.391   4.313  3.2807 -1.4172 -0.7421
 1767SOL     OW16762   1.638   1.116   0.866  0.6161  0.2105 -0.0264
 1767SOL    HW116763   1.699   1.188   0.848  0.8884  0.1637  0.7071
 1767SOL    HW216764   1.624   1.076   0.780 -0.1560  0.9387 -0.2379
 1768SOL     OW16765   0.136   2.839  10.654 -0.5517 -0.2226 -0.0895
 1768SOL    HW116766   0.193   2.810  10.726 -0.0572  1.2213  0.0894
 1768SOL    HW216767   0.116   2.762  10.600  1.2825 -3.3639  3.6810
 1769SOL     OW16768   0.013   4.029   1.623  0.2136 -0.3022 -0.8456
 1769SOL    HW116769   0.084   4.073   1.575  1.2491 -0.9657  0.0695
 1769SOL    HW216770   0.049   3.942   1.640 -1.4816 -0.4149  2.1681
 1770SOL     OW16771   4.662   2.471   8.095 -0.2999 -0.3457  0.3917
 1770SOL    HW116772   4.684   2.406   8.161 -0.6639 -0.9142 -0.0502
 1770SOL    HW216773   4.713   2.443   8.019 -0.9064 -0.5041  0.0435
 1771SOL     OW16774   0.172   1.567  16.803  0.1567 -0.4221 -0.2283
 1771SOL    HW116775   0.223   1.519  16.738 -0.9126  0.7961 -1.9685
 1771SOL    HW216776   0.093   1.515  16.793  0.2208 -0.2867 -1.5338
 1772SOL     OW16777   2.236   1.819  13.645 -0.2753  0.4881 -0.2563
 1772SOL    HW116778   2.185   1.850  13.570 -2.3429 -1.4066  0.3494
 1772SOL    HW216779   2.181   1.744  13.668  1.1548 -0.1286  1.1624
 1773SOL     OW16780   2.659   2.036   5.365 -0.7910 -0.0862 -0.4043
 1773SOL    HW116781   2.700   2.117   5.335  1.6138 -1.8033 -1.7272
 1773SOL    HW216782   2.574   2.031   5.321 -0.1750 -1.4116 -1.4303
 1774SOL     OW16783   0.852   1.489   5.351 -0.4530 -0.0887 -0.0552
 1774SOL    HW116784   0.930   1.439   5.375  0.0632  0.2798 -0.9572
 1774SOL    HW216785   0.791   1.417   5.334 -1.6545  1.0586 -0.5759
 1775SOL     OW16786   1.825   0.799   6.954  0.1479 -0.2939 -0.4106
 1775SOL    HW116787   1.876   0.760   6.883  1.1176 -2.6734  1.5839
 1775SOL    HW216788   1.754   0.736   6.970 -0.7317  0.6340 -0.6306
 1776SOL     OW16789   0.919   0.305   3.458 -0.4523  0.3070  0.2981
 1776SOL    HW116790   0.828   0.329   3.443 -1.0621 -0.7766  2.3418
 1776SOL    HW216791   0.923   0.299   3.554 -0.2663 -2.2471  0.1316
 1777SOL     OW16792   4.379   1.399  16.042 -0.3087  0.1847 -0.3700
 1777SOL    HW116793   4.389   1.428  15.952 -1.4013 -2.2617 -1.2735
 1777SOL    HW216794   4.322   1.464  16.082 -1.4798 -0.6962 -0.6258
 1778SOL     OW16795   1.791   0.580  10.454  0.0842  0.9846 -0.1946
 1778SOL    HW116796   1.699   0.603  10.436 -0.1409 -1.3788 -2.1394
 1778SOL    HW216797   1.823   0.573  10.364 -0.5143  0.3014 -0.3625
 1779SOL     OW16798   3.850   0.017   7.070 -0.3923  0.0426 -0.4064
 1779SOL    HW116799   3.810   0.047   6.988 -0.0893 -1.6986 -1.1862
 1779SOL    HW216800   3.894   0.100   7.089 -1.2096  0.3205  0.2715
 1780SOL     OW16801   3.910   3.794   5.995 -0.0475 -0.5301  0.0253
 1780SOL    HW116802   3.916   3.888   5.982  0.1827 -0.5830 -0.2432
 1780SOL    HW216803   3.936   3.782   6.087 -0.4123 -1.1183  0.0508
 1781SOL     OW16804   2.870   1.924  12.217  0.0953  0.6898  0.1671
 1781SOL    HW116805   2.902   1.881  12.297  0.5868 -1.5868 -1.2613
 1781SOL    HW216806   2.945   1.903  12.162 -0.7644  0.8724 -1.0813
 1782SOL     OW16807   1.461   1.863  10.949 -0.3837 -0.2797 -0.3068
 1782SOL    HW116808   1.553   1.859  10.971 -0.0371 -0.0120 -1.6774
 1782SOL    HW216809   1.439   1.770  10.958  3.8048 -1.1020  1.0168
 1783SOL     OW16810   2.711   4.497   3.321  0.0392 -0.8531  0.0466
 1783SOL    HW116811   2.768   4.533   3.253  0.9365 -0.0338  1.2360
 1783SOL    HW216812   2.725   4.551   3.399 -2.3716 -1.6975  1.0523
 1784SOL     OW16813   1.380   1.500   3.218  0.2393 -0.0788  0.1119
 1784SOL    HW116814   1.353   1.412   3.246  0.3893 -0.1640 -0.0094
 1784SOL    HW216815   1.396   1.499   3.124  1.7200 -4.1926  0.3903
 1785SOL     OW16816   0.309   2.659   4.188 -0.1597  0.1910  0.3307
 1785SOL    HW116817   0.361   2.708   4.124  1.3127  0.1906  1.5266
 1785SOL    HW216818   0.311   2.715   4.266  1.0950 -0.0790  0.4965
 1786SOL     OW16819   2.434   3.451   7.619 -0.1961  0.1742  0.3783
 1786SOL    HW116820   2.429   3.363   7.657 -0.4684 -0.1386 -0.3903
 1786SOL    HW216821   2.350   3.492   7.637  0.5356  1.2497  1.3537
 1787SOL     OW16822   0.166   2.554   2.468 -0.1254  0.1843  0.2386
 1787SOL    HW116823   0.127   2.468   2.457 -2.1727  1.0716  0.5732
 1787SOL    HW216824   0.251   2.544   2.426 -0.4811 -0.6719 -0.2624
 1788SOL     OW16825   3.212   0.851  14.268 -0.3985 -0.1753  0.6863
 1788SOL    HW116826   3.298   0.867  14.229  0.1479 -3.2624  0.6516
 1788SOL    HW216827   3.200   0.762  14.236 -0.9514  0.5225 -1.0555
 1789SOL     OW16828   2.072   4.608  16.973  0.4579 -0.3608 -0.4976
 1789SOL    HW116829   2.021   4.684  17.002  1.4077 -0.0926  0.4545
 1789SOL    HW216830   2.047   4.540  17.036  1.1427 -1.3375 -1.2719
 1790SOL     OW16831   4.647   1.455  16.842 -0.3967  0.4416  0.2834
 1790SOL    HW116832   4.554   1.455  16.823 -0.1482 -3.3901 -0.8647
 1790SOL    HW216833   4.672   1.368  16.874 -2.8691  0.2241  1.6077
 1791SOL     OW16834   0.740   4.227  10.250  0.3123 -0.0589 -0.2458
 1791SOL    HW116835   0.826   4.256  10.219 -0.1674 -1.0917 -2.5133
 1791SOL    HW216836   0.750   4.265  10.338  2.1392 -1.2516  0.0725
 1792SOL     OW16837   3.194   0.220   1.113  0.4245 -0.2244 -0.0895
 1792SOL    HW116838   3.280   0.235   1.151 -0.1841 -0.3674  1.3459
 1792SOL    HW216839   3.216   0.187   1.026  3.0393 -0.9254  0.8370
 1793SOL     OW16840   3.160   2.235  11.436 -0.2622  0.0166 -0.5820
 1793SOL    HW116841   3.219   2.253  11.509 -1.2955 -0.4501  0.3638
 1793SOL    HW216842   3.229   2.201  11.378  2.4638  0.7400  2.1855
 1794SOL     OW16843   3.984   3.470   1.737  0.4427  0.3254 -0.3334
 1794SOL    HW116844   3.983   3.527   1.660  1.5186  0.8882  0.0770
 1794SOL    HW216845   3.900   3.501   1.771  0.7575  0.2185  0.5660
 1795SOL     OW16846   2.576   0.878   6.768  0.1371  0.8420  0.1372
 1795SOL    HW116847   2.520   0.820   6.819  0.7117  0.2161  0.0577
 1795SOL    HW216848   2.635   0.819   6.721 -1.1236  0.4104 -0.9047
 1796SOL     OW16849   3.661   4.420   3.239  0.1762 -0.2468  0.5603
 1796SOL    HW116850   3.711   4.369   3.303  2.1667  0.8782 -0.0718
 1796SOL    HW216851   3.696   4.508   3.255 -1.1042 -0.0279  2.1299
 1797SOL     OW16852   1.001   4.213   5.233 -0.0959 -0.0703 -0.0046
 1797SOL    HW116853   1.092   4.184   5.236 -0.2041 -0.5057 -1.2039
 1797SOL    HW216854   0.957   4.135   5.199  0.3118 -0.4007  0.2184
 1798SOL     OW16855   1.359   1.126  13.285  0.0968 -0.6975 -0.3329
 1798SOL    HW116856   1.308   1.204  13.262 -0.4153 -1.2322 -1.0540
 1798SOL    HW216857   1.373   1.094  13.195  0.4349 -1.1123 -0.1312
 1799SOL     OW16858   2.678   1.235   4.767 -0.5135  0.4339 -0.3179
 1799SOL    HW116859   2.639   1.315   4.803 -1.6951 -0.3757  0.2008
 1799SOL    HW216860   2.593   1.215   4.726 -0.9283 -0.8040  1.1637
 1800SOL     OW16861   0.068   4.598  13.269 -0.3538 -0.0420 -0.0906
 1800SOL    HW116862   0.107   4.590  13.182 -0.3143 -2.8169  0.1684
 1800SOL    HW216863   0.054   4.503  13.273  0.8527 -0.2322 -0.1906
 1801SOL     OW16864   3.623   1.549   8.505 -0.0223  0.3863  0.4629
 1801SOL    HW116865   3.621   1.644   8.493 -1.7010  0.1703 -0.9548
 1801SOL    HW216866   3.548   1.532   8.447 -1.5076  2.6321  1.7139
 1802SOL     OW16867   2.364   1.928   8.458 -0.3647  0.1556 -0.2708
 1802SOL    HW116868   2.366   1.841   8.418 -0.3007  0.6672 -1.3886
 1802SOL    HW216869   2.380   1.899   8.548  0.1780  0.9343 -0.1111
 1803SOL     OW16870   0.852   4.674  13.112 -0.1006  0.4087 -0.1090
 1803SOL    HW116871   0.824   0.038  13.117 -0.0369  0.3927  0.6004
 1803SOL    HW216872   0.848   4.654  13.019  2.2222 -1.8831  0.2904
 1804SOL     OW16873   1.554   0.705  16.739  0.2511 -0.4197 -0.3863
 1804SOL    HW116874   1.520   0.722  16.651 -1.6970 -0.2519  0.3923
 1804SOL    HW216875   1.613   0.630  16.731  1.9909  0.8937  0.3166
 1805SOL     OW16876   4.594   2.283   1.689 -0.9641 -0.0886  0.6955
 1805SOL    HW116877   4.566   2.365   1.650  0.6383 -0.5452 -1.4295
 1805SOL    HW216878   4.670   2.313   1.738 -0.9947  1.8619 -0.4720
 1806SOL     OW16879   2.950   1.381   2.368  0.0173 -0.0018  0.0118
 1806SOL    HW116880   2.884   1.445   2.341 -0.4114 -1.3571 -2.1278
 1806SOL    HW216881   2.906   1.301   2.340 -0.9147  0.6050 -0.2818
 1807SOL     OW16882   1.143   2.833  10.161  0.5199  0.1630 -0.5995
 1807SOL    HW116883   1.132   2.813  10.068  3.4886  0.1946 -0.9571
 1807SOL    HW216884   1.051   2.834  10.187  0.5122  0.0382 -0.6206
 1808SOL     OW16885   0.005   3.859   5.586 -0.0502 -0.1067 -0.0360
 1808SOL    HW116886   4.686   3.778   5.563  0.7307  0.0201 -2.0658
 1808SOL    HW216887   0.086   3.849   5.537  0.0829 -1.7562  0.5268
 1809SOL     OW16888   3.007   4.011   6.052 -0.2972  0.7251  0.5189
 1809SOL    HW116889   3.076   3.979   6.111  1.4129  2.4744 -0.5159
 1809SOL    HW216890   2.999   4.101   6.084 -0.9812  0.4194  1.2104
 1810SOL     OW16891   0.491   2.299   5.876 -0.1854  0.5765  0.3192
 1810SOL    HW116892   0.562   2.247   5.916  0.5286  0.0393 -1.6720
 1810SOL    HW216893   0.536   2.339   5.802  0.4565 -1.2653 -0.3054
 1811SOL     OW16894   2.519   4.236   7.315  0.0711 -0.3390 -0.3108
 1811SOL    HW116895   2.433   4.231   7.274  0.1084  1.2981 -0.5986
 1811SOL    HW216896   2.541   4.145   7.330 -2.5011 -0.9292 -0.1909
 1812SOL     OW16897   2.797   1.715   6.572  0.0203 -0.3266 -0.7662
 1812SOL    HW116898   2.797   1.651   6.501 -0.4798  1.2312 -2.1522
 1812SOL    HW216899   2.717   1.700   6.623  0.2977  2.6867  0.5634
 1813SOL     OW16900   1.789   3.437   5.224 -0.1586  0.1438  0.0235
 1813SOL    HW116901   1.804   3.441   5.130 -1.3414 -4.0316 -0.3218
 1813SOL    HW216902   1.736   3.358   5.223 -0.7946  0.5802 -0.1668
 1814SOL     OW16903   3.866   1.786   3.775 -0.3984  0.4674 -0.3280
 1814SOL    HW116904   3.827   1.870   3.753  1.2823  1.0177 -1.1718
 1814SOL    HW216905   3.851   1.737   3.694 -0.4180  0.2311 -0.1808
 1815SOL     OW16906   3.952   4.315  11.796 -0.0409 -0.1911  0.7650
 1815SOL    HW116907   4.008   4.369  11.852  1.6026  0.0360 -1.0914
 1815SOL    HW216908   3.939   4.226  11.829 -1.2926 -0.3028  0.0001
 1816SOL     OW16909   1.687   2.125  15.520 -0.2415 -1.1551 -0.0574
 1816SOL    HW116910   1.743   2.185  15.471 -0.8887  1.2996  2.2036
 1816SOL    HW216911   1.726   2.134  15.607 -1.7228 -1.4384  0.6284
 1817SOL     OW16912   1.693   0.383   8.727 -0.5933  0.2043 -0.1269
 1817SOL    HW116913   1.784   0.406   8.747 -0.8773 -0.5654  2.0288
 1817SOL    HW216914   1.676   0.413   8.638 -1.7076 -2.9312 -0.9786
 1818SOL     OW16915   0.873   1.998   4.106  0.4184 -0.3257  0.7249
 1818SOL    HW116916   0.923   1.918   4.122 -0.6030 -1.1270 -0.0218
 1818SOL    HW216917   0.885   2.010   4.012  0.9842 -1.3594  0.6613
 1819SOL     OW16918   2.836   1.148  10.716  0.0614  0.8675  0.2087
 1819SOL    HW116919   2.830   1.061  10.755  1.7931  0.5177 -0.3248
 1819SOL    HW216920   2.870   1.203  10.786  2.0060 -0.8653  0.6152
 1820SOL     OW16921   3.236   2.863   6.306  0.0036 -0.4174  0.3066
 1820SOL    HW116922   3.253   2.782   6.258  2.7674 -0.8800  2.0209
 1820SOL    HW216923   3.245   2.826   6.394  0.1398 -1.2234 -0.0377
 1821SOL     OW16924   0.659   2.340   7.829  0.1369  0.0623 -0.5717
 1821SOL    HW116925   0.664   2.435   7.818  2.3772  0.3480  2.6792
 1821SOL    HW216926   0.752   2.324   7.850  0.0480 -1.0576 -1.0045
 1822SOL     OW16927   0.684   3.038   4.131 -0.3017  0.1262  0.5093
 1822SOL    HW116928   0.604   2.989   4.111  0.3602 -0.8837  0.2799
 1822SOL    HW216929   0.686   3.105   4.063  0.1266 -1.6832 -1.2730
 1823SOL     OW16930   3.440   0.042   2.569  0.2336  0.2169 -0.0744
 1823SOL    HW116931   3.366   4.720   2.533  2.2156 -2.7512 -0.0848
 1823SOL    HW216932   3.471   0.069   2.482 -0.7548  1.1338 -0.1371
 1824SOL     OW16933   3.542   4.576   1.102  0.9789  0.7793  0.5454
 1824SOL    HW116934   3.613   4.570   1.166 -0.3748 -0.9669  1.9084
 1824SOL    HW216935   3.486   4.640   1.145 -0.5917 -0.0420 -0.2857
 1825SOL     OW16936   1.288   1.660   1.952 -0.4818  0.3018 -0.5252
 1825SOL    HW116937   1.301   1.748   1.986 -0.4888  0.2230 -0.3208
 1825SOL    HW216938   1.357   1.663   1.886 -0.5034  0.5265 -0.5355
 1826SOL     OW16939   1.691   1.767   2.423  0.2632 -0.1674 -0.6945
 1826SOL    HW116940   1.786   1.758   2.423  0.4126  1.5103  0.5111
 1826SOL    HW216941   1.679   1.678   2.390  0.8559 -0.2331 -0.7307
 1827SOL     OW16942   0.285   0.466   6.672  0.3139 -0.1614 -0.6274
 1827SOL    HW116943   0.207   0.422   6.704 -1.8406  1.7159 -3.3249
 1827SOL    HW216944   0.338   0.473   6.752 -0.2988  3.2792 -0.5324
 1828SOL     OW16945   1.927   2.741  14.290  0.0383 -0.3292  0.4798
 1828SOL    HW116946   1.957   2.653  14.314 -2.1952 -1.2796 -0.2437
 1828SOL    HW216947   2.010   2.790  14.295 -0.5780  0.6621  0.9309
 1829SOL     OW16948   0.981   0.876   8.618 -0.0229  0.5486  0.5491
 1829SOL    HW116949   0.898   0.841   8.650  0.5749  0.5065  2.0354
 1829SOL    HW216950   0.953   0.950   8.565 -1.5463 -1.1271 -1.0159
 1830SOL     OW16951   3.494   3.571   7.013  0.4706  0.0845  0.2968
 1830SOL    HW116952   3.420   3.609   7.061  1.9959  1.1271  1.8335
 1830SOL    HW216953   3.452   3.544   6.932 -2.5101 -1.7544  2.4281
 1831SOL     OW16954   4.520   2.920   4.356 -0.2598 -0.6075 -0.5060
 1831SOL    HW116955   4.610   2.894   4.375 -0.6421 -1.2315  0.4308
 1831SOL    HW216956   4.508   2.857   4.285  0.2180 -0.9548 -0.2754
 1832SOL     OW16957   3.755   4.053  14.960 -0.5400 -0.0379 -0.1942
 1832SOL    HW116958   3.822   4.114  14.994 -2.3796  1.2927  1.0272
 1832SOL    HW216959   3.804   4.006  14.893  1.4595 -0.0592  1.2652
 1833SOL     OW16960   1.825   2.246   0.728 -0.7805 -0.0951  1.0541
 1833SOL    HW116961   1.764   2.183   0.689 -1.0920 -0.0770  1.5078
 1833SOL    HW216962   1.834   2.205   0.814  0.1805  1.0414  1.4937
 1834SOL     OW16963   4.641   4.398   8.435  0.2663  0.2922 -0.2604
 1834SOL    HW116964   4.713   4.425   8.492 -0.1565  1.9507 -0.5125
 1834SOL    HW216965   4.561   4.397   8.488 -0.0599  0.8178 -0.7378
 1835SOL     OW16966   1.929   2.174  12.035  0.5169  0.0178 -0.2271
 1835SOL    HW116967   1.922   2.183  12.129  2.7535 -1.4922  0.1019
 1835SOL    HW216968   1.842   2.162  11.999 -0.1081  0.5832  1.1164
 1836SOL     OW16969   3.113   4.656   8.196  0.3665  0.2897 -0.1052
 1836SOL    HW116970   3.058   4.581   8.218  1.6379 -1.8042 -4.1809
 1836SOL    HW216971   3.153   4.681   8.279  0.1492  2.7086 -0.7330
 1837SOL     OW16972   4.594   1.226   4.169 -0.1767 -0.4504 -0.2866
 1837SOL    HW116973   4.612   1.146   4.121  1.4699 -0.3083  0.0752
 1837SOL    HW216974   4.564   1.280   4.096  1.4416  1.4257  0.4054
 1838SOL     OW16975   1.387   0.645   4.422  0.0257 -0.3879  0.0830
 1838SOL    HW116976   1.347   0.685   4.499 -0.6148 -0.6176 -0.1311
 1838SOL    HW216977   1.324   0.677   4.358  1.5900 -1.9438 -2.2454
 1839SOL     OW16978   4.653   3.331   7.596 -0.1224  0.5836 -0.4007
 1839SOL    HW116979   4.696   3.406   7.555 -0.6735  2.0885  1.7350
 1839SOL    HW216980   4.722   3.265   7.583  0.6482  1.7259 -2.0011
 1840SOL     OW16981   0.179   2.074   9.022 -0.0370 -0.9502 -0.0073
 1840SOL    HW116982   0.101   2.023   9.044 -0.1738 -1.1280 -0.8731
 1840SOL    HW216983   0.170   2.151   9.078  0.4564 -1.2268  0.4526
 1841SOL     OW16984   3.529   3.803   4.491  0.0856  0.1567 -0.2438
 1841SOL    HW116985   3.565   3.726   4.447 -0.8111 -0.9080  0.8742
 1841SOL    HW216986   3.441   3.775   4.516 -0.1732  0.8754 -0.3535
 1842SOL     OW16987   4.715   2.298   8.751  0.1895 -0.0838  0.1763
 1842SOL    HW116988   0.068   2.247   8.756  1.2217  1.4528 -0.6567
 1842SOL    HW216989   4.720   2.317   8.657 -0.5341 -1.0837 -0.0624
 1843SOL     OW16990   1.490   3.078  10.462 -0.1446 -0.2321 -0.3900
 1843SOL    HW116991   1.562   3.081  10.399 -1.1450 -2.5684 -1.6588
 1843SOL    HW216992   1.495   2.989  10.498  1.8116  0.8807  2.1041
 1844SOL     OW16993   3.039   3.674   2.771 -0.1871 -0.2502 -0.3940
 1844SOL    HW116994   2.997   3.722   2.842 -1.2998 -0.1830 -1.1031
 1844SOL    HW216995   3.066   3.592   2.812 -0.3823  0.6370  1.5162
 1845SOL     OW16996   0.302   0.552   8.821  0.0168 -0.3925 -0.1065
 1845SOL    HW116997   0.255   0.570   8.740  0.5176  1.2035 -0.0405
 1845SOL    HW216998   0.336   0.463   8.805  0.1377 -0.2289 -0.7362
 1846SOL     OW16999   1.947   2.833   7.918 -0.0858  0.0940  0.3614
 1846SOL    HW117000   2.002   2.896   7.965 -0.7919  0.9603  0.0197
 1846SOL    HW217001   1.889   2.800   7.987 -1.9926  1.5626 -0.5769
 1847SOL     OW17002   1.554   4.135  13.723 -0.1740  0.8002  0.7054
 1847SOL    HW117003   1.608   4.190  13.667  0.6561  1.3153  2.0215
 1847SOL    HW217004   1.475   4.127  13.668  0.5205  1.3143 -0.3594
 1848SOL     OW17005   0.389   2.796   6.115  0.6628  0.4663 -0.6827
 1848SOL    HW117006   0.351   2.710   6.130  1.2548  0.8232  2.7990
 1848SOL    HW217007   0.469   2.765   6.073  0.4532  0.1648 -0.8630
 1849SOL     OW17008   1.345   0.788   8.540 -0.3416  0.2992  0.3896
 1849SOL    HW117009   1.359   0.695   8.557 -1.6964  0.3389  1.6936
 1849SOL    HW217010   1.325   0.821   8.627 -2.7298  1.8296 -0.7292
 1850SOL     OW17011   0.275   0.653  13.445  0.0977  0.3417 -0.0513
 1850SOL    HW117012   0.224   0.729  13.472 -0.2223  0.3313 -0.6419
 1850SOL    HW217013   0.223   0.610  13.377  1.7778  1.6643 -2.1660
 1851SOL     OW17014   2.654   2.167   8.819  0.0934 -0.1446 -0.3748
 1851SOL    HW117015   2.742   2.174   8.856  0.1926  0.2486 -0.6871
 1851SOL    HW217016   2.628   2.081   8.854 -0.8251 -0.0433 -0.7928
 1852SOL     OW17017   2.018   0.617   4.064  0.0087  0.6191  0.1591
 1852SOL    HW117018   1.946   0.606   4.127  0.3431  0.8399  0.5839
 1852SOL    HW217019   1.978   0.585   3.984 -0.7789 -2.7585  1.9015
 1853SOL     OW17020   3.371   3.295   5.520 -0.2465  0.2911 -0.2760
 1853SOL    HW117021   3.356   3.337   5.435  2.1492  0.8771 -0.4096
 1853SOL    HW217022   3.349   3.374   5.569  1.4036  0.1298  0.7196
 1854SOL     OW17023   1.442   1.713   6.918  0.2642 -0.4898 -0.2462
 1854SOL    HW117024   1.506   1.772   6.880  0.5011 -1.8492 -1.9046
 1854SOL    HW217025   1.482   1.628   6.903  1.0181 -0.2027  0.1472
 1855SOL     OW17026   0.237   2.349   3.576  0.1772 -0.4201  0.3863
 1855SOL    HW117027   0.225   2.263   3.616 -1.5707  0.3442  1.5504
 1855SOL    HW217028   0.163   2.389   3.622  1.4984  1.5471  0.7905
 1856SOL     OW17029   2.731   0.993   3.366 -0.2237  0.1607 -0.1422
 1856SOL    HW117030   2.761   1.011   3.456 -2.9724 -0.0412  0.8136
 1856SOL    HW217031   2.669   0.924   3.388 -0.5871  0.2006 -1.0681
 1857SOL     OW17032   3.201   3.997   6.257  0.0831 -0.1633  0.0313
 1857SOL    HW117033   3.229   4.082   6.224  3.0651 -1.6670 -1.3549
 1857SOL    HW217034   3.239   4.003   6.344  1.6700  0.4506 -0.7087
 1858SOL     OW17035   0.104   2.802  15.551 -0.0270 -0.5568 -0.1607
 1858SOL    HW117036   0.172   2.853  15.595 -1.0021 -0.1831  0.9120
 1858SOL    HW217037   0.084   2.855  15.475  1.8708 -0.3623 -0.5234
 1859SOL     OW17038   3.143   4.346   7.991 -0.2548 -0.3267 -0.2184
 1859SOL    HW117039   3.078   4.387   7.935 -1.3886 -0.8336  0.7252
 1859SOL    HW217040   3.115   4.254   7.986 -1.2935  0.1242 -2.7763
 1860SOL     OW17041   1.254   4.652   2.791  0.9849  0.1808  0.2930
 1860SOL    HW117042   1.237   4.564   2.756  0.5098  0.4865 -0.2416
 1860SOL    HW217043   1.236   4.637   2.884  0.1776 -2.5974 -0.3035
 1861SOL     OW17044   1.620   2.082   0.668  0.0838  0.5411 -0.2233
 1861SOL    HW117045   1.561   2.130   0.726  0.9867  0.0205  1.1117
 1861SOL    HW217046   1.637   2.002   0.717  2.0845  2.7395  2.6975
 1862SOL     OW17047   1.065   2.410   1.177  0.2703  0.4166 -0.1304
 1862SOL    HW117048   1.147   2.371   1.207 -0.9064 -1.2684  0.8946
 1862SOL    HW217049   1.082   2.440   1.088 -0.0058  0.6126 -0.1179
 1863SOL     OW17050   0.307   4.455   3.023  0.1882 -0.0387  0.3489
 1863SOL    HW117051   0.243   4.470   3.092  0.9829 -2.9678  1.7203
 1863SOL    HW217052   0.370   4.395   3.063  0.0885 -0.1530  0.3334
 1864SOL     OW17053   4.188   0.423   7.616 -0.6616  0.0862  0.1409
 1864SOL    HW117054   4.138   0.499   7.583  1.1283  1.4179  0.4956
 1864SOL    HW217055   4.123   0.363   7.651 -0.7131  0.1168  0.0980
 1865SOL     OW17056   4.076   1.065   8.370 -0.0545 -0.2604  0.2622
 1865SOL    HW117057   4.122   1.114   8.438 -2.2629  1.2435  0.6676
 1865SOL    HW217058   4.033   0.999   8.425 -0.9181 -0.7011 -0.9277
 1866SOL     OW17059   2.779   3.572  13.366 -0.4368  0.0868  0.2539
 1866SOL    HW117060   2.780   3.648  13.423  1.5553  1.5781 -1.8023
 1866SOL    HW217061   2.865   3.579  13.324  0.0471  1.4090  1.5047
 1867SOL     OW17062   1.654   0.487   1.587 -0.0973  0.3488  0.1466
 1867SOL    HW117063   1.581   0.512   1.531  0.2303  0.8888 -0.0322
 1867SOL    HW217064   1.663   0.565   1.642  1.2849  0.2575  0.0379
 1868SOL     OW17065   3.485   0.144   7.772 -0.1493  0.2463 -0.0662
 1868SOL    HW117066   3.413   0.206   7.761  0.9837  1.7705  1.1790
 1868SOL    HW217067   3.553   0.207   7.795 -0.7979  0.6598  0.6853
 1869SOL     OW17068   4.121   1.381   6.203  0.0559 -0.0955 -0.3645
 1869SOL    HW117069   4.123   1.432   6.284  0.7088  0.5605 -0.7888
 1869SOL    HW217070   4.210   1.345   6.207  0.7916  1.7648  0.3189
 1870SOL     OW17071   3.073   0.093   2.307  0.7183 -0.1948  0.5520
 1870SOL    HW117072   3.119   0.037   2.244  1.1108  1.2207 -0.4369
 1870SOL    HW217073   3.017   0.144   2.248  1.0420  1.9406  2.0768
 1871SOL     OW17074   0.293   2.935   0.109 -0.6465 -0.4109 -0.6433
 1871SOL    HW117075   0.270   3.018   0.067 -1.1194  0.6934  1.7549
 1871SOL    HW217076   0.384   2.948   0.134 -0.6806  1.6585 -1.5650
 1872SOL     OW17077   2.272   1.488   2.907  0.1820  0.1195  0.1403
 1872SOL    HW117078   2.191   1.527   2.874  0.9840  1.0636 -0.7042
 1872SOL    HW217079   2.344   1.549   2.893  0.2656 -0.1506 -0.6043
 1873SOL     OW17080   0.404   1.523   9.090 -0.3440  0.3274  0.1810
 1873SOL    HW117081   0.446   1.470   9.023  0.5998  3.2681 -1.5876
 1873SOL    HW217082   0.473   1.554   9.149 -1.1571 -1.0945  1.8766
 1874SOL     OW17083   1.540   0.003   4.033  0.3469  0.3195  0.0281
 1874SOL    HW117084   1.627   0.043   4.035 -0.0207  1.0858  0.9026
 1874SOL    HW217085   1.514   0.011   4.125 -1.3765  0.4556 -0.4688
 1875SOL     OW17086   3.180   0.324  12.007  0.2000 -0.1048 -0.3362
 1875SOL    HW117087   3.195   0.260  11.937  1.8731  1.0336 -1.0221
 1875SOL    HW217088   3.270   0.322  12.040  0.0959  1.8516  0.0666
 1876SOL     OW17089   0.492   1.566   0.028 -0.1675  0.2950  0.6374
 1876SOL    HW117090   0.468   1.613  17.658  2.8482 -0.4465 -0.6722
 1876SOL    HW217091   0.587   1.570   0.024 -0.2306 -0.2260 -1.1397
 1877SOL     OW17092   0.413   3.916   2.959 -0.2463  0.0621 -0.5084
 1877SOL    HW117093   0.365   3.997   2.975  0.5568  0.5263 -0.4629
 1877SOL    HW217094   0.357   3.842   2.981 -1.2287  0.9461 -0.0643
 1878SOL     OW17095   2.382   4.420  10.120  0.0508 -0.3392  0.3655
 1878SOL    HW117096   2.439   4.425  10.197  1.2267  2.2399 -0.6658
 1878SOL    HW217097   2.422   4.347  10.075 -0.9104 -1.0197  0.6177
 1879SOL     OW17098   3.144   1.473  17.173  0.2307  0.1525 -0.0550
 1879SOL    HW117099   3.142   1.511  17.085 -0.0922 -0.2902 -0.2370
 1879SOL    HW217100   3.163   1.549  17.229  1.2300  0.4371 -0.7824
 1880SOL     OW17101   1.888   3.090   7.178  0.0841 -0.1974 -0.3758
 1880SOL    HW117102   1.842   3.133   7.250  2.1120  0.1699  0.7214
 1880SOL    HW217103   1.837   3.010   7.165 -1.5762  0.6570  0.9365
 1881SOL     OW17104   4.152   0.097   2.149  0.0257 -0.3012  0.8237
 1881SOL    HW117105   4.235   0.071   2.187  0.1573  0.1382  0.8370
 1881SOL    HW217106   4.145   0.025   2.085  0.0692  2.4268 -2.2849
 1882SOL     OW17107   2.130   0.228   2.844 -0.0292  0.3063 -0.8911
 1882SOL    HW117108   2.142   0.201   2.753  0.4871 -0.2928 -0.6483
 1882SOL    HW217109   2.190   0.172   2.895 -0.2366  0.2925 -0.6606
 1883SOL     OW17110   0.551   0.563   3.075 -0.1629 -0.4068  0.3684
 1883SOL    HW117111   0.556   0.581   2.981  0.4419 -2.6517 -0.0304
 1883SOL    HW217112   0.564   0.649   3.115 -1.1022 -0.7159  1.3474
 1884SOL     OW17113   4.120   2.796   6.538  0.1357  0.2393 -0.7602
 1884SOL    HW117114   4.210   2.766   6.543 -0.0625 -0.2704 -0.1954
 1884SOL    HW217115   4.085   2.733   6.601 -2.1145  1.4458 -0.7635
 1885SOL     OW17116   3.749   0.310   8.078 -0.5389  0.2964  0.4677
 1885SOL    HW117117   3.721   0.267   8.158  2.2172 -1.0956  0.6796
 1885SOL    HW217118   3.807   0.385   8.092 -2.1838  1.1882  2.5642
 1886SOL     OW17119   1.288   3.347  17.649 -0.1801 -0.2488  0.1906
 1886SOL    HW117120   1.261   3.273  17.595  1.8996  0.5636 -1.9605
 1886SOL    HW217121   1.206   3.396  17.658 -0.3112 -0.6312  1.0681
 1887SOL     OW17122   3.074   1.072   4.252 -0.7592  0.2019  0.3151
 1887SOL    HW117123   3.143   1.007   4.239  2.2698  3.2144  1.1755
 1887SOL    HW217124   3.069   1.134   4.178  0.8084  0.4384  0.4146
 1888SOL     OW17125   1.294   1.917   8.672 -0.3515  0.3160 -0.0843
 1888SOL    HW117126   1.336   1.923   8.586 -0.5242  1.5543 -0.0734
 1888SOL    HW217127   1.366   1.956   8.721 -0.7079  0.8710 -0.0089
 1889SOL     OW17128   3.757   2.561   1.945  0.1769 -0.6151 -0.3009
 1889SOL    HW117129   3.729   2.470   1.956 -2.9655  0.4422  0.5804
 1889SOL    HW217130   3.851   2.548   1.934  0.1062 -0.4873 -1.0132
 1890SOL     OW17131   3.671   3.640   5.172  0.9247 -0.5907  0.2913
 1890SOL    HW117132   3.602   3.631   5.107  1.2189  0.7382 -0.2218
 1890SOL    HW217133   3.703   3.551   5.184  2.5865 -0.3020 -1.9888
 1891SOL     OW17134   2.628   0.070   3.805  0.0187  0.1640 -0.5993
 1891SOL    HW117135   2.644   0.130   3.878 -0.6743 -1.3125  0.7697
 1891SOL    HW217136   2.718   0.038   3.798 -1.0318 -2.2735 -2.8413
 1892SOL     OW17137   4.301   0.780  13.047 -0.0386  0.2864 -0.0441
 1892SOL    HW117138   4.320   0.739  13.131  0.8213 -0.0640 -0.4035
 1892SOL    HW217139   4.329   0.871  13.062  1.1450 -0.4180  2.0149
 1893SOL     OW17140   3.692   4.588   5.847  0.3827  0.0931 -0.8244
 1893SOL    HW117141   3.622   4.571   5.785 -0.0581  0.1213 -0.3348
 1893SOL    HW217142   3.728   4.659   5.793  1.7030  1.7549  2.2233
 1894SOL     OW17143   3.787   2.105   3.107  0.3992 -0.2295 -0.6645
 1894SOL    HW117144   3.692   2.109   3.109  0.3978 -1.0983  0.9390
 1894SOL    HW217145   3.811   2.071   3.021  0.1572  0.5786 -1.0485
 1895SOL     OW17146   3.989   2.183   5.079  0.4027 -0.0932  0.3077
 1895SOL    HW117147   4.012   2.103   5.031  0.0526 -0.9410  1.5539
 1895SOL    HW217148   3.937   2.215   5.005  0.6312 -1.9688 -0.6834
 1896SOL     OW17149   2.656   0.151   8.623  0.0351 -1.0038  0.2260
 1896SOL    HW117150   2.671   0.070   8.574 -1.0480  0.2734 -2.2345
 1896SOL    HW217151   2.708   0.128   8.699  2.2695 -2.1910 -1.6559
 1897SOL     OW17152   2.736   0.520   8.829 -0.6759 -0.0518  0.1873
 1897SOL    HW117153   2.677   0.532   8.904 -0.4782 -0.3865  0.3956
 1897SOL    HW217154   2.733   0.426   8.815 -0.5416 -0.0982  0.4859
 1898SOL     OW17155   3.190   4.552  16.396  0.1395 -0.5645 -0.3240
 1898SOL    HW117156   3.157   4.570  16.308 -1.6161  0.2317  0.5197
 1898SOL    HW217157   3.193   4.456  16.396 -0.7473 -0.5889 -1.8708
 1899SOL     OW17158   0.895   0.310   2.717 -0.0917 -0.4221 -0.1883
 1899SOL    HW117159   0.804   0.338   2.718  0.3025  0.8422 -0.6420
 1899SOL    HW217160   0.902   0.243   2.786  3.3252 -1.2753 -1.3627
 1900SOL     OW17161   2.376   0.319  11.823 -0.4786 -0.0693  0.4332
 1900SOL    HW117162   2.470   0.304  11.832 -0.4707 -0.2939 -0.0601
 1900SOL    HW217163   2.366   0.329  11.729 -1.0754 -1.6715  0.3322
 1901SOL     OW17164   3.956   1.224   0.515 -0.0862  0.2910 -0.0602
 1901SOL    HW117165   3.957   1.133   0.486 -3.7966  0.4782 -0.7776
 1901SOL    HW217166   4.030   1.236   0.574  0.4621  0.3805 -0.7765
 1902SOL     OW17167   1.748   0.466   2.997  0.1887  0.0090  0.2801
 1902SOL    HW117168   1.694   0.460   3.076 -1.3708  2.4835 -0.5918
 1902SOL    HW217169   1.781   0.377   2.980  0.8848  0.6735 -1.8973
 1903SOL     OW17170   2.414   1.929   6.162  0.4885 -0.0102 -0.2873
 1903SOL    HW117171   2.419   1.990   6.236 -0.2878 -0.2606 -0.0276
 1903SOL    HW217172   2.343   1.967   6.110 -0.8624 -1.7405  0.2714
 1904SOL     OW17173   3.874   0.450   5.946 -0.1060  0.5412  0.5536
 1904SOL    HW117174   3.964   0.454   5.914  0.0974  2.8978  1.3869
 1904SOL    HW217175   3.837   0.411   5.867  0.1834  1.6334 -0.1262
 1905SOL     OW17176   3.734   1.334   9.287  0.2473 -0.1346  0.1094
 1905SOL    HW117177   3.690   1.250   9.294  1.3276 -0.8095 -1.2737
 1905SOL    HW217178   3.676   1.371   9.220  0.2579 -1.4990 -0.6461
 1906SOL     OW17179   2.154   2.667   6.244 -0.5645 -0.1437 -0.3725
 1906SOL    HW117180   2.216   2.735   6.216  1.8790 -1.8816  0.7927
 1906SOL    HW217181   2.088   2.722   6.286  1.4760  1.5199  0.6684
 1907SOL     OW17182   1.380   1.895   0.001  0.1288  0.2496 -0.1844
 1907SOL    HW117183   1.388   1.989  17.694 -1.5773  1.1386  3.8852
 1907SOL    HW217184   1.303   1.868  17.661 -0.1828  1.2074 -0.2320
 1908SOL     OW17185   1.054   2.242   9.240 -0.2268 -0.2801  0.1578
 1908SOL    HW117186   1.022   2.332   9.230  0.4177 -0.1132 -0.4350
 1908SOL    HW217187   1.143   2.255   9.271 -0.6070 -0.4140  1.2797
 1909SOL     OW17188   0.719   4.510   4.415 -0.4168 -0.4314  0.2633
 1909SOL    HW117189   0.789   4.559   4.458  0.4848 -0.7212 -0.8514
 1909SOL    HW217190   0.656   4.580   4.397  0.8705  0.9406  1.1023
 1910SOL     OW17191   4.167   4.143   0.559 -0.3880 -0.3915 -0.4935
 1910SOL    HW117192   4.121   4.227   0.561  0.6821  0.2319 -2.4315
 1910SOL    HW217193   4.126   4.104   0.636 -1.7987 -0.7668 -1.4506
 1911SOL     OW17194   0.708   3.641   9.474 -0.3500 -0.6915  0.2062
 1911SOL    HW117195   0.654   3.713   9.508 -0.8795 -2.0692  2.2992
 1911SOL    HW217196   0.646   3.609   9.407  0.3743 -0.8211 -0.4010
 1912SOL     OW17197   4.248   0.620   7.335 -0.0703  0.0335  0.9169
 1912SOL    HW117198   4.153   0.608   7.332 -0.2359  1.2340  1.4154
 1912SOL    HW217199   4.266   0.653   7.247  1.6924 -0.9420  0.9072
 1913SOL     OW17200   1.962   4.256   8.088 -0.4317 -0.0755  0.9431
 1913SOL    HW117201   1.936   4.335   8.135 -2.0182 -1.5529  2.5769
 1913SOL    HW217202   2.025   4.285   8.023 -0.9901  2.1402  1.4023
 1914SOL     OW17203   0.926   0.399   6.667  0.3430  0.1761  0.1092
 1914SOL    HW117204   1.002   0.413   6.723  0.4755  1.1763 -0.3213
 1914SOL    HW217205   0.979   0.416   6.589 -2.7299 -0.7264 -2.1603
 1915SOL     OW17206   1.968   2.474   6.507  0.7909  0.1105 -0.1025
 1915SOL    HW117207   1.879   2.494   6.535  0.0468 -1.2528 -1.4917
 1915SOL    HW217208   2.021   2.543   6.546  0.6760 -0.6277  1.3385
 1916SOL     OW17209   3.639   2.732   5.210  0.3551 -0.0942  0.0707
 1916SOL    HW117210   3.655   2.686   5.293 -2.7566  0.5329  1.0001
 1916SOL    HW217211   3.628   2.824   5.233 -1.6900 -0.5984  1.1295
 1917SOL     OW17212   1.730   3.850  15.083 -0.6141 -0.5160  0.4448
 1917SOL    HW117213   1.823   3.842  15.102 -0.2695  0.6678 -0.7131
 1917SOL    HW217214   1.712   3.767  15.040 -1.5870  1.9006 -3.8135
 1918SOL     OW17215   1.455   0.616   7.715 -0.0710  0.6473  0.4023
 1918SOL    HW117216   1.378   0.657   7.756  0.6534  1.5484  0.8694
 1918SOL    HW217217   1.454   0.530   7.756  0.8742  0.7453  0.6293
 1919SOL     OW17218   3.331   1.810  17.692 -0.3421  0.1062 -0.4141
 1919SOL    HW117219   3.379   1.882   0.023  1.3904 -0.1636 -1.9551
 1919SOL    HW217220   3.297   1.852  17.613 -1.9811  0.0142  0.2488
 1920SOL     OW17221   0.537   0.660  14.098  0.8756  0.3597 -0.3575
 1920SOL    HW117222   0.609   0.604  14.069  0.7295  0.5116 -1.0245
 1920SOL    HW217223   0.567   0.695  14.182 -0.1266 -0.4072  0.3267
 1921SOL     OW17224   0.213   3.504   3.733 -0.5938  0.0073  0.4741
 1921SOL    HW117225   0.274   3.541   3.798 -1.6822  1.7746  0.4724
 1921SOL    HW217226   0.228   3.570   3.665 -2.8638  1.0786  1.0333
 1922SOL     OW17227   0.030   2.844  11.686  0.4695 -0.5932 -0.2238
 1922SOL    HW117228   0.108   2.895  11.665 -0.3234  0.2931 -1.0195
 1922SOL    HW217229   0.021   2.868  11.779 -3.1251 -0.6613 -0.5388
 1923SOL     OW17230   4.542   2.223   0.629 -0.1144 -0.2153  0.1634
 1923SOL    HW117231   4.624   2.199   0.585 -1.5074 -1.1448 -1.9099
 1923SOL    HW217232   4.575   2.289   0.690 -0.0916 -0.8359  0.8156
 1924SOL     OW17233   2.718   3.199  14.584  0.0409 -0.1078 -0.3238
 1924SOL    HW117234   2.648   3.258  14.612 -0.8220 -1.0988 -0.3746
 1924SOL    HW217235   2.709   3.132  14.652  1.8154 -0.0461 -0.0220
 1925SOL     OW17236   1.814   0.920   7.842 -0.0353 -0.1616  0.2260
 1925SOL    HW117237   1.803   0.864   7.919 -0.2704 -1.4385 -0.7397
 1925SOL    HW217238   1.907   0.905   7.826  0.4750  2.0267  1.1910
 1926SOL     OW17239   1.010   0.637  12.878 -0.3424  0.6718  0.6680
 1926SOL    HW117240   0.987   0.555  12.922  2.1579  0.4214  1.4653
 1926SOL    HW217241   0.968   0.696  12.942 -0.7257  1.2345 -0.0983
 1927SOL     OW17242   1.772   0.177   0.260  0.5944  0.0323  0.5161
 1927SOL    HW117243   1.697   0.219   0.301  0.4204  0.0018  0.2275
 1927SOL    HW217244   1.801   0.234   0.189 -1.6699 -0.9609 -1.2203
 1928SOL     OW17245   3.192   3.163   3.595 -0.2380  0.5388 -0.3291
 1928SOL    HW117246   3.189   3.255   3.568  1.1716  0.0672 -2.1326
 1928SOL    HW217247   3.101   3.133   3.589 -0.3320  0.1429  2.8293
 1929SOL     OW17248   2.681   1.759   7.384  0.2662  0.6421  0.1667
 1929SOL    HW117249   2.656   1.784   7.473 -0.0635 -0.5484  0.4051
 1929SOL    HW217250   2.754   1.814   7.355 -0.1929 -0.3511 -2.7769
 1930SOL     OW17251   2.958   2.680   6.380  0.8018 -0.0939  0.1513
 1930SOL    HW117252   3.050   2.695   6.404  0.0945  0.3108  2.6695
 1930SOL    HW217253   2.959   2.607   6.318  2.6731  0.7672 -0.8326
 1931SOL     OW17254   2.044   0.974  14.931  0.7134 -0.6555  0.0096
 1931SOL    HW117255   2.000   1.052  14.896  0.3368 -0.7109  0.3592
 1931SOL    HW217256   2.020   0.929  14.850  1.7638  0.0793 -0.7079
 1932SOL     OW17257   1.518   3.806   7.008  0.0599 -0.3020 -0.1943
 1932SOL    HW117258   1.561   3.793   6.924 -0.5436  1.9583 -0.8429
 1932SOL    HW217259   1.498   3.714   7.023 -0.8807  0.1491  1.4259
 1933SOL     OW17260   0.455   3.669  15.060 -0.1765  0.0123  0.1726
 1933SOL    HW117261   0.542   3.691  15.026  0.1579  0.2126  1.1621
 1933SOL    HW217262   0.482   3.612  15.132 -0.8547 -1.6951 -0.9177
 1934SOL     OW17263   0.005   4.139   7.334  0.4706  0.2660  0.4523
 1934SOL    HW117264   4.665   4.190   7.381 -1.9906 -3.0234  0.4915
 1934SOL    HW217265   4.679   4.082   7.279  1.3157  0.0337 -0.1253
 1935SOL     OW17266   0.403   1.033   3.166  0.4290 -0.3397  0.1255
 1935SOL    HW117267   0.426   0.986   3.247 -1.6281  1.1741  1.5931
 1935SOL    HW217268   0.308   1.030   3.180  0.5450  1.5294  1.4325
 1936SOL     OW17269   4.526   0.070   4.601  0.9575  0.1723 -0.6976
 1936SOL    HW117270   4.444   0.028   4.574  1.0781  0.5985 -1.7205
 1936SOL    HW217271   4.530   0.140   4.535  1.7800  0.2468 -0.5633
 1937SOL     OW17272   0.269   0.304  12.515  0.0694 -0.4345 -0.0627
 1937SOL    HW117273   0.291   0.298  12.422  1.4929 -1.6645  0.3503
 1937SOL    HW217274   0.236   0.394  12.519 -0.5516 -0.6593 -0.3281
 1938SOL     OW17275   0.895   1.772   2.243 -0.3025  0.3507  0.6091
 1938SOL    HW117276   0.980   1.786   2.202  0.2667  0.2577  1.7778
 1938SOL    HW217277   0.845   1.748   2.164  0.0942 -3.1695  1.4323
 1939SOL     OW17278   1.941   1.376  11.080  0.4427  0.1807 -0.3386
 1939SOL    HW117279   1.988   1.305  11.123 -1.9340  0.0730  2.0804
 1939SOL    HW217280   2.013   1.409  11.026  2.0791 -0.7948  1.2992
 1940SOL     OW17281   0.778   2.564   6.038 -0.0373  0.0556 -0.1814
 1940SOL    HW117282   0.799   2.656   6.055  2.1513 -0.5121  0.1288
 1940SOL    HW217283   0.856   2.516   6.065  0.0450  1.4533  2.0212
 1941SOL     OW17284   3.208   2.548   4.078 -0.3364 -0.5647 -0.3936
 1941SOL    HW117285   3.252   2.625   4.041  0.7632  0.3932  2.9299
 1941SOL    HW217286   3.114   2.559   4.060  0.1798  2.0100 -1.6029
 1942SOL     OW17287   3.730   2.717   2.869 -0.2922 -0.3028  0.0780
 1942SOL    HW117288   3.811   2.768   2.869 -1.5798  1.7802  0.4905
 1942SOL    HW217289   3.659   2.782   2.867 -0.7800 -0.7854  1.8500
 1943SOL     OW17290   4.571   2.743   7.232  0.3298  0.7978  0.4350
 1943SOL    HW117291   4.496   2.710   7.281  0.8970 -0.8891  0.1721
 1943SOL    HW217292   4.602   2.663   7.189  1.1257  1.7856 -0.8104
 1944SOL     OW17293   3.006   2.669   2.748  0.3543  0.3674  0.0402
 1944SOL    HW117294   2.918   2.632   2.757  0.2790  1.0280  2.1428
 1944SOL    HW217295   3.010   2.699   2.658 -1.4027 -0.5661 -0.3532
 1945SOL     OW17296   2.251   2.763  13.157 -0.9156  0.5415  0.3158
 1945SOL    HW117297   2.341   2.771  13.124 -1.1210 -3.5031 -1.2253
 1945SOL    HW217298   2.258   2.813  13.238  0.1816  2.3422 -0.9073
 1946SOL     OW17299   3.020   0.273   3.364  0.0669 -0.3336 -0.3290
 1946SOL    HW117300   2.986   0.192   3.327  2.9663 -1.3406 -0.7912
 1946SOL    HW217301   3.111   0.268   3.334  0.5423  0.3069  0.9584
 1947SOL     OW17302   2.594   3.348  15.821 -0.7125  0.2792 -0.4430
 1947SOL    HW117303   2.510   3.343  15.866  0.5042 -1.3568  1.6315
 1947SOL    HW217304   2.614   3.439  15.843  0.8894 -0.0442 -0.5450
 1948SOL     OW17305   2.235   1.043   7.113 -0.7773 -0.2363  0.1901
 1948SOL    HW117306   2.226   1.122   7.060 -1.5169 -0.7866 -0.5236
 1948SOL    HW217307   2.151   1.036   7.158 -1.1120 -2.3729 -0.7191
 1949SOL     OW17308   1.661   2.960   6.262  0.0867  0.3782 -0.0503
 1949SOL    HW117309   1.709   2.901   6.204 -1.0656  0.0010 -0.6178
 1949SOL    HW217310   1.719   2.958   6.338  0.8408  1.5436 -0.6043
 1950SOL     OW17311   1.422   0.295  15.862 -0.2838 -0.0551  0.0854
 1950SOL    HW117312   1.462   0.324  15.781  1.9502  0.1119  1.2392
 1950SOL    HW217313   1.435   0.369  15.922 -0.2677  0.9714 -1.2030
 1951SOL     OW17314   4.184   0.997  17.287 -0.3344  0.1548  0.2385
 1951SOL    HW117315   4.098   0.984  17.248 -0.9645  1.6617  1.1357
 1951SOL    HW217316   4.186   1.092  17.276 -2.4625  0.5212  3.1294
 1952SOL     OW17317   4.670   0.444   0.816  0.1796  0.0896  0.4189
 1952SOL    HW117318   4.631   0.529   0.796  0.6121  0.0086 -0.8032
 1952SOL    HW217319   4.647   0.426   0.907 -2.8871 -1.2998 -0.6186
 1953SOL     OW17320   0.696   0.140  10.755  0.0973  0.0357  0.0940
 1953SOL    HW117321   0.746   0.213  10.719  0.2906 -1.5478 -2.8741
 1953SOL    HW217322   0.719   0.145  10.848 -0.8111  2.9566  0.1641
 1954SOL     OW17323   1.993   0.361  15.973 -0.6666  0.5328  1.0027
 1954SOL    HW117324   1.900   0.373  15.989 -0.9267  2.1174 -1.6862
 1954SOL    HW217325   2.024   0.436  16.023  0.2379  0.7307  0.1533
 1955SOL     OW17326   2.410   2.497  14.579 -0.5665  0.6590 -0.0938
 1955SOL    HW117327   2.423   2.502  14.484 -1.0636  1.0489 -0.1424
 1955SOL    HW217328   2.315   2.502  14.576 -0.6986 -0.3617  3.1164
 1956SOL     OW17329   0.641   0.370   7.641 -0.0449 -0.2428  0.0308
 1956SOL    HW117330   0.695   0.297   7.672  1.3940  0.2645 -1.3028
 1956SOL    HW217331   0.568   0.386   7.700 -2.2348 -0.2245 -2.6871
 1957SOL     OW17332   0.353   1.863   8.923  0.2784 -0.1036  0.1549
 1957SOL    HW117333   0.409   1.901   8.991  0.8499 -0.5533 -0.0583
 1957SOL    HW217334   0.273   1.899   8.961  1.4040  1.0963  1.3975
 1958SOL     OW17335   1.003   3.179   8.215  0.0458 -0.8030 -0.5392
 1958SOL    HW117336   0.937   3.201   8.149 -0.8733  1.3502  1.0991
 1958SOL    HW217337   0.949   3.149   8.288 -0.3927  1.2057 -0.0388
 1959SOL     OW17338   2.441   3.254   3.856 -0.0253 -0.1777  0.4128
 1959SOL    HW117339   2.418   3.281   3.945  0.5848  2.2174 -0.1370
 1959SOL    HW217340   2.533   3.236   3.874  0.6813  1.5789 -1.4433
 1960SOL     OW17341   1.648   4.695   4.710  0.3752 -0.1740 -1.0681
 1960SOL    HW117342   1.562   4.697   4.668 -1.1627  1.2437  2.1053
 1960SOL    HW217343   1.681   4.611   4.680 -0.4372 -1.0189  0.3629
 1961SOL     OW17344   2.887   4.359  16.665 -0.6285 -0.5095 -1.2737
 1961SOL    HW117345   2.815   4.418  16.642 -0.4920 -0.1493 -0.7769
 1961SOL    HW217346   2.844   4.319  16.741  0.2289  0.2643 -0.3816
 1962SOL     OW17347   1.093   4.302   5.493  0.1761  0.4391 -0.7129
 1962SOL    HW117348   1.090   4.210   5.465 -2.0456  0.5180 -0.7808
 1962SOL    HW217349   1.013   4.337   5.453 -1.3132 -2.8021 -0.6702
 1963SOL     OW17350   2.437   3.676  17.293  0.4968 -0.2880 -0.3689
 1963SOL    HW117351   2.357   3.649  17.248  0.3047 -1.3598  0.6020
 1963SOL    HW217352   2.408   3.739  17.358  0.2442 -1.4147  0.6118
 1964SOL     OW17353   1.751   2.148   6.847 -0.2826 -0.2085  0.4599
 1964SOL    HW117354   1.722   2.097   6.772  1.9636  0.5125 -0.9152
 1964SOL    HW217355   1.791   2.080   6.902  0.3851 -1.3274 -1.4232
 1965SOL     OW17356   0.567   1.236   3.173  0.0240 -0.6992  0.2778
 1965SOL    HW117357   0.531   1.291   3.104 -0.6450 -0.0042  1.1769
 1965SOL    HW217358   0.520   1.154   3.154 -0.1480 -0.7176  0.7829
 1966SOL     OW17359   3.422   2.029   3.474 -0.2682  0.2059 -0.3047
 1966SOL    HW117360   3.327   2.037   3.466 -0.5361 -0.6253  1.9350
 1966SOL    HW217361   3.438   1.938   3.451  2.0158  1.2898 -2.8850
 1967SOL     OW17362   1.039   0.886   9.386  0.8543  0.9766  0.1679
 1967SOL    HW117363   0.971   0.828   9.351  0.7885  1.0740  0.1339
 1967SOL    HW217364   1.049   0.853   9.475  0.8740  1.2420  0.2637
 1968SOL     OW17365   1.735   4.470   2.850 -0.0593 -0.8483  0.2812
 1968SOL    HW117366   1.802   4.506   2.908 -0.6026 -1.0162  1.0111
 1968SOL    HW217367   1.771   4.386   2.819  1.7498  0.0233  0.0427
 1969SOL     OW17368   4.237   0.247   4.399  0.2712  0.0613 -0.5801
 1969SOL    HW117369   4.205   0.228   4.487  0.7443  4.9811  0.6613
 1969SOL    HW217370   4.217   0.164   4.357  1.3976 -1.2162  1.4445
 1970SOL     OW17371   0.279   0.999   1.919  0.1065  0.0169 -0.0972
 1970SOL    HW117372   0.375   1.005   1.919  0.1984 -1.5076 -0.7509
 1970SOL    HW217373   0.260   0.948   1.841  3.1279  2.6451 -2.5191
 1971SOL     OW17374   3.945   3.042   7.402  0.1720  0.0768  0.3150
 1971SOL    HW117375   3.872   3.021   7.345 -0.9698  2.2895  0.9882
 1971SOL    HW217376   3.898   3.053   7.484 -0.6913  5.2592 -0.9066
 1972SOL     OW17377   1.457   1.759   2.576 -0.6162  0.2297  0.0891
 1972SOL    HW117378   1.469   1.846   2.612 -0.9444 -0.2443  1.3278
 1972SOL    HW217379   1.534   1.763   2.519  0.4021  2.4250  1.6468
 1973SOL     OW17380   2.149   1.266   4.687  0.4047 -0.1680  0.1559
 1973SOL    HW117381   2.078   1.272   4.751  0.4352  0.7767  0.0967
 1973SOL    HW217382   2.186   1.354   4.681  0.9506 -0.5178 -1.7783
 1974SOL     OW17383   0.751   4.542  10.955  0.0420 -0.6788 -0.0917
 1974SOL    HW117384   0.699   4.596  11.015 -0.7442 -0.4409 -0.9804
 1974SOL    HW217385   0.798   4.480  11.011 -1.7430 -2.4498 -0.5448
 1975SOL     OW17386   4.259   3.227  11.466  0.1757  0.6393 -0.2975
 1975SOL    HW117387   4.291   3.154  11.414  0.2194 -0.0549  0.7252
 1975SOL    HW217388   4.230   3.290  11.399 -0.4182  0.7633  0.0742
 1976SOL     OW17389   2.283   3.880  11.126 -0.1970 -0.2724 -0.2599
 1976SOL    HW117390   2.315   3.970  11.131  0.6201 -0.6643  1.6776
 1976SOL    HW217391   2.324   3.849  11.046 -0.6996 -1.0278 -0.2260
 1977SOL     OW17392   0.965   2.361   5.630 -0.1325 -0.8529 -0.2098
 1977SOL    HW117393   1.048   2.408   5.628  0.0146 -1.1598 -1.2409
 1977SOL    HW217394   0.990   2.292   5.569 -2.1608 -1.7674 -0.0154
 1978SOL     OW17395   2.494   2.273   6.745 -0.0215 -0.2798  0.1275
 1978SOL    HW117396   2.573   2.326   6.740 -0.4184  0.1775 -1.3437
 1978SOL    HW217397   2.467   2.284   6.654 -1.2092 -2.1050  0.2583
 1979SOL     OW17398   2.723   4.446   6.708 -0.5860  0.2286 -0.0051
 1979SOL    HW117399   2.749   4.404   6.626  1.0966  0.5880  0.3480
 1979SOL    HW217400   2.793   4.412   6.764 -1.3876 -1.0520  0.2265
 1980SOL     OW17401   3.000   3.910   9.074  0.1715  0.3672  0.0672
 1980SOL    HW117402   3.040   3.837   9.027 -0.4922  0.0575 -0.0161
 1980SOL    HW217403   2.912   3.918   9.038 -0.0654  4.6509  1.5548
 1981SOL     OW17404   4.233   2.127   3.712 -0.5605  0.1449 -0.4385
 1981SOL    HW117405   4.197   2.039   3.721  1.0348 -0.1533  3.0180
 1981SOL    HW217406   4.322   2.125   3.747 -1.1365  1.4105  1.1107
 1982SOL     OW17407   3.171   4.096  14.149  0.3777 -0.2285  0.1073
 1982SOL    HW117408   3.256   4.054  14.164  1.5172  1.9221 -0.3096
 1982SOL    HW217409   3.114   4.026  14.181 -0.0163  0.7629  1.5540
 1983SOL     OW17410   1.660   1.257  13.551 -0.3802  0.3491 -0.1468
 1983SOL    HW117411   1.696   1.328  13.497 -2.2438  0.8235 -0.7551
 1983SOL    HW217412   1.663   1.179  13.496  1.9067 -1.3921  2.4400
 1984SOL     OW17413   4.726   1.671   5.767  0.5367 -1.4434  0.8077
 1984SOL    HW117414   4.652   1.633   5.720  0.7298 -1.8747  0.8501
 1984SOL    HW217415   0.063   1.661   5.697 -1.0621 -1.7117 -0.6171
 1985SOL     OW17416   0.327   3.181   0.687 -0.5406  0.5820 -0.3048
 1985SOL    HW117417   0.379   3.121   0.741  2.0001  1.2198 -2.0897
 1985SOL    HW217418   0.264   3.213   0.752  2.8925  3.6737  1.5041
 1986SOL     OW17419   4.425   0.189   3.709  0.1583  0.1174  0.1032
 1986SOL    HW117420   4.431   0.281   3.732 -0.3287 -0.3859  2.2719
 1986SOL    HW217421   4.339   0.158   3.738  0.7786  0.1616  1.9667
 1987SOL     OW17422   0.626   0.541  12.201 -0.4290 -0.1451  0.1388
 1987SOL    HW117423   0.589   0.593  12.129  0.4157 -1.0852 -0.9788
 1987SOL    HW217424   0.717   0.570  12.206 -0.0800 -1.2203  0.0301
 1988SOL     OW17425   3.799   4.144   7.051  0.1646 -0.2524 -0.1388
 1988SOL    HW117426   3.782   4.127   7.144 -1.6941 -0.7081 -0.5540
 1988SOL    HW217427   3.709   4.139   7.018  0.7689 -0.3544 -1.7579
 1989SOL     OW17428   1.667   2.478  17.327 -0.0692  0.2426  0.4240
 1989SOL    HW117429   1.660   2.518  17.240 -0.9491 -0.7558  0.0376
 1989SOL    HW217430   1.739   2.414  17.321  0.4333  0.9037 -0.4995
 1990SOL     OW17431   1.609   2.416   9.228  0.7315  0.4443 -0.0635
 1990SOL    HW117432   1.689   2.379   9.266 -0.2238 -1.3981  0.1958
 1990SOL    HW217433   1.628   2.418   9.135 -0.1927  0.2597 -0.2581
 1991SOL     OW17434   0.000   2.859   6.203  0.1781  0.3060  0.0111
 1991SOL    HW117435   4.638   2.871   6.170  1.4746  2.9557 -2.5008
 1991SOL    HW217436   0.051   2.936   6.177  0.8824  0.0496  0.6334
 1992SOL     OW17437   0.735   2.922  13.795 -0.2426  0.3320 -0.1922
 1992SOL    HW117438   0.826   2.895  13.807 -0.9349 -1.6192  0.6928
 1992SOL    HW217439   0.718   2.982  13.868 -1.6154 -0.2288 -0.0610
 1993SOL     OW17440   3.109   0.209   3.711 -0.0264  0.2011  0.3437
 1993SOL    HW117441   3.181   0.179   3.767 -0.6135 -3.1033 -0.6717
 1993SOL    HW217442   3.137   0.191   3.622 -1.6630 -0.8451  0.0411
 1994SOL     OW17443   3.721   4.446   2.516  0.1745  0.1559  0.2577
 1994SOL    HW117444   3.712   4.356   2.484 -1.4191 -0.3761  2.2781
 1994SOL    HW217445   3.728   4.498   2.435  2.8734 -0.8043 -0.1457
 1995SOL     OW17446   3.548   1.169  10.952 -0.0072  0.0943  0.0474
 1995SOL    HW117447   3.581   1.127  10.872  0.4426 -0.6721  0.6407
 1995SOL    HW217448   3.588   1.122  11.025  1.7892  2.0248  0.2978
 1996SOL     OW17449   2.209   2.981   0.117 -0.2215  0.0901 -0.5349
 1996SOL    HW117450   2.269   3.042   0.075 -0.6744  1.1846  0.4075
 1996SOL    HW217451   2.152   3.030   0.176  0.0159  0.9346 -1.0183
 1997SOL     OW17452   2.078   4.161   5.350  0.2334  0.0697 -0.1619
 1997SOL    HW117453   2.154   4.219   5.344 -0.4662  0.9514 -0.5599
 1997SOL    HW217454   2.022   4.188   5.277 -0.8086 -1.9251 -0.1174
 1998SOL     OW17455   2.125   0.571   4.758 -0.3852 -0.2482 -0.3010
 1998SOL    HW117456   2.165   0.524   4.685 -0.9681 -0.7790 -0.2858
 1998SOL    HW217457   2.063   0.627   4.711 -0.3093  0.4475  0.4228
 1999SOL     OW17458   2.629   2.697  13.762 -0.0222 -0.5428 -0.1185
 1999SOL    HW117459   2.710   2.747  13.748 -0.9354  1.6384  2.6513
 1999SOL    HW217460   2.573   2.731  13.692  0.4531 -3.6647 -2.0043
 2000SOL     OW17461   3.621   4.395   8.051  0.0201  0.2733  0.1979
 2000SOL    HW117462   3.570   4.400   8.131 -0.6064  3.5829 -0.4420
 2000SOL    HW217463   3.630   4.484   8.017  1.3365 -0.4105 -1.2622
 2001SOL     OW17464   3.506   3.689   4.965  0.1084 -0.4363 -0.1357
 2001SOL    HW117465   3.438   3.707   4.899  0.2544 -3.8539 -1.2510
 2001SOL    HW217466   3.577   3.651   4.914  0.1787 -1.2058  0.5327
 2002SOL     OW17467   3.824   1.651  15.038  0.2179  0.3208  0.1060
 2002SOL    HW117468   3.766   1.577  15.021 -0.8194  1.1338  0.0819
 2002SOL    HW217469   3.833   1.694  14.953 -0.9434 -1.3866 -0.8994
 2003SOL     OW17470   0.973   0.780  17.688 -0.0520 -0.3280  0.1381
 2003SOL    HW117471   0.892   0.734  17.667  0.2493 -2.0091  2.5764
 2003SOL    HW217472   0.950   0.858  17.638 -0.1565 -1.8629 -2.1903
 2004SOL     OW17473   4.510   0.284   4.417  0.5244  0.2181  0.2878
 2004SOL    HW117474   4.427   0.254   4.379 -0.1225 -0.4977  2.2533
 2004SOL    HW217475   4.481   0.367   4.454  1.0568  2.0619 -3.5293
 2005SOL     OW17476   4.360   0.756   1.698  0.1327  0.1024 -0.4822
 2005SOL    HW117477   4.448   0.793   1.691  0.4968 -0.7605 -0.3690
 2005SOL    HW217478   4.346   0.693   1.627  0.4605  0.0862 -0.5340
 2006SOL     OW17479   1.203   1.799  17.560  0.5855 -0.5630  0.1040
 2006SOL    HW117480   1.231   1.791  17.469  1.6108  0.4232  0.3286
 2006SOL    HW217481   1.183   1.707  17.574 -2.2694  0.3275  1.9694
 2007SOL     OW17482   4.419   2.344  17.228 -0.3023 -0.1404  0.3686
 2007SOL    HW117483   4.369   2.400  17.287  0.7271 -1.5993  2.6156
 2007SOL    HW217484   4.409   2.260  17.271  1.5686 -0.0403  0.9999
 2008SOL     OW17485   2.543   0.457   3.355  0.3192  0.0964 -0.6001
 2008SOL    HW117486   2.588   0.416   3.282  0.2327 -5.0034  2.2082
 2008SOL    HW217487   2.460   0.482   3.316 -0.5062 -3.4733 -1.0716
 2009SOL     OW17488   0.243   1.042   5.034 -0.3438  0.0185 -0.2974
 2009SOL    HW117489   0.205   1.083   4.956  1.0858  1.7706 -0.0949
 2009SOL    HW217490   0.311   0.982   5.004 -0.4558  0.9226 -2.4337
 2010SOL     OW17491   0.277   3.383   7.619 -0.6169 -0.5379 -0.1135
 2010SOL    HW117492   0.260   3.346   7.705  0.4837 -0.0999  0.2970
 2010SOL    HW217493   0.257   3.475   7.634 -1.2107 -0.4992 -1.1564
 2011SOL     OW17494   3.603   3.534   9.539 -0.1319  0.3746 -0.0449
 2011SOL    HW117495   3.677   3.546   9.599  1.0059 -1.8288 -0.9937
 2011SOL    HW217496   3.574   3.625   9.536 -0.7305  0.1810 -0.1150
 2012SOL     OW17497   4.049   0.461   4.315  0.2674  0.7640  0.5214
 2012SOL    HW117498   4.137   0.431   4.338  0.5134  0.2692 -1.0182
 2012SOL    HW217499   3.996   0.397   4.362 -0.5558 -0.6256 -2.3085
 2013SOL     OW17500   3.008   1.419   3.527  0.1176  0.0106 -0.1796
 2013SOL    HW117501   3.017   1.452   3.617 -0.3427 -1.8924  0.5702
 2013SOL    HW217502   2.921   1.378   3.522 -0.6602  1.6200  0.1896
 2014SOL     OW17503   4.361   3.527   7.998  0.0793 -0.0601  0.0690
 2014SOL    HW117504   4.427   3.535   7.929 -2.6523  0.4589 -2.4418
 2014SOL    HW217505   4.333   3.436   8.001  3.6690 -1.1422  0.4364
 2015SOL     OW17506   3.779   2.765   4.840 -0.5599  0.0283 -0.5033
 2015SOL    HW117507   3.694   2.742   4.802 -1.0093  1.5292 -0.3875
 2015SOL    HW217508   3.760   2.745   4.932  3.6611  0.1561  0.4079
 2016SOL     OW17509   4.042   2.242  12.450 -0.8311  0.0515 -0.6881
 2016SOL    HW117510   4.016   2.290  12.371  0.9945 -2.3549 -2.7709
 2016SOL    HW217511   4.079   2.167  12.403 -3.6855 -2.0669  0.4334
 2017SOL     OW17512   2.634   1.710   2.458  0.7901  0.0150 -0.0224
 2017SOL    HW117513   2.583   1.670   2.529  2.5772 -0.8655  0.7888
 2017SOL    HW217514   2.562   1.719   2.396 -1.1146 -2.8451  1.7452
 2018SOL     OW17515   0.904   3.675   7.824 -0.0783  0.4995 -0.1245
 2018SOL    HW117516   0.891   3.607   7.757 -1.5550 -0.9409  1.5961
 2018SOL    HW217517   0.992   3.644   7.845 -0.0350  3.0299  3.3739
 2019SOL     OW17518   2.161   4.604   6.188 -0.2413  0.3558 -0.0097
 2019SOL    HW117519   2.178   4.600   6.093  1.7686  4.4607  0.2192
 2019SOL    HW217520   2.073   4.639   6.177  0.0061  1.0689  0.3340
 2020SOL     OW17521   1.195   1.901   6.114  0.5042  0.4350 -0.0172
 2020SOL    HW117522   1.208   1.845   6.037 -0.9594 -0.8826  0.6954
 2020SOL    HW217523   1.104   1.886   6.142  0.2020  0.6982 -0.8358
 2021SOL     OW17524   0.029   1.801   9.386 -0.0102  0.3473  0.4246
 2021SOL    HW117525   0.028   1.729   9.450  2.3451 -1.8916 -2.0593
 2021SOL    HW217526   0.113   1.780   9.345 -0.5155  2.4222 -1.6269
 2022SOL     OW17527   2.800   1.858   7.102  0.0412  0.3930  0.3519
 2022SOL    HW117528   2.856   1.874   7.178  1.9453 -0.6610 -0.8452
 2022SOL    HW217529   2.866   1.838   7.036  0.6533 -0.2908  1.1790
 2023SOL     OW17530   0.970   4.302   4.017 -0.4707 -0.2119  0.0819
 2023SOL    HW117531   0.886   4.266   3.986 -0.8405  0.6471  0.0949
 2023SOL    HW217532   0.990   4.366   3.949 -0.5534 -0.2504  0.0195
 2024SOL     OW17533   1.849   4.115   9.678  0.0268  0.1431 -0.1411
 2024SOL    HW117534   1.923   4.102   9.736 -1.7367  1.3822  2.4130
 2024SOL    HW217535   1.827   4.029   9.644 -1.3909 -0.2126  1.6572
 2025SOL     OW17536   1.363   4.022   1.893  0.1463 -0.3532 -0.6714
 2025SOL    HW117537   1.355   4.110   1.930  1.2784  0.1919 -1.7030
 2025SOL    HW217538   1.340   3.958   1.960 -1.3654  0.9943  0.1156
 2026SOL     OW17539   0.035   2.547   5.895  0.1180 -0.0299 -0.2148
 2026SOL    HW117540   0.107   2.518   5.839  1.4694  2.9866 -0.0510
 2026SOL    HW217541   0.069   2.513   5.978  1.9365  1.2840 -0.4305
 2027SOL     OW17542   1.654   3.677   5.623  1.1124 -0.1488 -0.3631
 2027SOL    HW117543   1.634   3.641   5.536 -1.1474  0.1720  0.0297
 2027SOL    HW217544   1.707   3.752   5.596  0.8329  0.0072 -0.4812
 2028SOL     OW17545   3.522   3.921   3.904  0.7345  0.0722  0.0535
 2028SOL    HW117546   3.482   3.835   3.896 -0.6995  0.8423 -1.0548
 2028SOL    HW217547   3.605   3.911   3.857 -0.3462  0.7788 -1.9961
 2029SOL     OW17548   3.086   2.878   8.282  0.0924  0.3047  0.1981
 2029SOL    HW117549   3.099   2.787   8.308 -0.4452  0.0257 -0.5133
 2029SOL    HW217550   3.012   2.904   8.336 -0.3431 -0.4949 -0.0196
 2030SOL     OW17551   1.743   4.705   3.543  0.3159  0.1720 -0.1946
 2030SOL    HW117552   1.742   4.700   3.639 -1.2189 -1.5538 -0.2872
 2030SOL    HW217553   1.833   4.688   3.517 -0.2388 -1.7897 -0.8062
 2031SOL     OW17554   2.309   4.071  12.040  0.6841 -0.0583 -0.6079
 2031SOL    HW117555   2.385   4.029  12.081 -0.0531 -1.0696 -0.2690
 2031SOL    HW217556   2.262   3.996  12.003 -1.8975  0.6944  1.1776
 2032SOL     OW17557   0.567   0.028  14.552  0.4877 -0.2268  0.4478
 2032SOL    HW117558   0.483   0.071  14.533 -0.8462 -0.8980  4.7343
 2032SOL    HW217559   0.540   4.674  14.594  3.4620 -0.3781  2.0531
 2033SOL     OW17560   4.646   1.995   9.045  0.4690  0.3541 -0.0726
 2033SOL    HW117561   4.617   1.920   9.098  0.1652  0.5217 -0.0016
 2033SOL    HW217562   4.572   2.018   8.990 -0.9813 -0.5485  1.5060
 2034SOL     OW17563   0.771   2.784   8.802 -0.2731  0.2089  0.3218
 2034SOL    HW117564   0.823   2.856   8.838 -0.8000 -1.2111  3.9080
 2034SOL    HW217565   0.690   2.794   8.851 -1.0950  1.4386 -1.2927
 2035SOL     OW17566   0.175   3.127   8.961  0.5202  0.0768 -0.2775
 2035SOL    HW117567   0.140   3.127   9.050 -0.1577  2.1522 -0.5632
 2035SOL    HW217568   0.257   3.176   8.964  1.5533 -1.4711 -2.8108
 2036SOL     OW17569   3.639   1.372   5.980 -0.3546  0.1081 -0.1149
 2036SOL    HW117570   3.617   1.452   5.932  0.2108  0.2521 -0.1383
 2036SOL    HW217571   3.721   1.409   6.012  0.2862 -0.7788 -0.7269
 2037SOL     OW17572   1.849   0.505   4.384  0.0581  0.2084 -0.3740
 2037SOL    HW117573   1.829   0.475   4.295 -0.5195  0.3474 -0.2915
 2037SOL    HW217574   1.823   0.433   4.441 -0.2180  0.2843 -0.4040
 2038SOL     OW17575   0.837   3.861   4.770 -0.0002 -0.3411 -0.0444
 2038SOL    HW117576   0.761   3.906   4.733  0.6774  2.1853  1.6543
 2038SOL    HW217577   0.890   3.834   4.695  1.5646  2.6419 -0.0019
 2039SOL     OW17578   2.068   3.919  12.573 -0.1141 -0.0714  0.8958
 2039SOL    HW117579   1.975   3.896  12.577  0.0982 -0.4195  3.4983
 2039SOL    HW217580   2.089   3.883  12.659  1.2705 -1.9292 -0.2152
 2040SOL     OW17581   3.954   1.523  17.252 -0.0192 -0.2239 -0.4832
 2040SOL    HW117582   3.871   1.552  17.289  0.2550 -1.2985  0.9640
 2040SOL    HW217583   3.941   1.513  17.158 -0.9599 -0.2438 -0.3430
 2041SOL     OW17584   3.554   2.034   5.210 -1.0608 -0.0791 -0.4035
 2041SOL    HW117585   3.628   2.092   5.190  0.4279 -1.7669  0.1138
 2041SOL    HW217586   3.496   2.070   5.143  0.9816 -0.5456 -2.4288
 2042SOL     OW17587   4.675   0.978   9.451  0.1340  0.1572  0.6926
 2042SOL    HW117588   0.037   0.985   9.417  0.5165  2.7504  2.2251
 2042SOL    HW217589   4.631   1.058   9.422  1.8501  1.3163  1.3054
 2043SOL     OW17590   3.065   2.868   1.966 -0.2250  0.2783  1.0171
 2043SOL    HW117591   3.113   2.792   1.998  1.2125 -0.2492 -2.4045
 2043SOL    HW217592   2.978   2.838   1.942 -0.7183  1.3103  1.4809
 2044SOL     OW17593   0.571   2.722   5.913  0.2184  0.4343  0.3254
 2044SOL    HW117594   0.615   2.760   5.837  0.9953  1.0026  1.0492
 2044SOL    HW217595   0.611   2.636   5.922 -1.8424 -0.4807  0.5893
 2045SOL     OW17596   4.344   3.627  12.632 -0.2288  0.4295 -0.8043
 2045SOL    HW117597   4.363   3.565  12.703  1.1293  1.9738  0.1813
 2045SOL    HW217598   4.432   3.654  12.607  0.4390 -1.0818 -0.1166
 2046SOL     OW17599   1.142   1.506   6.982  0.2389  0.2929  0.0284
 2046SOL    HW117600   1.099   1.479   7.063  2.0201 -0.1893  0.8002
 2046SOL    HW217601   1.141   1.428   6.926 -0.8221 -0.2867  0.8517
 2047SOL     OW17602   4.149   1.967  11.944  0.1347 -0.4863  0.2399
 2047SOL    HW117603   4.184   2.002  12.026  0.7949  2.4710 -1.3161
 2047SOL    HW217604   4.222   1.978  11.884 -0.1457 -0.2823 -0.0650
 2048SOL     OW17605   3.415   2.942   7.201 -0.1768  0.2649  0.0850
 2048SOL    HW117606   3.495   2.982   7.169  1.6377 -2.4872  1.1374
 2048SOL    HW217607   3.368   2.961   7.119 -0.5024  0.1305  0.2378
 2049SOL     OW17608   0.158   2.006   4.154 -0.2748  0.4357 -0.2919
 2049SOL    HW117609   0.229   2.068   4.141  0.6824 -0.6539 -0.2284
 2049SOL    HW217610   0.201   1.931   4.195 -1.5339  0.2311  0.6485
 2050SOL     OW17611   1.411   2.658   7.082  0.1893  0.3499  0.1294
 2050SOL    HW117612   1.470   2.733   7.095 -1.5714  1.6304  0.8285
 2050SOL    HW217613   1.324   2.698   7.092 -0.2583 -0.8313  0.9109
 2051SOL     OW17614   1.483   4.565   5.507  0.4029 -0.1896  0.0882
 2051SOL    HW117615   1.507   4.588   5.417  2.8626 -0.4216  0.6690
 2051SOL    HW217616   1.474   4.469   5.507 -1.3119 -0.0177  1.7774
 2052SOL     OW17617   2.475   3.985   2.650 -0.2051  0.0560 -0.1053
 2052SOL    HW117618   2.484   3.998   2.555 -1.0109 -1.4363 -0.3810
 2052SOL    HW217619   2.518   3.900   2.660  0.3679  0.4647  0.9271
 2053SOL     OW17620   3.634   3.253   2.905  0.3891 -0.4417 -0.0298
 2053SOL    HW117621   3.581   3.258   2.825 -0.1776  0.1487  0.3856
 2053SOL    HW217622   3.710   3.307   2.884  0.0672 -0.3854 -1.0515
 2054SOL     OW17623   4.239   3.748   6.279  0.4078 -0.1490 -0.0209
 2054SOL    HW117624   4.265   3.840   6.280 -1.2113  0.3379 -4.1324
 2054SOL    HW217625   4.147   3.757   6.253  1.0465  3.9977 -0.7629
 2055SOL     OW17626   2.460   4.161  15.380  0.4780 -0.3430 -0.3017
 2055SOL    HW117627   2.451   4.226  15.311  0.4115  0.9529  0.9289
 2055SOL    HW217628   2.369   4.147  15.406  0.9821  0.8401  2.0645
 2056SOL     OW17629   4.625   2.680   1.205 -0.0224 -0.3167 -0.2600
 2056SOL    HW117630   4.699   2.654   1.151  0.8837  0.0801  0.8077
 2056SOL    HW217631   4.610   2.768   1.170  0.6582  0.1200  0.5593
 2057SOL     OW17632   2.759   1.064   2.708 -0.0280 -0.4468  0.0195
 2057SOL    HW117633   2.844   1.024   2.693 -0.3038 -2.2108  3.2523
 2057SOL    HW217634   2.712   1.043   2.626  0.3995  0.9719 -0.5813
 2058SOL     OW17635   4.368   4.209   3.944 -0.5670  0.1052  0.3991
 2058SOL    HW117636   4.453   4.191   3.904 -0.3046 -0.9337  1.3993
 2058SOL    HW217637   4.376   4.155   4.023  4.0808  2.6431  1.6539
 2059SOL     OW17638   3.284   1.852  11.603 -0.4225  0.6630  0.4640
 2059SOL    HW117639   3.268   1.759  11.615 -3.1572  1.0414 -0.2203
 2059SOL    HW217640   3.250   1.876  11.516 -0.7095 -2.1103 -0.1876
 2060SOL     OW17641   1.794   0.217   0.630 -0.5092  0.1231  0.0575
 2060SOL    HW117642   1.859   0.171   0.578  0.3217  1.6091 -0.2345
 2060SOL    HW217643   1.814   0.308   0.605  0.8525 -0.6585 -1.6833
 2061SOL     OW17644   4.277   1.040   3.992 -0.8806 -0.2947 -0.6874
 2061SOL    HW117645   4.261   1.134   3.985  0.9039 -0.0542 -1.6077
 2061SOL    HW217646   4.221   1.017   3.918 -1.3274  0.6012 -0.6274
 2062SOL     OW17647   2.520   2.244  14.696 -0.4862 -0.1365 -0.0117
 2062SOL    HW117648   2.505   2.338  14.701  1.0858  0.2130 -1.8116
 2062SOL    HW217649   2.552   2.233  14.606 -1.3849 -0.9077 -0.2365
 2063SOL     OW17650   0.003   2.592   3.171  0.0492 -0.2776 -0.3729
 2063SOL    HW117651   4.698   2.658   3.109 -1.0938 -0.0295  0.4853
 2063SOL    HW217652   4.666   2.523   3.151  0.0767 -0.3351 -0.2621
 2064SOL     OW17653   1.210   2.741   5.278  0.2224  0.2406 -0.0524
 2064SOL    HW117654   1.147   2.672   5.300 -0.9228  0.6133 -2.1431
 2064SOL    HW217655   1.195   2.793   5.357  1.0220 -2.2677  1.7510
 2065SOL     OW17656   4.451   0.423   7.720  0.2717  0.2467  0.0308
 2065SOL    HW117657   4.372   0.423   7.665 -0.2042  0.1993  0.7135
 2065SOL    HW217658   4.408   0.438   7.804  1.4163  0.0665  0.6423
 2066SOL     OW17659   2.671   3.404   8.966  0.0076 -0.3157 -0.1499
 2066SOL    HW117660   2.634   3.480   8.923 -0.5293 -0.4933 -0.0047
 2066SOL    HW217661   2.761   3.429   8.989  0.8703 -1.0897 -2.6953
 2067SOL     OW17662   4.031   2.064   5.827 -0.1971 -0.4562  0.2118
 2067SOL    HW117663   4.056   2.146   5.784 -0.1915 -0.0846  0.9308
 2067SOL    HW217664   4.121   2.032   5.835  0.3190  1.2536  1.4210
 2068SOL     OW17665   0.524   0.790  11.307  0.6418 -0.1314 -0.3484
 2068SOL    HW117666   0.458   0.734  11.348 -0.6962  2.0927  0.5504
 2068SOL    HW217667   0.541   0.739  11.228 -1.5842 -1.2599 -0.0768
 2069SOL     OW17668   3.740   3.015  13.282  0.1787 -0.3012  0.2171
 2069SOL    HW117669   3.669   3.077  13.299  1.0940  0.4102  1.3715
 2069SOL    HW217670   3.724   2.940  13.340  0.6882 -1.2230 -0.8376
 2070SOL     OW17671   0.150   4.295  10.567 -0.3811  0.4752 -0.1626
 2070SOL    HW117672   0.143   4.343  10.485 -1.4736  0.0592 -0.3122
 2070SOL    HW217673   0.242   4.270  10.564  0.2862  2.9907 -0.0965
 2071SOL     OW17674   2.983   3.635   4.166  0.2228 -0.1204 -0.2205
 2071SOL    HW117675   3.031   3.696   4.110  0.8325 -1.2103 -0.8866
 2071SOL    HW217676   2.945   3.590   4.091  0.4485 -0.0264 -0.3897
 2072SOL     OW17677   4.630   3.375  16.214  0.1224 -0.2959 -0.0931
 2072SOL    HW117678   4.552   3.389  16.268 -0.9703 -0.8637 -1.5216
 2072SOL    HW217679   4.612   3.289  16.176 -0.3282  0.7586 -2.2098
 2073SOL     OW17680   1.398   3.887  14.763 -0.3197  0.0093  0.6616
 2073SOL    HW117681   1.316   3.864  14.805 -2.1138  2.1784 -1.6380
 2073SOL    HW217682   1.373   3.928  14.680 -1.2332 -1.4301  0.2387
 2074SOL     OW17683   4.352   4.259  10.516  0.2555  0.3262  0.0772
 2074SOL    HW117684   4.445   4.245  10.533 -0.3184 -0.5417  2.5102
 2074SOL    HW217685   4.354   4.342  10.468 -2.7927  0.6649  0.5204
 2075SOL     OW17686   2.105   0.576   0.873 -0.0777  0.4014  0.3705
 2075SOL    HW117687   2.191   0.534   0.868  0.0435  0.8344 -1.0695
 2075SOL    HW217688   2.065   0.534   0.949 -1.0573  1.4101  0.3977
 2076SOL     OW17689   2.596   2.577   1.771 -0.0286 -0.1503 -0.5066
 2076SOL    HW117690   2.581   2.650   1.710 -1.2743  0.0814  0.0837
 2076SOL    HW217691   2.552   2.506   1.724 -1.6260 -0.1431  1.0111
 2077SOL     OW17692   3.872   3.834   2.214 -0.4610 -0.4574 -0.3178
 2077SOL    HW117693   3.935   3.903   2.191 -2.3564  1.1608 -0.6739
 2077SOL    HW217694   3.914   3.764   2.165  0.6215  1.3364 -1.9665
 2078SOL     OW17695   1.254   2.689  16.690  0.0370  0.5214  0.1462
 2078SOL    HW117696   1.307   2.720  16.764 -0.2540  0.1912  0.4979
 2078SOL    HW217697   1.169   2.722  16.718 -0.4543 -0.2145 -0.4682
 2079SOL     OW17698   1.579   0.190   8.983 -0.3401  0.1859  0.4093
 2079SOL    HW117699   1.661   0.141   8.992 -1.5655 -2.1267 -0.8175
 2079SOL    HW217700   1.615   0.273   8.953  0.0849 -0.1130  0.0859
 2080SOL     OW17701   2.198   4.376   2.800  0.3180  0.5186  0.4906
 2080SOL    HW117702   2.212   4.281   2.793  0.4496  0.6144 -0.6511
 2080SOL    HW217703   2.164   4.393   2.712 -1.2846 -1.3921  0.7569
 2081SOL     OW17704   0.273   0.918  15.265  0.1181 -0.2602 -0.3168
 2081SOL    HW117705   0.361   0.894  15.235 -0.0837  0.8419 -1.7677
 2081SOL    HW217706   0.279   1.013  15.272  2.0766 -0.3296 -1.0171
 2082SOL     OW17707   0.693   2.798   7.576 -0.2534  0.0794  0.4961
 2082SOL    HW117708   0.772   2.751   7.601 -0.3572  0.9911  2.5016
 2082SOL    HW217709   0.675   2.852   7.653  1.0255  1.6748 -0.3354
 2083SOL     OW17710   1.843   1.029  15.931  0.0957 -0.2746 -0.3422
 2083SOL    HW117711   1.916   1.019  15.992  0.8281  0.1633 -1.1533
 2083SOL    HW217712   1.877   1.107  15.888  2.6931 -1.4949 -0.5435
 2084SOL     OW17713   4.353   0.384  17.034  0.4856  0.4491  0.0965
 2084SOL    HW117714   4.411   0.451  16.998 -0.9208  1.2345 -0.7145
 2084SOL    HW217715   4.271   0.431  17.053  2.2754  3.2937  0.8057
 2085SOL     OW17716   4.001   3.198   1.471 -0.3744 -0.4059 -0.4426
 2085SOL    HW117717   3.984   3.138   1.543 -1.2519  1.1234  0.6185
 2085SOL    HW217718   3.982   3.137   1.400 -0.2277 -0.5521 -0.3556
 2086SOL     OW17719   2.919   3.373   5.421  0.2895 -0.2353  0.2081
 2086SOL    HW117720   2.901   3.386   5.328 -0.4477 -0.0678  0.3725
 2086SOL    HW217721   2.926   3.277   5.427  1.1267 -0.1590  0.4244
 2087SOL     OW17722   2.192   1.884  11.315 -0.1218  0.0401  0.0875
 2087SOL    HW117723   2.159   1.872  11.226  2.0284  0.6153 -0.7968
 2087SOL    HW217724   2.122   1.858  11.375 -0.3971  0.9510  0.1514
 2088SOL     OW17725   0.185   1.572  12.393  0.7188  0.0033  0.1961
 2088SOL    HW117726   0.254   1.554  12.456  0.9090 -0.4095 -0.1293
 2088SOL    HW217727   0.238   1.595  12.316  0.4978  0.4367  0.1729
 2089SOL     OW17728   4.116   3.632   0.507 -0.0043  0.3059  0.5140
 2089SOL    HW117729   4.161   3.715   0.494 -1.9916  1.0169 -1.8054
 2089SOL    HW217730   4.054   3.633   0.434  1.5603  0.8363 -0.8218
 2090SOL     OW17731   3.188   2.780   4.477  0.0707 -0.2038 -0.5474
 2090SOL    HW117732   3.251   2.710   4.462  0.1044 -0.1760 -0.5366
 2090SOL    HW217733   3.161   2.758   4.567  2.1868 -0.3385  0.0490
 2091SOL     OW17734   0.628   1.383   6.636  0.0068 -0.4020 -0.0438
 2091SOL    HW117735   0.576   1.306   6.656 -1.1713  0.0285 -1.4659
 2091SOL    HW217736   0.553   1.431   6.600  0.0089 -1.0563 -0.9190
 2092SOL     OW17737   2.210   1.036   5.488 -0.1894  0.4395 -0.0268
 2092SOL    HW117738   2.206   1.006   5.397 -1.0302 -0.4467  0.3030
 2092SOL    HW217739   2.288   1.092   5.483  1.1166 -1.5871 -2.1317
 2093SOL     OW17740   1.921   3.016   4.039  0.3719 -0.1611 -0.0100
 2093SOL    HW117741   2.000   3.046   4.084 -0.3888 -1.1736  1.9751
 2093SOL    HW217742   1.954   2.978   3.957  1.5171 -0.5762  0.6387
 2094SOL     OW17743   4.432   4.588   4.055  0.0182 -0.0839 -0.2629
 2094SOL    HW117744   4.354   4.633   4.025 -0.9526 -1.0936  0.7380
 2094SOL    HW217745   4.502   4.646   4.027 -0.5927  0.5681 -0.4133
 2095SOL     OW17746   1.272   2.828   3.517 -0.2293 -0.7318 -0.3170
 2095SOL    HW117747   1.286   2.739   3.484  2.8489 -1.0466  1.8362
 2095SOL    HW217748   1.208   2.809   3.586 -1.6345  0.9444 -1.1857
 2096SOL     OW17749   4.179   3.967   3.937 -0.6060 -0.3912  0.0294
 2096SOL    HW117750   4.263   3.932   3.909 -0.3750  0.4177 -0.2854
 2096SOL    HW217751   4.187   4.060   3.914  2.5162 -0.9410 -1.0344
 2097SOL     OW17752   2.602   3.477   4.480 -0.4886 -0.4949 -0.4544
 2097SOL    HW117753   2.663   3.403   4.479 -0.4200 -0.4463  0.4954
 2097SOL    HW217754   2.643   3.542   4.423  2.6204 -0.1803  2.1434
 2098SOL     OW17755   4.449   3.257   0.778 -0.2807 -0.0164 -0.3418
 2098SOL    HW117756   4.383   3.275   0.711  0.0045  0.0476 -0.6060
 2098SOL    HW217757   4.397   3.233   0.855 -0.8277 -1.2916 -1.1221
 2099SOL     OW17758   0.433   3.939   1.952  0.1925  0.8518 -0.3237
 2099SOL    HW117759   0.449   4.033   1.959 -0.5479  1.0204 -0.9660
 2099SOL    HW217760   0.425   3.925   1.858  0.2485 -0.9294 -0.0696
 2100SOL     OW17761   0.711   2.450   5.483  0.3206  0.1397 -0.3422
 2100SOL    HW117762   0.766   2.372   5.487  0.1643  0.0288 -0.3980
 2100SOL    HW217763   0.723   2.485   5.571  0.5847  0.3300 -0.4543
 2101SOL     OW17764   0.866   2.868   5.296  0.0038  0.3707 -0.4291
 2101SOL    HW117765   0.775   2.890   5.275 -0.9764 -1.4235  1.9368
 2101SOL    HW217766   0.854   2.773   5.306  2.9624 -0.3253 -3.6229
 2102SOL     OW17767   0.541   1.846   4.417  0.1230 -0.8278 -0.2696
 2102SOL    HW117768   0.511   1.920   4.470 -1.0044 -2.5254  1.4086
 2102SOL    HW217769   0.636   1.842   4.424  0.2279  2.1675  0.1557
 2103SOL     OW17770   3.466   0.491   9.855 -0.3211 -0.4677  0.0255
 2103SOL    HW117771   3.548   0.510   9.901  0.5955  0.0968 -1.8593
 2103SOL    HW217772   3.485   0.414   9.802 -0.6742 -0.7579  0.3213
 2104SOL     OW17773   4.639   2.212   9.212  0.3864  0.3900 -0.4711
 2104SOL    HW117774   4.659   2.137   9.156  2.1449  0.7130 -0.2769
 2104SOL    HW217775   4.607   2.172   9.292 -0.8584  0.8734 -0.7285
 2105SOL     OW17776   2.647   4.657  12.207  0.2409  0.3954 -0.1244
 2105SOL    HW117777   2.691   4.572  12.213 -1.3246 -0.2404  2.1872
 2105SOL    HW217778   2.573   4.638  12.265  0.5318  2.0038  0.7639
 2106SOL     OW17779   2.255   1.923   4.991  0.5021  0.4867 -0.3200
 2106SOL    HW117780   2.208   1.920   5.074  1.0813 -0.5030 -0.0326
 2106SOL    HW217781   2.330   1.868   5.012 -0.7655 -0.8439  0.7407
 2107SOL     OW17782   4.665   4.686   9.982  0.8418 -0.3129  0.7123
 2107SOL    HW117783   4.579   4.673   9.943  0.6038 -0.2189  1.2071
 2107SOL    HW217784   4.653   4.686  10.077 -0.2035  0.9354  0.5763
 2108SOL     OW17785   3.992   0.018  13.644  0.6954 -0.2199 -0.1275
 2108SOL    HW117786   4.018   0.016  13.552 -0.4190  0.6244 -0.4545
 2108SOL    HW217787   3.902   4.718  13.626  0.3226  1.0525 -0.1711
 2109SOL     OW17788   1.261   2.536   7.974 -0.0215 -0.3430 -0.8783
 2109SOL    HW117789   1.232   2.459   8.024  0.9422 -0.1525 -0.0199
 2109SOL    HW217790   1.223   2.610   8.022 -1.6235 -0.7007 -1.5862
 2110SOL     OW17791   3.446   4.073   8.956  0.1139 -0.1573 -0.3648
 2110SOL    HW117792   3.511   4.122   9.006  0.1848  0.1278 -0.7388
 2110SOL    HW217793   3.375   4.135   8.940 -0.2218  0.2418  2.7099
 2111SOL     OW17794   4.170   3.524   1.925 -0.0264  0.3263 -0.3971
 2111SOL    HW117795   4.102   3.502   1.861 -0.4288  0.4705 -0.0225
 2111SOL    HW217796   4.223   3.571   1.861  0.4438 -1.6960 -1.4970
 2112SOL     OW17797   2.211   3.343   7.189 -0.4222  0.6581 -1.0836
 2112SOL    HW117798   2.205   3.438   7.182 -0.8832  0.5517 -2.1320
 2112SOL    HW217799   2.131   3.317   7.142  0.0784  0.0199 -1.5890
 2113SOL     OW17800   0.141   3.559   5.200  0.2939 -0.0808 -0.2718
 2113SOL    HW117801   0.080   3.614   5.151 -0.7004  1.5261  2.7953
 2113SOL    HW217802   0.167   3.514   5.119  2.8166  3.3108 -1.3361
 2114SOL     OW17803   3.442   2.123   3.773  0.1124 -0.3888  0.1749
 2114SOL    HW117804   3.455   2.107   3.679 -0.6879  1.0461 -0.1770
 2114SOL    HW217805   3.349   2.148   3.780 -0.1246 -1.1684 -0.1116
 2115SOL     OW17806   2.944   3.156   7.955  0.0292  0.2704 -0.0815
 2115SOL    HW117807   2.900   3.073   7.970  0.2092  0.4844  1.5971
 2115SOL    HW217808   2.903   3.210   8.023 -0.1055  0.9983 -0.7351
 2116SOL     OW17809   0.877   2.162   6.227  0.3443  0.1104  0.5485
 2116SOL    HW117810   0.936   2.158   6.303 -0.3258 -1.4688  0.9829
 2116SOL    HW217811   0.793   2.133   6.261 -0.3540 -0.3081 -1.5829
 2117SOL     OW17812   2.974   4.527  16.175  0.4385 -0.1207 -0.1934
 2117SOL    HW117813   2.975   4.463  16.104 -0.0713 -0.7554  0.3697
 2117SOL    HW217814   2.879   4.521  16.186  0.6118 -0.6996  1.0083
 2118SOL     OW17815   0.829   0.394   4.576  0.3581  0.1285 -0.3872
 2118SOL    HW117816   0.871   0.444   4.646 -0.2639  0.9504 -0.5892
 2118SOL    HW217817   0.909   0.375   4.527  0.6932 -0.6655  0.4748
 2119SOL     OW17818   1.824   3.397  16.365 -0.3463 -0.1929  0.3309
 2119SOL    HW117819   1.904   3.364  16.323 -0.6640  0.6055 -0.9122
 2119SOL    HW217820   1.825   3.351  16.448 -1.8533 -2.0485 -0.6815
 2120SOL     OW17821   2.269   3.012   2.191  0.7145  0.6538 -0.9900
 2120SOL    HW117822   2.251   2.961   2.112  1.6373 -1.4467  0.1731
 2120SOL    HW217823   2.331   3.077   2.157  1.0235  1.3594  0.9293
 2121SOL     OW17824   4.289   2.365   1.928 -0.4958  0.4286  0.0432
 2121SOL    HW117825   4.298   2.302   1.857  1.4579  1.4298 -0.5904
 2121SOL    HW217826   4.280   2.449   1.883 -0.5981  0.4901  0.1762
 2122SOL     OW17827   4.307   3.417  12.051  0.0847 -0.7258 -0.2410
 2122SOL    HW117828   4.278   3.351  11.989 -3.3104 -0.4607  1.1054
 2122SOL    HW217829   4.301   3.495  11.996  0.0360 -0.8096 -0.3525
 2123SOL     OW17830   1.406   1.393  13.510  0.0811 -0.0998  0.6945
 2123SOL    HW117831   1.431   1.419  13.421 -1.7506  2.5979  0.9620
 2123SOL    HW217832   1.472   1.330  13.538  2.2659  0.9458 -2.1188
 2124SOL     OW17833   3.398   0.101  10.597 -0.0232  0.2565 -0.3183
 2124SOL    HW117834   3.346   0.117  10.518  0.6884 -1.8645 -1.2049
 2124SOL    HW217835   3.407   0.190  10.631 -0.3214  0.5354 -0.9556
 2125SOL     OW17836   3.995   1.938  13.296  0.1451 -0.3258  0.1623
 2125SOL    HW117837   4.057   2.010  13.293  1.7227 -1.6461  1.2071
 2125SOL    HW217838   4.007   1.904  13.207 -1.3793 -1.1788  0.2703
 2126SOL     OW17839   0.436   3.368   9.846  0.0892 -0.2734  0.4672
 2126SOL    HW117840   0.530   3.359   9.862  0.4123 -1.2370 -1.9274
 2126SOL    HW217841   0.398   3.408   9.924 -0.9250 -1.9577  0.8318
 2127SOL     OW17842   2.364   2.977   5.324  0.8811  0.2802  0.5245
 2127SOL    HW117843   2.379   3.034   5.399 -0.0722  0.6639  0.4240
 2127SOL    HW217844   2.446   2.984   5.276 -0.5009  0.7431 -1.7824
 2128SOL     OW17845   4.191   0.506   1.691  0.3702  0.4462 -0.0512
 2128SOL    HW117846   4.134   0.533   1.619  0.9240  1.9258  0.0599
 2128SOL    HW217847   4.136   0.520   1.767 -0.9291  1.2272 -1.1378
 2129SOL     OW17848   2.202   2.402   5.500 -0.2245  0.0825 -0.6409
 2129SOL    HW117849   2.270   2.417   5.434 -1.4953 -1.6175 -2.3277
 2129SOL    HW217850   2.147   2.476   5.475 -2.2208 -1.5125 -0.9348
 2130SOL     OW17851   3.140   3.955   7.103 -0.5441  0.4326  0.8585
 2130SOL    HW117852   3.123   4.048   7.096  1.5173  0.8352  1.0675
 2130SOL    HW217853   3.132   3.936   7.197  0.7894 -1.6720  0.5561
 2131SOL     OW17854   3.831   4.065   8.980 -0.0776  0.6446  0.3363
 2131SOL    HW117855   3.750   4.118   8.985  0.2321  1.2252 -0.9052
 2131SOL    HW217856   3.837   4.052   8.886 -1.0927 -2.3752  0.7028
 2132SOL     OW17857   3.597   0.647   2.449 -0.3885 -0.2011  0.1379
 2132SOL    HW117858   3.646   0.565   2.458 -1.7209 -1.1589 -1.3852
 2132SOL    HW217859   3.529   0.619   2.388 -1.8779  1.0553  1.2594
 2133SOL     OW17860   3.647   0.462   4.427  0.2166 -0.1423  0.6943
 2133SOL    HW117861   3.676   0.498   4.511  2.7449 -1.0630  0.2084
 2133SOL    HW217862   3.724   0.415   4.396 -0.9574 -1.9176  0.4664
 2134SOL     OW17863   3.450   3.217   6.035  1.1493 -0.2638 -0.2593
 2134SOL    HW117864   3.411   3.185   6.116  1.7980 -0.2694  0.0537
 2134SOL    HW217865   3.541   3.206   6.064  0.7793 -1.3478  0.4869
 2135SOL     OW17866   0.779   0.874   6.302  0.4189 -0.0451 -0.3705
 2135SOL    HW117867   0.833   0.893   6.379  0.5282 -1.7107 -0.0361
 2135SOL    HW217868   0.710   0.839   6.359 -0.1498 -0.2206 -1.1655
 2136SOL     OW17869   1.257   1.001  17.618  0.1618  0.0585 -0.3271
 2136SOL    HW117870   1.297   1.051  17.690  1.2299 -2.4266  0.7872
 2136SOL    HW217871   1.315   1.025  17.545 -1.4407 -0.1045 -1.6403
 2137SOL     OW17872   2.938   2.863   2.972 -0.4076 -0.0913 -0.3607
 2137SOL    HW117873   2.983   2.799   2.917  0.6039 -0.5015  0.9586
 2137SOL    HW217874   2.892   2.914   2.905  0.6125 -1.3467 -2.0311
 2138SOL     OW17875   0.495   2.993   6.808 -0.0301  0.7928 -0.1819
 2138SOL    HW117876   0.584   2.969   6.782 -0.7944 -0.5789 -1.5518
 2138SOL    HW217877   0.512   3.047   6.884 -1.5470  0.7952  0.1566
 2139SOL     OW17878   2.412   1.460   3.163  0.1840  0.5173 -0.3036
 2139SOL    HW117879   2.365   1.526   3.214  0.1646  1.6883 -1.8302
 2139SOL    HW217880   2.369   1.467   3.078 -0.6272  0.8882  0.1419
 2140SOL     OW17881   0.525   4.167  13.190  0.5915 -0.0985  0.2955
 2140SOL    HW117882   0.529   4.102  13.120 -0.7437 -1.7216  1.7209
 2140SOL    HW217883   0.431   4.183  13.204 -0.0779 -1.2093 -2.9007
 2141SOL     OW17884   3.664   0.671   8.423  0.3988 -0.0306  0.1749
 2141SOL    HW117885   3.693   0.762   8.422  2.4475 -0.6872 -0.8561
 2141SOL    HW217886   3.570   0.677   8.439  0.3945 -0.3800  0.2895
 2142SOL     OW17887   0.169   3.006   9.287 -0.3940  0.0047 -0.5718
 2142SOL    HW117888   0.203   2.933   9.234  2.5973  1.6515 -0.8872
 2142SOL    HW217889   0.077   2.978   9.293 -0.4897  0.5648  0.5912
 2143SOL     OW17890   1.589   2.405   3.329 -0.5836  0.2669  0.1769
 2143SOL    HW117891   1.504   2.362   3.338  1.0351 -3.0091 -0.0680
 2143SOL    HW217892   1.582   2.470   3.399 -2.3132 -0.0358  0.2755
 2144SOL     OW17893   1.264   0.767  11.217  0.0364 -0.0092 -0.2502
 2144SOL    HW117894   1.281   0.859  11.240  1.2092 -0.7394  1.7971
 2144SOL    HW217895   1.287   0.721  11.297  0.4989  0.5115 -0.0854
 2145SOL     OW17896   0.291   3.994   2.501 -0.2504 -0.2290 -0.3582
 2145SOL    HW117897   0.249   3.928   2.446 -1.1251  2.7773 -3.3171
 2145SOL    HW217898   0.210   4.027   2.539 -0.7079 -1.0185 -0.6634
 2146SOL     OW17899   1.793   4.095  12.767 -0.1852  0.3555 -0.3925
 2146SOL    HW117900   1.838   4.130  12.690 -0.5468 -0.0473 -0.7854
 2146SOL    HW217901   1.817   4.004  12.753 -2.6606 -0.1451 -1.2609
 2147SOL     OW17902   4.597   4.574   5.064 -0.1014 -0.3981 -0.0335
 2147SOL    HW117903   4.673   4.527   5.031  0.7673 -1.3706  3.2960
 2147SOL    HW217904   4.531   4.556   4.997 -0.3612 -1.2730  0.4554
 2148SOL     OW17905   2.452   2.403   7.698 -0.6589  0.1312  0.0775
 2148SOL    HW117906   2.497   2.324   7.670  0.2561  0.7745 -0.2690
 2148SOL    HW217907   2.469   2.464   7.627 -0.5284  0.0221  0.0142
 2149SOL     OW17908   2.735   3.796   7.341 -0.5382  0.2230 -0.8059
 2149SOL    HW117909   2.701   3.743   7.413 -1.1921 -1.5252 -2.3765
 2149SOL    HW217910   2.823   3.761   7.326 -1.7786 -2.1833 -2.5730
 2150SOL     OW17911   0.867   2.353  15.580  0.5668 -0.6677 -0.3456
 2150SOL    HW117912   0.872   2.444  15.553 -0.0168 -0.2490  0.9574
 2150SOL    HW217913   0.867   2.375  15.673 -0.3881  2.8112 -1.1898
 2151SOL     OW17914   1.776   1.731   8.358 -0.1891 -0.3500 -0.4697
 2151SOL    HW117915   1.739   1.787   8.290  0.0268  0.3229 -0.0453
 2151SOL    HW217916   1.740   1.646   8.333 -0.3863  0.1606 -1.9276
 2152SOL     OW17917   4.643   4.340   3.887  0.5885  0.2347  0.1054
 2152SOL    HW117918   4.582   4.414   3.881  0.3719 -0.0336 -0.9811
 2152SOL    HW217919   4.720   4.396   3.901 -0.0064  1.1980 -0.4173
 2153SOL     OW17920   2.163   4.087   7.564 -0.1141  0.0455 -0.7488
 2153SOL    HW117921   2.137   4.175   7.590 -0.7356  0.2414 -2.0407
 2153SOL    HW217922   2.253   4.091   7.598  0.2343 -0.1654 -1.6627
 2154SOL     OW17923   1.192   4.367  11.916 -0.0212  0.6831  0.3918
 2154SOL    HW117924   1.101   4.355  11.941  0.6522 -0.2384  2.3420
 2154SOL    HW217925   1.189   4.462  11.899 -0.0639  0.1166 -2.7264
 2155SOL     OW17926   2.080   4.006   9.842  0.1264 -1.0585 -0.0586
 2155SOL    HW117927   2.104   4.085   9.890 -1.2973 -1.3923  1.1920
 2155SOL    HW217928   2.035   3.948   9.903  0.9490 -0.7100  0.8861
 2156SOL     OW17929   0.045   1.009   8.558 -0.1152 -0.0468 -0.7767
 2156SOL    HW117930   0.019   0.953   8.631 -0.5999 -0.1287 -1.0116
 2156SOL    HW217931   0.109   1.071   8.594  1.2799 -1.2185 -1.2188
 2157SOL     OW17932   1.902   4.566   5.549  0.6908  0.1440 -0.2703
 2157SOL    HW117933   1.941   4.541   5.632 -1.1545 -0.5188  0.3914
 2157SOL    HW217934   1.833   4.624   5.583  0.0534  0.6168 -2.2994
 2158SOL     OW17935   0.856   1.668   6.517  0.7016 -0.1986 -0.1860
 2158SOL    HW117936   0.948   1.692   6.510  1.1069 -2.1844 -1.6583
 2158SOL    HW217937   0.833   1.692   6.427 -3.0453 -2.2301  0.2222
 2159SOL     OW17938   0.936   0.437   7.841  0.1657 -0.4650 -0.0095
 2159SOL    HW117939   0.875   0.365   7.823 -0.4847  0.3912 -1.1993
 2159SOL    HW217940   0.946   0.477   7.755 -0.1808  0.6671  0.4762
 2160SOL     OW17941   2.781   1.226   3.208 -0.2134 -0.2189  0.2759
 2160SOL    HW117942   2.768   1.165   3.281  0.0616 -0.6217 -0.0121
 2160SOL    HW217943   2.720   1.193   3.142 -1.3064  0.2961  1.0221
 2161SOL     OW17944   2.729   0.512   5.197  0.1669  0.6707 -0.2978
 2161SOL    HW117945   2.782   0.574   5.146 -0.5804  0.0386 -1.8722
 2161SOL    HW217946   2.641   0.546   5.182  0.9952  2.7651 -0.4656
 2162SOL     OW17947   2.105   0.003   5.489  0.0553  0.3389 -0.0615
 2162SOL    HW117948   2.035   4.675   5.523 -0.2504  1.3304  0.9395
 2162SOL    HW217949   2.116   0.074   5.552 -0.6635 -0.6622  1.1948
 2163SOL     OW17950   3.556   2.252   2.699  0.0238  0.2234  0.4558
 2163SOL    HW117951   3.536   2.159   2.697  0.0696  0.2034  0.9790
 2163SOL    HW217952   3.643   2.239   2.738 -0.4330 -0.3034  1.2869
 2164SOL     OW17953   3.156   4.684   7.912 -0.3890  0.0115  0.4710
 2164SOL    HW117954   3.157   4.664   8.006 -2.9122  1.5808  0.8328
 2164SOL    HW217955   3.160   0.052   7.915  1.7016 -0.0251 -1.0363
 2165SOL     OW17956   1.319   0.572   7.035  0.6084  0.2269  0.0736
 2165SOL    HW117957   1.326   0.502   7.099  1.0497 -0.0186 -0.2405
 2165SOL    HW217958   1.400   0.623   7.038  0.9175 -0.3009  0.7746
 2166SOL     OW17959   0.465   1.650  17.014 -0.3207  0.1660 -0.3810
 2166SOL    HW117960   0.424   1.602  16.941  1.8708 -0.1787 -1.3854
 2166SOL    HW217961   0.557   1.625  17.004 -1.0239 -1.9298 -1.5483
 2167SOL     OW17962   1.084   3.203   1.826  0.1179 -0.0842  0.1251
 2167SOL    HW117963   1.011   3.264   1.828  0.4266  0.2567  0.7577
 2167SOL    HW217964   1.155   3.257   1.861  1.0160 -1.0029 -0.2621
 2168SOL     OW17965   4.355   1.730   2.928 -0.2372 -0.1469  0.0783
 2168SOL    HW117966   4.384   1.818   2.953  1.3487 -0.0526 -2.0820
 2168SOL    HW217967   4.381   1.722   2.836  1.5996 -0.4765  0.6415
 2169SOL     OW17968   2.016   4.530   8.155  0.1447 -0.1335 -0.1059
 2169SOL    HW117969   2.060   4.609   8.186  1.3926 -0.5919 -0.6979
 2169SOL    HW217970   1.933   4.526   8.203  0.0464 -0.0317 -0.2651
 2170SOL     OW17971   4.085   3.060   8.682  0.3477 -0.4829 -0.3146
 2170SOL    HW117972   4.119   3.011   8.607 -0.9111 -1.4209 -0.2731
 2170SOL    HW217973   4.007   3.099   8.641 -0.7252 -0.2341  2.0054
 2171SOL     OW17974   3.567   3.841  17.478 -0.0333 -0.0964 -0.4326
 2171SOL    HW117975   3.553   3.820  17.571  0.5516 -2.1203 -0.7860
 2171SOL    HW217976   3.607   3.761  17.443  0.8482  0.3781 -0.4865
 2172SOL     OW17977   0.863   3.221   4.612 -0.3595 -0.2374 -0.0212
 2172SOL    HW117978   0.779   3.260   4.638 -0.9461 -0.8464 -1.0167
 2172SOL    HW217979   0.844   3.130   4.635  1.9376 -0.4193  1.2319
 2173SOL     OW17980   3.144   2.736   3.413  0.0212 -0.0959 -0.0281
 2173SOL    HW117981   3.165   2.826   3.440 -1.8794  0.1210  0.6908
 2173SOL    HW217982   3.210   2.726   3.344 -0.1652 -3.3486  0.2658
 2174SOL     OW17983   0.867   3.837   3.250  0.2957 -0.4263 -0.1792
 2174SOL    HW117984   0.895   3.756   3.292 -1.0681 -0.6460  0.3095
 2174SOL    HW217985   0.848   3.795   3.166  0.9973 -1.1718  0.0370
 2175SOL     OW17986   3.507   3.419  10.549 -0.2517  0.3312  0.3130
 2175SOL    HW117987   3.583   3.477  10.549 -0.4738  0.6199 -0.5517
 2175SOL    HW217988   3.491   3.433  10.642  0.4594 -0.5373  0.5568
 2176SOL     OW17989   0.486   3.981   9.346 -0.3012  0.0536 -0.2001
 2176SOL    HW117990   0.466   3.920   9.418  0.5132 -0.7587 -0.6590
 2176SOL    HW217991   0.543   4.050   9.379 -0.3048 -0.4084  0.7776
 2177SOL     OW17992   2.206   2.170   2.744 -0.7680  0.3367 -0.1241
 2177SOL    HW117993   2.221   2.250   2.795 -0.2262  1.0258 -1.3668
 2177SOL    HW217994   2.238   2.099   2.800  2.9086  1.2922 -1.0133
 2178SOL     OW17995   0.700   3.834   5.501  0.2350 -0.2782  0.1384
 2178SOL    HW117996   0.733   3.918   5.468 -0.3363 -1.0480 -2.4013
 2178SOL    HW217997   0.606   3.845   5.507  0.1855 -1.3226  1.3774
 2179SOL     OW17998   3.028   3.381   6.497 -0.8746 -0.3040 -0.3930
 2179SOL    HW117999   3.115   3.346   6.475 -0.6074  0.3317 -0.3808
 2179SOL    HW218000   3.048   3.472   6.473  1.2411 -0.7186 -0.1877
 2180SOL     OW18001   3.888   1.744   5.353  0.0597 -0.5148 -0.2049
 2180SOL    HW118002   3.818   1.697   5.398  1.3418 -2.9453 -0.7235
 2180SOL    HW218003   3.950   1.736   5.426  0.7093  1.7523 -0.5164
 2181SOL     OW18004   3.182   1.115   8.184  0.1406 -0.6758 -0.0021
 2181SOL    HW118005   3.231   1.038   8.213  0.2398 -0.0925  1.3738
 2181SOL    HW218006   3.167   1.099   8.091  0.2102 -3.0934  0.3947
 2182SOL     OW18007   0.273   3.990   4.457 -0.3011  0.0292  0.0010
 2182SOL    HW118008   0.364   4.019   4.460 -0.1240 -0.5777  0.5306
 2182SOL    HW218009   0.273   3.967   4.364  0.6761  0.5301 -0.1190
 2183SOL     OW18010   3.209   1.782   9.587  0.6377  0.2520 -0.3539
 2183SOL    HW118011   3.291   1.806   9.632  1.6766  0.2413 -2.2285
 2183SOL    HW218012   3.144   1.823   9.644 -1.7543 -1.9002 -1.5402
 2184SOL     OW18013   3.528   2.300  17.086  0.3443 -0.3970  0.3332
 2184SOL    HW118014   3.583   2.249  17.027  0.4515 -1.6861  1.5211
 2184SOL    HW218015   3.557   2.262  17.170  0.2523  2.1887  1.5347
 2185SOL     OW18016   0.889   0.601  12.171  0.4250  0.1466  0.6668
 2185SOL    HW118017   0.949   0.675  12.164 -0.6963  1.1504  1.8475
 2185SOL    HW218018   0.952   0.532  12.149 -0.9992  0.1314 -3.3618
 2186SOL     OW18019   3.295   1.475   8.935  0.2321 -0.4821 -0.7791
 2186SOL    HW118020   3.225   1.410   8.938 -0.4982  0.1433 -3.6163
 2186SOL    HW218021   3.374   1.427   8.911  2.2480  1.8540  1.2019
 2187SOL     OW18022   1.759   1.482   3.953 -0.3514  0.2714 -0.3158
 2187SOL    HW118023   1.714   1.555   3.995 -0.1170  0.1864  0.0763
 2187SOL    HW218024   1.848   1.519   3.956 -1.0853  1.9904 -0.1708
 2188SOL     OW18025   1.073   3.599   9.290  0.1422 -0.5436 -0.1696
 2188SOL    HW118026   1.096   3.539   9.361 -0.0218 -0.6634 -0.2179
 2188SOL    HW218027   1.005   3.555   9.239  0.6608 -0.6270 -0.7918
 2189SOL     OW18028   1.095   2.713   8.086 -0.0548  0.3731 -0.1748
 2189SOL    HW118029   1.085   2.732   8.179 -1.7944 -1.0497 -0.0742
 2189SOL    HW218030   1.014   2.749   8.050  0.1121  2.1198  1.1743
 2190SOL     OW18031   4.463   2.580   3.752  0.0963  0.1784 -0.1192
 2190SOL    HW118032   4.520   2.657   3.756 -0.1399  0.5316 -2.9230
 2190SOL    HW218033   4.380   2.614   3.719  0.2843 -0.1995 -0.9832
 2191SOL     OW18034   3.103   0.330   1.599 -0.3706  0.1723 -0.0561
 2191SOL    HW118035   3.062   0.371   1.523  0.8462 -1.1543 -1.4270
 2191SOL    HW218036   3.106   0.243   1.558 -0.0799 -0.2485  0.8711
 2192SOL     OW18037   3.383   1.858   1.797  0.4381 -0.1757  0.1528
 2192SOL    HW118038   3.456   1.919   1.785 -1.1618  1.0598 -3.3272
 2192SOL    HW218039   3.373   1.855   1.892  1.4332  2.2112  0.3320
 2193SOL     OW18040   0.097   4.486   6.525  0.1271 -0.1889  0.1230
 2193SOL    HW118041   0.172   4.515   6.473 -1.4407  1.2834 -1.3177
 2193SOL    HW218042   0.085   4.573   6.562  2.0569 -0.4662  1.4054
 2194SOL     OW18043   0.975   2.149   1.933  0.3124 -0.3686 -0.1359
 2194SOL    HW118044   1.054   2.101   1.960  1.2274  0.7033 -0.9158
 2194SOL    HW218045   0.921   2.080   1.895  1.7455 -2.0357  0.8312
 2195SOL     OW18046   4.210   0.308   4.013  0.2488  0.4329  0.9380
 2195SOL    HW118047   4.129   0.356   3.996  0.5232  1.7333  3.2671
 2195SOL    HW218048   4.212   0.307   4.109 -0.0413  0.4199  0.9449
 2196SOL     OW18049   1.471   4.278  11.971  0.1868 -0.1560  0.1551
 2196SOL    HW118050   1.521   4.355  11.943  2.0135 -1.6958 -0.7884
 2196SOL    HW218051   1.386   4.313  11.998 -0.1013 -2.6557  2.4992
 2197SOL     OW18052   0.793   4.394   1.007  0.1723 -0.1974  0.6783
 2197SOL    HW118053   0.869   4.398   0.949  0.5425 -1.1194  1.1051
 2197SOL    HW218054   0.832   4.428   1.088 -1.3183 -0.9910  1.7212
 2198SOL     OW18055   4.383   0.809  17.290 -0.2612  0.5459  0.0630
 2198SOL    HW118056   4.313   0.871  17.268 -3.0126 -2.2068  1.2409
 2198SOL    HW218057   4.438   0.875  17.333 -0.4587  0.1075  0.9723
 2199SOL     OW18058   1.642   0.935   4.674 -0.4480  0.2070  0.1729
 2199SOL    HW118059   1.630   0.910   4.582 -0.5788 -1.1408  0.5716
 2199SOL    HW218060   1.567   0.902   4.723 -1.7897  2.4680 -0.3376
 2200SOL     OW18061   0.215   4.297  11.686 -0.5435 -0.2761 -0.0672
 2200SOL    HW118062   0.141   4.311  11.745  1.5085  1.2482  2.1397
 2200SOL    HW218063   0.180   4.276  11.600  2.4930 -1.0956 -1.1117
 2201SOL     OW18064   4.689   2.732   2.523  0.1166  0.8477 -0.1927
 2201SOL    HW118065   0.036   2.671   2.523 -1.6077 -1.2246  0.7638
 2201SOL    HW218066   4.620   2.678   2.560  1.8103 -0.5702  0.8584
 2202SOL     OW18067   3.245   4.436   7.672 -0.1125  0.6630 -0.0508
 2202SOL    HW118068   3.305   4.447   7.746 -0.9618  3.5031  0.2176
 2202SOL    HW218069   3.305   4.411   7.602 -0.5775 -0.3410 -0.0944
 2203SOL     OW18070   3.653   0.827   3.953  0.1194 -0.2032  0.0513
 2203SOL    HW118071   3.719   0.823   4.022 -0.6993 -0.7878  0.8035
 2203SOL    HW218072   3.684   0.908   3.914  0.9888 -1.2103 -1.3555
 2204SOL     OW18073   2.812   0.521   1.686  0.2998  0.2738 -0.1292
 2204SOL    HW118074   2.856   0.440   1.660  1.7122  1.2193 -0.6874
 2204SOL    HW218075   2.792   0.565   1.603  0.5583 -0.4301 -0.5668
 2205SOL     OW18076   1.147   2.334   3.986 -0.0382  0.0689 -0.6204
 2205SOL    HW118077   1.058   2.303   3.968 -0.5938  0.9604  0.6161
 2205SOL    HW218078   1.187   2.259   3.943 -2.3160 -1.4414 -0.1404
 2206SOL     OW18079   3.998   1.879  17.241 -0.5422 -0.7383 -0.1186
 2206SOL    HW118080   4.047   1.839  17.170  0.0745 -0.5971  0.2239
 2206SOL    HW218081   3.907   1.882  17.210 -0.5615 -0.5777 -0.0457
 2207SOL     OW18082   2.679   2.084   1.223  0.7620 -0.1326  0.1287
 2207SOL    HW118083   2.590   2.086   1.187 -0.2921  2.2788  2.8787
 2207SOL    HW218084   2.690   1.989   1.213 -1.2638 -0.2372 -1.1778
 2208SOL     OW18085   1.124   1.385   4.605  0.2886 -0.0801  0.3114
 2208SOL    HW118086   1.071   1.306   4.597  0.4332 -0.2177  0.7251
 2208SOL    HW218087   1.066   1.437   4.660  1.0018 -0.7419  1.6787
 2209SOL     OW18088   1.509   1.919   5.111 -0.3400 -0.0717 -0.2180
 2209SOL    HW118089   1.497   1.892   5.020 -2.4069 -0.9911  0.3265
 2209SOL    HW218090   1.517   1.831   5.150  0.1718  1.0724  2.2427
 2210SOL     OW18091   0.231   3.545   2.652  0.4454  0.3181 -0.1055
 2210SOL    HW118092   0.304   3.524   2.711 -0.1080  1.3573  0.9415
 2210SOL    HW218093   0.216   3.635   2.681  0.6209  0.0240  0.8811
 2211SOL     OW18094   1.772   4.625   4.305  0.3042  0.3435 -0.1746
 2211SOL    HW118095   1.824   4.545   4.301 -0.4712 -0.2565  1.6339
 2211SOL    HW218096   1.691   4.601   4.350  0.0011 -1.5182 -1.7152
 2212SOL     OW18097   0.173   2.077   8.764 -0.0482 -0.2700  0.4439
 2212SOL    HW118098   0.170   1.983   8.752 -1.2095 -0.3683  1.4908
 2212SOL    HW218099   0.189   2.084   8.858 -0.2247 -1.4836  0.5634
 2213SOL     OW18100   4.339   0.846   7.883 -0.1309  0.3940  0.1795
 2213SOL    HW118101   4.316   0.938   7.870 -4.5603 -0.8378 -0.4443
 2213SOL    HW218102   4.413   0.825   7.826  0.0416  0.3053  0.4312
 2214SOL     OW18103   1.566   3.766   2.579 -0.1595  0.2541 -0.3257
 2214SOL    HW118104   1.510   3.690   2.598 -0.0052  0.6672  1.8145
 2214SOL    HW218105   1.493   3.827   2.586  0.8179  1.2487  1.3826
 2215SOL     OW18106   3.903   3.978   7.381  0.7579 -0.2620  0.1133
 2215SOL    HW118107   3.982   4.031   7.392  0.1629  0.6411 -0.0430
 2215SOL    HW218108   3.837   4.046   7.376 -0.5027 -1.4156  0.9841
 2216SOL     OW18109   4.662   0.667   9.000 -0.2272 -0.0160 -0.2533
 2216SOL    HW118110   4.587   0.639   9.051 -1.4795  0.8552 -1.6192
 2216SOL    HW218111   4.721   0.706   9.064 -0.2483 -0.2329 -0.1039
 2217SOL     OW18112   3.628   3.404  17.421  0.1019  0.0624 -0.1908
 2217SOL    HW118113   3.538   3.420  17.391 -1.1123  0.1967  3.5637
 2217SOL    HW218114   3.676   3.478  17.384 -0.0173  0.5932  0.7125
 2218SOL     OW18115   3.071   1.981   8.011 -0.1080 -1.0114  0.2013
 2218SOL    HW118116   3.080   1.993   7.917  1.4886  1.0408  0.6225
 2218SOL    HW218117   2.987   2.021   8.031  0.5319  0.7589 -0.6834
 2219SOL     OW18118   0.379   1.901   7.717 -0.2300 -0.4353  0.0081
 2219SOL    HW118119   0.453   1.954   7.690 -0.1836 -0.1141  0.7550
 2219SOL    HW218120   0.310   1.954   7.678  0.8157  1.5709  0.9064
 2220SOL     OW18121   4.589   0.242   3.473  0.2506 -0.5728 -0.2239
 2220SOL    HW118122   4.514   0.268   3.527  0.3386  0.2932 -0.5327
 2220SOL    HW218123   4.550   0.167   3.428  2.5356 -0.2612 -2.6999
 2221SOL     OW18124   1.612   3.149   8.341 -0.3769 -0.4327 -0.2429
 2221SOL    HW118125   1.526   3.177   8.309 -0.0702  0.7241 -0.0700
 2221SOL    HW218126   1.653   3.141   8.254  0.4437  2.4513 -0.1422
 2222SOL     OW18127   1.243   4.527   3.041  0.5096 -0.1479 -0.2029
 2222SOL    HW118128   1.189   4.448   3.038  0.9520 -0.4115 -1.4576
 2222SOL    HW218129   1.331   4.489   3.033  0.0772 -0.6011 -2.9106
 2223SOL     OW18130   1.549   2.211  10.222  0.1660 -0.2659  0.6184
 2223SOL    HW118131   1.637   2.185  10.248  0.9607  1.0922 -0.6820
 2223SOL    HW218132   1.553   2.307  10.226  0.5432 -0.2511 -0.1586
 2224SOL     OW18133   2.640   0.378  11.795  0.1043  0.2078 -0.1826
 2224SOL    HW118134   2.609   0.459  11.834  1.5010  1.1591 -1.0668
 2224SOL    HW218135   2.732   0.392  11.773  0.3954 -0.0717  0.8684
 2225SOL     OW18136   2.684   3.024  12.389 -0.1257 -0.2241  0.1818
 2225SOL    HW118137   2.589   3.026  12.396 -0.2319  0.1832 -1.4506
 2225SOL    HW218138   2.710   3.023  12.481 -2.0770  0.8456  0.7320
 2226SOL     OW18139   2.673   2.568   2.029  0.1064  0.6572  0.3303
 2226SOL    HW118140   2.655   2.576   1.936  0.5437  2.7946  0.4232
 2226SOL    HW218141   2.760   2.530   2.019 -0.5108 -0.7882  0.4003
 2227SOL     OW18142   0.872   4.650   4.953 -0.3667 -0.3607 -0.0603
 2227SOL    HW118143   0.864   4.696   5.037  1.5300 -1.2967  0.6251
 2227SOL    HW218144   0.944   4.590   4.973 -0.4449 -0.8249 -1.1783
 2228SOL     OW18145   3.462   3.631   3.951 -0.4959 -0.5263 -0.1441
 2228SOL    HW118146   3.483   3.543   3.984  1.0487 -0.9742 -2.3228
 2228SOL    HW218147   3.415   3.605   3.872 -1.3063 -1.9670  0.8009
 2229SOL     OW18148   3.064   4.230   7.700 -0.0655  0.6101  0.2919
 2229SOL    HW118149   3.091   4.145   7.734 -1.0856  0.7913  1.5656
 2229SOL    HW218150   3.151   4.256   7.669 -1.2701  0.9035 -2.7869
 2230SOL     OW18151   2.114   2.804   2.841  0.8275 -0.5767  0.1288
 2230SOL    HW118152   2.046   2.829   2.903  1.0647 -1.0369  0.5748
 2230SOL    HW218153   2.066   2.748   2.781 -1.3771  1.0595  0.3900
 2231SOL     OW18154   4.161   0.628  12.886  0.4418 -0.2374  0.0578
 2231SOL    HW118155   4.191   0.688  12.818 -2.3027 -0.8317 -1.6691
 2231SOL    HW218156   4.147   0.692  12.955 -0.1913 -1.8522  1.4468
 2232SOL     OW18157   2.859   0.153   7.564  0.0222 -0.2668 -0.0504
 2232SOL    HW118158   2.932   0.214   7.566  0.0932 -0.3886  1.6367
 2232SOL    HW218159   2.873   0.124   7.655  1.9555 -3.1746 -1.2856
 2233SOL     OW18160   2.697   2.544   3.225 -0.3723 -0.1061  0.2191
 2233SOL    HW118161   2.708   2.637   3.244  0.1230 -0.6353  2.4925
 2233SOL    HW218162   2.603   2.530   3.220 -0.0704 -1.9879 -0.0796
 2234SOL     OW18163   2.071   0.975   2.650 -0.3502 -0.3281 -0.3917
 2234SOL    HW118164   2.078   0.888   2.689  0.7713 -0.1920 -0.3029
 2234SOL    HW218165   2.130   0.958   2.576 -0.7032  1.3112 -1.0642
 2235SOL     OW18166   2.137   1.443   6.055  0.0133  0.8887  0.0976
 2235SOL    HW118167   2.197   1.513   6.029  0.0055  0.6700 -0.5226
 2235SOL    HW218168   2.198   1.370   6.068  0.7911  1.6144  0.5571
 2236SOL     OW18169   2.241   2.803   3.212  0.5138  0.8264 -0.3153
 2236SOL    HW118170   2.299   2.840   3.145 -1.7299 -0.4510 -2.9518
 2236SOL    HW218171   2.178   2.870   3.238 -0.3269 -0.0392 -0.1249
 2237SOL     OW18172   4.301   2.764  11.079  0.0099  0.0318  0.0380
 2237SOL    HW118173   4.371   2.706  11.050  1.0270  1.1317  0.2862
 2237SOL    HW218174   4.276   2.721  11.160 -0.2163  1.0397  0.4966
 2238SOL     OW18175   2.576   1.828  17.526  0.2861 -0.4819 -0.1710
 2238SOL    HW118176   2.610   1.807  17.613 -1.4339  0.4222  0.7406
 2238SOL    HW218177   2.563   1.739  17.493 -0.8236 -0.0404 -0.9315
 2239SOL     OW18178   2.459   3.662  12.379 -0.1221  0.5047  0.1004
 2239SOL    HW118179   2.388   3.678  12.441 -0.5249  0.6345 -0.3962
 2239SOL    HW218180   2.532   3.700  12.428  1.1779  0.6381 -1.9470
 2240SOL     OW18181   3.908   3.099   9.787 -0.1543 -0.2202 -0.4600
 2240SOL    HW118182   3.961   3.054   9.721 -0.6903 -0.0562 -1.0096
 2240SOL    HW218183   3.895   3.028   9.850  1.2669 -0.5188 -0.4985
 2241SOL     OW18184   4.636   4.342   5.428  0.3490  0.1371  0.6535
 2241SOL    HW118185   4.590   4.258   5.423 -0.4723  0.6457 -0.1736
 2241SOL    HW218186   4.622   4.354   5.522  1.0654 -1.5950  0.9865
 2242SOL     OW18187   3.668   0.921   7.944 -0.4874  0.6543  0.4949
 2242SOL    HW118188   3.728   0.871   7.889  0.8030  1.9419  0.7133
 2242SOL    HW218189   3.677   1.005   7.898  0.2517  0.0076 -0.5173
 2243SOL     OW18190   1.362   1.188   3.795  0.1722  0.4109  0.7343
 2243SOL    HW118191   1.457   1.190   3.793  0.1998 -0.8797  1.1803
 2243SOL    HW218192   1.336   1.280   3.785  1.6874  0.6811 -0.5924
 2244SOL     OW18193   4.620   1.766   6.051 -0.2023  0.5792 -0.0782
 2244SOL    HW118194   4.646   1.857   6.040 -2.0087  1.0951 -0.1467
 2244SOL    HW218195   4.620   1.732   5.962  2.3964  2.1783 -0.6723
 2245SOL     OW18196   0.169   3.836  15.686 -0.0470  0.6109  0.0857
 2245SOL    HW118197   0.093   3.830  15.743 -0.3782  1.3805 -0.2637
 2245SOL    HW218198   0.240   3.795  15.735  0.9472  2.0687 -0.1191
 2246SOL     OW18199   0.515   3.810   0.366 -0.0968  0.2553 -0.1240
 2246SOL    HW118200   0.467   3.771   0.439  0.8254  1.7170  1.2357
 2246SOL    HW218201   0.603   3.830   0.397  0.1039 -1.6000  0.5152
 2247SOL     OW18202   0.993   1.630   3.847  0.5232  0.2473  0.0819
 2247SOL    HW118203   1.032   1.561   3.794 -1.6644 -0.7843 -0.2127
 2247SOL    HW218204   0.963   1.591   3.929 -0.0230 -0.3665 -0.4040
 2248SOL     OW18205   1.318   0.978  12.766 -0.1757 -0.3504 -0.2758
 2248SOL    HW118206   1.401   0.975  12.717  1.3468  1.3216  2.1816
 2248SOL    HW218207   1.340   0.930  12.846 -3.0052  0.3084  0.8913
 2249SOL     OW18208   1.696   2.933   5.597 -0.4343 -0.1594 -0.6098
 2249SOL    HW118209   1.619   2.879   5.582 -0.7514 -0.1003  0.7989
 2249SOL    HW218210   1.663   2.977   5.676 -0.9914 -2.0489  0.1886
 2250SOL     OW18211   4.570   1.107   6.272  0.0140 -0.1840  1.2945
 2250SOL    HW118212   4.610   1.193   6.261  1.1632 -0.5576  2.5252
 2250SOL    HW218213   4.595   1.080   6.183  0.7765  0.2141  1.3867
 2251SOL     OW18214   2.151   3.337   4.250  0.1799  0.4561 -0.6113
 2251SOL    HW118215   2.081   3.370   4.194 -1.8059  2.6375  3.1893
 2251SOL    HW218216   2.158   3.245   4.226 -2.3850  0.5587 -1.6642
 2252SOL     OW18217   4.136   2.792   4.513  0.1651 -0.2680  0.2301
 2252SOL    HW118218   4.197   2.719   4.516  1.2279  0.6302  0.6679
 2252SOL    HW218219   4.174   2.843   4.585 -0.1666 -2.0538  1.6796
 2253SOL     OW18220   0.375   3.687   1.628 -0.4800 -0.0734  0.4181
 2253SOL    HW118221   0.404   3.596   1.636 -0.1483 -0.0097 -0.0759
 2253SOL    HW218222   0.293   3.686   1.579 -0.0202 -0.6964 -0.3314
 2254SOL     OW18223   1.852   4.029  16.544  0.4970  0.3185  0.4479
 2254SOL    HW118224   1.794   3.958  16.518 -0.3945  0.2659  2.5839
 2254SOL    HW218225   1.817   4.102  16.491  1.2020  0.7454  0.5707
 2255SOL     OW18226   1.398   3.318   6.372  0.3031  0.5248 -0.4658
 2255SOL    HW118227   1.480   3.311   6.324  1.1513  0.6114  0.9796
 2255SOL    HW218228   1.393   3.411   6.395  1.1011  0.3929  0.2425
 2256SOL     OW18229   4.366   0.935   6.000  0.0507 -0.1580 -0.1809
 2256SOL    HW118230   4.445   0.989   6.011 -0.3425  0.6864 -1.5350
 2256SOL    HW218231   4.330   0.968   5.918  2.6995  0.6440 -1.0307
 2257SOL     OW18232   1.414   1.086   0.119  0.4311  0.2736 -0.0495
 2257SOL    HW118233   1.504   1.115   0.105  0.2071  0.2794 -1.4886
 2257SOL    HW218234   1.383   1.153   0.181 -0.1286  0.4362 -0.5095
 2258SOL     OW18235   1.240   0.348   2.645  0.1333  0.3094 -0.2979
 2258SOL    HW118236   1.269   0.272   2.596  2.2795  0.2989  0.9583
 2258SOL    HW218237   1.181   0.316   2.714  0.3625  0.0282 -0.2338
 2259SOL     OW18238   1.120   1.879   2.133  0.5501 -0.3829 -0.0108
 2259SOL    HW118239   1.142   1.944   2.066 -1.5769  1.5648  1.1775
 2259SOL    HW218240   1.176   1.905   2.206 -1.6379  0.2032  1.4692
 2260SOL     OW18241   4.014   1.489  14.857  0.4712  0.2880 -0.5933
 2260SOL    HW118242   4.081   1.542  14.899 -0.5020  2.6726 -1.9802
 2260SOL    HW218243   3.960   1.550  14.806 -1.0203 -0.1283  0.5058
 2261SOL     OW18244   3.861   0.271   5.076  0.3056  0.4098  0.0005
 2261SOL    HW118245   3.947   0.273   5.118  1.3839  1.5856 -2.2985
 2261SOL    HW218246   3.847   0.362   5.053  0.5000  0.9490  2.0227
 2262SOL     OW18247   3.102   2.562   8.900 -0.6382  0.1729  0.1048
 2262SOL    HW118248   3.109   2.564   8.805  0.1177 -2.3704  0.1238
 2262SOL    HW218249   3.160   2.634   8.927 -0.0579 -0.1740 -0.2106
 2263SOL     OW18250   1.948   0.493   1.392 -0.3763 -0.7155  0.2154
 2263SOL    HW118251   1.915   0.518   1.306 -0.6339  2.6659  1.2852
 2263SOL    HW218252   2.040   0.477   1.371 -0.5128  0.6278 -1.4286
 2264SOL     OW18253   2.994   1.493  15.029  0.2522  0.3610 -0.1342
 2264SOL    HW118254   2.907   1.468  14.998  0.0337 -0.1259  0.8891
 2264SOL    HW218255   2.988   1.578  15.072 -0.4145 -0.1849  0.8375
 2265SOL     OW18256   3.953   4.182  11.075  0.3084  0.1229 -0.1357
 2265SOL    HW118257   3.981   4.108  11.128 -0.1730  0.8922  1.1927
 2265SOL    HW218258   3.963   4.158  10.983  1.6892  1.5453 -0.3669
 2266SOL     OW18259   0.023   3.511   6.547 -0.5410  0.1579 -0.4764
 2266SOL    HW118260   0.078   3.433   6.542 -0.3224  0.4242 -2.1380
 2266SOL    HW218261   0.060   3.573   6.485  0.8905 -0.6822 -0.4604
 2267SOL     OW18262   1.748   0.430   6.155  0.3000 -0.0006 -0.0867
 2267SOL    HW118263   1.839   0.416   6.181 -0.1506  1.6829  2.4683
 2267SOL    HW218264   1.735   0.344   6.117 -2.2462  0.1653  0.4290
 2268SOL     OW18265   3.133   2.322   2.016  0.2044  0.1625 -0.5191
 2268SOL    HW118266   3.175   2.404   1.989 -1.4896  1.8769  2.0266
 2268SOL    HW218267   3.130   2.285   1.927 -0.4409 -0.3796 -0.2738
 2269SOL     OW18268   3.078   0.860   6.627  0.2068 -0.0881  0.2205
 2269SOL    HW118269   3.144   0.793   6.643  0.3922 -0.3958 -1.8103
 2269SOL    HW218270   3.043   0.849   6.715  2.7083 -3.4774  0.7777
 2270SOL     OW18271   2.483   1.620   9.969  0.3460 -0.1390 -0.1438
 2270SOL    HW118272   2.479   1.528   9.992 -0.7566 -0.4286 -1.5407
 2270SOL    HW218273   2.435   1.671  10.035 -0.3930  0.5435 -1.2067
 2271SOL     OW18274   4.592   2.606   1.652 -0.0049  0.1599  0.1011
 2271SOL    HW118275   4.562   2.668   1.718 -2.4837  0.3120 -1.1597
 2271SOL    HW218276   4.679   2.600   1.691 -0.0621 -4.1256 -0.4032
 2272SOL     OW18277   2.252   1.594   4.182 -0.1873 -0.1297 -0.6156
 2272SOL    HW118278   2.335   1.641   4.182 -0.9973  1.2849 -1.1273
 2272SOL    HW218279   2.224   1.609   4.272 -0.2126 -1.2159 -0.4421
 2273SOL     OW18280   4.221   3.150  11.904 -0.2033 -0.4272  0.2978
 2273SOL    HW118281   4.187   3.213  11.839 -0.3248  0.8365  1.5894
 2273SOL    HW218282   4.274   3.103  11.839 -1.9895  1.1200 -2.3044
 2274SOL     OW18283   0.435   3.703   4.530 -0.0381 -0.1745  0.1224
 2274SOL    HW118284   0.378   3.767   4.486 -0.3219  0.5711  1.5670
 2274SOL    HW218285   0.507   3.699   4.468 -1.9220  0.9226 -2.1474
 2275SOL     OW18286   1.476   3.481  13.981  0.2690 -0.0143  0.6220
 2275SOL    HW118287   1.381   3.490  13.993 -0.0426 -0.0736 -1.8972
 2275SOL    HW218288   1.470   3.391  13.949 -1.2599  0.2890  0.0465
 2276SOL     OW18289   4.667   4.417  12.571  0.0148 -0.8115 -0.0265
 2276SOL    HW118290   0.004   4.456  12.630 -1.7220  1.5760  0.2859
 2276SOL    HW218291   4.687   4.327  12.596 -1.0400 -1.0735 -0.1414
 2277SOL     OW18292   0.861   0.986   9.767  0.3075 -0.0791 -0.2898
 2277SOL    HW118293   0.849   0.991   9.862 -0.8090 -1.5330 -0.3559
 2277SOL    HW218294   0.874   1.076   9.737  1.7402 -0.0025  0.5942
 2278SOL     OW18295   3.793   4.402  17.063  0.4335 -0.2142 -0.4513
 2278SOL    HW118296   3.784   4.438  16.975 -2.5154  0.4749  0.1283
 2278SOL    HW218297   3.875   4.435  17.100 -0.0160  1.5026 -0.9690
 2279SOL     OW18298   3.773   4.372   5.411 -0.0931  0.5447 -0.2734
 2279SOL    HW118299   3.691   4.416   5.391  1.1071  1.6641 -2.6947
 2279SOL    HW218300   3.729   4.315   5.474 -0.9020  2.1929  0.6489
 2280SOL     OW18301   4.631   4.089   4.480  0.2754  0.3789  0.5407
 2280SOL    HW118302   4.642   4.141   4.400  0.4384 -0.1074  0.2511
 2280SOL    HW218303   4.549   4.127   4.511  0.5692  2.6026 -1.4111
 2281SOL     OW18304   4.221   2.679   4.073 -0.1580  0.2920 -0.0038
 2281SOL    HW118305   4.269   2.748   4.028  0.8817  0.6028  1.5838
 2281SOL    HW218306   4.131   2.704   4.052  0.2144  0.1695 -1.7649
 2282SOL     OW18307   3.568   3.591   7.661 -0.1146  0.6893 -0.3678
 2282SOL    HW118308   3.487   3.616   7.705  0.0284  1.0213 -0.2885
 2282SOL    HW218309   3.546   3.500   7.640  3.9082 -0.6806  1.2082
 2283SOL     OW18310   1.672   0.887   5.728 -0.0032  0.1221 -0.1902
 2283SOL    HW118311   1.740   0.844   5.676  1.1750 -0.0785  1.5211
 2283SOL    HW218312   1.615   0.910   5.655  0.7607  2.3501 -0.0872
 2284SOL     OW18313   3.224   1.847  10.382 -0.1952  0.1617  0.0798
 2284SOL    HW118314   3.146   1.794  10.399  1.8522 -2.0778  2.4742
 2284SOL    HW218315   3.201   1.916  10.445 -1.5669 -1.0398  0.9031
 2285SOL     OW18316   3.206   1.908   7.323  0.0407 -0.0295  0.1839
 2285SOL    HW118317   3.301   1.916   7.330 -0.1757  0.2982  2.5118
 2285SOL    HW218318   3.194   1.834   7.382  1.1467 -0.4194 -0.0933
 2286SOL     OW18319   4.411   3.575  12.232 -0.3953  0.0511  0.1395
 2286SOL    HW118320   4.331   3.585  12.284 -0.4155 -3.0660  0.7077
 2286SOL    HW218321   4.388   3.499  12.178  0.5727  1.0045 -1.6211
 2287SOL     OW18322   0.540   3.166   1.381 -0.2602  0.5021 -0.1281
 2287SOL    HW118323   0.611   3.182   1.318  1.0492 -2.2638  0.6374
 2287SOL    HW218324   0.590   3.157   1.462 -0.4033  1.4999  0.0637
 2288SOL     OW18325   4.022   2.528   0.561  0.2011 -0.5281 -0.2610
 2288SOL    HW118326   3.941   2.510   0.608  1.2304 -0.3403  1.6157
 2288SOL    HW218327   3.998   2.515   0.470  0.7021 -1.4213 -0.2611
 2289SOL     OW18328   3.368   0.445   3.047 -0.7437  0.3144  0.2251
 2289SOL    HW118329   3.423   0.482   3.117  0.2556  0.1345 -0.4720
 2289SOL    HW218330   3.407   0.485   2.970 -2.9365  1.3317 -0.3495
 2290SOL     OW18331   3.381   4.091   4.138  0.0032 -0.2013  0.0806
 2290SOL    HW118332   3.429   4.125   4.062 -0.5826 -0.3268 -0.3447
 2290SOL    HW218333   3.398   3.997   4.138 -0.4422 -0.2680  2.8449
 2291SOL     OW18334   2.694   2.743   4.525  0.4136  0.1320 -0.0784
 2291SOL    HW118335   2.748   2.785   4.458  1.8568 -2.1490 -0.3549
 2291SOL    HW218336   2.746   2.761   4.603  1.3589  1.4546 -1.0029
 2292SOL     OW18337   3.828   1.011   3.852  0.1917  0.0756 -0.7838
 2292SOL    HW118338   3.788   1.075   3.793  0.8380  1.3295  0.1468
 2292SOL    HW218339   3.917   1.021   3.819 -0.0651  0.2266 -1.4460
 2293SOL     OW18340   3.797   3.294   2.017 -0.1261  0.0928  0.0475
 2293SOL    HW118341   3.877   3.249   1.991 -0.8456 -0.4255 -1.2686
 2293SOL    HW218342   3.765   3.331   1.935  1.0112  0.0115 -0.4233
 2294SOL     OW18343   2.660   0.007  14.390 -0.4291 -0.1221  0.1109
 2294SOL    HW118344   2.656   4.640  14.409 -1.7216 -0.1063 -0.0364
 2294SOL    HW218345   2.698   0.049  14.467 -1.9471  1.8060 -0.1826
 2295SOL     OW18346   2.520   2.825   8.315 -0.2398 -0.2290  0.1622
 2295SOL    HW118347   2.560   2.781   8.390  2.1218  1.0115 -0.3417
 2295SOL    HW218348   2.590   2.889   8.299 -0.0588  0.0349  2.0559
 2296SOL     OW18349   1.343   1.806   0.504  0.4245 -0.6619  0.4123
 2296SOL    HW118350   1.375   1.849   0.583 -0.9639 -0.0850  0.6678
 2296SOL    HW218351   1.259   1.847   0.481  1.4778  2.0384  1.3694
 2297SOL     OW18352   4.209   1.940   8.731 -0.0219  0.6651  0.8381
 2297SOL    HW118353   4.180   1.913   8.818  3.3668  0.5402  1.9190
 2297SOL    HW218354   4.221   1.853   8.694 -0.0998  0.2718  1.7289
 2298SOL     OW18355   1.038   1.845   2.581 -0.2621 -0.0993 -0.2477
 2298SOL    HW118356   1.130   1.871   2.586 -0.9570  2.0711  1.0690
 2298SOL    HW218357   0.999   1.930   2.565  1.0534  0.0472 -2.6553
 2299SOL     OW18358   0.603   3.179   7.412 -0.1317 -0.5988 -0.4532
 2299SOL    HW118359   0.690   3.200   7.379 -1.0597 -0.4569 -2.8116
 2299SOL    HW218360   0.571   3.117   7.347  1.0665 -1.8688  0.1804
 2300SOL     OW18361   3.341   2.579   8.037  0.6353  0.0013 -0.1882
 2300SOL    HW118362   3.269   2.616   7.986 -0.5649  0.3491  1.7339
 2300SOL    HW218363   3.351   2.494   7.994  0.9130 -0.3279  0.5170
 2301SOL     OW18364   0.589   4.566   2.619 -1.1408  0.3453 -0.4522
 2301SOL    HW118365   0.626   4.576   2.707  1.3636  1.6220 -1.6333
 2301SOL    HW218366   0.524   4.636   2.617  0.2742  1.6358 -0.9431
 2302SOL     OW18367   0.700   1.507   7.250  0.5294  0.3225 -0.2191
 2302SOL    HW118368   0.752   1.554   7.315  1.3148 -2.2462  1.0047
 2302SOL    HW218369   0.721   1.553   7.169  2.9289 -3.7787 -1.9551
 2303SOL     OW18370   3.842   2.647  14.877 -0.0792 -0.1999  0.4275
 2303SOL    HW118371   3.887   2.605  14.951  0.0566 -1.1934 -0.2131
 2303SOL    HW218372   3.795   2.572  14.841 -0.2997 -0.4343  1.1910
 2304SOL     OW18373   1.789   3.732   4.814  0.4683  0.4486  0.3504
 2304SOL    HW118374   1.813   3.647   4.779 -0.0490 -0.8100  3.0928
 2304SOL    HW218375   1.741   3.767   4.739  0.4131  1.2645  0.7656
 2305SOL     OW18376   1.739   3.103   2.423  0.7511  0.3235  0.1120
 2305SOL    HW118377   1.669   3.158   2.388 -0.5993 -0.8467  1.0089
 2305SOL    HW218378   1.770   3.160   2.493 -2.3566  1.3845  0.6452
 2306SOL     OW18379   2.917   0.970   7.155  0.2490 -0.3630 -0.7583
 2306SOL    HW118380   2.853   1.008   7.215  0.2730  0.5852 -1.3439
 2306SOL    HW218381   2.868   0.892   7.127 -0.0629  0.2870 -2.0029
 2307SOL     OW18382   1.193   1.603   3.004  0.3004  0.7115 -0.0104
 2307SOL    HW118383   1.165   1.616   2.913  1.8201  1.5213 -0.3611
 2307SOL    HW218384   1.280   1.564   2.988 -0.3280 -0.6525 -0.1386
 2308SOL     OW18385   0.998   3.271   8.531 -0.3388  0.0906  0.2061
 2308SOL    HW118386   0.936   3.203   8.503  0.8576 -0.9632  0.1322
 2308SOL    HW218387   1.022   3.238   8.618 -0.0032 -0.2287 -0.0102
 2309SOL     OW18388   4.369   4.031   7.527 -0.7055  0.6264 -0.3246
 2309SOL    HW118389   4.401   3.946   7.495 -2.3306 -0.0308 -0.1875
 2309SOL    HW218390   4.372   4.010   7.620 -0.1651  1.4709 -0.1550
 2310SOL     OW18391   2.376   4.132   7.784  0.1135  0.0817  0.4275
 2310SOL    HW118392   2.432   4.197   7.825 -1.6976  2.5480 -1.0101
 2310SOL    HW218393   2.315   4.131   7.858 -1.9396  1.8389 -1.2512
 2311SOL     OW18394   1.759   0.095   7.524  0.5147 -0.0106 -0.1958
 2311SOL    HW118395   1.805   0.151   7.587  0.0407 -0.4991  0.5771
 2311SOL    HW218396   1.729   0.033   7.590 -1.1609  0.6068 -0.3771
 2312SOL     OW18397   2.322   3.753   3.038  0.3157  0.5131  0.1764
 2312SOL    HW118398   2.329   3.723   2.947 -0.0659 -0.2179  0.3887
 2312SOL    HW218399   2.255   3.702   3.084  0.2491  0.9054  0.5207
 2313SOL     OW18400   2.851   2.214   8.492 -0.2217  0.1521 -0.2342
 2313SOL    HW118401   2.892   2.247   8.572 -2.6823  2.8122 -0.0580
 2313SOL    HW218402   2.900   2.261   8.425 -1.7761  2.4873  0.2754
 2314SOL     OW18403   0.394   0.201   4.830  0.0451 -0.4057  0.1057
 2314SOL    HW118404   0.471   0.253   4.808  0.2796 -0.2252  1.3361
 2314SOL    HW218405   0.341   0.271   4.868  2.2110  0.3521  1.7246
 2315SOL     OW18406   1.700   3.526   7.862 -0.0281  0.3474  0.2259
 2315SOL    HW118407   1.703   3.608   7.910  2.6149  0.0939  0.4718
 2315SOL    HW218408   1.753   3.462   7.910 -0.6578 -0.9723 -0.8112
 2316SOL     OW18409   4.582   3.741   4.010  0.5921  0.1759  0.2091
 2316SOL    HW118410   4.577   3.654   3.969 -0.3572  0.3147  0.0246
 2316SOL    HW218411   4.519   3.741   4.082  2.7579 -2.0081  2.0924
 2317SOL     OW18412   1.537   0.239   6.077  0.3669 -0.0727 -0.2558
 2317SOL    HW118413   1.562   0.233   5.985  1.2708  1.2408 -0.0993
 2317SOL    HW218414   1.446   0.209   6.077 -0.9314  3.8715 -0.9368
 2318SOL     OW18415   0.538   0.994   6.670 -0.0238 -1.1207  0.2855
 2318SOL    HW118416   0.483   0.937   6.615 -0.9601 -3.1144  3.3006
 2318SOL    HW218417   0.609   0.942   6.709  0.7761 -1.5554 -1.7091
 2319SOL     OW18418   3.257   2.627   6.190  0.1898 -0.0702  0.8626
 2319SOL    HW118419   3.322   2.623   6.120  1.1643  0.1885  1.7433
 2319SOL    HW218420   3.170   2.626   6.151  0.6838  0.7665 -0.2721
 2320SOL     OW18421   3.798   2.037   2.054  0.0031  0.1101  0.4839
 2320SOL    HW118422   3.886   2.039   2.016 -0.1150 -2.1710  0.0698
 2320SOL    HW218423   3.769   1.948   2.034 -0.3080  0.4786 -0.7605
 2321SOL     OW18424   1.654   1.206   0.064  0.3041  0.3006  0.0680
 2321SOL    HW118425   1.678   1.298   0.077  1.0226 -0.1974  2.2445
 2321SOL    HW218426   1.722   1.173   0.005 -0.8037 -1.8015  0.0008
 2322SOL     OW18427   0.079   1.080   5.314 -0.1864 -0.0712 -0.0783
 2322SOL    HW118428   0.173   1.070   5.325 -0.3365  0.6825  1.8963
 2322SOL    HW218429   0.055   1.090   5.406  0.6503 -1.7210  0.3145
 2323SOL     OW18430   3.151   1.641   8.441  0.3213  0.5617 -0.3314
 2323SOL    HW118431   3.185   1.723   8.477 -0.0812  0.2657  0.7206
 2323SOL    HW218432   3.137   1.665   8.349  2.4060 -0.6086 -0.9402
 2324SOL     OW18433   1.838   3.690   7.680 -0.9399 -0.2910 -0.1189
 2324SOL    HW118434   1.788   3.669   7.601  0.1440  0.3974 -0.9827
 2324SOL    HW218435   1.812   3.618   7.739  0.5539 -2.3396 -1.9812
 2325SOL     OW18436   3.643   3.974   6.353 -0.1577  0.1324  0.3547
 2325SOL    HW118437   3.719   4.016   6.313 -0.0302 -0.1097  0.3421
 2325SOL    HW218438   3.596   3.952   6.272 -0.9729 -0.1234  0.8995
 2326SOL     OW18439   1.149   2.338   3.594  0.3822  0.4423 -0.0220
 2326SOL    HW118440   1.117   2.278   3.526 -1.3012  2.5658 -1.0884
 2326SOL    HW218441   1.165   2.275   3.664  1.1506 -1.2637 -1.7235
 2327SOL     OW18442   2.281   1.161  10.634  0.0902 -0.1522  0.4273
 2327SOL    HW118443   2.373   1.136  10.642  0.4284  1.0590  0.4003
 2327SOL    HW218444   2.294   1.255  10.650 -3.6960  0.1965  1.5362
 2328SOL     OW18445   3.841   2.392   5.777 -0.1181  0.6193  0.4480
 2328SOL    HW118446   3.840   2.468   5.835 -0.5980  2.5565 -2.0494
 2328SOL    HW218447   3.934   2.388   5.754 -0.2705  1.3602 -0.3106
 2329SOL     OW18448   0.882   0.614   3.881 -0.0354  0.0677  0.6844
 2329SOL    HW118449   0.839   0.676   3.940  0.7491 -1.2608  2.6477
 2329SOL    HW218450   0.839   0.530   3.892 -1.1569  0.4896 -0.5256
 2330SOL     OW18451   2.007   3.105  14.080  0.2546 -0.1040 -0.0573
 2330SOL    HW118452   2.057   3.043  14.133  1.6635  1.5427  0.5463
 2330SOL    HW218453   2.067   3.180  14.080  0.3183 -0.1535 -0.2980
 2331SOL     OW18454   1.305   3.680   3.254 -0.1155 -0.1755  0.3279
 2331SOL    HW118455   1.279   3.684   3.346  0.3794  2.2091  0.3536
 2331SOL    HW218456   1.253   3.752   3.218 -0.1206  0.5779  1.8660
 2332SOL     OW18457   3.022   1.234   2.015 -0.2917 -0.4535  0.0883
 2332SOL    HW118458   2.940   1.195   1.987 -0.6071 -1.9157  3.1090
 2332SOL    HW218459   3.026   1.203   2.105 -2.5787  0.0450  0.3681
 2333SOL     OW18460   2.903   2.068   6.149 -0.0121  0.7820  0.3537
 2333SOL    HW118461   2.834   2.004   6.131 -2.1154  2.6439  1.7748
 2333SOL    HW218462   2.948   2.059   6.065 -0.1382 -0.5394  0.4417
 2334SOL     OW18463   1.878   0.218  14.800 -0.5342 -0.1760  0.7329
 2334SOL    HW118464   1.826   0.150  14.757  3.6061 -1.1165 -2.8706
 2334SOL    HW218465   1.807   0.282  14.799  1.1744  1.7328  1.3790
 2335SOL     OW18466   1.449   3.429   7.914  0.5187 -0.6219 -0.8575
 2335SOL    HW118467   1.516   3.496   7.900 -0.4015  0.0390 -2.1093
 2335SOL    HW218468   1.392   3.489   7.961  2.0130  0.7002 -0.7455
 2336SOL     OW18469   1.128   1.686   8.182  0.0279 -0.2677 -0.7061
 2336SOL    HW118470   1.221   1.667   8.173 -0.2028 -1.4332 -0.6452
 2336SOL    HW218471   1.103   1.727   8.099 -3.6670 -0.6972  0.2181
 2337SOL     OW18472   2.781   0.624  11.687  0.1776  0.0358 -0.1000
 2337SOL    HW118473   2.698   0.659  11.721 -0.3515 -1.3567  0.0461
 2337SOL    HW218474   2.788   0.664  11.601  1.1377  0.2920  0.0951
 2338SOL     OW18475   3.317   2.758   2.654 -0.2320 -0.0836 -0.0370
 2338SOL    HW118476   3.404   2.785   2.626 -0.6542  0.1247 -1.1596
 2338SOL    HW218477   3.289   2.718   2.572 -2.8169 -0.6165  1.0942
 2339SOL     OW18478   2.614   3.105   2.119  0.4227  0.1852  0.5656
 2339SOL    HW118479   2.549   3.151   2.066  3.1674  2.3008 -0.9606
 2339SOL    HW218480   2.596   3.011   2.115 -0.4985  0.4283 -0.8901
 2340SOL     OW18481   1.519   2.501   3.589 -0.9315 -0.0222 -0.3194
 2340SOL    HW118482   1.510   2.577   3.646  1.2240  0.0102 -0.0264
 2340SOL    HW218483   1.438   2.515   3.539  0.5288  1.4155 -2.2771
 2341SOL     OW18484   1.459   4.185  15.677 -0.4024 -0.2288  0.1981
 2341SOL    HW118485   1.404   4.116  15.714 -1.5332  0.6925  0.2020
 2341SOL    HW218486   1.470   4.150  15.588  2.5059  2.7205 -0.6195
 2342SOL     OW18487   3.536   1.139   5.898  0.0367  0.7519  0.2720
 2342SOL    HW118488   3.559   1.231   5.912  1.9339  0.2484  0.3842
 2342SOL    HW218489   3.612   1.087   5.923 -0.2709  0.2441  0.1423
 2343SOL     OW18490   3.808   2.507   6.966  0.4650 -0.5101 -0.2669
 2343SOL    HW118491   3.772   2.423   6.993 -2.1126  0.8349  0.4875
 2343SOL    HW218492   3.806   2.511   6.870 -3.8729  3.9801  0.0155
 2344SOL     OW18493   3.642   1.414   2.989  0.0776  0.0569  0.2358
 2344SOL    HW118494   3.688   1.338   2.953 -2.0330 -0.9276 -0.4575
 2344SOL    HW218495   3.675   1.486   2.935  0.7239 -0.8955 -0.6418
 2345SOL     OW18496   0.040   0.740   5.695  0.1632 -0.2340 -0.7026
 2345SOL    HW118497   0.041   0.645   5.679 -0.3323 -0.0375 -1.8974
 2345SOL    HW218498   0.123   0.757   5.651 -0.7611  1.9355 -1.6513
 2346SOL     OW18499   1.452   2.772   8.090 -0.1117  0.3143  0.9962
 2346SOL    HW118500   1.471   2.680   8.107  0.7480 -0.1840 -2.5919
 2346SOL    HW218501   1.361   2.754   8.067  0.6336 -0.4190 -1.4188
 2347SOL     OW18502   2.098   3.129  16.317  0.3951  0.3406  0.1328
 2347SOL    HW118503   2.098   3.184  16.396  1.7378  3.6355 -2.1512
 2347SOL    HW218504   2.005   3.136  16.298  0.4943  1.7197  0.1538
 2348SOL     OW18505   3.811   3.361   6.655 -0.1005  0.2839  0.1801
 2348SOL    HW118506   3.758   3.325   6.726 -0.1743 -0.4090 -0.2307
 2348SOL    HW218507   3.882   3.406   6.702  0.0025  1.5637 -1.2353
 2349SOL     OW18508   3.604   1.040  11.197 -0.2037  0.4272  0.0074
 2349SOL    HW118509   3.570   0.952  11.180  0.9418  0.1076 -0.6324
 2349SOL    HW218510   3.652   1.032  11.279 -1.1998 -1.0862  0.4393
 2350SOL     OW18511   1.537   0.747   7.044 -0.6163 -0.1689  0.2335
 2350SOL    HW118512   1.547   0.841   7.033 -1.6605 -0.2208 -1.1171
 2350SOL    HW218513   1.577   0.728   7.129  3.3319  1.6408 -1.2576
 2351SOL     OW18514   0.863   0.550  15.220  0.2300  0.1044  0.4951
 2351SOL    HW118515   0.883   0.610  15.292  0.2766 -0.5026  1.0001
 2351SOL    HW218516   0.917   0.477  15.252  1.4899  0.2861 -1.2125
 2352SOL     OW18517   0.968   3.503   8.363  0.0614  0.0235  0.5833
 2352SOL    HW118518   0.977   3.422   8.412 -2.2230  0.8483  2.3867
 2352SOL    HW218519   1.058   3.504   8.331 -1.1050  3.0947 -2.6249
 2353SOL     OW18520   0.790   2.032   5.469  0.2911  0.6881 -0.4952
 2353SOL    HW118521   0.745   2.107   5.428  0.8153  0.8529 -0.7642
 2353SOL    HW218522   0.876   2.072   5.482  0.0720  0.8717  0.4101
 2354SOL     OW18523   4.245   3.247   6.708 -0.1460  0.2353  0.1487
 2354SOL    HW118524   4.270   3.169   6.658  1.4484  0.0998  1.1439
 2354SOL    HW218525   4.332   3.261   6.747 -0.2894 -1.0004  0.9144
 2355SOL     OW18526   0.131   2.439   7.904  0.1478  0.5649 -0.3779
 2355SOL    HW118527   0.193   2.381   7.859 -1.2196 -1.9669  0.9764
 2355SOL    HW218528   0.127   2.513   7.844  3.6413 -1.2043 -2.8169
 2356SOL     OW18529   0.670   3.709  14.928  0.7389 -0.2705  0.1195
 2356SOL    HW118530   0.650   3.691  14.836  3.2587  2.8124 -1.0396
 2356SOL    HW218531   0.743   3.651  14.947  0.1899  0.0017  2.9978
 2357SOL     OW18532   1.589   2.299   1.070  0.7709  0.6369 -0.5188
 2357SOL    HW118533   1.537   2.380   1.074  0.3555  0.3784 -0.6793
 2357SOL    HW218534   1.569   2.274   0.980  1.3609  0.0401 -0.4815
 2358SOL     OW18535   1.405   1.599  10.995 -0.3602 -0.6544 -0.0120
 2358SOL    HW118536   1.315   1.589  10.964 -1.1885 -0.1903  2.2240
 2358SOL    HW218537   1.460   1.564  10.926  0.9277  1.0662  0.1417
 2359SOL     OW18538   2.246   0.531   9.790 -0.1352  0.1068  0.6566
 2359SOL    HW118539   2.268   0.561   9.878  2.7158  4.2623 -1.4738
 2359SOL    HW218540   2.333   0.518   9.751 -0.4022 -2.3107  0.8653
 2360SOL     OW18541   2.407   1.093   2.008  0.8519 -0.4427 -0.7130
 2360SOL    HW118542   2.437   1.042   2.084 -0.3745  0.1234  0.1390
 2360SOL    HW218543   2.346   1.034   1.964 -0.6017  0.9125 -0.4868
 2361SOL     OW18544   0.071   4.590   9.776  0.6618  0.4993  0.2002
 2361SOL    HW118545   0.033   4.610   9.861  2.3597  0.9160  0.8566
 2361SOL    HW218546   4.721   4.576   9.721  0.5524 -1.2772  0.8265
 2362SOL     OW18547   2.886   1.408   0.082  0.5629 -0.2622 -0.7584
 2362SOL    HW118548   2.896   1.320   0.046 -0.7262 -0.7122 -0.0377
 2362SOL    HW218549   2.854   1.379   0.167  0.0549  1.9391 -0.2054
 2363SOL     OW18550   3.203   2.101   4.856 -0.1247  0.2973 -0.0769
 2363SOL    HW118551   3.266   2.104   4.783 -0.2357 -3.2716 -0.3253
 2363SOL    HW218552   3.178   2.009   4.861  1.1540 -0.0996 -0.8093
 2364SOL     OW18553   0.074   0.621   6.038 -0.2637 -0.0383 -0.2902
 2364SOL    HW118554   0.142   0.556   6.055 -0.6261 -0.8181 -1.8203
 2364SOL    HW218555   4.724   0.574   6.072 -0.6057  0.7738  0.0583
 2365SOL     OW18556   2.997   2.905   8.727  0.2106 -0.1093  0.3477
 2365SOL    HW118557   2.907   2.900   8.760 -0.4460  2.5362 -1.1006
 2365SOL    HW218558   2.995   2.995   8.696  2.2042  0.4160  1.7508
 2366SOL     OW18559   1.303   0.945   3.889  0.5005  0.0013 -0.1325
 2366SOL    HW118560   1.314   0.911   3.978 -1.0052  1.5384  0.6369
 2366SOL    HW218561   1.345   1.031   3.890  1.8912 -0.6995  1.8953
 2367SOL     OW18562   0.452   1.779   8.437  0.5691  0.0340 -0.2244
 2367SOL    HW118563   0.493   1.865   8.448  1.0804 -0.3432  0.8724
 2367SOL    HW218564   0.505   1.742   8.367  2.6077 -1.3284  2.0217
 2368SOL     OW18565   2.902   0.865   2.150 -0.3542  0.1925 -0.5993
 2368SOL    HW118566   2.977   0.831   2.199 -0.1117  0.5727 -0.7047
 2368SOL    HW218567   2.909   0.809   2.072 -0.5824  1.0584 -1.2360
 2369SOL     OW18568   4.041   1.066  15.382 -0.1271 -0.0887 -0.1931
 2369SOL    HW118569   4.131   1.088  15.360 -0.2755 -0.4938 -1.1888
 2369SOL    HW218570   4.024   1.020  15.300 -1.1746  0.2784 -0.1754
 2370SOL     OW18571   2.451   3.543   6.812 -0.4176 -0.2806  0.1762
 2370SOL    HW118572   2.467   3.453   6.840 -1.9904 -0.4784  0.4462
 2370SOL    HW218573   2.410   3.583   6.888  0.4252  0.2468  0.3479
 2371SOL     OW18574   1.938   1.707   2.347 -0.0671 -0.5284  0.1330
 2371SOL    HW118575   1.948   1.721   2.253 -0.3591  3.8945  0.7777
 2371SOL    HW218576   2.024   1.742   2.372 -1.2902  1.8859  0.8887
 2372SOL     OW18577   2.826   0.368   3.523  0.1900  0.2865  0.0259
 2372SOL    HW118578   2.870   0.381   3.607  0.5055 -0.7440  0.0281
 2372SOL    HW218579   2.893   0.331   3.465 -0.3447 -0.6374 -0.0035
 2373SOL     OW18580   0.970   4.324   4.284  0.3393  0.3827  0.0646
 2373SOL    HW118581   0.955   4.310   4.190  0.1585 -0.8666  0.2724
 2373SOL    HW218582   0.984   4.418   4.287  0.9977  0.3495 -1.6109
 2374SOL     OW18583   0.087   4.152  12.905  0.0198 -0.5189 -0.4144
 2374SOL    HW118584   0.163   4.111  12.947  0.4635 -0.0482 -0.7489
 2374SOL    HW218585   0.118   4.166  12.816 -0.0687  1.9851 -0.0638
 2375SOL     OW18586   2.602   3.479   4.774  0.0469  0.4308  0.2059
 2375SOL    HW118587   2.580   3.514   4.688  0.4305 -1.2780 -0.5817
 2375SOL    HW218588   2.589   3.560   4.825  0.3960  0.3171  0.4774
 2376SOL     OW18589   3.412   0.889   5.984 -0.2817  0.4075 -0.0226
 2376SOL    HW118590   3.395   0.845   5.901 -1.9483  2.2286 -0.6377
 2376SOL    HW218591   3.418   0.979   5.953  2.4713  0.4542  0.6674
 2377SOL     OW18592   1.906   1.994   3.622 -0.1297 -0.4965  0.0811
 2377SOL    HW118593   1.853   2.072   3.605 -2.2643 -1.9031  0.2427
 2377SOL    HW218594   1.974   2.016   3.685 -1.2207 -1.4727  1.6153
 2378SOL     OW18595   3.439   2.297   1.932 -0.3649 -0.0561 -0.1113
 2378SOL    HW118596   3.423   2.308   1.838 -0.0142 -0.0187 -0.1663
 2378SOL    HW218597   3.409   2.387   1.947 -0.7605  0.0504 -1.5271
 2379SOL     OW18598   2.489   4.476   2.560  0.4440  0.0944  0.1599
 2379SOL    HW118599   2.523   4.513   2.479 -1.2425 -0.1480 -0.6799
 2379SOL    HW218600   2.397   4.461   2.534 -0.2045  3.4586  0.6029
 2380SOL     OW18601   0.574   3.504   5.447 -0.4032  0.3737  0.6162
 2380SOL    HW118602   0.561   3.534   5.357  1.2460 -1.0331 -0.0841
 2380SOL    HW218603   0.663   3.473   5.436 -0.9776 -0.0334 -2.8254
 2381SOL     OW18604   3.481   3.679   3.465 -0.0297 -0.3313 -0.3629
 2381SOL    HW118605   3.484   3.593   3.506  0.2749  0.5889  1.5587
 2381SOL    HW218606   3.388   3.694   3.448 -0.4147 -2.0318  0.3550
 2382SOL     OW18607   0.380   2.978   2.670 -0.1091 -0.2129  0.6489
 2382SOL    HW118608   0.401   2.892   2.633 -0.4689 -0.6754  1.5064
 2382SOL    HW218609   0.450   2.982   2.736  0.4172  2.7330 -0.1073
 2383SOL     OW18610   1.683   0.191  10.429 -0.5471  0.1398  0.4367
 2383SOL    HW118611   1.769   0.234  10.428 -0.9702  0.9586 -0.2920
 2383SOL    HW218612   1.694   0.120  10.365 -0.1650  1.4531 -0.9486
 2384SOL     OW18613   2.134   3.928   4.349 -0.3244  0.8808 -0.5231
 2384SOL    HW118614   2.225   3.901   4.339 -0.8478 -0.7206 -0.9855
 2384SOL    HW218615   2.111   3.885   4.431  1.4703 -1.3840 -1.2065
 2385SOL     OW18616   0.298   4.457   7.343  0.0884  0.4261 -0.8407
 2385SOL    HW118617   0.216   4.444   7.295 -0.5983 -0.7713  0.6602
 2385SOL    HW218618   0.322   4.366   7.363 -0.5652  0.5298  0.4267
 2386SOL     OW18619   2.045   1.431  11.437 -0.1907  0.3683  0.0226
 2386SOL    HW118620   2.057   1.488  11.513 -1.5680  1.8518 -0.8739
 2386SOL    HW218621   2.033   1.500  11.371 -1.1300  0.4783  0.3034
 2387SOL     OW18622   0.102   1.586   8.740 -0.5327  0.6248  0.1295
 2387SOL    HW118623   0.129   1.597   8.832  0.1992 -2.7896  0.3220
 2387SOL    HW218624   0.092   1.491   8.738 -1.8321  0.7925 -0.6791
 2388SOL     OW18625   3.690   1.547   0.525 -0.2935  0.2571  0.2671
 2388SOL    HW118626   3.640   1.494   0.463  0.5868 -1.9157  1.4313
 2388SOL    HW218627   3.651   1.521   0.608 -0.1078  0.7490  0.5099
 2389SOL     OW18628   0.295   2.227   4.002 -0.1655  0.6856  0.1253
 2389SOL    HW118629   0.370   2.254   3.949  2.2188 -3.2488  1.4743
 2389SOL    HW218630   0.253   2.312   4.016 -1.0434  0.1726  0.6312
 2390SOL     OW18631   0.662   1.440   2.002  0.1054 -0.1689 -0.1665
 2390SOL    HW118632   0.633   1.487   2.081 -0.5407 -0.3916 -0.2712
 2390SOL    HW218633   0.586   1.394   1.967 -0.7469  1.0295  0.0728
 2391SOL     OW18634   1.392   3.473   3.749  0.1167 -0.2034 -0.1271
 2391SOL    HW118635   1.386   3.555   3.700  0.7689  0.8765  1.5898
 2391SOL    HW218636   1.486   3.454   3.755  0.0546 -0.2957  0.4910
 2392SOL     OW18637   1.049   0.383  15.294 -0.4925  0.2820 -0.4214
 2392SOL    HW118638   1.041   0.288  15.307  1.1250  0.1529 -0.3015
 2392SOL    HW218639   1.087   0.423  15.372 -2.4835 -0.0640  0.7285
 2393SOL     OW18640   1.947   3.666  11.464  0.4867 -0.1894 -0.0509
 2393SOL    HW118641   1.955   3.756  11.495  1.5499 -0.8092  1.5117
 2393SOL    HW218642   2.038   3.653  11.439  0.8032  1.5907  0.2047
 2394SOL     OW18643   2.004   3.294   7.023 -0.1423 -0.6715  0.1918
 2394SOL    HW118644   1.949   3.236   7.076  0.8971 -1.1821  0.7292
 2394SOL    HW218645   1.953   3.374   7.032  2.3754  0.8823  0.7812
 2395SOL     OW18646   1.657   0.307  13.088  0.1514 -0.0290 -0.9064
 2395SOL    HW118647   1.747   0.295  13.120  0.0021  2.0205  0.2643
 2395SOL    HW218648   1.673   0.273  12.999 -0.6409  2.0820 -1.8488
 2396SOL     OW18649   1.282   3.240   7.047 -0.2084 -0.0805 -0.0353
 2396SOL    HW118650   1.233   3.227   6.966 -0.9631 -0.3526  0.4626
 2396SOL    HW218651   1.358   3.181   7.053 -0.7558 -0.6634  1.1349
 2397SOL     OW18652   3.102   1.880  17.521  0.2218  0.3912 -0.4556
 2397SOL    HW118653   3.032   1.846  17.577  0.8548 -2.0869 -1.1486
 2397SOL    HW218654   3.057   1.957  17.486  1.2595  1.8065  1.3535
 2398SOL     OW18655   4.098   1.635  13.371  0.0324  0.3650 -0.0853
 2398SOL    HW118656   4.127   1.714  13.417 -0.7827  1.8268 -2.1105
 2398SOL    HW218657   4.010   1.614  13.403  0.3065  0.2969  0.6198
 2399SOL     OW18658   0.272   4.020   6.118 -0.8067  0.2560  0.1268
 2399SOL    HW118659   0.313   3.934   6.119  0.1150  0.6730 -1.1311
 2399SOL    HW218660   0.209   4.011   6.046 -2.5182 -0.1991  1.6993
 2400SOL     OW18661   1.952   0.835   4.241 -0.3387 -0.3116  0.0111
 2400SOL    HW118662   2.031   0.788   4.213 -0.0999 -0.2716  0.6202
 2400SOL    HW218663   1.957   0.915   4.189  3.2692 -0.5440 -0.0111
 2401SOL     OW18664   4.575   3.836  14.210 -0.0310 -0.0168  0.2145
 2401SOL    HW118665   4.536   3.857  14.125 -2.0407 -0.9727  0.8991
 2401SOL    HW218666   4.500   3.839  14.271  0.6533  0.8630  1.0169
 2402SOL     OW18667   3.389   1.249   0.501 -0.0261  0.8033 -0.0916
 2402SOL    HW118668   3.301   1.214   0.492  0.7868 -1.0160 -0.8991
 2402SOL    HW218669   3.400   1.294   0.417 -2.2907  1.1711 -0.2006
 2403SOL     OW18670   0.744   2.191   7.280 -0.2612 -0.2880  0.4540
 2403SOL    HW118671   0.756   2.194   7.375  1.6134  0.7710  0.1813
 2403SOL    HW218672   0.823   2.151   7.244  1.1658  1.7052  1.3126
 2404SOL     OW18673   1.472   2.246   0.829 -0.3503 -0.1572 -0.1433
 2404SOL    HW118674   1.383   2.255   0.862 -0.1528 -0.8673  0.5662
 2404SOL    HW218675   1.462   2.302   0.752 -1.4263  2.1486  1.6679
 2405SOL     OW18676   2.757   0.171   4.375 -0.0613 -1.5614  0.3613
 2405SOL    HW118677   2.715   0.202   4.455 -2.5580  0.8845 -1.9108
 2405SOL    HW218678   2.695   0.102   4.350 -1.2646 -0.7436  1.1224
 2406SOL     OW18679   0.957   0.777   9.011  0.8019  0.1968  0.0637
 2406SOL    HW118680   1.032   0.797   8.956 -1.2410 -0.7379 -3.0750
 2406SOL    HW218681   0.997   0.720   9.077  1.6563  0.6317 -0.0832
 2407SOL     OW18682   0.116   1.255   4.850  0.0082  0.4063 -0.0292
 2407SOL    HW118683   0.169   1.268   4.772 -3.7192 -1.7617 -2.9163
 2407SOL    HW218684   0.039   1.222   4.804 -0.3590  0.7245  0.3540
 2408SOL     OW18685   3.345   1.698   4.436  0.3194 -0.5041 -0.4157
 2408SOL    HW118686   3.369   1.729   4.348  0.7446  0.4317  0.0300
 2408SOL    HW218687   3.286   1.769   4.460 -1.6146 -1.9867 -0.8129
 2409SOL     OW18688   4.282   0.053  17.126 -0.1437 -0.2033 -0.3937
 2409SOL    HW118689   4.315   0.049  17.216  2.5747  0.2184 -1.3554
 2409SOL    HW218690   4.204   0.108  17.134  0.8464  1.3298 -1.3022
 2410SOL     OW18691   2.568   0.521  12.005 -0.6938 -0.7150 -0.1883
 2410SOL    HW118692   2.484   0.491  12.038 -0.7294  1.5047  1.7371
 2410SOL    HW218693   2.633   0.459  12.036  0.2721 -0.4883 -1.7330
 2411SOL     OW18694   1.043   1.465   7.251 -0.5385 -0.0004 -0.1463
 2411SOL    HW118695   0.987   1.501   7.320 -0.1580  2.6499 -1.2415
 2411SOL    HW218696   1.094   1.544   7.236  0.3311 -0.5335  0.0231
 2412SOL     OW18697   2.543   1.426   5.534  0.2801  0.1531 -0.6326
 2412SOL    HW118698   2.518   1.516   5.551 -0.4251  0.1157 -1.4254
 2412SOL    HW218699   2.598   1.411   5.611 -0.1248  1.2002 -0.1453
 2413SOL     OW18700   2.953   1.846  14.890  0.3671  0.0515  0.2199
 2413SOL    HW118701   2.859   1.838  14.870  0.8893  0.4662 -2.3721
 2413SOL    HW218702   2.972   1.778  14.955  1.0079 -1.0230 -1.0998
 2414SOL     OW18703   1.086   4.415   4.639 -0.7021  0.1731 -0.5401
 2414SOL    HW118704   0.999   4.379   4.622 -0.0139 -2.5674  1.7183
 2414SOL    HW218705   1.065   4.493   4.691 -0.0641 -0.0984  0.1147
 2415SOL     OW18706   0.840   3.917  12.420  0.4111 -0.2806  0.6210
 2415SOL    HW118707   0.891   3.848  12.378 -2.1931 -1.6822 -0.2314
 2415SOL    HW218708   0.913   3.968  12.455 -0.3022  1.5599 -0.5545
 2416SOL     OW18709   2.855   2.043   4.216 -0.3195 -0.1704 -0.2144
 2416SOL    HW118710   2.928   2.020   4.159  0.0644 -0.5534  0.4207
 2416SOL    HW218711   2.804   2.101   4.159 -0.3089  1.4086  1.3576
 2417SOL     OW18712   1.284   4.246   7.336 -0.4077  0.3580  0.2938
 2417SOL    HW118713   1.370   4.279   7.362 -0.2829  0.7426 -0.5940
 2417SOL    HW218714   1.304   4.155   7.312  0.5151  0.2249  1.5647
 2418SOL     OW18715   4.425   2.418  11.622  0.3491  0.0260 -0.0424
 2418SOL    HW118716   4.487   2.482  11.658 -2.2760  1.1095  2.6120
 2418SOL    HW218717   4.341   2.435  11.666  0.2630  0.5703 -0.4186
 2419SOL     OW18718   2.122   4.163   6.880  0.2414 -0.8661  0.2069
 2419SOL    HW118719   2.117   4.257   6.863  0.3747 -1.0765 -0.9687
 2419SOL    HW218720   2.093   4.169   6.971 -2.0296 -0.3001 -0.5652
 2420SOL     OW18721   0.853   3.908   8.484 -0.1789  0.2700  0.4946
 2420SOL    HW118722   0.872   3.911   8.578  1.0427  2.4279  0.1670
 2420SOL    HW218723   0.833   4.000   8.469 -2.3099 -0.2855 -0.0090
 2421SOL     OW18724   2.763   4.687   0.573 -0.0320 -0.1534 -0.4239
 2421SOL    HW118725   2.745   4.628   0.647 -0.1719 -1.9830 -1.9343
 2421SOL    HW218726   2.683   0.011   0.583  0.1651  0.5354 -2.5364
 2422SOL     OW18727   4.003   2.620   8.055  0.2070 -0.0890  0.3006
 2422SOL    HW118728   3.954   2.697   8.083 -0.7309 -0.2621 -0.8534
 2422SOL    HW218729   3.966   2.550   8.108  1.4274 -0.2505  0.9150
 2423SOL     OW18730   1.793   0.889   0.920 -0.0288  0.4547 -0.2893
 2423SOL    HW118731   1.820   0.904   1.011  2.2561  1.5660 -1.1380
 2423SOL    HW218732   1.745   0.971   0.912 -0.7945  0.2591  2.3859
 2424SOL     OW18733   3.586   0.395  16.519 -0.5522 -0.2586 -0.2426
 2424SOL    HW118734   3.666   0.348  16.498 -0.5051  0.1583 -0.9846
 2424SOL    HW218735   3.541   0.321  16.561 -0.0949 -1.0234 -1.1120
 2425SOL     OW18736   3.035   0.992   2.459  0.7956 -0.4634  0.2448
 2425SOL    HW118737   3.012   0.930   2.528 -0.5383 -0.0368  0.1762
 2425SOL    HW218738   3.036   1.075   2.505  0.8529 -1.2811  1.7035
 2426SOL     OW18739   3.138   3.123   2.582  0.1737  0.1905  0.3383
 2426SOL    HW118740   3.205   3.089   2.641 -0.8220  1.1856  2.0333
 2426SOL    HW218741   3.180   3.154   2.501 -0.4392 -1.0302 -0.4515
 2427SOL     OW18742   1.288   4.479   1.730  0.1698  0.6373  0.1645
 2427SOL    HW118743   1.204   4.525   1.720  0.0135  0.5204  0.9634
 2427SOL    HW218744   1.352   4.550   1.741 -0.9947  1.3387  2.4349
 2428SOL     OW18745   2.043   3.242   2.441  0.0426 -1.0798 -0.2218
 2428SOL    HW118746   2.027   3.189   2.519 -1.3691 -0.1087  0.1539
 2428SOL    HW218747   2.028   3.175   2.374 -2.8657 -1.3324  0.6791
 2429SOL     OW18748   4.537   1.003   9.105  0.1496  0.2042  0.6849
 2429SOL    HW118749   4.569   1.070   9.166  2.3620  1.7919 -2.1876
 2429SOL    HW218750   4.606   0.937   9.113  1.1265  1.1040 -0.1542
 2430SOL     OW18751   0.664   2.919   7.320 -0.3983  0.0623 -0.2420
 2430SOL    HW118752   0.646   2.866   7.398 -1.2431  0.0268 -0.4624
 2430SOL    HW218753   0.749   2.953   7.348 -0.2478 -0.7186  0.2386
 2431SOL     OW18754   0.528   1.963   6.080 -0.7333 -0.1475  0.0145
 2431SOL    HW118755   0.610   2.010   6.065 -1.1851  0.4839 -0.5104
 2431SOL    HW218756   0.496   2.021   6.149 -1.4075  0.6458 -0.9467
 2432SOL     OW18757   3.198   4.302   3.913  0.1373  0.1984  0.3353
 2432SOL    HW118758   3.283   4.268   3.884 -1.2388 -0.9994 -2.2702
 2432SOL    HW218759   3.183   4.271   4.002 -1.7668  2.2532  0.7237
 2433SOL     OW18760   3.491   1.579   3.918 -0.4200  0.4719  0.0223
 2433SOL    HW118761   3.542   1.498   3.914 -0.7921  0.1405  2.1225
 2433SOL    HW218762   3.526   1.631   3.846 -1.1275  1.4342  0.3733
 2434SOL     OW18763   2.088   0.544  17.436 -0.2494  0.4365 -0.2744
 2434SOL    HW118764   2.040   0.488  17.375 -2.3912  1.7119  0.2143
 2434SOL    HW218765   2.070   0.498  17.519 -0.0971 -0.1630 -0.5734
 2435SOL     OW18766   3.490   3.354   7.528  0.0423 -0.3082  0.2370
 2435SOL    HW118767   3.417   3.300   7.498 -1.3295  1.4951  0.3444
 2435SOL    HW218768   3.529   3.391   7.449  1.6610  0.0154  1.1824
 2436SOL     OW18769   4.063   0.901   8.132 -0.0039  0.1694  0.2510
 2436SOL    HW118770   4.051   0.994   8.152  1.1857  0.0260  1.6903
 2436SOL    HW218771   4.021   0.856   8.205  2.0620 -4.1723 -1.2629
 2437SOL     OW18772   1.615   0.234   5.816  0.2190 -0.0720 -0.1151
 2437SOL    HW118773   1.648   0.273   5.735  1.1934 -0.1906  0.2123
 2437SOL    HW218774   1.697   0.200   5.854  0.4268  0.8991  0.2920
 2438SOL     OW18775   2.040   3.569  11.812  0.1386  0.2930 -0.0554
 2438SOL    HW118776   2.001   3.487  11.781  1.6554  0.3225 -2.0238
 2438SOL    HW218777   1.959   3.611  11.840  1.1217  2.4411 -0.4854
 2439SOL     OW18778   1.968   0.409   8.822  0.6822  0.1572  0.7135
 2439SOL    HW118779   2.000   0.347   8.888  0.6695  1.5256  2.0004
 2439SOL    HW218780   1.974   0.491   8.871 -1.0076 -0.5176  2.0428
 2440SOL     OW18781   2.124   3.660   5.420  0.1595 -0.3813 -0.2511
 2440SOL    HW118782   2.052   3.616   5.466 -0.2615 -1.0841 -1.5651
 2440SOL    HW218783   2.145   3.610   5.341 -0.6382  0.2684 -0.8760
 2441SOL     OW18784   4.347   1.660  16.870  0.0348 -0.5250  0.0762
 2441SOL    HW118785   4.405   1.706  16.809  4.6565 -1.6146  3.6377
 2441SOL    HW218786   4.357   1.571  16.835 -1.5636 -0.4264 -0.6109
 2442SOL     OW18787   3.904   4.187   5.623 -0.6351 -0.3956 -0.4368
 2442SOL    HW118788   3.921   4.146   5.709 -0.0990  0.4529 -0.1434
 2442SOL    HW218789   3.814   4.164   5.599 -0.8495  0.2099 -0.2126
 2443SOL     OW18790   1.015   1.954   6.572  0.3703 -0.6531  0.1066
 2443SOL    HW118791   1.041   1.938   6.663  1.7012  0.3563 -0.0834
 2443SOL    HW218792   1.053   1.882   6.521  1.1479  1.9808 -3.0634
 2444SOL     OW18793   1.466   0.607   8.270 -0.0478  0.3932 -0.5355
 2444SOL    HW118794   1.487   0.546   8.199  0.7410 -0.2226  0.2394
 2444SOL    HW218795   1.463   0.687   8.216  0.7660  0.6099 -0.2539
 2445SOL     OW18796   2.942   1.795  10.345 -0.5032  0.1751 -0.4738
 2445SOL    HW118797   2.901   1.861  10.401 -1.7835  1.0922 -2.5210
 2445SOL    HW218798   2.953   1.726  10.411  1.0034 -0.3327 -1.2560
 2446SOL     OW18799   1.489   0.747  15.189  0.8561  0.4535 -0.1224
 2446SOL    HW118800   1.458   0.829  15.227 -2.1884  0.2404 -2.2223
 2446SOL    HW218801   1.547   0.782  15.121  1.6555 -0.7808 -0.0672
 2447SOL     OW18802   1.127   0.795   1.334 -0.5778  0.3938 -0.3551
 2447SOL    HW118803   1.116   0.715   1.386  1.5374  0.8479  0.8082
 2447SOL    HW218804   1.126   0.858   1.406 -3.4618  0.4062 -0.3784
 2448SOL     OW18805   4.568   3.696  10.982  0.0326  0.1402 -0.2484
 2448SOL    HW118806   4.508   3.754  10.935  0.4103  1.0236  0.3698
 2448SOL    HW218807   4.525   3.611  10.989  2.7768 -1.2952 -0.4746
 2449SOL     OW18808   3.177   0.681  15.269  0.0674 -0.6120 -0.0002
 2449SOL    HW118809   3.118   0.605  15.263  0.2491 -0.6692 -1.0724
 2449SOL    HW218810   3.211   0.697  15.181 -0.5741  0.9446  0.0370
 2450SOL     OW18811   0.111   2.740   6.853 -0.3231  0.1816  0.4775
 2450SOL    HW118812   0.155   2.720   6.935  0.6189  2.4048  0.5164
 2450SOL    HW218813   0.117   2.650   6.821  0.7023  0.7454 -0.8991
 2451SOL     OW18814   4.690   2.400  17.337  0.3597 -0.8648 -0.3804
 2451SOL    HW118815   4.644   2.349  17.270 -3.1991  0.8646  0.7728
 2451SOL    HW218816   4.651   2.487  17.323  0.7086 -0.7883 -0.9006
 2452SOL     OW18817   0.227   4.428   2.331 -0.2694 -0.1348  0.1492
 2452SOL    HW118818   0.227   4.410   2.237  0.0626  0.1415  0.0952
 2452SOL    HW218819   0.319   4.416   2.356 -0.7752 -1.6617  1.2902
 2453SOL     OW18820   1.048   1.168   0.473 -0.2163  0.4849 -0.3981
 2453SOL    HW118821   1.102   1.237   0.434  3.1090 -1.7537  0.1642
 2453SOL    HW218822   0.976   1.228   0.492  2.1386  3.3390 -0.4685
 2454SOL     OW18823   2.097   0.986   6.168 -0.3859 -0.4596  0.4572
 2454SOL    HW118824   2.056   1.051   6.225  1.2485  0.8456  0.1569
 2454SOL    HW218825   2.184   1.022   6.152 -0.1827 -0.6309  1.1898
 2455SOL     OW18826   2.746   3.647  16.357  0.3673  0.0378  0.6963
 2455SOL    HW118827   2.827   3.650  16.408  0.3721 -1.1682  0.7629
 2455SOL    HW218828   2.685   3.698  16.409 -1.1630 -1.2819  0.1753
 2456SOL     OW18829   1.349   2.592   2.243  0.0901 -1.0126 -0.2551
 2456SOL    HW118830   1.417   2.640   2.290 -1.6152 -0.9747  2.1314
 2456SOL    HW218831   1.297   2.553   2.313 -1.0792  0.2419 -0.4377
 2457SOL     OW18832   4.374   0.088   8.844  0.0394 -0.5063 -0.0908
 2457SOL    HW118833   4.338   4.727   8.848  1.2062 -0.9773 -0.0382
 2457SOL    HW218834   4.451   0.065   8.793  0.2410  1.3576 -0.6259
 2458SOL     OW18835   1.748   2.814  15.567 -0.0757 -0.2160 -0.2598
 2458SOL    HW118836   1.744   2.866  15.487 -0.1926  2.5790  1.5538
 2458SOL    HW218837   1.655   2.799  15.582 -0.0678  0.3226  0.3198
 2459SOL     OW18838   3.474   3.457   4.529 -0.6164  0.3382 -0.1352
 2459SOL    HW118839   3.405   3.512   4.566  0.3783  1.5415 -0.0895
 2459SOL    HW218840   3.557   3.492   4.560  0.2724 -0.5506 -1.4772
 2460SOL     OW18841   1.451   2.702   4.792  0.0840  0.8240  0.2589
 2460SOL    HW118842   1.378   2.689   4.852 -0.1263 -1.3109 -0.4744
 2460SOL    HW218843   1.468   2.795   4.806 -1.1439  0.8914  1.2767
 2461SOL     OW18844   1.812   2.034   5.165  0.3069 -0.3263 -0.6515
 2461SOL    HW118845   1.723   2.018   5.197 -0.1772  1.0600 -1.3061
 2461SOL    HW218846   1.870   1.995   5.231 -1.9931  0.1495  1.6696
 2462SOL     OW18847   4.454   2.310   5.456 -0.0880 -0.1344  0.3389
 2462SOL    HW118848   4.416   2.236   5.409  1.1839 -0.1464 -0.6803
 2462SOL    HW218849   4.471   2.265   5.539  0.3449  1.0860  0.9164
 2463SOL     OW18850   4.228   4.547   3.083 -0.2023 -0.7546  0.6542
 2463SOL    HW118851   4.184   4.569   3.001  1.5666  2.7880  0.6730
 2463SOL    HW218852   4.270   4.630   3.103 -0.7399 -0.5694  1.0062
 2464SOL     OW18853   1.900   4.475  11.584  0.2840  0.3100 -0.7266
 2464SOL    HW118854   1.867   4.559  11.617 -3.1792 -1.2851 -0.1039
 2464SOL    HW218855   1.923   4.422  11.659 -0.5947 -0.1550 -0.7832
 2465SOL     OW18856   0.296   2.085   2.346 -0.0348 -0.3786  0.4247
 2465SOL    HW118857   0.293   1.992   2.367  1.0500 -0.5213 -0.0719
 2465SOL    HW218858   0.295   2.128   2.431  1.5966 -1.2813  0.8972
 2466SOL     OW18859   0.717   2.225   5.312 -0.1357 -0.2142 -0.5264
 2466SOL    HW118860   0.747   2.178   5.234  0.9431  0.6877 -0.6508
 2466SOL    HW218861   0.653   2.286   5.277  1.5007  2.3079  0.8843
 2467SOL     OW18862   1.301   1.289  10.214 -0.4257  0.0806 -0.3814
 2467SOL    HW118863   1.251   1.258  10.290  0.7538  0.6796  0.6323
 2467SOL    HW218864   1.263   1.373  10.189  2.9326  1.7118 -0.0093
 2468SOL     OW18865   1.345   4.577  12.198  0.2847  0.0324 -0.2946
 2468SOL    HW118866   1.376   4.655  12.244 -0.5982 -0.1584  0.6330
 2468SOL    HW218867   1.307   4.624  12.124  0.9464  0.4696 -0.3581
 2469SOL     OW18868   4.665   0.823  13.062  0.0426 -0.5464 -0.2586
 2469SOL    HW118869   4.607   0.757  13.100  1.2464 -3.0090 -2.7302
 2469SOL    HW218870   4.718   0.844  13.139  0.9517 -0.8158 -0.8101
 2470SOL     OW18871   1.941   1.258   0.555 -0.8181  0.6588 -0.2307
 2470SOL    HW118872   2.024   1.210   0.550 -0.5658  0.8893  1.8843
 2470SOL    HW218873   1.909   1.265   0.465 -2.3779  1.5154  0.3965
 2471SOL     OW18874   0.601   3.801   7.746  0.7937  0.5823  0.4995
 2471SOL    HW118875   0.635   3.733   7.688 -1.2250  0.5631 -0.6503
 2471SOL    HW218876   0.554   3.861   7.689  0.2960 -2.0348 -1.8209
 2472SOL     OW18877   4.006   0.675   9.824  0.6089 -0.5265  0.4113
 2472SOL    HW118878   3.960   0.592   9.814 -3.4144  1.7992 -0.2916
 2472SOL    HW218879   4.022   0.694   9.731  1.5920 -1.9996  0.2751
 2473SOL     OW18880   1.371   3.988   3.494 -0.4030  0.7743  0.5124
 2473SOL    HW118881   1.424   4.039   3.555  1.6156  0.0503 -0.6591
 2473SOL    HW218882   1.303   4.041   3.451 -1.2507 -0.8865 -0.2033
 2474SOL     OW18883   2.309   1.176  10.908  0.9564 -0.3056 -0.0492
 2474SOL    HW118884   2.316   1.134  10.822  1.2839 -1.3455  0.4795
 2474SOL    HW218885   2.398   1.210  10.916  1.5132 -1.5519 -0.9764
 2475SOL     OW18886   0.584   1.078  11.818  0.1343 -0.2539  0.1862
 2475SOL    HW118887   0.611   1.070  11.727  0.8399  0.1384  0.3605
 2475SOL    HW218888   0.491   1.056  11.810  0.1105 -1.1816  2.9979
 2476SOL     OW18889   0.782   3.019   1.576 -0.3093 -0.1687  0.1948
 2476SOL    HW118890   0.838   2.969   1.516 -0.8252  0.3873 -0.7537
 2476SOL    HW218891   0.815   2.978   1.656 -0.6320  1.2265  1.0303
 2477SOL     OW18892   3.968   4.469   4.133 -0.6475 -0.1288  0.4751
 2477SOL    HW118893   3.927   4.474   4.047 -0.4904 -0.8029  0.3580
 2477SOL    HW218894   4.055   4.446   4.101  0.5801  0.3650  3.4898
 2478SOL     OW18895   2.219   1.141   0.532  0.3707 -0.5004  0.7236
 2478SOL    HW118896   2.229   1.137   0.437  1.6801  1.1595  0.7964
 2478SOL    HW218897   2.265   1.061   0.555 -0.3668 -1.5597 -1.4422
 2479SOL     OW18898   4.684   2.992   7.799  0.1180  0.7614  0.2859
 2479SOL    HW118899   0.044   2.965   7.769 -0.8785 -1.1373 -0.9153
 2479SOL    HW218900   4.704   3.039   7.880  0.4305 -0.2457  0.7869
 2480SOL     OW18901   0.110   1.962   4.913 -0.4013  0.4221 -0.1267
 2480SOL    HW118902   0.046   1.903   4.875 -0.8684  0.6530  0.3008
 2480SOL    HW218903   0.095   1.959   5.008 -2.1486  2.0254 -0.3527
 2481SOL     OW18904   0.243   4.724   3.833 -0.1313  0.5727 -0.3991
 2481SOL    HW118905   0.220   4.712   3.740 -1.7115  1.2914 -0.0953
 2481SOL    HW218906   0.328   4.680   3.836 -1.0270 -1.1540 -0.2089
 2482SOL     OW18907   0.040   3.044   0.864  0.4429  0.1381 -0.0061
 2482SOL    HW118908   0.005   3.085   0.784 -0.8422  0.5711  0.7767
 2482SOL    HW218909   0.098   3.110   0.900 -0.2002  0.6262  0.1474
 2483SOL     OW18910   1.327   1.968   2.281 -0.3448 -0.7652 -0.1454
 2483SOL    HW118911   1.412   1.943   2.246 -0.9917 -1.6291 -1.0939
 2483SOL    HW218912   1.332   2.064   2.271  0.7721 -0.7072  1.0114
 2484SOL     OW18913   1.089   0.557   7.315  0.5507  0.1357  0.1386
 2484SOL    HW118914   1.026   0.545   7.386 -0.6539 -1.2175 -1.1591
 2484SOL    HW218915   1.097   0.468   7.280  1.5723 -0.3719  1.6397
 2485SOL     OW18916   3.296   3.982   3.297  0.0981  0.0007 -0.8033
 2485SOL    HW118917   3.323   4.065   3.337 -4.4963  1.7699 -1.3751
 2485SOL    HW218918   3.292   3.929   3.377  0.8955 -0.3113 -0.9676
 2486SOL     OW18919   2.239   0.946  14.683 -0.3806 -0.0458  0.1584
 2486SOL    HW118920   2.248   1.041  14.671 -0.4433 -0.0715 -0.0730
 2486SOL    HW218921   2.304   0.945  14.753 -1.0434  2.9621  0.8164
 2487SOL     OW18922   0.776   0.972   3.438  0.7106 -0.0319  0.0350
 2487SOL    HW118923   0.795   0.916   3.362  0.0825 -1.0913  0.6698
 2487SOL    HW218924   0.791   1.057   3.395 -2.4781  1.4481  1.8262
 2488SOL     OW18925   2.464   3.193  15.145 -0.0298 -0.2720  0.4937
 2488SOL    HW118926   2.532   3.148  15.095 -0.0773 -0.1955  0.3570
 2488SOL    HW218927   2.510   3.272  15.172 -0.3346 -0.1146  0.5542
 2489SOL     OW18928   1.890   4.317   4.415 -0.3717 -0.1031  0.2640
 2489SOL    HW118929   1.944   4.283   4.486  0.1981  0.3624  0.0522
 2489SOL    HW218930   1.954   4.311   4.344 -2.4381 -1.6894 -1.4531
 2490SOL     OW18931   1.351   4.705   6.649 -0.2576  0.0797 -0.7465
 2490SOL    HW118932   1.336   4.636   6.584 -0.4342  0.2320 -0.8688
 2490SOL    HW218933   1.325   0.055   6.600 -2.6108  0.7254  1.5018
 2491SOL     OW18934   1.837   3.023   8.584  0.1812 -0.5606 -0.1172
 2491SOL    HW118935   1.859   2.972   8.506 -3.3275 -0.8995 -0.9096
 2491SOL    HW218936   1.916   3.075   8.602  0.6482  0.1600 -4.1431
 2492SOL     OW18937   1.843   2.563   8.078 -0.1399  0.5466 -0.0145
 2492SOL    HW118938   1.763   2.586   8.126 -1.3987  0.2379 -1.9372
 2492SOL    HW218939   1.805   2.523   8.000 -1.6154 -0.6252  1.3048
 2493SOL     OW18940   4.161   1.712  14.155 -0.7834  0.7028 -0.2442
 2493SOL    HW118941   4.223   1.641  14.138 -1.3910  0.0719  0.1582
 2493SOL    HW218942   4.157   1.709  14.250 -0.1128  0.7056 -0.2134
 2494SOL     OW18943   1.270   3.235   4.070 -0.5256  0.0645  0.0829
 2494SOL    HW118944   1.299   3.199   4.154  0.5255  1.7918  0.4518
 2494SOL    HW218945   1.323   3.177   4.015 -1.0032 -1.5079  1.3040
 2495SOL     OW18946   2.861   0.345   1.941 -0.1640 -0.3347  0.0150
 2495SOL    HW118947   2.809   0.423   1.923 -1.4364 -0.8828  1.2575
 2495SOL    HW218948   2.946   0.385   1.960 -0.4737  0.5726 -0.5386
 2496SOL     OW18949   2.723   2.991  11.769 -0.1948 -0.3032  0.1944
 2496SOL    HW118950   2.744   3.014  11.678  1.8745  0.7576  0.9151
 2496SOL    HW218951   2.813   2.970  11.795 -0.3479  0.9869  1.7288
 2497SOL     OW18952   3.142   4.304  16.682  0.0402 -0.7064 -0.0452
 2497SOL    HW118953   3.048   4.295  16.670 -0.3798  0.6858  2.0813
 2497SOL    HW218954   3.183   4.302  16.595  1.6575 -1.2777  0.7252
 2498SOL     OW18955   3.351   2.457   5.334  0.1831 -0.2904  0.6786
 2498SOL    HW118956   3.444   2.454   5.354  0.0710 -2.5727  0.8297
 2498SOL    HW218957   3.344   2.445   5.240  0.7903  0.4340  0.5382
 2499SOL     OW18958   2.855   2.532   4.837 -0.3763 -0.6056 -0.0062
 2499SOL    HW118959   2.925   2.521   4.774 -0.1941 -0.7550  0.2223
 2499SOL    HW218960   2.877   2.620   4.868  0.1705 -0.6557 -0.2642
 2500SOL     OW18961   2.414   3.593  13.279  0.1339 -0.1696 -0.4631
 2500SOL    HW118962   2.462   3.651  13.338  0.3067 -0.5193 -0.2636
 2500SOL    HW218963   2.408   3.644  13.198 -0.6216  0.7629  0.1756
 2501SOL     OW18964   4.279   3.737   6.777 -0.6432 -0.1314 -0.2825
 2501SOL    HW118965   4.274   3.663   6.837 -1.3990  0.2830  0.1618
 2501SOL    HW218966   4.188   3.766   6.775 -0.7597 -0.5015 -0.3430
 2502SOL     OW18967   2.297   3.930  15.626  0.1021  0.1161 -0.4946
 2502SOL    HW118968   2.387   3.961  15.615 -0.2223  1.0692 -0.4507
 2502SOL    HW218969   2.314   3.836  15.636 -0.2513  0.3658  2.6351
 2503SOL     OW18970   0.536   4.173  10.075  0.0432 -0.3784  0.7938
 2503SOL    HW118971   0.620   4.183  10.121 -0.6878  1.2653  1.7974
 2503SOL    HW218972   0.519   4.253  10.024 -0.6756 -0.7186  0.4979
 2504SOL     OW18973   1.438   4.145   4.559  0.4898  0.6995  0.4818
 2504SOL    HW118974   1.512   4.085   4.555  1.2330  1.6441 -0.0040
 2504SOL    HW218975   1.381   4.112   4.490  1.2098 -1.9105  1.1536
 2505SOL     OW18976   1.634   4.291   8.435  0.5177 -0.0481 -0.1216
 2505SOL    HW118977   1.656   4.295   8.528  0.7079 -1.6567 -0.0954
 2505SOL    HW218978   1.540   4.286   8.452  0.3401  0.6547 -0.8791
 2506SOL     OW18979   1.223   1.511  10.812 -0.4582  0.5555  0.0212
 2506SOL    HW118980   1.162   1.581  10.788  0.7772  1.0428 -1.7162
 2506SOL    HW218981   1.203   1.452  10.738  1.8646  1.0675 -0.9994
 2507SOL     OW18982   1.488   1.676  15.368  0.7389  0.5790 -0.0013
 2507SOL    HW118983   1.542   1.620  15.314 -0.1335 -0.5406  0.2839
 2507SOL    HW218984   1.413   1.618  15.382  0.2824  1.0532 -0.4662
 2508SOL     OW18985   1.059   2.155  16.517 -0.4883 -0.5073  0.4833
 2508SOL    HW118986   1.058   2.069  16.558  1.7544 -0.2527  1.0975
 2508SOL    HW218987   1.059   2.223  16.584  0.2890 -0.0658  0.0367
 2509SOL     OW18988   1.080   0.518   2.864 -0.5551 -0.6540 -0.5153
 2509SOL    HW118989   1.093   0.457   2.937 -2.2132 -0.2842  0.0760
 2509SOL    HW218990   1.035   0.455   2.808  0.3534  1.2054 -3.3163
 2510SOL     OW18991   1.928   3.865   5.307  0.3684 -0.1880 -0.6768
 2510SOL    HW118992   1.916   3.946   5.257 -2.7511 -0.3077 -0.0996
 2510SOL    HW218993   2.020   3.841   5.291  1.0762  0.9694  1.5813
 2511SOL     OW18994   2.033   4.075   5.925  0.4288  0.5339 -0.4626
 2511SOL    HW118995   2.128   4.089   5.924  0.6327 -0.6075  3.3043
 2511SOL    HW218996   2.000   4.146   5.980  0.7297  1.0358 -0.9320
 2512SOL     OW18997   3.491   2.960   1.640  0.2689 -0.1900 -0.1750
 2512SOL    HW118998   3.539   3.042   1.636 -1.1408  0.5356 -2.8237
 2512SOL    HW218999   3.541   2.902   1.697  0.3349 -0.5590 -0.6088
 2513SOL     OW19000   1.199   2.240   6.923  0.2149  0.2528  0.1884
 2513SOL    HW119001   1.255   2.217   6.849  1.7673  3.9718  0.1671
 2513SOL    HW219002   1.265   2.275   6.983 -0.4759  1.3615  0.2932
 2514SOL     OW19003   0.545   0.472  12.733  0.0520  0.2092 -0.2093
 2514SOL    HW119004   0.525   0.496  12.643 -1.3778  0.3184  0.1383
 2514SOL    HW219005   0.637   0.446  12.728 -0.5962 -2.0417 -0.2533
 2515SOL     OW19006   3.550   3.039   3.729  0.3324 -0.2342  0.3953
 2515SOL    HW119007   3.547   3.005   3.818 -0.5942 -0.6528  0.2066
 2515SOL    HW219008   3.644   3.043   3.714  0.8099  1.5443  3.8706
 2516SOL     OW19009   2.619   1.803  12.226 -0.0094  0.6175  0.3034
 2516SOL    HW119010   2.707   1.842  12.230  1.2550 -2.3141  0.6600
 2516SOL    HW219011   2.597   1.797  12.319  2.1777  1.1483  0.8678
 2517SOL     OW19012   4.420   2.726  11.487  0.0843 -0.0369 -0.2578
 2517SOL    HW119013   4.512   2.729  11.458  0.0655 -1.1416 -0.4438
 2517SOL    HW219014   4.433   2.735  11.582 -1.2145 -0.3045 -0.0658
 2518SOL     OW19015   2.835   4.410   3.885  0.1535  0.6695  0.1019
 2518SOL    HW119016   2.834   4.386   3.978  0.6468  0.6199  0.0974
 2518SOL    HW219017   2.744   4.436   3.875 -0.0623 -0.1623 -0.0640
 2519SOL     OW19018   0.408   1.788   4.004 -0.4122  0.2821 -0.1008
 2519SOL    HW119019   0.434   1.815   3.916 -1.0498 -1.0480 -0.7060
 2519SOL    HW219020   0.331   1.735   3.981  0.4150 -1.1680  0.4686
 2520SOL     OW19021   1.831   4.376  16.950 -0.6369 -0.6261  0.2503
 2520SOL    HW119022   1.799   4.465  16.936  2.3726  0.8001  2.3575
 2520SOL    HW219023   1.869   4.383  17.037  3.0436  0.5589 -1.4400
 2521SOL     OW19024   1.399   0.771   3.674  0.3252  0.2112  0.2510
 2521SOL    HW119025   1.315   0.743   3.639  0.4184 -1.9322  1.7442
 2521SOL    HW219026   1.369   0.818   3.752 -1.3890  1.2671 -1.0374
 2522SOL     OW19027   3.736   2.156  16.975  0.5450 -1.4757  0.1236
 2522SOL    HW119028   3.756   2.171  16.882  2.4533  1.5160  1.0296
 2522SOL    HW219029   3.798   2.218  17.014  0.2648 -1.4011  0.4456
 2523SOL     OW19030   1.844   1.827   4.646  0.2309 -0.5692 -0.0788
 2523SOL    HW119031   1.863   1.792   4.733  3.0370  3.1982  0.7931
 2523SOL    HW219032   1.896   1.907   4.653  1.0819 -0.9533 -2.0401
 2524SOL     OW19033   3.526   4.491   5.406  0.1010 -0.3539  0.3442
 2524SOL    HW119034   3.535   4.579   5.370  2.0452 -0.2820  0.9845
 2524SOL    HW219035   3.476   4.450   5.336  0.2125 -0.3865  0.2834
 2525SOL     OW19036   1.497   1.719  11.480  0.3464  0.0743  0.1696
 2525SOL    HW119037   1.514   1.672  11.398 -1.8580 -0.7031  0.1615
 2525SOL    HW219038   1.439   1.788  11.448  0.0678  0.6340  1.9036
 2526SOL     OW19039   2.102   4.045   3.609 -0.1380 -0.0913  0.1816
 2526SOL    HW119040   2.037   4.110   3.582  0.3996  0.7362  0.8866
 2526SOL    HW219041   2.044   3.970   3.615  0.1065 -0.1980  1.1189
 2527SOL     OW19042   1.300   0.793   3.378 -0.7962  0.1185 -0.2018
 2527SOL    HW119043   1.297   0.888   3.386 -2.3963  0.1918 -1.6441
 2527SOL    HW219044   1.208   0.767   3.389  0.1542 -1.5670  3.6536
 2528SOL     OW19045   3.342   3.594  14.370  0.0648 -0.3344  0.0792
 2528SOL    HW119046   3.287   3.567  14.297 -1.5172  0.8276  0.8397
 2528SOL    HW219047   3.285   3.664  14.403  0.6671  0.3984 -0.4495
 2529SOL     OW19048   3.226   4.667   8.959  0.1460 -0.1310 -0.0187
 2529SOL    HW119049   3.247   4.595   9.019 -0.6060  0.0144  0.4193
 2529SOL    HW219050   3.313   4.668   8.919  0.6309  1.0998  1.0687
 2530SOL     OW19051   1.446   1.824  16.591 -0.0259 -0.0065  0.2382
 2530SOL    HW119052   1.472   1.857  16.677  0.2500 -2.6865  1.1926
 2530SOL    HW219053   1.440   1.905  16.539  0.0876 -0.9612 -1.2707
 2531SOL     OW19054   3.235   0.125   6.342  0.2425 -0.1754  0.5432
 2531SOL    HW119055   3.210   0.158   6.428 -0.4781  0.5660  0.0401
 2531SOL    HW219056   3.326   0.107   6.364  0.1773 -0.3921  0.6415
 2532SOL     OW19057   4.643   1.049   8.045 -0.0003 -0.0353  0.1398
 2532SOL    HW119058   4.684   1.134   8.060 -0.4286  0.1140  0.4532
 2532SOL    HW219059   4.566   1.044   8.101  0.8604 -0.4793  1.2815
 2533SOL     OW19060   2.116   3.430   8.750  0.0601 -0.0465 -0.2551
 2533SOL    HW119061   2.174   3.395   8.817 -0.9296 -1.4022 -0.1307
 2533SOL    HW219062   2.173   3.423   8.673 -0.5927 -0.8674 -0.6517
 2534SOL     OW19063   2.881   4.653   2.111  0.0861  0.2299  0.3672
 2534SOL    HW119064   2.819   4.711   2.067  0.9790 -0.6608 -2.0998
 2534SOL    HW219065   2.960   4.704   2.092  1.8007 -2.2176  0.8537
 2535SOL     OW19066   3.757   3.633   0.113 -0.2619  0.8253  0.3645
 2535SOL    HW119067   3.837   3.662   0.156  1.6947 -1.1594 -1.9388
 2535SOL    HW219068   3.717   3.595   0.191  0.9401 -2.1886 -0.5106
 2536SOL     OW19069   4.120   0.299  14.844 -0.3118  0.0433 -0.2079
 2536SOL    HW119070   4.053   0.360  14.814  0.0424  0.7784  0.5071
 2536SOL    HW219071   4.134   0.308  14.938 -0.1207  0.7927 -0.3104
 2537SOL     OW19072   3.864   3.307   1.059  0.3892  0.0068 -0.1863
 2537SOL    HW119073   3.854   3.378   1.123 -1.0799  0.1196 -0.5433
 2537SOL    HW219074   3.775   3.271   1.067  0.4495 -0.0856  0.0903
 2538SOL     OW19075   0.295   1.259  10.982 -0.2081  0.1269 -0.1287
 2538SOL    HW119076   0.267   1.234  11.071 -0.1690  1.8268  0.3604
 2538SOL    HW219077   0.262   1.348  10.972 -0.0463  0.0807 -1.0425
 2539SOL     OW19078   2.580   1.656   5.278 -0.0924 -0.6666  0.2966
 2539SOL    HW119079   2.544   1.725   5.334  3.2791  0.8490  0.6000
 2539SOL    HW219080   2.662   1.634   5.323 -0.6843  1.0963  2.2700
 2540SOL     OW19081   0.370   4.123   5.096  0.4323  0.1942 -0.4409
 2540SOL    HW119082   0.336   4.124   5.006 -2.4966  0.6770  0.6639
 2540SOL    HW219083   0.397   4.214   5.109 -1.3682  0.8217 -1.1550
 2541SOL     OW19084   2.598   1.326   9.968  0.0050 -0.3613 -0.1715
 2541SOL    HW119085   2.567   1.236   9.964 -0.4561 -0.2794  1.4149
 2541SOL    HW219086   2.557   1.363   9.889 -0.4259  0.2277  0.3257
 2542SOL     OW19087   1.072   0.331   0.156  0.1265  0.7566  0.0204
 2542SOL    HW119088   1.110   0.257   0.205 -2.1520  0.1166  0.8039
 2542SOL    HW219089   1.150   0.380   0.130  0.4535  0.2400  0.0136
 2543SOL     OW19090   2.547   2.687   6.892  0.3761  0.2635  0.1088
 2543SOL    HW119091   2.609   2.640   6.949 -1.4526 -0.8113  1.2066
 2543SOL    HW219092   2.604   2.743   6.840  2.1293 -1.3930  0.2181
 2544SOL     OW19093   1.204   0.209   0.354 -0.4247 -0.3541  0.3660
 2544SOL    HW119094   1.230   0.236   0.442 -0.1832 -1.3012  0.5893
 2544SOL    HW219095   1.286   0.193   0.307 -1.5975 -3.0580 -0.7886
 2545SOL     OW19096   3.984   3.629   2.114 -0.2178 -0.2337  0.6170
 2545SOL    HW119097   4.056   3.594   2.062 -1.2718 -1.5080  0.0230
 2545SOL    HW219098   3.942   3.549   2.147 -1.1027 -0.4337 -1.0305
 2546SOL     OW19099   1.562   3.409  12.142 -0.3108 -0.6115 -0.4294
 2546SOL    HW119100   1.532   3.498  12.162  0.9036 -0.3078  0.0087
 2546SOL    HW219101   1.655   3.415  12.163 -0.5576 -0.8886  0.7212
 2547SOL     OW19102   3.632   4.722   7.563  0.3084  0.5851  0.2789
 2547SOL    HW119103   3.655   4.648   7.618  0.0185  0.0818 -0.2764
 2547SOL    HW219104   3.594   0.048   7.632 -0.6871  0.8570 -0.4772
 2548SOL     OW19105   1.314   4.352   5.972  0.5755  0.4358 -0.3308
 2548SOL    HW119106   1.403   4.386   5.979  0.6856  0.4349 -1.7891
 2548SOL    HW219107   1.327   4.264   6.007 -1.8683 -0.7625 -2.4455
 2549SOL     OW19108   0.396   2.694  12.432 -0.3321 -0.1304  0.1682
 2549SOL    HW119109   0.478   2.653  12.405  0.5486  1.5886  0.2318
 2549SOL    HW219110   0.398   2.784  12.399  1.0389 -1.6366 -3.8767
 2550SOL     OW19111   2.586   3.796   1.278 -0.0403 -0.1140  0.0045
 2550SOL    HW119112   2.557   3.828   1.364 -2.0534 -1.8325 -0.0454
 2550SOL    HW219113   2.511   3.832   1.231  0.6196  2.2898  0.7934
 2551SOL     OW19114   1.164   3.978   4.625  0.3340 -0.4882 -0.6143
 2551SOL    HW119115   1.209   4.036   4.686  0.8131 -1.8654  0.3532
 2551SOL    HW219116   1.213   3.988   4.543  3.2450  0.2464  1.1995
 2552SOL     OW19117   2.371   3.542  11.090 -0.0219 -0.2539 -0.1271
 2552SOL    HW119118   2.434   3.586  11.147 -0.4032  0.3175 -0.1394
 2552SOL    HW219119   2.408   3.540  11.001  0.1562 -2.1354  0.0032
 2553SOL     OW19120   4.671   4.674  15.997 -0.3955 -0.1390  0.0548
 2553SOL    HW119121   4.687   0.041  15.991  1.0882 -0.4092 -0.2876
 2553SOL    HW219122   4.680   4.652  16.090 -1.1110 -0.3218  0.0801
 2554SOL     OW19123   3.279   2.720   0.493  0.2477  0.1244  0.0891
 2554SOL    HW119124   3.219   2.647   0.475  0.7620 -0.5482  1.0454
 2554SOL    HW219125   3.258   2.780   0.422 -0.1806  0.3823  0.4398
 2555SOL     OW19126   1.632   3.486  12.649  0.0656 -0.0062 -0.1933
 2555SOL    HW119127   1.631   3.396  12.616  0.4225  0.5115 -1.6400
 2555SOL    HW219128   1.695   3.531  12.592 -0.0779  0.0032 -0.3462
 2556SOL     OW19129   3.075   4.033   3.564 -0.2163 -0.3418  0.0180
 2556SOL    HW119130   3.067   4.114   3.614 -0.5527 -1.2771  1.4730
 2556SOL    HW219131   2.988   3.993   3.563 -0.7018  0.7334 -1.6209
 2557SOL     OW19132   0.732   3.313  17.654 -0.1150 -0.2330 -0.3000
 2557SOL    HW119133   0.814   3.357  17.679 -0.7170  0.6604  0.1042
 2557SOL    HW219134   0.722   3.356  17.569 -0.2641 -2.2482 -1.2951
 2558SOL     OW19135   2.091   2.733   5.255  0.4461  0.6048  0.0886
 2558SOL    HW119136   2.117   2.799   5.190 -0.9383  2.6956  1.6693
 2558SOL    HW219137   2.003   2.717   5.223  0.1749  1.5910  0.3283
 2559SOL     OW19138   0.812   2.406   4.392  0.1978 -0.3155  0.6300
 2559SOL    HW119139   0.771   2.321   4.403  1.2700 -0.7489  1.2255
 2559SOL    HW219140   0.891   2.402   4.446  2.2377  2.0759 -2.1249
 2560SOL     OW19141   0.765   3.383   6.199  0.1678 -0.5590  0.1808
 2560SOL    HW119142   0.855   3.417   6.205  0.1756 -0.7152  0.9009
 2560SOL    HW219143   0.772   3.312   6.263  0.0852 -0.9837 -0.2857
 2561SOL     OW19144   2.371   0.151   6.778  0.3846 -0.0026 -0.2920
 2561SOL    HW119145   2.312   0.211   6.733  0.0139  0.0639  0.2845
 2561SOL    HW219146   2.447   0.145   6.720  0.7401 -0.6685  0.2289
 2562SOL     OW19147   1.508   4.497  11.358  0.2316  0.5067 -0.1341
 2562SOL    HW119148   1.574   4.428  11.356 -1.5282 -1.2257  0.6437
 2562SOL    HW219149   1.467   4.489  11.272 -1.6957 -2.1864  1.0198
 2563SOL     OW19150   3.910   2.969   8.969 -0.5738  0.5919  0.0476
 2563SOL    HW119151   3.998   2.948   9.002 -0.3490  0.8832 -0.3715
 2563SOL    HW219152   3.908   2.924   8.885 -0.5785 -0.5905  0.6896
 2564SOL     OW19153   4.585   0.366  16.399 -0.0750  0.0474  0.2034
 2564SOL    HW119154   4.548   0.423  16.467  0.4416 -0.6481  1.0704
 2564SOL    HW219155   4.678   0.371  16.424  0.1201 -1.0660 -0.3012
 2565SOL     OW19156   4.306   1.692   8.662 -0.7989  0.2101 -0.5619
 2565SOL    HW119157   4.367   1.693   8.588 -0.8679 -1.2635 -0.6374
 2565SOL    HW219158   4.371   1.688   8.733 -0.3250  0.3054 -0.9959
 2566SOL     OW19159   0.026   3.069   7.161 -0.0187 -0.5213  0.0097
 2566SOL    HW119160   0.009   3.011   7.086 -0.2180 -1.1417  0.5289
 2566SOL    HW219161   0.121   3.080   7.165 -0.0712 -0.3578  0.9449
 2567SOL     OW19162   1.356   2.537   6.819  0.1511  0.4470 -1.1411
 2567SOL    HW119163   1.373   2.565   6.909  0.8623 -0.3728 -1.0170
 2567SOL    HW219164   1.415   2.600   6.778  0.6714 -0.0153 -1.1124
 2568SOL     OW19165   4.314   3.886   2.807 -0.0467 -0.3004 -0.1856
 2568SOL    HW119166   4.251   3.874   2.736  0.1691  0.4150 -0.4985
 2568SOL    HW219167   4.255   3.914   2.877  0.4052  1.1664 -0.3889
 2569SOL     OW19168   1.375   3.468   8.652  0.8021 -0.5078 -0.6631
 2569SOL    HW119169   1.465   3.460   8.620  0.2578 -1.6285 -1.9330
 2569SOL    HW219170   1.370   3.432   8.741  0.5491  2.8954  0.6870
 2570SOL     OW19171   0.324   0.623   5.725 -0.2043  0.3911 -0.0005
 2570SOL    HW119172   0.335   0.544   5.779 -2.5122 -1.2391 -1.9054
 2570SOL    HW219173   0.335   0.698   5.783  0.2835  1.3824 -1.3839
 2571SOL     OW19174   1.156   4.405   3.365  0.3392 -0.4442  0.2368
 2571SOL    HW119175   1.227   4.462   3.395  1.1249 -1.3272  0.0879
 2571SOL    HW219176   1.187   4.380   3.278  0.8969  2.5984 -0.4261
 2572SOL     OW19177   2.864   0.675   1.896 -0.5450 -0.3604  0.1931
 2572SOL    HW119178   2.852   0.620   1.818  2.8045  0.4876 -0.9358
 2572SOL    HW219179   2.778   0.715   1.887  0.6417  2.1562  0.2672
 2573SOL     OW19180   1.641   0.527  11.837  0.5928  0.3798 -0.5959
 2573SOL    HW119181   1.586   0.492  11.907 -1.3875 -0.4443 -2.5627
 2573SOL    HW219182   1.724   0.543  11.883  1.6649 -1.0443 -2.0494
 2574SOL     OW19183   1.690   1.223   7.691 -0.7063 -0.0950  0.2467
 2574SOL    HW119184   1.662   1.309   7.721 -0.0640 -0.2607  1.2939
 2574SOL    HW219185   1.610   1.172   7.705  0.0879 -0.6862  2.5985
 2575SOL     OW19186   3.371   2.332   1.669 -0.3147 -0.4578 -0.5743
 2575SOL    HW119187   3.332   2.383   1.599  1.7244  2.1311  0.1963
 2575SOL    HW219188   3.419   2.265   1.620 -1.5773 -1.4381 -0.4921
 2576SOL     OW19189   3.741   1.640   8.950 -0.4805 -0.6254  0.6953
 2576SOL    HW119190   3.718   1.697   8.875 -1.0085 -1.7960 -0.0333
 2576SOL    HW219191   3.789   1.710   8.994  1.2886 -0.4318 -1.5221
 2577SOL     OW19192   3.705   4.086   5.837  0.1581  0.8032 -0.2121
 2577SOL    HW119193   3.635   4.149   5.856  0.5017  1.3516 -0.7774
 2577SOL    HW219194   3.674   4.049   5.754  2.1727 -2.4412  0.4909
 2578SOL     OW19195   3.350   0.595   8.334 -0.4355 -0.2541 -0.1318
 2578SOL    HW119196   3.272   0.542   8.315 -1.2203  1.2135 -1.0303
 2578SOL    HW219197   3.325   0.652   8.407  0.2394  0.1626 -0.2335
 2579SOL     OW19198   1.082   3.797   6.089  0.5888 -0.0094 -0.3662
 2579SOL    HW119199   1.157   3.819   6.034  0.5573  2.2756  0.5410
 2579SOL    HW219200   1.095   3.702   6.087  2.0345  0.1789  0.1730
 2580SOL     OW19201   4.376   1.401   6.235 -0.3500  0.1690  0.6242
 2580SOL    HW119202   4.383   1.495   6.216 -2.6080  0.4085  0.9814
 2580SOL    HW219203   4.464   1.373   6.209 -1.6861 -1.7902 -1.6672
 2581SOL     OW19204   3.336   3.826   8.632  0.5988  0.0805  0.0709
 2581SOL    HW119205   3.420   3.866   8.655  0.5601 -0.6929  1.5639
 2581SOL    HW219206   3.356   3.756   8.570  1.4940 -1.6690  2.3536
 2582SOL     OW19207   4.297   0.541   9.545 -0.8656 -0.2485  0.0733
 2582SOL    HW119208   4.343   0.540   9.462 -0.1390  1.0818  0.4560
 2582SOL    HW219209   4.365   0.588   9.594 -2.0932 -0.0229  1.5571
 2583SOL     OW19210   2.753   2.285  13.261 -0.0469 -0.4689  0.5690
 2583SOL    HW119211   2.829   2.239  13.298  0.4643  0.7616  1.0501
 2583SOL    HW219212   2.786   2.349  13.198  1.4595  0.7586  2.5913
 2584SOL     OW19213   0.988   1.743   6.159  0.0803  0.2754  0.6374
 2584SOL    HW119214   1.011   1.668   6.213  0.7575 -0.1912 -0.2851
 2584SOL    HW219215   0.908   1.772   6.203 -1.0915 -0.9239 -0.6719
 2585SOL     OW19216   0.173   0.171   6.625 -0.6335  0.0013 -0.1479
 2585SOL    HW119217   0.140   0.235   6.687 -2.2735 -1.6515  0.6984
 2585SOL    HW219218   0.174   0.207   6.536 -0.2551  1.3896  0.4160
 2586SOL     OW19219   1.629   2.067   8.059 -0.0996 -0.5326  0.1436
 2586SOL    HW119220   1.614   1.976   8.033  1.2651 -1.0133  1.0236
 2586SOL    HW219221   1.723   2.060   8.046  0.1336 -0.1499  1.6612
 2587SOL     OW19222   0.083   1.339   8.443  0.0683  0.0770 -0.2704
 2587SOL    HW119223   0.084   1.284   8.365  1.3141 -1.2986  0.7043
 2587SOL    HW219224   0.112   1.424   8.410  1.7947 -0.5546 -0.3641
 2588SOL     OW19225   3.539   3.337   1.202  0.3841 -0.2152  0.4344
 2588SOL    HW119226   3.589   3.418   1.199 -1.6573  0.9341 -1.8553
 2588SOL    HW219227   3.467   3.366   1.147  1.3907  0.5474 -0.4746
 2589SOL     OW19228   1.094   3.719   4.854 -0.6631 -0.3178  0.1119
 2589SOL    HW119229   1.081   3.629   4.824 -0.8022 -0.6392  1.1440
 2589SOL    HW219230   1.028   3.774   4.813 -2.1036 -1.2003  1.2460
 2590SOL     OW19231   1.981   3.856  14.345 -0.2219  0.2243  0.2001
 2590SOL    HW119232   1.941   3.918  14.405 -1.5086  1.3946 -1.8670
 2590SOL    HW219233   1.927   3.780  14.367 -0.2104  0.7704  2.0992
 2591SOL     OW19234   3.997   4.565   4.419  0.1501  0.6186  0.9686
 2591SOL    HW119235   3.933   4.527   4.479 -0.9244  0.3425 -0.3550
 2591SOL    HW219236   3.958   4.554   4.333 -0.4047  0.8223  1.1957
 2592SOL     OW19237   2.875   4.366   5.704  0.9671 -0.2350 -0.7632
 2592SOL    HW119238   2.890   4.442   5.761 -0.9998 -0.7855  0.4680
 2592SOL    HW219239   2.803   4.402   5.653 -1.5588 -0.4912  2.5989
 2593SOL     OW19240   2.537   0.084   1.628 -0.1392 -0.2244  0.5725
 2593SOL    HW119241   2.528   0.003   1.677 -1.8185 -1.9361 -2.5677
 2593SOL    HW219242   2.446   0.097   1.599  1.0797  3.0672 -1.8903
 2594SOL     OW19243   3.226   1.964   4.422  0.4453 -0.1759 -0.7483
 2594SOL    HW119244   3.253   2.032   4.359 -0.0138  0.4625 -0.2604
 2594SOL    HW219245   3.142   1.934   4.387  0.0978 -1.3819  1.1811
 2595SOL     OW19246   1.957   3.929   2.246 -0.5055  0.0008  0.1538
 2595SOL    HW119247   1.880   3.899   2.295  0.2320 -0.1174  1.2299
 2595SOL    HW219248   1.915   3.969   2.170 -1.0382  0.4815  0.6939
 2596SOL     OW19249   4.493   2.361   6.751  0.7382 -0.4453 -0.6407
 2596SOL    HW119250   4.506   2.361   6.656 -1.2142 -1.0144 -0.9031
 2596SOL    HW219251   4.410   2.313   6.748  0.0796  0.4193  3.3063
 2597SOL     OW19252   0.486   1.146  13.758 -0.2347 -0.9650  0.1707
 2597SOL    HW119253   0.498   1.052  13.747  0.5315 -0.7708 -0.6482
 2597SOL    HW219254   0.575   1.182  13.766 -0.0245 -1.5319  0.3805
 2598SOL     OW19255   4.174   4.323  16.308 -0.1904 -0.0854 -0.3158
 2598SOL    HW119256   4.141   4.409  16.282  0.4194  0.0294 -0.6901
 2598SOL    HW219257   4.218   4.297  16.228 -2.2973 -1.7833 -0.9403
 2599SOL     OW19258   3.142   0.954   4.597 -0.2014  0.4638  0.5055
 2599SOL    HW119259   3.206   1.022   4.578  0.4777  0.0101  1.1633
 2599SOL    HW219260   3.057   0.992   4.574 -0.2273  1.7930  2.8002
 2600SOL     OW19261   3.166   1.812   3.833 -0.0339 -0.2568  0.3498
 2600SOL    HW119262   3.153   1.863   3.754  3.2910  0.9637  0.6275
 2600SOL    HW219263   3.248   1.848   3.866  0.2065 -0.7962  0.3445
 2601SOL     OW19264   1.808   4.039   9.293  0.1589  0.8583  0.5819
 2601SOL    HW119265   1.835   4.126   9.322 -1.2267  1.3165  0.5051
 2601SOL    HW219266   1.715   4.041   9.271  0.0553  0.4769  0.9854
 2602SOL     OW19267   0.394   0.026   2.595 -0.8427 -0.0461  0.4350
 2602SOL    HW119268   0.409   0.116   2.624  0.4415 -0.3241  0.6247
 2602SOL    HW219269   0.405   0.033   2.500  1.3861 -0.4141  0.6629
 2603SOL     OW19270   0.444   1.451  11.391 -0.7235 -0.3138  0.8628
 2603SOL    HW119271   0.375   1.514  11.372 -2.7476 -3.0315 -0.8603
 2603SOL    HW219272   0.468   1.428  11.302  0.8830 -1.6398  1.6366
 2604SOL     OW19273   1.545   3.852  16.395  0.0372 -0.0948 -0.1798
 2604SOL    HW119274   1.607   3.815  16.459  0.2040 -1.5382 -1.1896
 2604SOL    HW219275   1.510   3.777  16.349 -1.6519  0.5228  0.0976
 2605SOL     OW19276   4.353   3.527   2.441  0.5046  0.5608  0.2919
 2605SOL    HW119277   4.408   3.599   2.472 -2.0279  1.9187  1.6761
 2605SOL    HW219278   4.371   3.459   2.506  0.2844  1.1874  1.0092
 2606SOL     OW19279   3.982   0.788  11.607  0.1882  0.5673  0.3670
 2606SOL    HW119280   3.983   0.696  11.580 -1.8753 -0.3546  3.5168
 2606SOL    HW219281   3.964   0.835  11.525  1.0763 -0.9043 -0.6726
 2607SOL     OW19282   0.897   3.996   6.191  0.5128  0.0197 -0.0180
 2607SOL    HW119283   0.815   3.999   6.142  0.9413  0.0256 -0.7324
 2607SOL    HW219284   0.948   3.918   6.168  0.1748 -0.2111  0.0061
 2608SOL     OW19285   2.112   0.675   8.122  0.2201 -0.1027 -0.0669
 2608SOL    HW119286   2.173   0.748   8.118  0.2974 -0.1540  0.1952
 2608SOL    HW219287   2.121   0.621   8.044 -1.5168 -0.6930  0.1249
 2609SOL     OW19288   2.650   2.222   7.594  0.2137  0.0217  0.3212
 2609SOL    HW119289   2.735   2.234   7.553 -0.1396 -0.3139 -0.5178
 2609SOL    HW219290   2.599   2.177   7.526  1.0532  0.0766 -0.3377
 2610SOL     OW19291   2.182   4.375  16.835 -0.2300  0.3124 -0.0322
 2610SOL    HW119292   2.135   4.440  16.886 -2.5348 -2.4091  1.2630
 2610SOL    HW219293   2.113   4.345  16.776 -0.7885  1.2275  0.1696
 2611SOL     OW19294   2.080   2.529  17.404  0.0177 -0.2798  0.5862
 2611SOL    HW119295   2.023   2.467  17.359  2.0243 -1.9733  0.4083
 2611SOL    HW219296   2.166   2.518  17.362  0.2899 -0.5025  1.2083
 2612SOL     OW19297   2.532   3.780  13.433  0.3232  0.2427 -0.3340
 2612SOL    HW119298   2.501   3.798  13.522 -0.7869  1.4018 -0.9610
 2612SOL    HW219299   2.628   3.787  13.441  0.3286 -1.6251  1.3956
 2613SOL     OW19300   4.323   2.385   7.432 -0.5432 -0.3478  0.1039
 2613SOL    HW119301   4.338   2.308   7.487  0.0442 -0.5808 -0.3873
 2613SOL    HW219302   4.233   2.368   7.405 -0.7861  0.4952  0.3483
 2614SOL     OW19303   2.397   0.504   1.563 -0.2724 -0.0843 -0.4992
 2614SOL    HW119304   2.310   0.502   1.603 -0.6766 -4.0023 -1.6086
 2614SOL    HW219305   2.445   0.527   1.643 -2.0797 -1.5913  1.0335
 2615SOL     OW19306   2.885   3.530   9.041 -0.4888  0.4417  0.3115
 2615SOL    HW119307   2.909   3.560   9.129  0.9882  1.9051 -0.5890
 2615SOL    HW219308   2.945   3.593   9.000  0.3709 -0.8055 -0.3143
 2616SOL     OW19309   0.893   4.194   8.996  0.2837 -0.2147  0.5194
 2616SOL    HW119310   0.865   4.104   9.013 -1.5497  0.1724 -0.4192
 2616SOL    HW219311   0.987   4.191   9.015  0.5648  3.2573 -0.2720
 2617SOL     OW19312   0.386   1.551   3.714  0.8727 -0.4063  0.3730
 2617SOL    HW119313   0.378   1.583   3.625  0.4592  1.7908  1.1952
 2617SOL    HW219314   0.312   1.592   3.759  1.5301  2.2280 -1.0074
 2618SOL     OW19315   0.067   3.771   1.716 -0.2239  0.6001  0.7408
 2618SOL    HW119316   0.082   3.730   1.801 -1.4058 -0.2831  0.5176
 2618SOL    HW219317   0.040   3.698   1.661  0.9078  0.5785  0.2153
 2619SOL     OW19318   4.247   0.184  10.704 -0.1166 -0.2582  0.1661
 2619SOL    HW119319   4.172   0.135  10.670 -1.3148  1.4052  0.4068
 2619SOL    HW219320   4.232   0.187  10.798  0.1981  0.6287  0.1897
 2620SOL     OW19321   3.663   3.757   4.154  0.2510 -0.1742 -0.5676
 2620SOL    HW119322   3.666   3.675   4.202  1.6445  0.8228  1.0630
 2620SOL    HW219323   3.755   3.759   4.127  0.5483  2.0823  0.6092
 2621SOL     OW19324   3.155   1.542   4.599  0.3857  0.0866 -0.1383
 2621SOL    HW119325   3.146   1.449   4.578 -2.3943  0.2184  0.4703
 2621SOL    HW219326   3.219   1.572   4.533 -0.9062  2.7729 -0.1787
 2622SOL     OW19327   3.843   4.178  17.616  0.3993 -0.0744  0.1066
 2622SOL    HW119328   3.863   4.258  17.568  0.7578 -0.0700  0.2677
 2622SOL    HW219329   3.790   4.134  17.548 -0.5903 -1.3791  1.7135
 2623SOL     OW19330   4.299   1.139   9.493  0.1023  0.2114 -0.3086
 2623SOL    HW119331   4.348   1.182   9.423  2.0970  0.5152  1.2479
 2623SOL    HW219332   4.253   1.201   9.550  2.5792  1.5475  0.2678
 2624SOL     OW19333   2.182   2.745   4.922 -0.2953 -0.1126  0.2977
 2624SOL    HW119334   2.167   2.651   4.908 -0.0600 -0.1627  0.3775
 2624SOL    HW219335   2.105   2.771   4.871  1.6354  0.5197 -2.2711
 2625SOL     OW19336   4.070   0.119   6.182 -0.2073  0.5512  0.2582
 2625SOL    HW119337   4.103   0.161   6.103  0.1809 -0.7199 -0.2646
 2625SOL    HW219338   4.148   0.124   6.238  0.2801  1.3885 -0.5082
 2626SOL     OW19339   1.282   4.531   6.465 -0.1693 -0.2926 -0.0746
 2626SOL    HW119340   1.192   4.551   6.440 -0.6358 -1.0723  0.9688
 2626SOL    HW219341   1.266   4.462   6.529 -0.4301 -1.6378 -1.5793
 2627SOL     OW19342   2.830   3.270  10.313  0.5507  0.0796  0.2644
 2627SOL    HW119343   2.849   3.297  10.223 -0.2760  1.1453  0.4058
 2627SOL    HW219344   2.776   3.193  10.297 -0.3761  0.8686 -0.4241
 2628SOL     OW19345   2.821   2.945  15.927  0.2523  0.2540 -0.1183
 2628SOL    HW119346   2.853   2.872  15.873  0.2842  1.5967 -1.9359
 2628SOL    HW219347   2.838   3.014  15.863  2.1589 -1.2877 -1.2856
 2629SOL     OW19348   2.180   3.246   6.780  0.1907  0.1491  0.6956
 2629SOL    HW119349   2.270   3.234   6.809 -0.1951 -2.1938  0.9276
 2629SOL    HW219350   2.134   3.271   6.861 -0.7449 -1.5313  0.6840
 2630SOL     OW19351   3.731   1.087   5.252 -0.2734  0.1367 -0.8591
 2630SOL    HW119352   3.740   1.105   5.158  2.5049  0.4376 -0.5328
 2630SOL    HW219353   3.724   1.176   5.284 -1.4642  0.1111 -1.0343
 2631SOL     OW19354   2.887   1.526  10.801 -0.1550 -0.2400  0.2461
 2631SOL    HW119355   2.942   1.451  10.821 -2.2581 -1.4033  1.6237
 2631SOL    HW219356   2.855   1.546  10.888  1.1187 -1.7402  1.0561
 2632SOL     OW19357   0.508   1.964  10.350  0.0766  0.5188  0.2477
 2632SOL    HW119358   0.601   1.942  10.340 -0.5741 -0.7440 -3.1205
 2632SOL    HW219359   0.478   1.874  10.363  2.9861 -0.5540 -0.2959
 2633SOL     OW19360   3.351   0.846  16.703  0.3056  0.0014  0.1692
 2633SOL    HW119361   3.324   0.936  16.718 -2.2350 -0.5561 -1.0956
 2633SOL    HW219362   3.360   0.814  16.792 -0.1201 -0.0128  0.2072
 2634SOL     OW19363   4.131   1.846   8.404 -0.2295 -0.6575 -0.2434
 2634SOL    HW119364   4.225   1.826   8.399  0.1592  1.2604 -0.5451
 2634SOL    HW219365   4.127   1.928   8.354 -1.7695 -0.6598 -0.1313
 2635SOL     OW19366   1.831   0.552   5.751  0.4240  0.0143 -0.0867
 2635SOL    HW119367   1.781   0.579   5.827  1.1509  1.9499 -0.3030
 2635SOL    HW219368   1.916   0.589   5.772  0.4588 -0.0295 -0.1466
 2636SOL     OW19369   2.924   2.986   3.544 -0.4824 -0.4056 -0.0310
 2636SOL    HW119370   2.947   3.021   3.458 -2.3463 -0.3283 -0.4987
 2636SOL    HW219371   2.895   3.070   3.577 -2.6121 -0.8935 -0.6841
 2637SOL     OW19372   3.335   2.685   3.677  0.6985  0.0741  0.4450
 2637SOL    HW119373   3.335   2.624   3.603  0.3569 -0.2876  0.7476
 2637SOL    HW219374   3.336   2.775   3.643  2.1158  0.1081  0.5807
 2638SOL     OW19375   2.281   3.801   3.659 -0.1048  0.5292 -0.2169
 2638SOL    HW119376   2.329   3.757   3.728 -0.2087  0.7743  0.0130
 2638SOL    HW219377   2.266   3.724   3.605  1.8147  0.0312 -0.0228
 2639SOL     OW19378   2.586   3.161   1.110 -0.8636  0.3380 -0.7368
 2639SOL    HW119379   2.525   3.147   1.037 -0.3141 -1.2372 -0.8862
 2639SOL    HW219380   2.585   3.072   1.145  2.9741  0.1346 -1.2101
 2640SOL     OW19381   2.330   3.436   5.368  0.4729 -0.8621 -0.2961
 2640SOL    HW119382   2.371   3.365   5.418  2.8316  0.4073 -0.4361
 2640SOL    HW219383   2.283   3.387   5.301 -0.3754 -0.5369  0.0596
 2641SOL     OW19384   2.416   3.626   8.086  0.7939 -0.7198  0.9504
 2641SOL    HW119385   2.422   3.582   8.170  1.3376 -1.2052  0.6595
 2641SOL    HW219386   2.331   3.668   8.102  0.8481 -0.6842  1.1447
 2642SOL     OW19387   3.784   2.446  12.070 -0.2149  0.0864 -0.3179
 2642SOL    HW119388   3.716   2.511  12.053 -1.0969 -0.7719 -0.0731
 2642SOL    HW219389   3.767   2.384  11.999 -1.6203  0.6652 -0.4941
 2643SOL     OW19390   4.472   1.800  17.076  0.4112  0.5114 -0.2966
 2643SOL    HW119391   4.481   1.738  17.148 -0.0724  0.5849 -0.1700
 2643SOL    HW219392   4.398   1.753  17.036  0.0584  1.2210 -0.4874
 2644SOL     OW19393   3.360   2.439   9.159 -0.7604 -1.0226 -0.4726
 2644SOL    HW119394   3.312   2.362   9.127  0.5712 -2.2712  0.5140
 2644SOL    HW219395   3.387   2.476   9.074  3.4365 -0.2313  1.1764
 2645SOL     OW19396   3.755   4.440   1.928 -0.4600 -0.4931 -0.1771
 2645SOL    HW119397   3.819   4.510   1.915 -1.1082  0.3371  1.1254
 2645SOL    HW219398   3.741   4.416   1.836 -1.1067 -0.4998 -0.0802
 2646SOL     OW19399   4.425   3.628   1.414 -0.0731 -0.4999  0.7432
 2646SOL    HW119400   4.383   3.580   1.342 -0.2590 -0.6105  0.9241
 2646SOL    HW219401   4.407   3.719   1.389 -0.6212 -0.5857  0.8257
 2647SOL     OW19402   1.070   4.158   2.687  0.1260 -0.0328  0.6236
 2647SOL    HW119403   1.032   4.087   2.636  0.1017  0.6437 -0.2932
 2647SOL    HW219404   0.996   4.167   2.746 -0.8670 -0.1031 -0.6141
 2648SOL     OW19405   0.710   0.157   6.123  0.0738 -0.1080 -0.1046
 2648SOL    HW119406   0.622   0.188   6.144  0.7055  1.4628  0.2828
 2648SOL    HW219407   0.748   0.150   6.211 -0.3750 -0.1265  0.0882
 2649SOL     OW19408   3.924   1.009   8.818 -0.1949 -0.3171 -0.3559
 2649SOL    HW119409   3.970   0.926   8.825 -0.1601 -0.2103  0.7591
 2649SOL    HW219410   3.989   1.073   8.847  0.7191  0.0806 -3.3082
 2650SOL     OW19411   1.900   0.625   0.278  0.1145  0.0771  0.2960
 2650SOL    HW119412   1.811   0.638   0.247 -0.0119  1.3481  1.1760
 2650SOL    HW219413   1.917   0.719   0.280  0.2674  0.0932 -1.9677
 2651SOL     OW19414   3.511   1.602   3.287 -0.9073  0.1820  0.7878
 2651SOL    HW119415   3.448   1.625   3.218  0.7036  0.2109 -0.6815
 2651SOL    HW219416   3.519   1.510   3.263 -0.1414  0.4758 -0.1117
 2652SOL     OW19417   1.125   1.223   6.448 -0.0022  0.0365  0.2548
 2652SOL    HW119418   1.039   1.263   6.465  0.3968  0.5964  0.9610
 2652SOL    HW219419   1.162   1.280   6.515  0.6487 -1.0333  0.8053
 2653SOL     OW19420   1.677   3.079  14.275 -0.0149  0.1234 -0.4888
 2653SOL    HW119421   1.732   3.004  14.253  0.3089  0.0205  0.6538
 2653SOL    HW219422   1.593   3.037  14.291  0.8367 -0.9536  1.0561
 2654SOL     OW19423   0.335   0.336   2.608  0.7785  0.9691 -0.1017
 2654SOL    HW119424   0.359   0.422   2.575  2.6673  1.2810  2.0902
 2654SOL    HW219425   0.251   0.311   2.568  1.3850 -0.2779 -0.6169
 2655SOL     OW19426   1.749   1.469   6.680 -0.1226  0.6548  0.0009
 2655SOL    HW119427   1.800   1.526   6.736  1.8206 -1.2078  0.1560
 2655SOL    HW219428   1.681   1.449   6.743  1.0236  1.2242  1.4103
 2656SOL     OW19429   2.333   2.448  11.811  0.4797  0.2071  0.0240
 2656SOL    HW119430   2.344   2.492  11.895  0.3491 -0.7889  0.5639
 2656SOL    HW219431   2.289   2.507  11.750  1.3625  0.2846 -0.5524
 2657SOL     OW19432   0.293   4.328   3.793  1.2185  0.1431  0.4308
 2657SOL    HW119433   0.342   4.393   3.844  0.2710 -0.9888  2.7760
 2657SOL    HW219434   0.229   4.383   3.748 -0.1317 -1.2201  0.6923
 2658SOL     OW19435   1.077   1.872   3.413 -0.2696 -0.8381  0.3102
 2658SOL    HW119436   1.114   1.787   3.387  0.5923 -0.1992 -0.5469
 2658SOL    HW219437   1.096   1.921   3.333 -2.0109  0.3343  0.6380
 2659SOL     OW19438   3.452   0.870   3.359  0.2538  0.4921 -0.3837
 2659SOL    HW119439   3.437   0.961   3.384 -2.0591  0.5472 -1.9619
 2659SOL    HW219440   3.465   0.874   3.265  0.6821 -2.4028 -0.4494
 2660SOL     OW19441   4.363   4.005   0.207 -0.0375  0.4090 -0.1323
 2660SOL    HW119442   4.392   4.019   0.297 -2.2031 -0.8380  0.7595
 2660SOL    HW219443   4.420   4.056   0.149  0.1147 -0.5800 -0.8433
 2661SOL     OW19444   1.421   0.041   2.587 -0.4946 -0.3005 -0.0404
 2661SOL    HW119445   1.378   4.684   2.572 -1.2912  0.3075 -1.1920
 2661SOL    HW219446   1.370   0.062   2.665 -0.5112 -0.7983  0.0800
 2662SOL     OW19447   4.570   0.363   5.475 -0.1344 -0.2256  0.0713
 2662SOL    HW119448   4.523   0.286   5.441 -2.7834  1.6396 -0.4976
 2662SOL    HW219449   4.598   0.402   5.392  0.5288 -0.4427  0.1984
 2663SOL     OW19450   4.440   1.826   7.181  0.5226 -0.0921  0.2257
 2663SOL    HW119451   4.408   1.758   7.239  2.0464  0.2887  1.5039
 2663SOL    HW219452   4.481   1.778   7.108 -1.8730 -1.9841  0.1399
 2664SOL     OW19453   1.190   4.275  12.277  0.8465  0.4077  0.0140
 2664SOL    HW119454   1.281   4.265  12.305  1.0456 -0.0677 -0.7958
 2664SOL    HW219455   1.202   4.357  12.230 -0.1466  0.9182  0.6529
 2665SOL     OW19456   2.146   4.441   6.510 -0.2755  0.4764  0.7848
 2665SOL    HW119457   2.125   4.382   6.582  0.1568  0.1915  0.6717
 2665SOL    HW219458   2.069   4.424   6.456 -2.2268  0.5228  3.5763
 2666SOL     OW19459   2.548   3.393  17.165 -0.1149  0.1553  0.4181
 2666SOL    HW119460   2.626   3.340  17.148 -0.5357 -1.0889  2.3477
 2666SOL    HW219461   2.590   3.479  17.174  0.4730 -0.2489  1.5923
 2667SOL     OW19462   4.579   2.294   6.218  0.4470 -0.5788  0.2586
 2667SOL    HW119463   4.627   2.373   6.192 -0.9412 -0.0203 -0.6122
 2667SOL    HW219464   4.495   2.299   6.174  0.8906 -0.3653 -0.5653
 2668SOL     OW19465   2.022   4.643   2.681 -0.5734  0.1483 -0.4406
 2668SOL    HW119466   2.054   4.566   2.633 -1.3238  0.1914 -1.0050
 2668SOL    HW219467   2.068   4.716   2.641 -1.3532  0.3252 -1.0133
 2669SOL     OW19468   2.092   0.473  17.705 -0.2428  0.1856 -0.1135
 2669SOL    HW119469   2.112   0.545   0.054  1.9091 -0.0728 -0.5468
 2669SOL    HW219470   2.177   0.429  17.706  0.6434  1.9342 -0.0691
 2670SOL     OW19471   3.608   4.331  16.775  0.0018 -0.6423 -0.1795
 2670SOL    HW119472   3.701   4.306  16.781  0.9511  2.7474 -1.0601
 2670SOL    HW219473   3.619   4.425  16.761  0.1515 -1.0309 -2.5983
 2671SOL     OW19474   1.575   3.900   5.284  0.3482  0.4510 -0.3856
 2671SOL    HW119475   1.580   3.942   5.198  2.6588  3.3485  1.1466
 2671SOL    HW219476   1.479   3.893   5.288  0.3290 -0.2173 -2.2733
 2672SOL     OW19477   1.792   2.883  17.662 -0.2060  0.1183 -0.1510
 2672SOL    HW119478   1.851   2.835  17.604 -0.6793 -1.2817  0.5170
 2672SOL    HW219479   1.722   2.903  17.599  0.3812 -1.1250 -1.1994
 2673SOL     OW19480   3.951   1.606   8.231  0.0291  0.0838  0.5544
 2673SOL    HW119481   3.973   1.698   8.242  0.4359  0.1561 -0.8867
 2673SOL    HW219482   4.039   1.571   8.216 -0.2124 -1.1866  2.0574
 2674SOL     OW19483   2.547   3.770   4.819 -0.2850  0.3373  0.2856
 2674SOL    HW119484   2.523   3.753   4.910 -1.4975  0.0269 -0.0841
 2674SOL    HW219485   2.588   3.856   4.828 -0.9341  0.6196  0.5431
 2675SOL     OW19486   2.238   0.470   5.381  0.0997 -0.5414 -0.2715
 2675SOL    HW119487   2.292   0.540   5.345  0.9728 -1.0938 -0.0660
 2675SOL    HW219488   2.157   0.485   5.333  0.1911 -0.1346 -0.2964
 2676SOL     OW19489   1.037   3.457   3.110  0.7161  0.0642  0.6152
 2676SOL    HW119490   1.063   3.509   3.033  0.9227  2.0607  2.0371
 2676SOL    HW219491   1.069   3.373   3.078 -0.5620  0.0324 -0.6210
 2677SOL     OW19492   4.160   2.411  15.512  0.3931  0.6434 -0.1128
 2677SOL    HW119493   4.157   2.380  15.422  1.7354  1.2007 -0.3533
 2677SOL    HW219494   4.073   2.447  15.530  0.2194  0.5864 -0.8413
 2678SOL     OW19495   1.030   3.827   9.582  0.1087  0.2622 -0.2285
 2678SOL    HW119496   1.094   3.828   9.653 -0.2249  0.9947  0.0653
 2678SOL    HW219497   1.030   3.737   9.552  0.4767 -0.3217  1.5374
 2679SOL     OW19498   0.248   4.649  13.561 -0.5178 -0.2972 -0.9745
 2679SOL    HW119499   0.296   4.576  13.522  0.4028 -0.3679  0.3021
 2679SOL    HW219500   0.254   4.721  13.498 -1.6951 -1.2527 -2.1914
 2680SOL     OW19501   0.556   4.596  15.833  0.6105  0.7426  0.3972
 2680SOL    HW119502   0.528   4.505  15.822 -0.7881  0.9186  2.6911
 2680SOL    HW219503   0.481   4.628  15.883 -1.4244 -1.7369 -1.0855
 2681SOL     OW19504   0.892   3.544  11.101  0.8750  0.4557 -0.2945
 2681SOL    HW119505   0.964   3.481  11.109 -0.1815 -0.8145 -0.8075
 2681SOL    HW219506   0.814   3.501  11.134 -0.5456  1.9914 -1.6705
 2682SOL     OW19507   3.662   2.407   6.071 -0.5985 -0.0735  0.0420
 2682SOL    HW119508   3.582   2.459   6.063 -0.9578 -0.5908  0.3026
 2682SOL    HW219509   3.726   2.472   6.102 -0.2872 -0.3530 -0.0136
 2683SOL     OW19510   0.138   3.729  10.374  0.2442  0.0133 -0.2204
 2683SOL    HW119511   0.116   3.821  10.390 -0.0076 -0.2418  0.8908
 2683SOL    HW219512   0.233   3.730  10.361  0.0479  2.0944 -1.5317
 2684SOL     OW19513   4.412   1.659   7.382 -0.0514 -0.1241  0.1489
 2684SOL    HW119514   4.388   1.586   7.439 -0.9357 -0.6780 -0.9164
 2684SOL    HW219515   4.497   1.632   7.347  0.1548  2.7853 -1.5774
 2685SOL     OW19516   2.536   0.166  11.427  0.3787  0.3484  0.2067
 2685SOL    HW119517   2.556   0.074  11.409 -1.7097  0.0752 -0.7876
 2685SOL    HW219518   2.611   0.195  11.479 -0.1428 -0.8783  1.6542
 2686SOL     OW19519   3.155   0.717   8.921  0.1996  0.3339 -0.4704
 2686SOL    HW119520   3.174   0.664   8.843  1.1521 -2.2222  1.4993
 2686SOL    HW219521   3.141   0.646   8.984 -0.8139  0.5161 -0.4949
 2687SOL     OW19522   2.228   0.755   4.144 -0.3164 -0.4272  0.4912
 2687SOL    HW119523   2.166   0.707   4.088  0.8247  0.4481 -1.5036
 2687SOL    HW219524   2.303   0.747   4.086 -0.0570  0.0121  0.7687
 2688SOL     OW19525   3.866   1.630   4.724  0.0708 -0.6160 -0.2253
 2688SOL    HW119526   3.889   1.537   4.722  0.2194 -0.5745 -0.4574
 2688SOL    HW219527   3.805   1.631   4.798 -1.8223 -2.0444 -1.7539
 2689SOL     OW19528   0.083   4.116   8.821 -0.1445  0.0459 -0.3893
 2689SOL    HW119529   0.063   4.061   8.896 -0.9644 -0.3494 -0.9022
 2689SOL    HW219530   0.070   4.205   8.855  0.9928  0.2991 -0.5847
 2690SOL     OW19531   3.783   3.847  17.165 -0.6262  0.4964 -0.9578
 2690SOL    HW119532   3.824   3.932  17.152 -0.0454  0.2995 -0.4202
 2690SOL    HW219533   3.696   3.875  17.136 -0.8150 -0.0081 -0.8845
 2691SOL     OW19534   1.854   0.575   1.130  0.4223  0.5920 -0.2319
 2691SOL    HW119535   1.904   0.657   1.129 -0.9388  1.4231 -0.3724
 2691SOL    HW219536   1.797   0.575   1.053  2.1602 -4.6615 -1.4851
 2692SOL     OW19537   3.635   0.952   0.278  0.2781  0.0810 -0.4392
 2692SOL    HW119538   3.664   1.023   0.221 -0.4135  1.3620  0.7741
 2692SOL    HW219539   3.619   1.007   0.355  1.5854  0.4243 -0.4250
 2693SOL     OW19540   3.643   2.735  11.748  0.4535  0.7603 -0.0261
 2693SOL    HW119541   3.700   2.684  11.806  0.3471  0.4719 -0.1756
 2693SOL    HW219542   3.556   2.698  11.761  1.1190 -0.7926  0.0017
 2694SOL     OW19543   1.664   3.386   0.627 -0.1238 -0.1341 -1.1300
 2694SOL    HW119544   1.580   3.341   0.640 -0.5192  1.5978  2.4981
 2694SOL    HW219545   1.693   3.391   0.718 -0.7524  0.1778 -0.9439
 2695SOL     OW19546   0.262   2.325  16.349 -0.8532 -0.8032 -0.1266
 2695SOL    HW119547   0.276   2.274  16.429 -0.0211  2.6144  1.8741
 2695SOL    HW219548   0.301   2.408  16.376 -2.1671  0.4957 -2.1821
 2696SOL     OW19549   0.419   3.786   6.138 -0.3445  0.6754 -0.2924
 2696SOL    HW119550   0.374   3.717   6.090  1.1302  0.3021 -1.1347
 2696SOL    HW219551   0.484   3.731   6.182 -0.7984 -0.9909 -1.7329
 2697SOL     OW19552   4.214   2.111   4.468  0.2107  0.2012 -0.6032
 2697SOL    HW119553   4.262   2.166   4.406  1.8369 -1.2830 -0.6522
 2697SOL    HW219554   4.138   2.081   4.418  1.8888 -1.2411 -2.2739
 2698SOL     OW19555   1.023   2.166   3.431 -0.5055  0.0226  0.3237
 2698SOL    HW119556   0.935   2.167   3.394 -0.2072  0.1238 -0.3750
 2698SOL    HW219557   1.000   2.115   3.508  0.3619 -2.0771 -0.8020
 2699SOL     OW19558   4.092   1.647   7.532  0.1707 -0.0719  0.5484
 2699SOL    HW119559   3.997   1.654   7.522  0.1770 -3.7811 -2.0228
 2699SOL    HW219560   4.097   1.589   7.608  2.5174 -1.9200 -1.0008
 2700SOL     OW19561   0.414   1.210   9.150 -0.6751  0.6323 -0.5319
 2700SOL    HW119562   0.490   1.216   9.091  0.4718 -0.6404  0.7893
 2700SOL    HW219563   0.412   1.297   9.190  0.8310  1.3217 -1.9162
 2701SOL     OW19564   2.857   0.995   3.620 -0.2528  0.2884  0.0670
 2701SOL    HW119565   2.902   0.928   3.569 -0.9982 -0.1074 -0.0857
 2701SOL    HW219566   2.817   0.939   3.687  0.7403 -4.6049 -3.4683
 2702SOL     OW19567   0.450   3.179  16.512  0.5861  0.4725  0.5525
 2702SOL    HW119568   0.418   3.241  16.446 -0.2152 -1.5264 -0.9291
 2702SOL    HW219569   0.520   3.228  16.556  1.3059 -1.6767  1.8060
 2703SOL     OW19570   1.210   0.858   6.555 -0.2185  0.4027  0.0900
 2703SOL    HW119571   1.231   0.799   6.627  3.5608  1.8730  0.2072
 2703SOL    HW219572   1.248   0.942   6.583 -0.1804  0.8662 -1.3557
 2704SOL     OW19573   2.495   3.594   4.091 -0.6580  0.0832  0.3503
 2704SOL    HW119574   2.436   3.522   4.111  0.6443 -1.3809 -1.0868
 2704SOL    HW219575   2.561   3.576   4.158 -0.9946 -1.1655  0.3452
 2705SOL     OW19576   2.241   0.063   8.804 -0.3144  0.2757 -0.1298
 2705SOL    HW119577   2.168   0.093   8.751 -0.0741 -3.3849 -2.5674
 2705SOL    HW219578   2.300   0.066   8.729  0.4558 -2.5757  0.3635
 2706SOL     OW19579   3.543   0.063  15.598 -0.0881 -0.2501  0.0876
 2706SOL    HW119580   3.592   0.048  15.679 -1.1778 -3.6719  0.1218
 2706SOL    HW219581   3.595   0.123  15.545 -2.9372  2.4154  0.2549
 2707SOL     OW19582   4.095   0.415   2.757  0.5750 -0.8173  0.0801
 2707SOL    HW119583   4.036   0.381   2.690 -0.2599 -0.4316  0.6214
 2707SOL    HW219584   4.114   0.506   2.730 -2.3837 -0.3808 -0.5073
 2708SOL     OW19585   2.662   2.224   2.809  0.4811 -0.2699 -0.7604
 2708SOL    HW119586   2.717   2.167   2.863  0.7204 -2.1076 -2.9384
 2708SOL    HW219587   2.583   2.231   2.863  1.3413  0.5167  0.3897
 2709SOL     OW19588   2.564   4.559   2.309  0.0779 -0.5706 -0.1972
 2709SOL    HW119589   2.618   4.630   2.274  0.5890  0.7562  3.3505
 2709SOL    HW219590   2.582   4.488   2.247  0.1251  0.3289 -1.2161
 2710SOL     OW19591   4.687   3.747   9.379  0.4332  0.3613  0.3866
 2710SOL    HW119592   4.639   3.689   9.438  2.2018 -0.5644  0.8871
 2710SOL    HW219593   4.698   3.824   9.435 -0.3644 -0.7450  2.0535
 2711SOL     OW19594   0.778   4.689   2.244 -0.3417  0.0652 -0.7257
 2711SOL    HW119595   0.825   4.655   2.319 -1.6951 -2.7929 -1.1835
 2711SOL    HW219596   0.781   4.624   2.174  1.3561  1.1306 -1.6320
 2712SOL     OW19597   0.801   2.714   5.578 -0.0632 -0.4476  0.5715
 2712SOL    HW119598   0.728   2.762   5.540  0.4560 -1.0390 -1.1612
 2712SOL    HW219599   0.831   2.670   5.498 -0.1419  0.5754 -0.0111
 2713SOL     OW19600   0.738   2.426   2.884  0.1853  0.4997 -0.1627
 2713SOL    HW119601   0.796   2.411   2.958 -2.1776 -1.6594  1.2094
 2713SOL    HW219602   0.802   2.457   2.820  1.5109 -0.6047  0.6525
 2714SOL     OW19603   0.489   0.872  16.071 -0.0925 -0.0452  0.3465
 2714SOL    HW119604   0.489   0.963  16.099  1.1363  0.8842 -2.6982
 2714SOL    HW219605   0.396   0.862  16.050 -0.0352  0.9529 -0.3629
 2715SOL     OW19606   2.313   4.405  14.621  0.2693  0.3910 -0.2385
 2715SOL    HW119607   2.310   4.376  14.530  1.3858 -1.0457  0.1866
 2715SOL    HW219608   2.372   4.479  14.630  1.8112 -1.1417  2.1043
 2716SOL     OW19609   2.344   3.393  14.443 -0.1339  0.2523 -0.0825
 2716SOL    HW119610   2.250   3.410  14.445 -0.0051  1.1303 -0.9326
 2716SOL    HW219611   2.344   3.342  14.362 -1.5230  0.7166 -0.3803
 2717SOL     OW19612   1.475   0.110   9.685  0.1017  0.1176  0.1217
 2717SOL    HW119613   1.444   0.156   9.764 -0.0029 -0.0073  0.1535
 2717SOL    HW219614   1.468   0.021   9.718 -0.2983 -0.6815 -2.1398
 2718SOL     OW19615   3.472   2.488   7.169  0.5272 -0.1750 -0.1884
 2718SOL    HW119616   3.503   2.543   7.097  0.5171 -1.2844 -1.0580
 2718SOL    HW219617   3.533   2.414   7.162 -1.2522 -1.6548  0.0790
 2719SOL     OW19618   3.465   3.553   2.805  0.2056  0.1210 -0.1275
 2719SOL    HW119619   3.557   3.527   2.809 -0.2575 -0.9635  3.7442
 2719SOL    HW219620   3.460   3.612   2.881 -0.1297  0.8571 -0.7251
 2720SOL     OW19621   1.973   2.780  17.472  0.1124  0.0274  0.2145
 2720SOL    HW119622   1.912   2.788  17.399 -2.1492  0.5814  2.1581
 2720SOL    HW219623   2.023   2.702  17.447 -0.4387 -0.0369 -0.6763
 2721SOL     OW19624   0.012   4.082   8.539 -0.0636  0.4938  0.0765
 2721SOL    HW119625   0.065   4.108   8.615  2.9420 -0.1713 -1.8256
 2721SOL    HW219626   4.664   4.039   8.580 -1.1437  3.0038  0.7093
 2722SOL     OW19627   1.373   3.429   5.528  0.6565 -0.0460  0.1950
 2722SOL    HW119628   1.319   3.352   5.510 -0.2606  0.8898 -1.0296
 2722SOL    HW219629   1.391   3.464   5.441  2.6798  1.8695  1.3618
 2723SOL     OW19630   0.181   1.520   6.867  0.4118 -0.1849 -0.3467
 2723SOL    HW119631   0.276   1.509   6.865  0.4222  0.1195 -1.8170
 2723SOL    HW219632   0.150   1.450   6.809  0.6286 -0.0085 -0.6758
 2724SOL     OW19633   0.126   3.733   2.005  0.3216  0.2272 -0.1525
 2724SOL    HW119634   0.133   3.663   2.070 -1.8607  1.1513  1.0939
 2724SOL    HW219635   0.172   3.812   2.036 -1.5587  0.6746  1.5115
 2725SOL     OW19636   4.131   3.774  14.606  0.2092 -0.1232 -0.0649
 2725SOL    HW119637   4.159   3.740  14.521  0.8160  1.5772 -0.5467
 2725SOL    HW219638   4.189   3.723  14.662  0.9447  0.1406 -0.5876
 2726SOL     OW19639   2.797   1.593   3.800 -0.3672 -0.2122  0.0449
 2726SOL    HW119640   2.748   1.539   3.738 -1.8840  0.7473  0.4191
 2726SOL    HW219641   2.886   1.562   3.782 -0.5652 -0.6794 -0.1477
 2727SOL     OW19642   3.489   0.353   4.995  0.1556 -0.0448  0.1491
 2727SOL    HW119643   3.493   0.440   5.034 -0.3633 -0.5527  1.3298
 2727SOL    HW219644   3.418   0.356   4.931  2.2404  0.0505 -2.1797
 2728SOL     OW19645   3.712   3.312   5.187  0.2400 -0.0097  0.0887
 2728SOL    HW119646   3.629   3.272   5.163  0.1627 -0.1140  0.5256
 2728SOL    HW219647   3.756   3.233   5.218  1.9996  1.4148  1.2804
 2729SOL     OW19648   2.843   1.454   5.231 -0.9338 -0.2423 -0.0402
 2729SOL    HW119649   2.894   1.536   5.234 -1.1112 -0.1577  0.5195
 2729SOL    HW219650   2.895   1.404   5.293  0.8179  1.2525 -0.3034
 2730SOL     OW19651   2.044   3.974   8.793 -0.2135  0.1253  0.1042
 2730SOL    HW119652   2.066   3.889   8.754  0.7287  1.6263 -2.6131
 2730SOL    HW219653   2.017   3.953   8.883  1.3853 -1.9441  0.1019
 2731SOL     OW19654   0.329   2.976   4.226  0.5942  0.2450  0.3434
 2731SOL    HW119655   0.247   2.993   4.179 -0.2373  0.1388  1.7678
 2731SOL    HW219656   0.379   2.992   4.145  1.0740  1.4616  0.8713
 2732SOL     OW19657   1.165   2.107   0.961  0.2015 -0.0905  0.1046
 2732SOL    HW119658   1.251   2.072   0.940  0.2151 -2.3884  4.0981
 2732SOL    HW219659   1.153   2.059   1.043 -2.5864 -0.4727 -0.5221
 2733SOL     OW19660   3.511   1.198   8.473  0.3831 -0.1637  0.1003
 2733SOL    HW119661   3.500   1.285   8.435 -0.7099 -0.8303 -1.0809
 2733SOL    HW219662   3.607   1.197   8.468  0.3463 -1.2187 -0.2219
 2734SOL     OW19663   3.074   4.085   4.425  0.6262  0.2616  0.2560
 2734SOL    HW119664   3.021   4.019   4.382  0.3886  1.6450 -1.5649
 2734SOL    HW219665   3.066   4.160   4.366 -2.9463 -2.0804 -2.2379
 2735SOL     OW19666   2.668   0.107   2.504  0.1711  0.5213  0.3710
 2735SOL    HW119667   2.635   0.084   2.591 -1.4581  0.5072 -0.2336
 2735SOL    HW219668   2.759   0.129   2.522  0.8307 -1.5131 -0.5056
 2736SOL     OW19669   1.169   2.880   1.928 -0.4613  0.1628  0.1487
 2736SOL    HW119670   1.102   2.813   1.917 -0.0677 -0.0089 -1.2417
 2736SOL    HW219671   1.134   2.949   1.871  0.5175  0.4609 -0.0794
 2737SOL     OW19672   3.797   3.912   3.823 -0.1619  0.0326 -0.3731
 2737SOL    HW119673   3.796   3.819   3.803  3.0123 -0.2117  0.4968
 2737SOL    HW219674   3.853   3.942   3.751  0.5474  2.6200  1.2316
 2738SOL     OW19675   3.374   1.466   1.228  0.0836  0.3061 -0.5428
 2738SOL    HW119676   3.438   1.492   1.294 -0.1764  1.4328 -0.7386
 2738SOL    HW219677   3.409   1.514   1.154  0.0609 -0.2854 -0.9321
 2739SOL     OW19678   3.319   0.763   7.652 -0.5873 -0.1573 -0.3409
 2739SOL    HW119679   3.305   0.737   7.743 -2.0634 -0.5194 -0.6742
 2739SOL    HW219680   3.414   0.755   7.643 -0.5052 -0.7547  1.1047
 2740SOL     OW19681   2.858   4.121   7.289 -0.0279  0.4783  0.2928
 2740SOL    HW119682   2.918   4.060   7.332 -1.1456 -0.5934  0.3431
 2740SOL    HW219683   2.770   4.099   7.317  0.0819  0.9758  1.0412
 2741SOL     OW19684   0.407   0.493   5.070  0.2763 -0.0204 -0.1328
 2741SOL    HW119685   0.490   0.507   5.115  0.4649 -0.1899 -0.4218
 2741SOL    HW219686   0.441   0.506   4.981  0.6448 -0.0889  0.0024
 2742SOL     OW19687   2.176   2.956   4.682 -0.9188 -0.1438  0.2509
 2742SOL    HW119688   2.251   2.907   4.648 -0.5744  1.4018 -1.2133
 2742SOL    HW219689   2.110   2.887   4.689 -0.3710 -0.8630 -1.5960
 2743SOL     OW19690   2.142   0.469   2.966  0.0156  0.4828  0.4968
 2743SOL    HW119691   2.206   0.505   2.903 -1.8366  0.0391 -1.6456
 2743SOL    HW219692   2.111   0.396   2.912  0.3458  0.7165 -0.0163
 2744SOL     OW19693   2.344   2.377   1.982 -0.2911 -0.6004  0.1791
 2744SOL    HW119694   2.289   2.308   2.019 -0.3961  0.6200  2.2759
 2744SOL    HW219695   2.424   2.373   2.035 -0.5191  0.0569  0.5728
 2745SOL     OW19696   3.953   3.845   3.176 -0.7819  0.5680 -0.0066
 2745SOL    HW119697   3.942   3.900   3.098 -0.7539  1.4235  0.5953
 2745SOL    HW219698   4.002   3.903   3.234 -0.5007  1.0235 -0.7064
 2746SOL     OW19699   3.673   0.106   0.023  0.2354 -0.5475  0.5736
 2746SOL    HW119700   3.577   0.099   0.029  0.0685  1.6649  0.7231
 2746SOL    HW219701   3.695   0.023   0.065 -0.6621 -1.1798 -0.2264
 2747SOL     OW19702   1.272   4.699   8.521 -0.1551 -0.2543  0.5500
 2747SOL    HW119703   1.362   4.667   8.514  0.0327  0.3271  0.3354
 2747SOL    HW219704   1.276   0.031   8.596 -1.8262 -0.7277  1.0328
 2748SOL     OW19705   3.178   2.180   3.449 -0.5938 -0.3152 -0.1131
 2748SOL    HW119706   3.163   2.181   3.355 -0.7937  4.1188 -0.0321
 2748SOL    HW219707   3.195   2.273   3.462 -0.5290 -0.2714 -0.5056
 2749SOL     OW19708   0.516   0.608  13.564 -0.2438 -0.3526  0.3849
 2749SOL    HW119709   0.496   0.517  13.586 -0.0425 -0.2716  0.9038
 2749SOL    HW219710   0.431   0.644  13.538  0.6316  2.5955  1.5790
 2750SOL     OW19711   3.898   0.485   1.531 -0.2234 -0.2900  0.6113
 2750SOL    HW119712   3.868   0.576   1.541  0.2601 -0.2695  1.8989
 2750SOL    HW219713   3.855   0.439   1.603  0.0670  1.4228  1.9014
 2751SOL     OW19714   0.391   0.407   4.405  0.4786 -0.1171 -0.0566
 2751SOL    HW119715   0.361   0.472   4.468  0.1143  1.3869 -1.7911
 2751SOL    HW219716   0.434   0.347   4.466 -1.9070 -0.8904  0.8752
 2752SOL     OW19717   1.275   0.249   5.988  0.1344  0.1634 -0.1247
 2752SOL    HW119718   1.213   0.320   5.972 -0.5669 -0.2124  0.9582
 2752SOL    HW219719   1.234   0.219   6.068  1.3955 -2.4322 -0.4590
 2753SOL     OW19720   2.707   3.513   3.705 -0.2917 -1.0806 -0.6575
 2753SOL    HW119721   2.682   3.537   3.616  1.1869 -2.2734 -1.3994
 2753SOL    HW219722   2.623   3.528   3.749  0.6091 -1.3961  1.2021
 2754SOL     OW19723   2.497   0.434   3.875 -0.4703  0.1443  0.6938
 2754SOL    HW119724   2.553   0.424   3.798 -0.5209  2.5562  0.3253
 2754SOL    HW219725   2.523   0.357   3.924 -0.7773 -1.3382 -1.4782
 2755SOL     OW19726   0.295   1.710   4.984 -0.0293  0.1981  0.3578
 2755SOL    HW119727   0.310   1.800   5.014  1.4231 -0.1774  0.7518
 2755SOL    HW219728   0.220   1.683   5.037 -0.6990  0.2240 -0.5801
 2756SOL     OW19729   1.243   2.220  11.033  0.5981  0.0285 -0.3912
 2756SOL    HW119730   1.318   2.239  11.089 -0.6672  0.1850  1.2797
 2756SOL    HW219731   1.191   2.165  11.092  0.4696 -0.2781 -0.7937
 2757SOL     OW19732   2.105   3.220   7.769  0.5932  0.1723  0.3096
 2757SOL    HW119733   2.196   3.189   7.768  1.0926  1.5753  2.7382
 2757SOL    HW219734   2.068   3.175   7.693  3.0750 -0.1536 -0.7368
 2758SOL     OW19735   3.468   4.378   4.607  0.1686  1.1854  0.3129
 2758SOL    HW119736   3.515   4.454   4.572  0.4794  1.1325  0.6117
 2758SOL    HW219737   3.414   4.355   4.531  0.2763 -1.2799  1.0123
 2759SOL     OW19738   4.723   1.706  11.415 -0.0907 -0.4386 -0.2838
 2759SOL    HW119739   0.050   1.784  11.426 -0.7596 -0.1779  1.2107
 2759SOL    HW219740   0.004   1.688  11.321 -3.3042 -0.8890 -0.4994
 2760SOL     OW19741   4.259   0.665   7.064  0.2073 -0.1394  0.7874
 2760SOL    HW119742   4.281   0.755   7.041 -1.5338 -0.2204 -1.1973
 2760SOL    HW219743   4.186   0.646   7.005 -0.0076  1.6603  0.4777
 2761SOL     OW19744   2.691   1.294   2.873  0.4893  0.2900 -0.2114
 2761SOL    HW119745   2.709   1.246   2.793 -0.6659  0.9363 -0.8527
 2761SOL    HW219746   2.596   1.286   2.876  0.4138  1.5861  0.6755
 2762SOL     OW19747   0.449   2.329   5.548 -0.1510  0.1436  0.3222
 2762SOL    HW119748   0.444   2.324   5.452 -1.8486  1.2716  0.3656
 2762SOL    HW219749   0.525   2.385   5.564 -1.2568  1.6065  0.4332
 2763SOL     OW19750   1.693   4.262   6.678 -0.3147 -0.5422 -0.3389
 2763SOL    HW119751   1.646   4.345   6.669 -0.1419 -0.1055  2.7610
 2763SOL    HW219752   1.640   4.216   6.742  1.0966 -0.6361  0.7651
 2764SOL     OW19753   4.413   4.381  11.808 -0.1506  0.1156 -0.1433
 2764SOL    HW119754   4.359   4.309  11.776  2.4336 -1.3253 -1.2506
 2764SOL    HW219755   4.356   4.453  11.783  0.6687  0.4160 -1.1483
 2765SOL     OW19756   4.036   3.068   4.831 -0.6312  0.2101 -0.1827
 2765SOL    HW119757   4.087   2.994   4.797 -0.3447 -0.4560  1.7274
 2765SOL    HW219758   4.008   3.024   4.911 -0.3275  0.3139 -0.0235
 2766SOL     OW19759   1.334   2.083   7.838  0.2470 -0.1669 -0.1002
 2766SOL    HW119760   1.242   2.057   7.832  0.0932  0.3845 -0.1910
 2766SOL    HW219761   1.374   1.997   7.848  2.0639  1.0736  3.1443
 2767SOL     OW19762   0.457   0.691  17.671  0.9388 -0.8630  0.3080
 2767SOL    HW119763   0.494   0.625   0.020  0.8000 -0.2458  1.0806
 2767SOL    HW219764   0.377   0.651  17.637  1.0180  0.9027 -1.8830
 2768SOL     OW19765   3.449   3.737   9.200  0.8872 -0.5259 -0.2123
 2768SOL    HW119766   3.539   3.770   9.198  1.4332 -1.7139  3.3187
 2768SOL    HW219767   3.405   3.765   9.120  0.2371  0.4897  0.4962
 2769SOL     OW19768   4.123   2.326   3.215 -0.3018  0.5735 -0.1872
 2769SOL    HW119769   4.171   2.385   3.158  0.2315  0.5759  0.2598
 2769SOL    HW219770   4.191   2.262   3.239 -0.5416  0.7710  1.0092
 2770SOL     OW19771   3.870   4.310  13.508 -0.3440 -0.5702  0.2272
 2770SOL    HW119772   3.892   4.391  13.462  0.4985 -0.6681  0.4696
 2770SOL    HW219773   3.783   4.326  13.545  0.6522  1.1592  1.8175
 2771SOL     OW19774   0.923   2.407  10.785 -0.5358 -0.4420 -0.2518
 2771SOL    HW119775   0.849   2.356  10.818 -1.1323  0.1892 -0.6028
 2771SOL    HW219776   0.887   2.467  10.720 -3.0214 -0.3681  1.2070
 2772SOL     OW19777   4.142   0.599  14.072 -0.6765  0.0446  0.1783
 2772SOL    HW119778   4.183   0.647  14.144  1.8244 -0.1578 -1.1086
 2772SOL    HW219779   4.058   0.643  14.058 -0.7443 -0.5018 -1.1238
 2773SOL     OW19780   0.074   2.069  17.344  0.3883 -0.4773  0.2647
 2773SOL    HW119781   0.118   1.999  17.391  2.2088 -0.1165 -0.8988
 2773SOL    HW219782   0.111   2.051  17.258  1.3980 -2.5869  1.1651
 2774SOL     OW19783   1.966   3.547   5.948  0.1852  0.1552 -0.7012
 2774SOL    HW119784   1.927   3.478   5.893 -2.9833  1.0481  0.4293
 2774SOL    HW219785   2.009   3.608   5.889 -1.6050  2.4247  0.3579
 2775SOL     OW19786   1.065   2.839   4.569  0.5143 -0.2135  0.2834
 2775SOL    HW119787   0.991   2.778   4.565  0.5569 -0.2373 -0.1476
 2775SOL    HW219788   1.094   2.842   4.478  0.5161 -1.0573  0.2603
 2776SOL     OW19789   1.268   4.710   5.579  0.4565  0.0877 -0.3011
 2776SOL    HW119790   1.336   4.644   5.564  0.3306 -0.2354  0.5727
 2776SOL    HW219791   1.312   0.066   5.562  0.2883  0.2800  0.2092
 2777SOL     OW19792   1.091   2.824   4.289  0.8290  0.0842  0.1598
 2777SOL    HW119793   1.157   2.759   4.310  3.0675  1.8636 -1.4301
 2777SOL    HW219794   1.047   2.790   4.211  2.8009 -1.3626 -0.3018
 2778SOL     OW19795   3.986   1.050   0.279  0.2775  0.0004  0.4748
 2778SOL    HW119796   3.991   1.142   0.252 -0.0007  0.5030  2.1021
 2778SOL    HW219797   4.053   1.011   0.224  0.3721 -0.2116  0.7406
 2779SOL     OW19798   2.181   0.791   9.920  1.0460  0.2298  0.1096
 2779SOL    HW119799   2.217   0.879   9.921 -1.0748  1.1016 -1.6369
 2779SOL    HW219800   2.126   0.801   9.842 -0.7302 -2.9329  0.9283
 2780SOL     OW19801   3.245   1.430   2.462 -0.2191  0.1779  0.1603
 2780SOL    HW119802   3.280   1.497   2.403  3.4665 -1.5972  0.2848
 2780SOL    HW219803   3.158   1.418   2.425  1.4641 -1.0194 -3.3845
 2781SOL     OW19804   1.020   0.770  16.283 -0.1458  0.6494 -0.2108
 2781SOL    HW119805   0.987   0.724  16.360  1.1323 -1.1287 -0.7165
 2781SOL    HW219806   0.950   0.834  16.270 -1.0343  0.1157  1.9770
 2782SOL     OW19807   0.584   1.378   2.283  0.1597 -0.1894 -0.1778
 2782SOL    HW119808   0.610   1.305   2.226 -2.0674  0.6358 -2.1906
 2782SOL    HW219809   0.528   1.426   2.223 -1.3098 -1.4626  0.1661
 2783SOL     OW19810   2.567   2.405   2.239  0.0860 -0.0757  0.1550
 2783SOL    HW119811   2.597   2.448   2.319  1.1829 -1.7906  0.6594
 2783SOL    HW219812   2.623   2.450   2.177  0.4275 -3.1007 -1.7173
 2784SOL     OW19813   3.938   0.970  16.007  0.4820 -0.3684 -0.5609
 2784SOL    HW119814   3.887   1.051  16.005 -0.5854 -1.1171 -2.9273
 2784SOL    HW219815   4.028   1.004  16.008 -0.7277  2.7974  0.1830
 2785SOL     OW19816   3.650   0.885  16.717 -0.7158  0.2011 -0.0887
 2785SOL    HW119817   3.595   0.811  16.692 -1.4313  1.0581 -1.0251
 2785SOL    HW219818   3.724   0.841  16.759 -0.2050  1.8404  0.7468
 2786SOL     OW19819   2.090   1.798  11.600  0.1026 -0.0789 -0.4807
 2786SOL    HW119820   2.071   1.709  11.630  1.3888 -0.7984 -1.8501
 2786SOL    HW219821   2.178   1.795  11.563 -0.0074 -0.6748 -0.6921
 2787SOL     OW19822   0.767   2.019   2.379 -0.0719 -0.9086  0.6459
 2787SOL    HW119823   0.762   1.977   2.465 -1.7565  1.6759  1.8056
 2787SOL    HW219824   0.812   1.950   2.329  1.3931  0.9383 -0.5907
 2788SOL     OW19825   3.237   3.357  15.528 -0.6736  0.7728  0.4373
 2788SOL    HW119826   3.176   3.422  15.494 -1.7919 -0.3952  0.1935
 2788SOL    HW219827   3.323   3.386  15.499 -0.7092  1.5314  1.0825
 2789SOL     OW19828   2.146   0.593   1.983  0.1804 -0.1737 -0.4958
 2789SOL    HW119829   2.231   0.608   2.023  0.0432  0.8317 -0.5756
 2789SOL    HW219830   2.179   0.599   1.893  0.2283 -0.5666 -0.5042
 2790SOL     OW19831   4.714   0.610   6.821  0.1540 -0.1500 -0.5286
 2790SOL    HW119832   4.638   0.584   6.873  0.3977 -0.5510 -0.3729
 2790SOL    HW219833   0.030   0.525   6.814 -0.1494 -0.4006  0.6402
 2791SOL     OW19834   1.887   2.659   3.418  0.1591  0.6855  0.2044
 2791SOL    HW119835   1.981   2.654   3.437  0.0542  4.2286  1.7134
 2791SOL    HW219836   1.874   2.569   3.447  1.5874 -0.1980 -1.9450
 2792SOL     OW19837   2.036   1.584   4.032 -0.1470  0.4849  0.3348
 2792SOL    HW119838   2.072   1.608   3.946  2.0966 -0.1787  1.1062
 2792SOL    HW219839   2.120   1.579   4.077  0.2811  1.3110 -0.3769
 2793SOL     OW19840   2.005   1.173   3.061  0.5953  0.2134 -0.0668
 2793SOL    HW119841   1.958   1.240   3.011 -0.5804 -0.8541 -0.3867
 2793SOL    HW219842   2.076   1.153   3.000  2.1305  0.2984  1.6912
 2794SOL     OW19843   1.150   3.816  15.191  0.1116 -0.0721 -0.5966
 2794SOL    HW119844   1.135   3.782  15.279  0.4007 -0.7475 -0.8108
 2794SOL    HW219845   1.060   3.828  15.160 -0.5545 -1.8030  0.6577
 2795SOL     OW19846   1.396   2.515  17.332  0.1440  0.1531  0.4686
 2795SOL    HW119847   1.490   2.493  17.334  0.2307  0.5004  0.2579
 2795SOL    HW219848   1.353   2.449  17.386  0.2525  0.8021  1.3634
 2796SOL     OW19849   3.000   3.658   6.416 -0.4533  0.4148  0.1317
 2796SOL    HW119850   2.941   3.700   6.479 -2.0202 -2.0007  0.2435
 2796SOL    HW219851   3.060   3.733   6.418  0.4671 -0.2989 -0.8550
 2797SOL     OW19852   3.130   3.262   4.690 -0.0124  0.0560  0.5503
 2797SOL    HW119853   3.037   3.281   4.699  0.1852  1.1873  0.1070
 2797SOL    HW219854   3.147   3.339   4.636  1.6472 -0.3896  0.4586
 2798SOL     OW19855   3.236   1.386  12.686 -0.0884  0.0261 -0.4179
 2798SOL    HW119856   3.253   1.301  12.645  1.9452 -1.0038  2.5416
 2798SOL    HW219857   3.266   1.365  12.774 -0.9405 -0.3362 -0.2129
 2799SOL     OW19858   3.329   1.720   5.088 -0.3059  0.0244  0.6732
 2799SOL    HW119859   3.310   1.632   5.122 -1.7898  1.0058  2.4164
 2799SOL    HW219860   3.324   1.704   4.994  0.2186  1.1331  0.4665
 2800SOL     OW19861   0.548   4.725   8.355  0.4456  0.0322  0.2247
 2800SOL    HW119862   0.636   0.035   8.351 -0.2498  1.6388  0.3065
 2800SOL    HW219863   0.496   0.045   8.291 -0.7076 -0.8787  0.4805
 2801SOL     OW19864   4.333   1.530   4.115 -0.1950  0.0635 -0.0509
 2801SOL    HW119865   4.279   1.590   4.064  1.8414  1.1047 -0.9939
 2801SOL    HW219866   4.385   1.495   4.043  0.0727  0.4957 -0.0651
 2802SOL     OW19867   0.566   4.442   9.632 -0.0887 -0.1058  0.3310
 2802SOL    HW119868   0.638   4.463   9.691  0.4555  1.6967 -0.9877
 2802SOL    HW219869   0.507   4.515   9.650 -0.2267 -0.4607  1.2815
 2803SOL     OW19870   1.396   3.723  15.021  0.1552  0.3575  0.3295
 2803SOL    HW119871   1.359   3.743  14.935 -1.0909 -1.6159  0.4164
 2803SOL    HW219872   1.329   3.752  15.083 -0.5904 -1.2420  0.2749
 2804SOL     OW19873   3.851   4.653   3.289 -0.2044 -0.4019 -0.1152
 2804SOL    HW119874   3.860   4.717   3.218  1.1396  1.5474  1.8442
 2804SOL    HW219875   3.795   4.693   3.356  0.3997 -1.5708  1.0912
 2805SOL     OW19876   1.203   3.901   3.121  0.2480 -0.1495  0.5839
 2805SOL    HW119877   1.214   3.978   3.065 -0.0399 -1.8430 -1.8021
 2805SOL    HW219878   1.186   3.931   3.210 -0.6862  0.5013  0.1804
 2806SOL     OW19879   1.658   4.542   3.255 -0.0959 -0.3556 -0.2506
 2806SOL    HW119880   1.619   4.456   3.269 -1.8090  0.2745 -1.1407
 2806SOL    HW219881   1.627   4.599   3.326 -0.9186 -1.9706  0.6712
 2807SOL     OW19882   4.573   1.230   6.715 -0.3166 -0.0038  0.5435
 2807SOL    HW119883   4.574   1.304   6.654  0.1374  0.1334  0.7175
 2807SOL    HW219884   4.529   1.281   6.783 -2.8271 -1.1840 -0.2066
 2808SOL     OW19885   2.337   2.358   6.417  0.1770  0.3479 -0.5353
 2808SOL    HW119886   2.392   2.330   6.344 -0.9073 -1.4800 -0.6400
 2808SOL    HW219887   2.377   2.445   6.418 -0.0694  0.4776 -1.6470
 2809SOL     OW19888   0.595   0.635   0.446 -0.6661  0.3403 -0.0923
 2809SOL    HW119889   0.632   0.646   0.533  0.7681  0.4675 -0.7162
 2809SOL    HW219890   0.501   0.641   0.465 -0.6719 -0.5380  0.1585
 2810SOL     OW19891   1.552   2.822   3.076 -0.2073  0.4484 -0.3101
 2810SOL    HW119892   1.564   2.893   3.013 -0.1753 -0.0378 -0.8512
 2810SOL    HW219893   1.464   2.791   3.055 -0.0608 -1.1969  1.5288
 2811SOL     OW19894   2.405   3.251   5.843  0.0868  0.1442 -0.0548
 2811SOL    HW119895   2.398   3.303   5.924  0.1637  0.5928 -0.3368
 2811SOL    HW219896   2.473   3.188   5.866  0.8787  0.7658 -0.6809
 2812SOL     OW19897   3.800   1.347  10.113 -0.1841  0.1641  0.1753
 2812SOL    HW119898   3.738   1.337  10.185  2.4256 -0.1372  2.3704
 2812SOL    HW219899   3.780   1.268  10.063 -0.0910  0.8565 -0.9591
 2813SOL     OW19900   3.970   0.301   2.540  0.1645  0.6662  0.0766
 2813SOL    HW119901   3.933   0.370   2.486 -3.3389 -1.0908  0.2194
 2813SOL    HW219902   3.962   0.223   2.485 -2.1370  0.2698  0.9756
 2814SOL     OW19903   4.134   3.061   2.441 -0.0231 -0.0404  0.1734
 2814SOL    HW119904   4.090   2.976   2.440 -1.7665  0.8429  0.8289
 2814SOL    HW219905   4.224   3.033   2.428 -0.0509 -0.1152  0.1418
 2815SOL     OW19906   0.342   3.815   8.691  0.1764  0.4031 -0.5102
 2815SOL    HW119907   0.330   3.790   8.783  0.6166  0.9097 -0.3167
 2815SOL    HW219908   0.341   3.910   8.699  1.7163  0.8537 -5.9200
 2816SOL     OW19909   0.320   1.523   5.407  0.4221  0.5331  0.0498
 2816SOL    HW119910   0.389   1.482   5.355  0.4216  0.5135  0.0647
 2816SOL    HW219911   0.383   1.533   5.479  0.4367 -2.9435  0.5427
 2817SOL     OW19912   2.860   2.319   1.714  0.4300 -0.6305  0.2652
 2817SOL    HW119913   2.942   2.273   1.728  0.9371  0.3976  0.6245
 2817SOL    HW219914   2.791   2.254   1.697 -0.4212  0.8272 -1.9430
 2818SOL     OW19915   0.520   1.762   7.175 -0.4033  0.0688 -0.5284
 2818SOL    HW119916   0.587   1.705   7.139 -0.2154 -0.2867  0.3896
 2818SOL    HW219917   0.504   1.827   7.106 -1.3181 -2.0967 -2.3593
 2819SOL     OW19918   1.339   4.093  13.558 -0.0644  0.1106  0.3496
 2819SOL    HW119919   1.249   4.073  13.534 -0.0853  1.3544 -0.6102
 2819SOL    HW219920   1.347   4.011  13.607  0.6352  0.2473  0.4640
 2820SOL     OW19921   2.761   1.320  13.825  0.3585 -0.1916  0.0087
 2820SOL    HW119922   2.710   1.399  13.805  2.1644  1.0201  0.2322
 2820SOL    HW219923   2.780   1.293  13.735 -0.9067  0.4833 -0.4712
 2821SOL     OW19924   2.724   4.503   8.081 -0.0958  1.3198 -0.2762
 2821SOL    HW119925   2.660   4.435   8.100  1.4818 -0.0649  0.0784
 2821SOL    HW219926   2.806   4.461   8.105 -0.2057  2.6291  2.3631
 2822SOL     OW19927   0.138   3.846   1.424 -0.1308 -0.6774 -0.4443
 2822SOL    HW119928   0.090   3.775   1.467  1.4147 -1.8044 -0.6085
 2822SOL    HW219929   0.058   3.884   1.387 -1.1965 -1.4587  1.0682
 2823SOL     OW19930   4.671   3.069   5.925 -0.5211 -0.4303 -0.2693
 2823SOL    HW119931   4.695   3.142   5.869 -0.8939 -0.1971 -0.1245
 2823SOL    HW219932   0.019   3.073   5.983 -0.1698  2.4311 -0.9430
 2824SOL     OW19933   4.401   4.329   6.184 -0.2270 -0.5497  0.3707
 2824SOL    HW119934   4.455   4.388   6.237 -0.8925  1.5951 -1.2973
 2824SOL    HW219935   4.370   4.385   6.112 -1.0538 -0.5636  0.7287
 2825SOL     OW19936   3.043   2.662   6.056  0.3589 -0.7642 -0.3275
 2825SOL    HW119937   2.987   2.737   6.036  1.5245  0.3276  0.4996
 2825SOL    HW219938   3.029   2.622   5.970 -2.3051 -3.0189  1.1314
 2826SOL     OW19939   4.712   4.492  12.312 -0.3111  0.6401  0.0346
 2826SOL    HW119940   4.671   4.576  12.290  0.8723  2.0751  3.2602
 2826SOL    HW219941   4.679   4.482  12.401 -2.2517 -2.3835 -1.0409
 2827SOL     OW19942   3.695   4.378   4.381 -0.1964 -0.2012 -0.2156
 2827SOL    HW119943   3.621   4.438   4.373 -2.0440 -2.4393 -0.2100
 2827SOL    HW219944   3.702   4.364   4.475  0.3579  2.3920  0.1037
 2828SOL     OW19945   3.494   2.117   4.953  0.0087 -0.5997 -0.1524
 2828SOL    HW119946   3.424   2.082   4.899 -0.2283 -0.0344 -0.2192
 2828SOL    HW219947   3.564   2.052   4.946 -0.1785 -0.4978 -2.9035
 2829SOL     OW19948   4.604   3.673  12.621 -0.7638  0.4383 -0.2986
 2829SOL    HW119949   4.626   3.670  12.528 -1.0318  1.6590 -0.4040
 2829SOL    HW219950   4.673   3.616  12.655  0.7740  0.1911 -3.8517
 2830SOL     OW19951   1.205   2.133  10.708  0.2195 -0.3957 -0.1109
 2830SOL    HW119952   1.187   2.054  10.656 -0.5618 -0.8270  0.8136
 2830SOL    HW219953   1.210   2.203  10.643  0.6614  0.5017  0.9136
 2831SOL     OW19954   0.081   4.301  12.127  0.1293  0.3432  0.3124
 2831SOL    HW119955   0.023   4.312  12.051 -1.0634 -2.7291  0.7848
 2831SOL    HW219956   0.041   4.362  12.189 -1.6564  1.5390 -1.9714
 2832SOL     OW19957   0.618   1.657   8.282 -0.6806 -0.7125  0.2981
 2832SOL    HW119958   0.661   1.571   8.278  0.1631 -0.3051  0.7064
 2832SOL    HW219959   0.689   1.716   8.307 -0.8061  0.6235 -2.5132
 2833SOL     OW19960   0.136   2.955  16.720 -0.2524 -0.1219 -0.2387
 2833SOL    HW119961   0.133   2.967  16.625  0.8310  1.3048 -0.1025
 2833SOL    HW219962   0.191   2.877  16.717 -0.4471 -0.3265  1.3370
 2834SOL     OW19963   4.111   0.902   5.234 -0.5105  0.3971  0.3106
 2834SOL    HW119964   4.164   0.968   5.279  0.0911  0.2149 -0.1271
 2834SOL    HW219965   4.187   0.844   5.237 -0.6804  0.0118 -3.0455
 2835SOL     OW19966   0.660   4.095   5.160  1.1356 -0.1680 -0.4393
 2835SOL    HW119967   0.651   4.022   5.099 -0.8845  0.7361 -1.2178
 2835SOL    HW219968   0.649   4.164   5.094  2.1396 -0.9651 -1.4363
 2836SOL     OW19969   0.189   0.717   6.431  0.8362  0.5237  0.4288
 2836SOL    HW119970   0.187   0.806   6.397  0.8413  1.3590  2.6282
 2836SOL    HW219971   0.111   0.710   6.485 -1.0319 -0.0367 -2.3627
 2837SOL     OW19972   4.335   1.950   6.333  0.1899  0.0042  0.2438
 2837SOL    HW119973   4.414   1.954   6.386 -0.4761 -0.0497  1.2364
 2837SOL    HW219974   4.288   2.025   6.368  0.9765  1.4130 -1.6876
 2838SOL     OW19975   4.384   2.568   5.429  0.0025 -0.6934 -0.1159
 2838SOL    HW119976   4.412   2.477   5.444 -0.1952 -0.3306  2.4141
 2838SOL    HW219977   4.402   2.603   5.516  0.1972  0.6963 -0.7134
 2839SOL     OW19978   1.943   1.292  13.441 -0.9723  0.5026  0.7364
 2839SOL    HW119979   2.011   1.267  13.504 -0.0215  0.4087 -0.3441
 2839SOL    HW219980   1.949   1.386  13.457  1.4675  0.4152  0.3870
 2840SOL     OW19981   3.833   2.334   4.899  0.2344  0.0208  0.4787
 2840SOL    HW119982   3.849   2.273   4.827  0.3982 -1.0513  1.4167
 2840SOL    HW219983   3.786   2.408   4.862 -1.3773 -1.1693  0.1477
 2841SOL     OW19984   2.198   4.434   6.890  0.4625 -0.5268 -0.0778
 2841SOL    HW119985   2.219   4.527   6.897 -1.0043 -0.2599  0.6613
 2841SOL    HW219986   2.287   4.399   6.896  0.9004  0.5560 -0.1917
 2842SOL     OW19987   3.789   4.330   8.669 -0.2696  0.2641  0.0102
 2842SOL    HW119988   3.782   4.339   8.574 -0.0138  0.4047  0.0057
 2842SOL    HW219989   3.882   4.338   8.689  0.1826  0.3129 -2.0824
 2843SOL     OW19990   2.423   1.657   5.656  0.6354 -0.5336  0.5758
 2843SOL    HW119991   2.376   1.691   5.580  1.3486 -0.5282  0.1412
 2843SOL    HW219992   2.446   1.740   5.697  2.6360 -0.4008 -0.8413
 2844SOL     OW19993   3.997   3.024  14.998 -0.0600 -0.5043  0.7427
 2844SOL    HW119994   3.952   2.993  15.076  1.3650 -1.1310  1.3187
 2844SOL    HW219995   4.074   2.967  15.005 -0.8690 -1.6704  0.1225
 2845SOL     OW19996   1.408   0.103   9.328 -0.2710  0.1750 -0.2570
 2845SOL    HW119997   1.497   0.117   9.362  0.2645 -0.1809 -1.5060
 2845SOL    HW219998   1.362   0.061   9.401  1.5954  0.7122  1.2234
 2846SOL     OW19999   2.592   2.421   1.203 -0.1840  0.4585  0.5571
 2846SOL    HW120000   2.642   2.392   1.278  0.7347 -3.3040 -1.5346
 2846SOL    HW220001   2.506   2.389   1.231  0.1134 -0.5482  0.3227
 2847SOL     OW20002   4.291   1.688   2.155  0.2385  0.0587 -0.0632
 2847SOL    HW120003   4.264   1.779   2.155 -0.0723 -0.0337  0.1858
 2847SOL    HW220004   4.345   1.682   2.076  1.3579 -1.9548  0.8649
 2848SOL     OW20005   2.101   2.960   7.084 -0.3440 -0.4206  0.5128
 2848SOL    HW120006   2.044   3.037   7.089  0.6079  0.2983  0.0315
 2848SOL    HW220007   2.082   2.915   7.167 -1.1299 -0.2300  0.4353
 2849SOL     OW20008   0.449   2.125  13.423  0.1927  0.4184 -0.4389
 2849SOL    HW120009   0.407   2.040  13.407  1.5498 -0.5614  1.1632
 2849SOL    HW220010   0.407   2.155  13.503 -1.0242  0.6424 -1.1657
 2850SOL     OW20011   2.370   3.168   3.042  0.5671 -0.0003  0.2523
 2850SOL    HW120012   2.432   3.159   3.115  0.6482 -2.5334 -0.1438
 2850SOL    HW220013   2.408   3.244   2.998  1.0799  0.2584  1.1244
 2851SOL     OW20014   2.734   1.428   6.823  0.0472  0.2166  0.4427
 2851SOL    HW120015   2.726   1.513   6.866 -4.3201 -0.8089  1.7068
 2851SOL    HW220016   2.708   1.369   6.894  0.5915  0.0296  0.4814
 2852SOL     OW20017   1.584   2.699   9.227 -0.1249  0.2748  0.2651
 2852SOL    HW120018   1.652   2.755   9.265 -1.3005  1.8037  0.0919
 2852SOL    HW220019   1.614   2.612   9.254 -0.5538  0.6225  1.8981
 2853SOL     OW20020   3.763   2.107   4.140  0.0876 -0.0577  0.0937
 2853SOL    HW120021   3.747   2.028   4.088  1.5516 -0.8870  0.8775
 2853SOL    HW220022   3.685   2.161   4.132  0.1910  0.1404  0.4278
 2854SOL     OW20023   1.810   0.335   2.146 -0.3036  0.5828 -0.0686
 2854SOL    HW120024   1.842   0.425   2.143  0.9254  0.2692  4.6131
 2854SOL    HW220025   1.779   0.327   2.055 -1.0142 -1.0868  0.3236
 2855SOL     OW20026   0.750   3.697   4.444  0.2267 -0.1572  0.1850
 2855SOL    HW120027   0.753   3.669   4.536 -0.7605  3.0507  1.1849
 2855SOL    HW220028   0.832   3.745   4.445  0.2859 -0.2270 -1.9097
 2856SOL     OW20029   1.207   3.978   6.971  0.5851  0.2252  0.2601
 2856SOL    HW120030   1.242   3.976   7.060  0.8730  0.6752  0.1561
 2856SOL    HW220031   1.119   4.011   6.992  1.3240  1.1656  1.9415
 2857SOL     OW20032   2.604   1.485   4.826 -0.1830  0.6690  0.2952
 2857SOL    HW120033   2.672   1.552   4.827 -0.1663  0.6391  1.0415
 2857SOL    HW220034   2.568   1.476   4.915 -1.2037 -0.1577 -0.2019
 2858SOL     OW20035   1.485   0.920   7.482 -0.1596 -0.0548  0.8713
 2858SOL    HW120036   1.399   0.883   7.461 -0.6962  2.2550 -0.9990
 2858SOL    HW220037   1.523   0.935   7.395 -1.3084  0.8385  0.5195
 2859SOL     OW20038   2.603   0.135  16.851  0.3436 -0.3770  0.1323
 2859SOL    HW120039   2.665   0.206  16.865  0.5419 -0.3551 -0.8277
 2859SOL    HW220040   2.593   0.097  16.938 -0.6860 -0.1230  0.1255
 2860SOL     OW20041   1.625   0.605   3.624 -1.0882  0.2349  0.4587
 2860SOL    HW120042   1.655   0.547   3.694 -0.7714  0.4750  0.5263
 2860SOL    HW220043   1.545   0.645   3.658 -0.1219  1.6465  1.1369
 2861SOL     OW20044   2.904   2.722   8.474  1.0428  0.3355  0.3395
 2861SOL    HW120045   2.811   2.699   8.469  0.9549  1.2273 -2.0982
 2861SOL    HW220046   2.906   2.817   8.470 -1.5322  0.3652 -0.1638
 2862SOL     OW20047   1.576   1.019  17.021  0.4651 -0.2700  0.2308
 2862SOL    HW120048   1.502   1.048  17.075  2.1653 -0.0115  2.4236
 2862SOL    HW220049   1.556   0.925  17.017 -1.3344  0.1715 -0.9050
 2863SOL     OW20050   2.124   0.848   6.950  0.3700  0.1576  0.1255
 2863SOL    HW120051   2.189   0.899   7.000  1.0532 -1.9579  1.3780
 2863SOL    HW220052   2.046   0.861   7.004 -0.3268  0.8236 -1.0430
 2864SOL     OW20053   1.373   1.790   5.677 -0.1704 -0.5300 -0.5376
 2864SOL    HW120054   1.322   1.870   5.669  0.0612 -0.3591 -0.2994
 2864SOL    HW220055   1.440   1.823   5.736 -0.8906 -0.4323  0.2282
 2865SOL     OW20056   3.749   2.663   9.038  0.0230 -0.0665  0.2861
 2865SOL    HW120057   3.808   2.722   9.084 -0.7972  1.7782 -1.0506
 2865SOL    HW220058   3.664   2.689   9.074 -0.1969 -1.1418  0.5516
 2866SOL     OW20059   2.793   3.169   7.661  1.1068 -0.4368 -0.1817
 2866SOL    HW120060   2.767   3.084   7.698  0.3942 -0.9093 -1.7593
 2866SOL    HW220061   2.833   3.217   7.733 -2.9988  1.8805  0.5369
 2867SOL     OW20062   4.545   0.440   9.387  0.6622  0.4954 -0.3489
 2867SOL    HW120063   4.640   0.444   9.377  0.8260 -3.2664 -0.5187
 2867SOL    HW220064   4.540   0.535   9.388  0.1279  0.4625  0.1247
 2868SOL     OW20065   2.107   1.553   6.976  0.3299  0.3178 -0.1509
 2868SOL    HW120066   2.102   1.588   7.065 -1.2257  1.2294 -0.5866
 2868SOL    HW220067   2.198   1.566   6.949  0.4055  1.0013  0.3998
 2869SOL     OW20068   1.702   4.368   3.973  0.0584 -0.5873 -0.5481
 2869SOL    HW120069   1.764   4.341   4.040 -3.0993 -1.9331  1.8459
 2869SOL    HW220070   1.616   4.340   4.004  0.4237  0.4966  1.3749
 2870SOL     OW20071   3.128   0.070   5.758  0.0658 -0.2862 -0.2864
 2870SOL    HW120072   3.216   0.097   5.784 -0.6631  2.8520 -1.0440
 2870SOL    HW220073   3.078   0.151   5.757  1.0096  0.3408  2.1301
 2871SOL     OW20074   1.333   4.058   1.622  0.4096 -0.3832  0.0638
 2871SOL    HW120075   1.403   4.004   1.587  1.2988  2.4663 -2.5234
 2871SOL    HW220076   1.338   4.038   1.716  1.1383  0.4895  0.2031
 2872SOL     OW20077   0.787   1.715  14.548  0.1478  0.4988 -0.2323
 2872SOL    HW120078   0.833   1.654  14.606 -1.2021  0.4463  0.7830
 2872SOL    HW220079   0.696   1.692  14.566  0.8467 -0.1475  2.4700
 2873SOL     OW20080   4.259   2.366   1.048  0.3195  0.0462 -0.2664
 2873SOL    HW120081   4.298   2.318   0.975  0.5801 -1.2965  0.7670
 2873SOL    HW220082   4.232   2.293   1.103 -1.5274 -0.7690 -2.2202
 2874SOL     OW20083   3.732   2.456  15.285  0.3209 -0.1975 -0.2105
 2874SOL    HW120084   3.656   2.492  15.238  0.9812  1.6020  0.0861
 2874SOL    HW220085   3.687   2.396  15.344  0.7945  0.2266  0.5863
 2875SOL     OW20086   2.037   2.277   5.704 -0.1700  0.2476  0.4017
 2875SOL    HW120087   2.081   2.340   5.646  0.9415 -2.2188 -1.4726
 2875SOL    HW220088   2.021   2.208   5.640 -0.4475  0.9690 -0.3045
 2876SOL     OW20089   4.542   2.726   7.865  0.3336 -0.5188  0.1484
 2876SOL    HW120090   4.566   2.781   7.791  1.2405  0.5205  1.2219
 2876SOL    HW220091   4.586   2.755   7.944 -0.3651  0.6354  0.1181
 2877SOL     OW20092   2.481   3.872  14.894  0.0337 -0.2841 -0.2074
 2877SOL    HW120093   2.572   3.881  14.921  0.5776 -1.8974 -1.5486
 2877SOL    HW220094   2.495   3.839  14.805 -0.3444  2.4878 -1.3101
 2878SOL     OW20095   4.262   2.168   6.446 -0.1861 -0.0188  0.5654
 2878SOL    HW120096   4.314   2.183   6.525 -0.7651  0.1999  0.9088
 2878SOL    HW220097   4.174   2.172   6.483 -0.6939 -2.4571 -0.3570
 2879SOL     OW20098   0.911   3.611   6.338  0.3472 -0.0038 -0.8608
 2879SOL    HW120099   0.952   3.681   6.389 -1.1794  1.0547 -1.0657
 2879SOL    HW220100   0.908   3.640   6.246  1.7250 -0.0954 -0.9275
 2880SOL     OW20101   2.566   0.568   8.403 -0.3075  0.4212  0.7022
 2880SOL    HW120102   2.523   0.525   8.477 -2.2759 -0.9611 -1.2379
 2880SOL    HW220103   2.493   0.561   8.342  0.0274  0.3038  0.3093
 2881SOL     OW20104   1.568   2.506  11.319  0.0028  0.2797  0.5228
 2881SOL    HW120105   1.625   2.570  11.361 -0.3265  0.7268  0.2897
 2881SOL    HW220106   1.496   2.499  11.382 -0.1480 -1.5939  0.1327
 2882SOL     OW20107   3.897   4.110   7.948  0.3153 -0.2630  0.1068
 2882SOL    HW120108   3.975   4.151   7.984 -0.8332  1.3547  0.7645
 2882SOL    HW220109   3.921   4.025   7.910  2.1126 -0.0667  0.8426
 2883SOL     OW20110   1.770   2.760  14.519  0.3715 -0.2356  0.1704
 2883SOL    HW120111   1.691   2.804  14.486  1.0403 -1.8545 -3.6155
 2883SOL    HW220112   1.833   2.775  14.448  1.1075 -0.2117  0.8357
 2884SOL     OW20113   3.131   0.070   1.386 -0.0526 -0.3190 -0.8016
 2884SOL    HW120114   3.103   0.023   1.464 -0.3196  0.6079 -0.3421
 2884SOL    HW220115   3.054   0.088   1.333  0.3388 -0.9832 -1.6082
 2885SOL     OW20116   4.295   4.541   8.860 -1.1267 -0.2164 -0.5755
 2885SOL    HW120117   4.215   4.523   8.910  1.3402 -1.8035  2.8356
 2885SOL    HW220118   4.368   4.489   8.893  2.0746  2.8999 -2.8428
 2886SOL     OW20119   0.959   1.347   5.637 -0.3038 -0.3916 -0.1764
 2886SOL    HW120120   0.939   1.275   5.576 -0.5911  0.0107 -0.5591
 2886SOL    HW220121   0.933   1.306   5.719 -0.1533 -0.6360 -0.2513
 2887SOL     OW20122   3.680   3.065   9.276 -0.0581 -0.4617 -0.1425
 2887SOL    HW120123   3.689   3.110   9.360 -0.5542 -0.1807 -0.2416
 2887SOL    HW220124   3.714   3.128   9.213 -1.5594 -0.4795 -0.9794
 2888SOL     OW20125   1.847   1.106  10.766 -0.0186  0.6202 -0.1906
 2888SOL    HW120126   1.817   1.153  10.844  1.1013 -3.1369  2.5057
 2888SOL    HW220127   1.931   1.071  10.794 -0.6732 -1.0113 -0.2462
 2889SOL     OW20128   4.553   2.629   8.616  0.1668 -0.5113  0.3458
 2889SOL    HW120129   4.499   2.707   8.628  1.6036  0.6505 -0.5954
 2889SOL    HW220130   4.541   2.590   8.702  0.7183  0.8722  1.0450
 2890SOL     OW20131   3.088   2.534   0.485 -0.5473  0.4521 -0.4424
 2890SOL    HW120132   3.086   2.447   0.524  0.0101  0.5283 -0.2503
 2890SOL    HW220133   3.007   2.543   0.434 -0.0346  0.3474 -1.2877
 2891SOL     OW20134   0.244   4.365  10.099 -0.6522  0.0312  0.8957
 2891SOL    HW120135   0.175   4.390  10.160 -0.4255 -0.1444  1.2172
 2891SOL    HW220136   0.245   4.270  10.108  4.4018 -0.1776 -1.9644
 2892SOL     OW20137   2.046   0.420   9.365  0.3244 -0.0463 -0.3774
 2892SOL    HW120138   2.036   0.380   9.451  2.8303 -1.3718 -0.6988
 2892SOL    HW220139   2.077   0.504   9.398  1.5031 -0.5602 -0.1723
 2893SOL     OW20140   2.756   0.563  16.160  0.2544  0.3330  0.0096
 2893SOL    HW120141   2.665   0.541  16.142  0.1655  0.2006  0.6258
 2893SOL    HW220142   2.806   0.500  16.108  2.0464  0.1923  1.9373
 2894SOL     OW20143   2.454   2.805  15.725  0.5674 -0.1829  0.4055
 2894SOL    HW120144   2.518   2.873  15.703 -2.0310  1.7727 -1.2402
 2894SOL    HW220145   2.414   2.849  15.800 -1.7663 -0.1075 -0.8658
 2895SOL     OW20146   0.007   2.102   0.484  0.7137 -0.0519 -0.2627
 2895SOL    HW120147   0.017   2.022   0.535 -0.7715 -0.5101 -0.6973
 2895SOL    HW220148   0.032   2.055   0.404  0.2862 -0.7887  0.0403
 2896SOL     OW20149   3.900   2.167   2.320  0.3174 -0.8572 -0.0571
 2896SOL    HW120150   3.839   2.196   2.389  1.5303 -1.6825  1.3500
 2896SOL    HW220151   3.842   2.163   2.244  0.2575  0.2647 -0.0705
 2897SOL     OW20152   4.194   2.107  17.257  0.3827  0.4735 -0.2787
 2897SOL    HW120153   4.172   2.014  17.268  1.0217  0.5090  1.2941
 2897SOL    HW220154   4.273   2.120  17.309 -0.9120 -1.6324  2.2392
 2898SOL     OW20155   4.164   3.543  11.136  0.6021  0.1682 -0.1384
 2898SOL    HW120156   4.198   3.471  11.083  1.1222  0.1852  0.1802
 2898SOL    HW220157   4.121   3.490  11.203  0.9068 -0.3008 -0.3158
 2899SOL     OW20158   2.138   2.468   4.924 -0.5519  0.1093  0.5453
 2899SOL    HW120159   2.228   2.471   4.890 -0.1809  2.4980  1.7688
 2899SOL    HW220160   2.138   2.386   4.974 -0.1729  0.9090  1.8587
 2900SOL     OW20161   3.505   1.893   2.881 -0.3412  0.2521  0.4397
 2900SOL    HW120162   3.535   1.890   2.790  0.4193  0.2690  0.6847
 2900SOL    HW220163   3.435   1.828   2.878 -0.8442  0.6985  2.3825
 2901SOL     OW20164   4.426   4.711  12.058  0.1938 -0.7990 -0.3744
 2901SOL    HW120165   4.417   4.723  11.963 -0.4297 -0.0574 -0.2256
 2901SOL    HW220166   4.504   0.037  12.074  1.5720 -2.2626 -2.1508
 2902SOL     OW20167   0.207   3.562   6.974  0.2028  0.0834 -0.3429
 2902SOL    HW120168   0.261   3.488   6.947 -1.3298 -0.6859 -1.2996
 2902SOL    HW220169   0.264   3.638   6.964 -0.7548  0.7940 -0.3931
 2903SOL     OW20170   3.575   0.690   7.784  0.2398 -0.6040 -0.3221
 2903SOL    HW120171   3.510   0.670   7.851  0.7319  3.3314  1.3710
 2903SOL    HW220172   3.662   0.664   7.815  0.2725 -1.0704 -0.8046
 2904SOL     OW20173   3.189   1.044  14.440  0.1698 -0.0359  0.2754
 2904SOL    HW120174   3.163   0.979  14.374 -0.7813  0.7009 -0.0719
 2904SOL    HW220175   3.142   1.124  14.417 -0.0636  0.0590  1.0729
 2905SOL     OW20176   4.029   1.530   5.838  0.2155 -0.0333  0.1616
 2905SOL    HW120177   3.951   1.527   5.783  0.3807 -0.2266 -0.0620
 2905SOL    HW220178   4.083   1.460   5.800  0.5357 -0.2761  1.0603
 2906SOL     OW20179   3.890   0.547   8.149 -0.5418 -0.3431  0.1543
 2906SOL    HW120180   3.938   0.630   8.149  2.2495 -1.9682 -1.2745
 2906SOL    HW220181   3.886   0.531   8.243  1.9385  3.5632  0.9462
 2907SOL     OW20182   2.022   2.021   2.610  0.5299 -0.1292  0.4626
 2907SOL    HW120183   1.956   2.087   2.586 -0.1299 -0.3803  1.5675
 2907SOL    HW220184   2.068   2.071   2.677 -1.1027  0.2230  1.3432
 2908SOL     OW20185   2.295   2.445   8.114  0.1330 -0.0371  0.2197
 2908SOL    HW120186   2.241   2.523   8.105 -2.7193 -1.9395  0.7646
 2908SOL    HW220187   2.292   2.442   8.210  0.9033 -0.5062  0.2299
 2909SOL     OW20188   3.724   4.549   9.631  0.2978  0.6373  0.0086
 2909SOL    HW120189   3.630   4.548   9.619  0.4068  2.0321 -0.9250
 2909SOL    HW220190   3.743   4.635   9.593  0.0395  0.7236  0.0767
 2910SOL     OW20191   1.729   1.617  11.612 -0.7674 -0.8344  0.1030
 2910SOL    HW120192   1.637   1.592  11.620 -1.6086  1.8423 -1.1103
 2910SOL    HW220193   1.706   1.697  11.564 -1.9703 -1.8828 -1.0760
 2911SOL     OW20194   1.168   3.645   5.403  0.4408  0.1806 -0.1813
 2911SOL    HW120195   1.167   3.593   5.322  1.3715  3.0110 -2.0143
 2911SOL    HW220196   1.090   3.621   5.452  0.8703  0.9681  0.8823
 2912SOL     OW20197   0.411   1.632   8.825 -0.5735  0.2098 -0.6907
 2912SOL    HW120198   0.325   1.616   8.864 -1.1306  2.3851 -1.0799
 2912SOL    HW220199   0.420   1.716   8.870 -3.3479  0.1526  0.0121
 2913SOL     OW20200   0.346   1.894   5.902 -0.2337 -0.7482 -0.5149
 2913SOL    HW120201   0.348   1.961   5.834  2.2981  1.3517  1.6021
 2913SOL    HW220202   0.403   1.933   5.969 -0.6756  0.1858 -0.6784
 2914SOL     OW20203   3.962   3.674   8.758 -0.1598  0.1815  0.4514
 2914SOL    HW120204   3.980   3.754   8.708 -1.2768  0.7136  0.8909
 2914SOL    HW220205   4.023   3.688   8.830  1.0921  1.0455 -0.7821
 2915SOL     OW20206   0.747   1.327   3.956  0.3039 -0.0220  0.0944
 2915SOL    HW120207   0.742   1.232   3.965  1.9626 -0.2289 -1.0106
 2915SOL    HW220208   0.738   1.335   3.861 -0.7415  0.6924  0.2618
 2916SOL     OW20209   2.566   3.429  15.489  0.0368 -0.2419  0.2505
 2916SOL    HW120210   2.575   3.399  15.579 -0.6067 -1.1497  0.0206
 2916SOL    HW220211   2.476   3.460  15.485  0.1407 -0.0606 -0.6945
 2917SOL     OW20212   2.882   0.345   1.400  0.2655  0.2918  0.0441
 2917SOL    HW120213   2.899   0.297   1.319 -1.9269 -0.5719  0.0866
 2917SOL    HW220214   2.838   0.427   1.380  1.4830  1.0663  0.5510
 2918SOL     OW20215   1.832   3.962  15.399 -0.9377 -0.6392  0.3926
 2918SOL    HW120216   1.869   4.027  15.339  0.4102 -2.5479 -0.8422
 2918SOL    HW220217   1.804   4.009  15.477 -0.5059 -0.2291  0.3059
 2919SOL     OW20218   2.468   0.646  12.876 -0.7689 -0.3993  0.0320
 2919SOL    HW120219   2.508   0.658  12.963 -1.1134 -0.7794  0.2423
 2919SOL    HW220220   2.454   0.740  12.865  2.1494  0.0524  0.0983
 2920SOL     OW20221   3.009   1.597   4.210 -0.3160 -0.1925  0.6644
 2920SOL    HW120222   3.101   1.579   4.229 -0.3523 -0.8262  0.2397
 2920SOL    HW220223   2.988   1.533   4.142  1.7226  0.5221 -0.6482
 2921SOL     OW20224   0.581   0.192  11.495 -0.7547  0.4836  0.4300
 2921SOL    HW120225   0.617   0.275  11.525  0.5196  0.3773 -0.8486
 2921SOL    HW220226   0.491   0.221  11.480  0.0264  1.2992 -2.6313
 2922SOL     OW20227   3.298   0.728   5.253  0.3366 -0.1717 -0.1501
 2922SOL    HW120228   3.225   0.679   5.290  0.2207 -1.3749 -1.9849
 2922SOL    HW220229   3.295   0.791   5.325 -1.5146 -0.7733  0.2968
 2923SOL     OW20230   4.511   1.967   0.723 -0.8155 -0.0259  0.4741
 2923SOL    HW120231   4.487   1.915   0.646  0.5004  1.7836 -1.1767
 2923SOL    HW220232   4.510   2.057   0.692  1.5774  0.4507  1.7472
 2924SOL     OW20233   3.249   0.813   1.747 -0.2687  0.8514  0.0300
 2924SOL    HW120234   3.263   0.766   1.829  1.0994 -0.7413 -1.1125
 2924SOL    HW220235   3.179   0.873   1.775 -0.1804  2.2319 -2.6751
 2925SOL     OW20236   3.370   0.226   5.818  0.4909 -0.2646  0.2072
 2925SOL    HW120237   3.461   0.210   5.794  0.5421 -0.4908  0.5592
 2925SOL    HW220238   3.371   0.229   5.914  0.0607  0.5912  0.1923
 2926SOL     OW20239   2.876   2.040  17.285 -0.2221  0.5225 -0.4293
 2926SOL    HW120240   2.784   2.023  17.264  0.1838 -0.0912 -1.7421
 2926SOL    HW220241   2.870   2.122  17.334 -0.9657  0.7785 -0.9467
 2927SOL     OW20242   2.815   4.639   4.642  0.2150 -0.1499  0.3320
 2927SOL    HW120243   2.840   4.714   4.698  1.1654 -0.5096  0.3974
 2927SOL    HW220244   2.835   4.566   4.701 -0.7828 -0.2832  0.5021
 2928SOL     OW20245   1.880   2.852   0.223 -0.0846 -0.1524 -0.0297
 2928SOL    HW120246   1.818   2.845   0.150 -0.1338 -0.6511  0.0614
 2928SOL    HW220247   1.891   2.759   0.244  1.7022  0.2802  0.9500
 2929SOL     OW20248   3.813   0.504  10.204 -0.2940 -0.0335  0.6138
 2929SOL    HW120249   3.814   0.562  10.280 -0.5323 -0.5631  1.0166
 2929SOL    HW220250   3.897   0.525  10.163 -0.3008 -0.7027  0.2662
 2930SOL     OW20251   3.342   0.849   2.416 -0.0031  0.0779  0.0969
 2930SOL    HW120252   3.396   0.774   2.443 -1.8517 -0.3363  2.5962
 2930SOL    HW220253   3.270   0.808   2.368  0.6957  1.0011 -1.7334
 2931SOL     OW20254   1.665   3.039  10.255 -0.7613  0.1056 -0.3270
 2931SOL    HW120255   1.687   2.958  10.209 -0.5689 -1.6675  2.8806
 2931SOL    HW220256   1.726   3.100  10.214 -0.5320  1.4865  2.0328
 2932SOL     OW20257   2.370   1.142   7.909  0.2643 -0.2215 -0.2439
 2932SOL    HW120258   2.389   1.063   7.858  1.6147  0.6649 -1.1066
 2932SOL    HW220259   2.446   1.134   7.966 -1.0772 -2.1280  1.2912
 2933SOL     OW20260   2.990   3.913   2.990  0.0827  0.4388 -0.3637
 2933SOL    HW120261   3.006   4.002   3.020 -1.9364  0.6880 -0.0141
 2933SOL    HW220262   3.082   3.888   2.995 -0.2509 -0.5009  1.0827
 2934SOL     OW20263   0.416   1.210   6.777 -0.4782 -0.3272 -0.3716
 2934SOL    HW120264   0.324   1.183   6.784 -0.1596 -0.3798  3.3592
 2934SOL    HW220265   0.451   1.131   6.735 -1.5088 -0.2877 -1.3299
 2935SOL     OW20266   0.473   2.933  11.028 -0.2455 -0.2680  0.1898
 2935SOL    HW120267   0.476   3.025  11.057 -0.1929 -0.8098  1.8773
 2935SOL    HW220268   0.477   2.883  11.109  1.2095 -0.6595 -0.1341
 2936SOL     OW20269   2.368   0.957  16.954 -0.4625 -0.2621 -0.8992
 2936SOL    HW120270   2.332   0.890  17.011  0.9804  1.4853  2.0464
 2936SOL    HW220271   2.304   1.028  16.964 -0.2199  0.0395 -1.4828
 2937SOL     OW20272   1.139   2.176   2.694 -0.0753  0.1487  0.1875
 2937SOL    HW120273   1.178   2.139   2.773  1.6204 -1.1157 -1.2565
 2937SOL    HW220274   1.151   2.106   2.630 -0.0683  2.3903 -2.2545
 2938SOL     OW20275   2.877   4.626  13.948  0.0525 -0.3090  0.2208
 2938SOL    HW120276   2.876   4.715  13.915  1.9904 -1.0413 -1.8304
 2938SOL    HW220277   2.816   4.628  14.021  0.7120 -1.1768  0.7994
 2939SOL     OW20278   2.970   0.843   3.243  0.2875  0.4706  0.3292
 2939SOL    HW120279   2.914   0.916   3.270  1.3508  1.6557 -0.7317
 2939SOL    HW220280   2.960   0.779   3.314 -2.4550 -0.9478 -1.3104
 2940SOL     OW20281   3.416   4.476  11.905 -0.3082 -0.6684  0.4165
 2940SOL    HW120282   3.426   4.389  11.868 -1.9417 -1.2262  1.2622
 2940SOL    HW220283   3.491   4.484  11.964 -0.9248 -0.3455  1.1631
 2941SOL     OW20284   3.190   0.556   8.708 -0.2259 -0.3974  0.5183
 2941SOL    HW120285   3.274   0.511   8.711 -0.6126 -1.0723  1.2074
 2941SOL    HW220286   3.145   0.473   8.723  1.3029 -1.1614  0.8673
 2942SOL     OW20287   1.052   1.180   9.826  0.3381  0.2383  0.2730
 2942SOL    HW120288   0.982   1.201   9.888 -0.3673 -0.1060 -0.4135
 2942SOL    HW220289   1.130   1.165   9.878  0.4698 -1.6573 -0.4982
 2943SOL     OW20290   0.690   3.585   9.772  0.2494 -0.1933 -0.1423
 2943SOL    HW120291   0.723   3.589   9.682  0.0448  0.1254 -0.2046
 2943SOL    HW220292   0.696   3.492   9.793 -0.1876 -0.0603  0.5683
 2944SOL     OW20293   3.215   2.772   4.983 -0.3702 -0.7468  0.3300
 2944SOL    HW120294   3.267   2.843   4.945  0.6458 -1.3668  0.5658
 2944SOL    HW220295   3.275   2.748   5.053 -0.0142 -2.3489 -0.5201
 2945SOL     OW20296   3.442   0.983  11.816 -0.5730 -0.2434 -0.1070
 2945SOL    HW120297   3.522   1.013  11.774 -0.3816 -0.9022 -0.1985
 2945SOL    HW220298   3.463   0.968  11.909 -1.9345 -0.1535  0.2155
 2946SOL     OW20299   0.779   4.642   5.987  0.3077  0.1985 -0.3924
 2946SOL    HW120300   0.793   4.678   5.899  2.3812  0.1094 -0.0950
 2946SOL    HW220301   0.762   4.724   6.034  0.4718  0.1540 -0.2560
 2947SOL     OW20302   4.474   4.380  17.033  0.3307 -0.1207  0.2023
 2947SOL    HW120303   4.403   4.444  17.031  0.8183  0.3691 -2.2055
 2947SOL    HW220304   4.542   4.433  16.991 -0.5129 -0.6600 -1.8831
 2948SOL     OW20305   1.397   0.992  11.756  0.7054  0.2676 -0.1071
 2948SOL    HW120306   1.389   0.947  11.840  1.0390  0.2414 -0.0894
 2948SOL    HW220307   1.434   0.930  11.693 -2.0262 -0.7154 -0.7538
 2949SOL     OW20308   2.061   3.728   6.677  0.7064  0.2868  0.2466
 2949SOL    HW120309   1.982   3.705   6.724 -0.0595  0.9863 -0.6839
 2949SOL    HW220310   2.107   3.792   6.732 -1.5672 -0.6653  3.1625
 2950SOL     OW20311   2.237   4.485   4.930 -0.0800  0.1190 -0.6761
 2950SOL    HW120312   2.150   4.497   4.966  0.2798  1.0225 -0.1168
 2950SOL    HW220313   2.208   4.493   4.839 -0.8780  1.6883 -0.2769
 2951SOL     OW20314   2.995   4.705   3.320  0.2130 -0.1163 -0.1631
 2951SOL    HW120315   3.007   0.008   3.230 -1.8744 -0.2821 -0.5026
 2951SOL    HW220316   3.069   4.648   3.337  0.3757 -0.1300 -0.9109
 2952SOL     OW20317   2.542   1.978   6.865  0.3271 -1.0532  0.2981
 2952SOL    HW120318   2.554   2.048   6.800 -0.2180  1.2217  2.6565
 2952SOL    HW220319   2.451   1.954   6.847 -0.4898  2.4451 -0.2478
 2953SOL     OW20320   2.038   0.477   3.850 -0.2836  0.5674 -0.0648
 2953SOL    HW120321   1.979   0.511   3.782 -2.7281 -1.9624  0.7739
 2953SOL    HW220322   2.119   0.511   3.814  0.1115 -1.2018 -0.8383
 2954SOL     OW20323   0.420   1.326   3.893 -0.2597 -0.5431  0.1775
 2954SOL    HW120324   0.452   1.370   3.971 -1.8785 -0.0079  0.5467
 2954SOL    HW220325   0.412   1.402   3.835  0.7123  1.2406  2.3812
 2955SOL     OW20326   2.757   2.743  12.558 -0.2705 -0.3160 -0.0978
 2955SOL    HW120327   2.849   2.767  12.567 -0.4435  0.1094  0.5285
 2955SOL    HW220328   2.725   2.820  12.511 -1.9236  0.2131  1.9064
 2956SOL     OW20329   3.473   0.442  17.030  0.1655  0.3072  0.0628
 2956SOL    HW120330   3.520   0.504  16.975 -0.1467  0.9403  0.5180
 2956SOL    HW220331   3.506   0.468  17.116  1.0783 -1.8748  0.3886
 2957SOL     OW20332   2.736   4.657  11.899  0.6090  0.2604  0.0684
 2957SOL    HW120333   2.687   4.637  11.820  0.3727 -2.3085  0.8894
 2957SOL    HW220334   2.687   4.608  11.964  1.1473  0.1085  0.3646
 2958SOL     OW20335   0.591   2.060   7.650 -0.0032 -0.2438  0.2347
 2958SOL    HW120336   0.677   2.089   7.619 -0.0491  1.5809  1.8659
 2958SOL    HW220337   0.539   2.139   7.640  3.2640  1.9672  0.8571
 2959SOL     OW20338   1.106   4.018  12.224 -0.9990  0.4271  0.3307
 2959SOL    HW120339   1.019   4.052  12.203 -2.0152 -1.1837  1.9798
 2959SOL    HW220340   1.150   4.102  12.227 -1.8541  0.9559 -1.7575
 2960SOL     OW20341   4.040   2.344   9.595 -0.3994  0.5580  0.2557
 2960SOL    HW120342   3.995   2.398   9.661 -0.5655  0.0539  0.5571
 2960SOL    HW220343   3.965   2.293   9.565  0.7777 -1.5623  0.9590
 2961SOL     OW20344   0.653   3.365   4.713 -0.0016 -0.0383 -0.0525
 2961SOL    HW120345   0.630   3.427   4.782  0.2045 -0.1047  0.0747
 2961SOL    HW220346   0.604   3.290   4.749  0.1662  0.2571  0.7917
 2962SOL     OW20347   4.684   0.989   4.057 -0.4242 -0.0855  0.7627
 2962SOL    HW120348   4.659   0.931   4.130  0.2007 -2.6395 -1.0514
 2962SOL    HW220349   0.051   0.979   4.073 -0.0858  2.6395  0.3929
 2963SOL     OW20350   0.293   0.629   5.435 -0.4591  0.0807  0.6727
 2963SOL    HW120351   0.292   0.632   5.530  0.8931 -2.5516  0.7674
 2963SOL    HW220352   0.335   0.713   5.416 -0.9688 -0.2198 -1.8438
 2964SOL     OW20353   0.249   0.010   3.165 -0.0703  0.5981 -0.3902
 2964SOL    HW120354   0.209   0.080   3.216 -0.4214  0.7173 -0.8333
 2964SOL    HW220355   0.194   0.020   3.087 -0.4783  1.5014  0.0113
 2965SOL     OW20356   4.542   2.853   3.759  0.8415  0.2843  0.0496
 2965SOL    HW120357   4.511   2.875   3.671 -0.5805  1.1455  0.7614
 2965SOL    HW220358   4.637   2.867   3.755  0.9389  0.0331  1.3411
 2966SOL     OW20359   2.458   3.321  11.894 -0.2692 -0.9844 -0.6612
 2966SOL    HW120360   2.423   3.409  11.886 -0.2387 -0.9438 -0.3543
 2966SOL    HW220361   2.552   3.328  11.910 -0.6432 -0.7105  1.4042
 2967SOL     OW20362   4.482   4.114   9.481 -0.1351 -0.2129 -0.1383
 2967SOL    HW120363   4.512   4.151   9.564 -1.0388  2.4033 -0.9838
 2967SOL    HW220364   4.411   4.056   9.509 -1.8180  1.8261 -0.1750
 2968SOL     OW20365   1.683   0.287   1.919 -0.2820 -0.3131 -0.4019
 2968SOL    HW120366   1.719   0.201   1.938 -1.3299 -0.5163  0.6834
 2968SOL    HW220367   1.612   0.268   1.859 -1.8806  0.4528  1.2448
 2969SOL     OW20368   0.937   3.558   7.106 -0.0506  0.2870 -0.2434
 2969SOL    HW120369   0.853   3.567   7.151  0.2994 -0.8883  0.6504
 2969SOL    HW220370   0.970   3.475   7.140 -0.6764  0.2858  0.3630
 2970SOL     OW20371   2.452   1.753   2.218  0.3209 -0.2949 -0.1711
 2970SOL    HW120372   2.495   1.686   2.165 -0.0960 -0.4024 -0.3682
 2970SOL    HW220373   2.507   1.830   2.202 -1.5399  0.7264 -1.5299
 2971SOL     OW20374   2.799   4.673   0.316 -0.2864 -0.2311  0.2138
 2971SOL    HW120375   2.867   0.008   0.291 -0.2514 -0.5887 -0.5858
 2971SOL    HW220376   2.785   4.695   0.408  1.6529  2.0455 -0.0497
 2972SOL     OW20377   1.171   2.909   2.202 -0.0516  1.0921 -0.3376
 2972SOL    HW120378   1.160   3.003   2.214  0.9520  1.3213 -1.2745
 2972SOL    HW220379   1.163   2.911   2.107  1.4688 -2.4250 -0.5343
 2973SOL     OW20380   0.198   1.485   0.703 -0.2610 -0.1821  0.5589
 2973SOL    HW120381   0.174   1.559   0.758  0.2499  0.8784 -0.6566
 2973SOL    HW220382   0.214   1.520   0.616 -0.0180 -1.9522 -0.1135
 2974SOL     OW20383   2.142   2.030   5.562  0.3394  0.3124 -0.1499
 2974SOL    HW120384   2.181   1.983   5.636 -1.1202 -0.4092  0.1703
 2974SOL    HW220385   2.091   1.960   5.523  0.7880 -0.3249  0.4096
 2975SOL     OW20386   1.567   2.117   6.599  0.3764  0.3241 -0.0747
 2975SOL    HW120387   1.604   2.163   6.524 -1.9321  0.8253 -0.8923
 2975SOL    HW220388   1.484   2.158   6.621 -0.5358 -1.6813  0.2270
 2976SOL     OW20389   2.558   3.570  14.493  0.1924 -0.1918 -0.1134
 2976SOL    HW120390   2.531   3.638  14.556  0.7136  1.9584 -2.2455
 2976SOL    HW220391   2.476   3.521  14.487 -0.0788  0.2185  0.2250
 2977SOL     OW20392   1.654   3.603   8.906  0.0950 -0.5281 -0.4097
 2977SOL    HW120393   1.598   3.639   8.974  1.0369  1.7087 -0.8159
 2977SOL    HW220394   1.618   3.653   8.832 -2.3252  0.0362  1.1689
 2978SOL     OW20395   2.559   2.680   4.945  0.6457 -0.0679  0.1654
 2978SOL    HW120396   2.486   2.628   4.911  0.0903  0.8130  0.0299
 2978SOL    HW220397   2.636   2.623   4.938 -0.4282 -1.8192  2.8725
 2979SOL     OW20398   4.243   2.157   8.960 -0.6783  0.2712 -1.0966
 2979SOL    HW120399   4.258   2.116   8.875 -0.5044 -2.2412  0.1660
 2979SOL    HW220400   4.269   2.091   9.023 -2.3888 -0.0094 -0.6836
 2980SOL     OW20401   3.029   2.871  12.717 -0.6579 -0.8186 -0.1152
 2980SOL    HW120402   2.969   2.946  12.724  0.3309 -0.0895  0.4665
 2980SOL    HW220403   3.093   2.909  12.657  0.1630 -1.4899  0.3457
 2981SOL     OW20404   2.038   3.352   5.289  0.5408  0.3743 -0.0904
 2981SOL    HW120405   2.031   3.371   5.383 -1.5447 -0.4690 -0.0824
 2981SOL    HW220406   1.951   3.360   5.250  0.1843  0.6098  0.7449
 2982SOL     OW20407   1.935   2.927   6.857 -0.1022 -0.3639  0.1752
 2982SOL    HW120408   1.997   2.931   6.930 -1.9206  0.4492  1.6825
 2982SOL    HW220409   1.928   2.832   6.853 -0.8150 -0.3229  0.3522
 2983SOL     OW20410   3.993   2.625   1.093 -0.1109 -0.9513 -0.0877
 2983SOL    HW120411   3.931   2.567   1.137 -1.2636 -0.5768 -1.2223
 2983SOL    HW220412   3.940   2.704   1.103  0.4114 -0.4822 -1.0568
 2984SOL     OW20413   1.134   4.117   3.746  0.0965 -0.0611 -0.4161
 2984SOL    HW120414   1.189   4.195   3.744  0.1779 -0.0406  3.0359
 2984SOL    HW220415   1.071   4.141   3.679 -2.5424  1.4170  2.6299
 2985SOL     OW20416   4.390   0.533  14.298  0.0245  0.2933 -0.4199
 2985SOL    HW120417   4.383   0.529  14.394  1.5460 -0.3644 -0.3284
 2985SOL    HW220418   4.375   0.624  14.276 -2.2222 -0.2467 -1.0524
 2986SOL     OW20419   4.692   3.603  10.537  0.2097 -0.0115  0.2216
 2986SOL    HW120420   0.028   3.596  10.608  0.3948  0.0393  0.0594
 2986SOL    HW220421   0.021   3.649  10.476 -0.8421  1.1543  0.1297
 2987SOL     OW20422   1.905   3.011  13.099 -0.2328 -0.1713 -0.0985
 2987SOL    HW120423   1.911   3.106  13.091 -1.1996 -0.2923 -2.0994
 2987SOL    HW220424   1.812   3.000  13.077 -0.4811 -0.0857  0.8695
 2988SOL     OW20425   3.432   2.972   6.720 -0.3773 -0.1664 -0.3339
 2988SOL    HW120426   3.386   2.986   6.803  0.9969 -0.2109  0.4427
 2988SOL    HW220427   3.417   3.061   6.690  2.8271  0.0444 -1.3427
 2989SOL     OW20428   2.077   3.901  13.828 -0.4290  0.2719  0.3591
 2989SOL    HW120429   2.136   3.917  13.902 -0.9877  1.8216  0.4745
 2989SOL    HW220430   1.991   3.921  13.866 -0.0081  1.0748  0.8985
 2990SOL     OW20431   3.197   4.312  15.081 -0.6803 -0.1925 -0.4278
 2990SOL    HW120432   3.192   4.269  14.996  1.9797 -2.3970  0.5576
 2990SOL    HW220433   3.121   4.371  15.078 -1.3710 -1.1081 -0.9800
 2991SOL     OW20434   3.305   1.165   4.972 -0.0148 -0.3091  0.5904
 2991SOL    HW120435   3.214   1.153   4.947 -0.3214  3.3282 -0.0915
 2991SOL    HW220436   3.329   1.086   5.020  1.9082  0.4783  0.9512
 2992SOL     OW20437   4.341   1.325   8.274  0.1748 -0.3083  0.5266
 2992SOL    HW120438   4.332   1.288   8.186  3.9585 -0.4831  0.1975
 2992SOL    HW220439   4.354   1.246   8.327  2.8673 -0.2256  0.0187
 2993SOL     OW20440   2.831   1.084   2.265 -0.3663 -0.5381 -0.0495
 2993SOL    HW120441   2.896   1.058   2.331  0.0648 -0.5902 -0.4904
 2993SOL    HW220442   2.835   1.006   2.209 -0.4150  1.4002 -2.7793
 2994SOL     OW20443   2.909   1.803   1.904  0.2109 -0.1352  0.3682
 2994SOL    HW120444   2.820   1.770   1.901  0.1072  0.2469 -1.1505
 2994SOL    HW220445   2.972   1.733   1.921  2.4572  1.1747 -2.5144
 2995SOL     OW20446   4.707   0.921   4.834  0.0376  0.1509  0.3637
 2995SOL    HW120447   4.705   1.002   4.783 -3.2282  0.7588  1.4512
 2995SOL    HW220448   4.630   0.930   4.891 -0.1178 -0.0414  0.1831
 2996SOL     OW20449   1.680   2.700  11.449  0.1853  0.4446 -0.0497
 2996SOL    HW120450   1.711   2.666  11.533  0.1176 -0.0197 -0.2114
 2996SOL    HW220451   1.587   2.713  11.470 -0.1974 -1.0313 -0.7848
 2997SOL     OW20452   2.166   2.333  14.142  0.1344 -0.0390  0.0789
 2997SOL    HW120453   2.246   2.377  14.115  0.4019 -0.8293 -0.4108
 2997SOL    HW220454   2.188   2.248  14.104  1.9418  1.1608 -1.5647
 2998SOL     OW20455   4.040   1.281  16.102 -0.1966 -0.2309  0.1321
 2998SOL    HW120456   3.954   1.255  16.070 -0.9053 -0.4826  2.1826
 2998SOL    HW220457   4.030   1.373  16.078  3.0027  0.0249 -0.1519
 2999SOL     OW20458   4.413   3.272  12.506 -0.8334  0.7476 -0.0535
 2999SOL    HW120459   4.330   3.231  12.531 -0.7431  1.0351  0.7200
 2999SOL    HW220460   4.394   3.305  12.418 -0.8122  1.3655  0.1759
 3000SOL     OW20461   1.170   3.532  15.472 -0.1636 -0.2229  0.2572
 3000SOL    HW120462   1.087   3.492  15.499 -1.3045 -0.1354 -3.1983
 3000SOL    HW220463   1.148   3.624  15.457  0.8446  0.1965  1.3183
 3001SOL     OW20464   2.825   1.633   6.280  0.5359  0.5142 -0.3694
 3001SOL    HW120465   2.739   1.658   6.312  1.1096  2.7792 -0.5828
 3001SOL    HW220466   2.812   1.631   6.185 -1.4312  0.1898 -0.0896
 3002SOL     OW20467   2.892   2.230  14.557 -0.0214  0.0725 -0.7762
 3002SOL    HW120468   2.945   2.250  14.480  1.1347 -1.4149 -0.3662
 3002SOL    HW220469   2.808   2.244  14.513 -0.1025 -1.8103 -1.2106
 3003SOL     OW20470   2.172   1.007   4.641  0.4530 -0.0857  0.1093
 3003SOL    HW120471   2.093   0.991   4.589  0.5767 -1.4112  0.3121
 3003SOL    HW220472   2.161   1.101   4.655 -1.9944 -0.2484 -0.6207
 3004SOL     OW20473   1.822   2.140   7.504 -0.1022 -0.4262 -0.0425
 3004SOL    HW120474   1.910   2.134   7.542  0.0440 -0.3224 -0.3669
 3004SOL    HW220475   1.770   2.134   7.585 -0.2459  0.2232 -0.0847
 3005SOL     OW20476   0.668   1.371   8.293 -0.2521  0.2198  0.1415
 3005SOL    HW120477   0.728   1.361   8.220 -0.4463  0.8923 -0.1183
 3005SOL    HW220478   0.633   1.283   8.300  1.1447 -0.4557 -1.7110
 3006SOL     OW20479   3.877   0.885   7.778  0.4276  0.1010 -0.4712
 3006SOL    HW120480   3.947   0.863   7.839  0.3756 -1.8291 -1.0778
 3006SOL    HW220481   3.920   0.904   7.695  0.8636 -1.9463 -0.7273
 3007SOL     OW20482   2.948   1.331   5.540 -0.1211  0.2465 -0.8347
 3007SOL    HW120483   3.009   1.342   5.467  0.2600 -1.3281 -0.7539
 3007SOL    HW220484   2.984   1.247   5.568 -1.4495 -0.1250 -0.2223
 3008SOL     OW20485   0.933   1.162   1.992  0.1374  0.0191 -0.0564
 3008SOL    HW120486   1.019   1.150   1.952 -0.8068  0.4380 -2.2350
 3008SOL    HW220487   0.879   1.095   1.949 -0.5754 -1.1505  2.6311
 3009SOL     OW20488   2.057   0.175   8.641  0.4173 -0.1183  0.6991
 3009SOL    HW120489   2.085   0.216   8.560 -2.3877  2.1399  0.8751
 3009SOL    HW220490   1.988   0.226   8.684  0.0841 -0.5484  0.6794
 3010SOL     OW20491   2.885   2.974  17.161 -0.0267 -0.3259  1.3813
 3010SOL    HW120492   2.964   2.922  17.151 -0.2604 -0.9807  3.0393
 3010SOL    HW220493   2.914   3.057  17.124 -0.5146  0.3603  2.5560
 3011SOL     OW20494   0.177   3.680   3.299 -0.2252  0.3187  0.5240
 3011SOL    HW120495   0.144   3.769   3.314  0.2380  0.4203  0.9539
 3011SOL    HW220496   0.106   3.620   3.321 -0.5223  0.0941 -1.0959
 3012SOL     OW20497   0.006   0.274   5.877 -0.1024  0.5302  0.3232
 3012SOL    HW120498   0.009   0.272   5.781 -1.4177 -0.2472  0.3053
 3012SOL    HW220499   0.018   0.368   5.891  1.9189  0.0376  1.8871
 3013SOL     OW20500   0.778   3.801   3.972 -0.1779 -0.2620 -0.1402
 3013SOL    HW120501   0.817   3.758   4.048  0.0658  0.6966  0.2749
 3013SOL    HW220502   0.855   3.845   3.936 -0.4640  0.8910  0.6608
 3014SOL     OW20503   1.028   0.599   6.992  0.2486  0.1364  0.0942
 3014SOL    HW120504   1.107   0.624   7.041  1.3097  0.1853 -1.6316
 3014SOL    HW220505   1.069   0.540   6.928  0.0193  0.2607 -0.1700
 3015SOL     OW20506   1.702   4.404  16.655  0.5421 -0.1777  0.5282
 3015SOL    HW120507   1.615   4.444  16.659  0.8042  0.4517  0.0176
 3015SOL    HW220508   1.750   4.450  16.723 -0.4414  0.4649  0.7806
 3016SOL     OW20509   4.658   2.525   7.624 -0.0890 -0.3252 -0.1219
 3016SOL    HW120510   4.590   2.538   7.691  2.6707  0.4959  2.5084
 3016SOL    HW220511   4.610   2.560   7.549  1.1032 -0.3556 -0.8823
 3017SOL     OW20512   1.712   3.557  12.940 -0.4517  0.4386 -0.0449
 3017SOL    HW120513   1.692   3.523  12.853 -1.1125 -0.0870  0.3161
 3017SOL    HW220514   1.778   3.624  12.925  0.6136 -0.8776 -1.2776
 3018SOL     OW20515   4.504   2.448  16.097  0.1891 -0.3795  0.2069
 3018SOL    HW120516   4.590   2.471  16.131  0.5563  0.4185 -1.2222
 3018SOL    HW220517   4.501   2.357  16.124 -0.8219  0.0380  1.5307
 3019SOL     OW20518   0.770   1.126   4.981  0.0182  0.3788  0.1479
 3019SOL    HW120519   0.710   1.197   4.957 -0.5254 -0.7761 -2.0165
 3019SOL    HW220520   0.709   1.052   4.972  0.3947  0.2782 -1.6538
 3020SOL     OW20521   1.312   4.012   4.354 -0.5249  0.2651 -0.2030
 3020SOL    HW120522   1.388   3.968   4.315  1.2638  2.3228  0.9010
 3020SOL    HW220523   1.247   3.992   4.288 -1.3356  0.5232  0.5213
 3021SOL     OW20524   4.702   3.612   2.957  0.1820  0.1428  0.2043
 3021SOL    HW120525   4.655   3.693   2.976 -1.0097 -0.2405 -1.0859
 3021SOL    HW220526   4.632   3.547   2.964  0.4846 -0.1708  0.2984
 3022SOL     OW20527   1.458   2.280   7.989  0.3799 -0.1240 -0.5948
 3022SOL    HW120528   1.399   2.227   7.936  0.1408  0.9120 -1.3644
 3022SOL    HW220529   1.487   2.209   8.047 -1.7418 -1.3053 -0.9949
 3023SOL     OW20530   2.450   3.136   0.091 -0.3397  0.5517  0.3751
 3023SOL    HW120531   2.401   3.212   0.122 -0.0045  1.0852 -0.4260
 3023SOL    HW220532   2.493   3.176   0.016 -2.4487 -1.5121 -1.9216
 3024SOL     OW20533   2.592   4.715   7.484 -0.1325 -0.5600  0.7199
 3024SOL    HW120534   2.687   0.001   7.491 -0.1086 -0.5083  0.2790
 3024SOL    HW220535   2.574   4.663   7.405 -0.5641  1.9535 -0.8190
 3025SOL     OW20536   2.059   3.690   8.750  0.1033 -0.2378  0.5720
 3025SOL    HW120537   2.050   3.595   8.760 -2.0110 -0.0718  0.1752
 3025SOL    HW220538   2.154   3.694   8.743 -0.0587  2.4982  0.0220
 3026SOL     OW20539   3.625   0.462  15.635  0.0366 -0.3974  0.0401
 3026SOL    HW120540   3.641   0.372  15.607  2.3962  0.2492 -0.7042
 3026SOL    HW220541   3.714   0.496  15.621  0.7541 -1.5477  1.7535
 3027SOL     OW20542   2.064   0.404   9.633 -0.5851 -0.3145  0.3694
 3027SOL    HW120543   2.114   0.476   9.671  0.8168 -0.9853 -0.2167
 3027SOL    HW220544   2.120   0.331   9.660  1.3491  0.1951 -2.3340
 3028SOL     OW20545   2.103   1.997   1.035  0.0961 -0.4227  0.2703
 3028SOL    HW120546   2.124   2.072   1.091  2.3307 -0.2735 -0.7637
 3028SOL    HW220547   2.007   2.000   1.037  0.0975 -1.1448  1.2983
 3029SOL     OW20548   0.002   3.084   8.343  0.2470 -0.0686  0.2363
 3029SOL    HW120549   0.043   3.148   8.401 -0.7434 -0.2488  1.1231
 3029SOL    HW220550   4.640   3.117   8.343  0.2104 -0.1813  4.3916
 3030SOL     OW20551   0.344   1.184  15.252  0.0290 -0.2365 -0.0165
 3030SOL    HW120552   0.438   1.170  15.257  0.0575 -0.8130 -2.0978
 3030SOL    HW220553   0.326   1.214  15.163  0.4236  0.3835  0.1119
 3031SOL     OW20554   1.743   1.023   6.837 -0.5886 -0.3987  0.8312
 3031SOL    HW120555   1.824   1.068   6.814 -0.3958 -0.7125  0.9036
 3031SOL    HW220556   1.779   0.946   6.880  0.8875 -2.8843 -4.8792
 3032SOL     OW20557   4.503   3.297   6.420  0.1900 -0.3804  0.4112
 3032SOL    HW120558   4.474   3.387   6.439 -4.8034 -2.0490  0.8015
 3032SOL    HW220559   4.451   3.248   6.484  0.2702 -0.6672  0.2560
 3033SOL     OW20560   2.011   1.832  13.179 -0.3182  0.3891  0.1289
 3033SOL    HW120561   1.930   1.780  13.181  0.7734 -1.2086  3.1665
 3033SOL    HW220562   2.010   1.855  13.086  0.1493  0.5064  0.1551
 3034SOL     OW20563   4.293   1.905   1.736  0.1038 -0.2212 -0.2515
 3034SOL    HW120564   4.270   1.993   1.706 -2.6193 -1.4548 -1.7524
 3034SOL    HW220565   4.209   1.873   1.768 -0.8809  0.0620 -2.5446
 3035SOL     OW20566   4.655   2.951   7.398  0.4216 -0.2578 -0.2448
 3035SOL    HW120567   4.649   2.874   7.342  1.6344 -0.1824 -0.4655
 3035SOL    HW220568   4.708   3.000   7.336 -0.9894 -1.0075 -2.0406
 3036SOL     OW20569   2.162   2.342   0.390  0.2927 -0.2174  0.6393
 3036SOL    HW120570   2.088   2.304   0.343  2.8247 -0.7913 -2.8492
 3036SOL    HW220571   2.136   2.317   0.479 -2.0849 -0.6046 -0.1554
 3037SOL     OW20572   2.580   2.874  10.506  0.0912 -0.2228  0.1006
 3037SOL    HW120573   2.671   2.872  10.535 -0.0211  2.2654  0.6335
 3037SOL    HW220574   2.554   2.781  10.509  0.3847 -0.1930  3.3080
 3038SOL     OW20575   1.812   4.661   2.287  0.3316  0.1033  0.6388
 3038SOL    HW120576   1.804   4.722   2.360 -1.4823  2.0322 -1.1526
 3038SOL    HW220577   1.905   4.639   2.286  0.6548  1.4412  0.9365
 3039SOL     OW20578   1.626   4.035  14.866 -0.1281 -0.1584  0.2970
 3039SOL    HW120579   1.660   3.975  14.932 -3.1188 -1.2542  0.8379
 3039SOL    HW220580   1.539   4.000  14.849  0.7172 -1.8078 -0.6182
 3040SOL     OW20581   1.931   0.193  17.470  0.2580 -0.3814  0.4525
 3040SOL    HW120582   1.950   0.100  17.480 -0.3522 -0.4181  1.2457
 3040SOL    HW220583   1.937   0.222  17.561  1.8299 -0.2738  0.3225
 3041SOL     OW20584   4.611   4.700   6.231 -0.5497 -0.2347 -0.4491
 3041SOL    HW120585   4.608   4.724   6.138 -3.3378 -0.3982 -0.3931
 3041SOL    HW220586   4.606   4.605   6.234 -2.4489 -0.0877  0.5939
 3042SOL     OW20587   3.031   2.675   7.289  0.2472 -0.4653  0.2658
 3042SOL    HW120588   2.968   2.746   7.275 -1.3377 -2.2215 -1.5623
 3042SOL    HW220589   2.973   2.611   7.332 -1.8879  1.3397  0.0649
 3043SOL     OW20590   3.561   0.573  14.813 -0.0535  0.5960 -0.3991
 3043SOL    HW120591   3.615   0.540  14.741  1.1473 -3.3778  2.3193
 3043SOL    HW220592   3.597   0.662  14.806  0.9738  0.1869 -0.3245
 3044SOL     OW20593   1.654   4.721   9.449  0.5169 -0.2112 -0.5190
 3044SOL    HW120594   1.666   0.049   9.526  1.9112 -1.2537  0.0060
 3044SOL    HW220595   1.740   0.013   9.412  0.8265  0.4433  0.5581
 3045SOL     OW20596   3.477   4.216  16.985  0.5973  0.2593 -0.4982
 3045SOL    HW120597   3.413   4.281  17.012 -0.0324 -0.2027 -0.8593
 3045SOL    HW220598   3.522   4.264  16.915  2.4838  0.9326  1.1664
 3046SOL     OW20599   1.494   0.525   9.763 -0.4602 -0.7647  0.7564
 3046SOL    HW120600   1.567   0.575   9.800  0.0296 -0.5514 -0.4932
 3046SOL    HW220601   1.455   0.478   9.836 -1.0294 -1.9645 -0.3249
 3047SOL     OW20602   4.491   3.537  14.405  0.0991  0.1218  0.3184
 3047SOL    HW120603   4.582   3.564  14.399 -0.1928  0.5977 -1.8573
 3047SOL    HW220604   4.487   3.464  14.343  0.1070  0.7547 -0.4304
 3048SOL     OW20605   1.839   1.397   1.620  0.2890  0.1213 -0.0019
 3048SOL    HW120606   1.918   1.343   1.608 -0.1518 -0.1720 -1.5777
 3048SOL    HW220607   1.870   1.451   1.693 -2.9780  0.7127  0.9311
 3049SOL     OW20608   3.024   3.642   3.753  0.4879 -0.5473  0.4469
 3049SOL    HW120609   2.957   3.699   3.717 -0.8384 -1.1925  1.8775
 3049SOL    HW220610   2.975   3.595   3.821 -2.8510 -0.3962 -1.8540
 3050SOL     OW20611   0.281   3.683   3.550  0.5822 -0.2910  0.2997
 3050SOL    HW120612   0.303   3.769   3.586 -0.5459 -0.3477  1.1369
 3050SOL    HW220613   0.237   3.703   3.468  0.1792  2.0524  1.0799
 3051SOL     OW20614   3.336   0.148   4.166  0.2990  1.0980  0.6523
 3051SOL    HW120615   3.290   0.129   4.248  0.0103 -0.2632  0.1706
 3051SOL    HW220616   3.423   0.162   4.202 -0.1369 -0.2178  2.1976
 3052SOL     OW20617   0.655   1.054   5.385 -0.2655 -0.1177 -0.2900
 3052SOL    HW120618   0.720   0.987   5.406 -1.0626 -0.8315 -0.1105
 3052SOL    HW220619   0.606   1.080   5.462 -0.6729 -0.5072 -0.4185
 3053SOL     OW20620   4.693   4.530   9.173 -0.5808  0.3965 -0.1128
 3053SOL    HW120621   4.618   4.505   9.226 -2.0841  1.5064 -1.7328
 3053SOL    HW220622   4.677   4.620   9.144  1.1699  0.5991 -0.4738
 3054SOL     OW20623   2.922   3.364  17.238  0.5081  0.3243 -0.6003
 3054SOL    HW120624   2.862   3.431  17.271 -0.2175 -1.6346  2.0532
 3054SOL    HW220625   2.863   3.315  17.181  0.4705 -0.0782 -0.2117
 3055SOL     OW20626   1.914   4.030   4.957  0.5077  0.4815  0.0433
 3055SOL    HW120627   1.970   3.964   4.997 -0.9243  0.0386  1.2856
 3055SOL    HW220628   1.942   4.032   4.865  0.9331  3.1964  0.2254
 3056SOL     OW20629   3.137   4.434   2.637 -0.6035 -0.4233  0.1561
 3056SOL    HW120630   3.143   4.503   2.571 -1.6814 -1.2404 -0.7947
 3056SOL    HW220631   3.229   4.410   2.638 -0.7736 -1.0874 -1.3643
 3057SOL     OW20632   4.180   4.033   6.777  0.1580  0.0273 -0.2773
 3057SOL    HW120633   4.136   4.034   6.862 -1.2654  0.1497 -1.0103
 3057SOL    HW220634   4.268   4.062   6.800  0.9332 -0.6448 -2.3510
 3058SOL     OW20635   3.330   0.040   9.774  0.3488 -0.0647  0.2258
 3058SOL    HW120636   3.255   4.726   9.816 -0.9487  1.7851 -0.2799
 3058SOL    HW220637   3.308   0.133   9.767  1.1135  0.3392  3.3597
 3059SOL     OW20638   0.606   0.709   5.411  0.1865 -0.2899  0.1723
 3059SOL    HW120639   0.625   0.714   5.505 -0.7405  1.2358  0.2704
 3059SOL    HW220640   0.531   0.768   5.401  0.3664 -0.0914 -0.0054
 3060SOL     OW20641   3.202   2.727   5.297  0.4859 -0.2200  0.5035
 3060SOL    HW120642   3.292   2.701   5.315  0.3716 -1.2539 -0.4490
 3060SOL    HW220643   3.192   2.780   5.376  0.4019 -0.3517  0.5823
 3061SOL     OW20644   4.210   1.858   2.563 -0.5222 -0.0059  0.1468
 3061SOL    HW120645   4.158   1.900   2.494 -2.2057 -0.8601  0.8956
 3061SOL    HW220646   4.191   1.924   2.629 -1.2255  0.7080 -0.7641
 3062SOL     OW20647   0.354   4.515   5.926 -0.3024 -0.1401 -0.0831
 3062SOL    HW120648   0.280   4.464   5.894 -1.1133  0.7430  0.3890
 3062SOL    HW220649   0.431   4.463   5.901  0.3022  1.2594 -1.1577
 3063SOL     OW20650   0.339   3.231   5.146  0.3605 -0.3189  0.0567
 3063SOL    HW120651   0.300   3.309   5.106  0.3785 -0.7262 -0.7592
 3063SOL    HW220652   0.275   3.196   5.207 -0.4893 -0.4129 -0.8765
 3064SOL     OW20653   1.416   3.914   0.855 -0.1158  0.1411  0.2289
 3064SOL    HW120654   1.421   3.943   0.946  2.0375  2.2543 -0.5797
 3064SOL    HW220655   1.507   3.909   0.825 -0.8011 -0.2818 -1.8210
 3065SOL     OW20656   2.511   2.192   4.258 -0.3979 -0.3833  0.1466
 3065SOL    HW120657   2.481   2.108   4.224 -0.1933 -0.0794 -0.7960
 3065SOL    HW220658   2.555   2.176   4.341 -0.8426  0.3631  0.5264
 3066SOL     OW20659   1.032   4.360   6.838 -0.6431 -0.1552 -0.1791
 3066SOL    HW120660   1.064   4.449   6.854  0.6261 -0.5055 -0.7720
 3066SOL    HW220661   0.938   4.378   6.839 -0.8984 -1.6289  1.3800
 3067SOL     OW20662   3.477   1.660  14.909  0.4810 -0.0376 -0.0203
 3067SOL    HW120663   3.502   1.752  14.901 -2.1969  0.6597 -0.5026
 3067SOL    HW220664   3.414   1.658  14.836  0.7319  3.1542 -0.3292
 3068SOL     OW20665   1.487   1.498   4.821 -0.3295 -0.7122  0.6839
 3068SOL    HW120666   1.523   1.422   4.868  0.8979 -0.6453 -0.1211
 3068SOL    HW220667   1.395   1.472   4.815 -1.3457  2.7091  1.9552
 3069SOL     OW20668   2.362   3.061   0.950 -0.3401  0.0931  0.4537
 3069SOL    HW120669   2.370   2.985   0.892 -0.1412 -0.5702  1.3574
 3069SOL    HW220670   2.292   3.034   1.008  0.6965 -1.2232  1.1035
 3070SOL     OW20671   4.017   0.382  13.499  0.9639  0.0765 -0.1018
 3070SOL    HW120672   4.053   0.322  13.434 -0.0552 -2.0230  1.2643
 3070SOL    HW220673   4.044   0.467  13.464 -0.9551  1.5190  1.8427
 3071SOL     OW20674   2.261   2.818   4.215  0.6535  0.3735 -0.8595
 3071SOL    HW120675   2.221   2.736   4.245  1.3470  0.6646  0.8282
 3071SOL    HW220676   2.342   2.815   4.265  0.8942  1.1280 -1.2092
 3072SOL     OW20677   3.984   3.105  13.423  0.1955 -0.2029  0.4312
 3072SOL    HW120678   3.906   3.109  13.366  0.6023 -0.5576 -0.1534
 3072SOL    HW220679   3.975   3.018  13.462 -0.0428  0.3186  1.5325
 3073SOL     OW20680   3.747   3.057   6.879  0.1269 -0.3840  0.3396
 3073SOL    HW120681   3.835   3.042   6.846 -0.1557 -0.8533 -0.1987
 3073SOL    HW220682   3.694   3.048   6.800  1.2015 -1.0501 -0.3034
 3074SOL     OW20683   3.522   2.977  13.644  0.8625  0.3912  0.2334
 3074SOL    HW120684   3.603   2.972  13.695 -0.1206  0.8310  1.8562
 3074SOL    HW220685   3.553   2.938  13.562 -1.0667 -0.2433 -0.1974
 3075SOL     OW20686   4.285   4.007  14.075  0.2833 -0.7902  0.0895
 3075SOL    HW120687   4.280   3.918  14.040 -2.6612 -0.9577  0.9146
 3075SOL    HW220688   4.279   3.991  14.169 -2.3379  1.1406  0.2620
 3076SOL     OW20689   3.954   0.015  17.217 -0.2560  0.2438 -0.5593
 3076SOL    HW120690   3.950   4.707  17.306 -1.0725  1.2444 -0.2001
 3076SOL    HW220691   3.984   4.659  17.180  0.8552 -0.1940  1.3316
 3077SOL     OW20692   1.913   0.989   0.009  0.7125  0.3875  0.0835
 3077SOL    HW120693   1.926   0.925   0.079  1.6620  0.5578  0.0671
 3077SOL    HW220694   1.942   0.936  17.644 -1.4705 -1.0379  0.2523
 3078SOL     OW20695   3.134   0.564  16.137 -0.0472  0.2467 -0.5153
 3078SOL    HW120696   3.204   0.573  16.201 -2.0709  0.5971  1.6582
 3078SOL    HW220697   3.162   0.633  16.076  1.4669 -1.1037 -1.3437
 3079SOL     OW20698   4.322   2.846   2.127 -0.1845  0.6467  0.3923
 3079SOL    HW120699   4.317   2.940   2.142 -3.7783  0.3221  1.1817
 3079SOL    HW220700   4.405   2.824   2.168  0.1552  1.3360  0.0687
 3080SOL     OW20701   2.364   3.342  15.968  0.5649 -0.3368  0.0333
 3080SOL    HW120702   2.298   3.293  15.919  1.5754 -1.3391 -0.3315
 3080SOL    HW220703   2.390   3.289  16.044 -0.8312  0.4356  1.0553
 3081SOL     OW20704   2.141   2.516   1.639  0.0080 -0.3164  0.0847
 3081SOL    HW120705   2.130   2.600   1.684 -0.7375 -0.6109  0.4494
 3081SOL    HW220706   2.098   2.464   1.707 -0.3837  4.0081  3.1688
 3082SOL     OW20707   0.865   4.589   8.368 -0.4771 -0.1980  0.6336
 3082SOL    HW120708   0.832   4.536   8.295  0.1857 -0.7712  0.7406
 3082SOL    HW220709   0.840   4.532   8.441  0.2381  1.2376  1.9929
 3083SOL     OW20710   3.628   3.574  13.929 -0.1900  0.6386  0.1227
 3083SOL    HW120711   3.606   3.532  13.846  1.9524 -0.4045  0.0771
 3083SOL    HW220712   3.711   3.527  13.942  0.3705  2.0167  1.5331
 3084SOL     OW20713   2.607   3.701   5.890  0.4003  0.3264  0.0013
 3084SOL    HW120714   2.544   3.655   5.835  0.6823  0.6152 -0.5557
 3084SOL    HW220715   2.588   3.789   5.857 -1.4782 -0.7819 -1.8568
 3085SOL     OW20716   3.120   0.227   7.788  0.4969 -0.0479 -0.5733
 3085SOL    HW120717   3.136   0.309   7.741  0.7320 -0.3177 -0.9711
 3085SOL    HW220718   3.030   0.232   7.819  2.5298  0.3105  5.3784
 3086SOL     OW20719   0.871   4.324   5.745 -0.2200 -0.2451  0.0555
 3086SOL    HW120720   0.965   4.319   5.729 -0.5151 -0.9912 -1.3583
 3086SOL    HW220721   0.879   4.333   5.840 -0.1064  0.1651  0.0098
 3087SOL     OW20722   3.616   0.411   8.533  0.4944  0.3948 -0.2171
 3087SOL    HW120723   3.624   0.494   8.487 -2.1262  1.1324  0.6842
 3087SOL    HW220724   3.653   0.348   8.471  0.3214  0.6002 -0.5266
 3088SOL     OW20725   2.575   0.428   3.619  0.5260 -0.3657 -0.3123
 3088SOL    HW120726   2.670   0.421   3.605  0.2882 -0.6480 -1.7813
 3088SOL    HW220727   2.554   0.462   3.532 -2.8597 -0.4176  0.4978
 3089SOL     OW20728   4.098   2.787   7.726  0.2583 -0.1220  0.3231
 3089SOL    HW120729   4.102   2.723   7.655  1.0315 -2.9707  2.8873
 3089SOL    HW220730   4.013   2.766   7.764 -0.1070  1.2958  0.2963
 3090SOL     OW20731   3.526   0.177   0.851  0.0845  0.2479 -0.1445
 3090SOL    HW120732   3.526   0.128   0.769 -1.7538  0.9199 -0.5572
 3090SOL    HW220733   3.433   0.175   0.875  0.1635 -0.5663  0.0799
 3091SOL     OW20734   4.229   2.330   5.135  0.1392  0.5631 -0.7215
 3091SOL    HW120735   4.184   2.396   5.187  0.4329  2.2177 -2.5557
 3091SOL    HW220736   4.157   2.297   5.082  0.1249 -1.7741  0.7793
 3092SOL     OW20737   4.439   1.714   0.847 -0.7310  0.1831 -0.0351
 3092SOL    HW120738   4.474   1.802   0.835 -2.1221  0.7171 -0.2277
 3092SOL    HW220739   4.345   1.721   0.867 -0.8167 -0.3507 -0.2606
 3093SOL     OW20740   4.252   2.618   5.020  0.5541 -0.5585  0.4939
 3093SOL    HW120741   4.312   2.682   5.058  1.5153 -2.3759  2.0213
 3093SOL    HW220742   4.302   2.536   5.028 -1.3030 -1.5742  1.6445
 3094SOL     OW20743   4.457   4.539   2.188  0.0713  0.3136  0.3004
 3094SOL    HW120744   4.425   4.610   2.244 -0.2303 -0.2914  0.8926
 3094SOL    HW220745   4.544   4.520   2.224  0.7622  0.9016 -1.0586
 3095SOL     OW20746   0.938   2.118   7.037  0.1261  0.0077  0.3365
 3095SOL    HW120747   1.010   2.170   7.002  0.5553 -1.2602 -0.6428
 3095SOL    HW220748   0.957   2.110   7.130 -0.8988  1.4452  0.6794
 3096SOL     OW20749   1.294   3.557   9.761 -0.6633 -0.2999 -0.0334
 3096SOL    HW120750   1.285   3.649   9.785  0.6203 -1.1069  3.5519
 3096SOL    HW220751   1.254   3.515   9.837  0.4811 -0.6289  0.3833
 3097SOL     OW20752   3.394   0.661   6.929  0.4730 -0.2721 -0.0533
 3097SOL    HW120753   3.447   0.694   7.002  0.0756  0.1227  0.0594
 3097SOL    HW220754   3.426   0.700   6.848  1.0311 -0.9889 -0.1698
 3098SOL     OW20755   0.471   4.156   2.691 -0.1298  0.4654 -0.3854
 3098SOL    HW120756   0.455   4.067   2.658 -0.5044  0.7027 -0.8296
 3098SOL    HW220757   0.381   4.181   2.712 -1.4510 -3.4847 -1.2071
 3099SOL     OW20758   4.560   3.548   9.597 -0.2158  0.7923 -0.0159
 3099SOL    HW120759   4.642   3.592   9.620 -0.1513  0.0334  1.1789
 3099SOL    HW220760   4.602   3.477   9.548 -1.7440 -0.4255  0.4306
 3100SOL     OW20761   1.507   1.702   5.452 -0.4198  0.3522 -0.1917
 3100SOL    HW120762   1.519   1.624   5.506 -2.0100 -0.6182 -1.2639
 3100SOL    HW220763   1.434   1.733   5.506 -0.5229  2.0657 -1.3131
 3101SOL     OW20764   2.466   0.659   6.904  0.6062  0.7518  0.0730
 3101SOL    HW120765   2.436   0.717   6.973 -2.7573 -0.9429  0.0234
 3101SOL    HW220766   2.458   0.569   6.938  0.1019  1.6373  2.2618
 3102SOL     OW20767   2.806   2.428   5.112 -0.0961 -0.4990  0.8324
 3102SOL    HW120768   2.844   2.438   5.025  0.4135 -0.3190  1.0788
 3102SOL    HW220769   2.841   2.508   5.151  1.3543 -1.0985  0.7601
 3103SOL     OW20770   3.919   3.229   2.443  0.3614  0.0670  0.4304
 3103SOL    HW120771   3.925   3.272   2.529 -1.2719  2.6628 -0.7560
 3103SOL    HW220772   3.995   3.171   2.452  0.0204 -0.6450 -1.3978
 3104SOL     OW20773   4.459   0.975   4.973  0.1361  0.1995  0.0929
 3104SOL    HW120774   4.485   0.914   5.042  0.1480 -1.6863 -1.5662
 3104SOL    HW220775   4.474   1.060   5.015 -2.6518  2.2531 -3.0237
 3105SOL     OW20776   1.287   2.727   5.016 -0.3474 -0.3535  0.2459
 3105SOL    HW120777   1.281   2.741   5.110 -1.4493  0.0902  0.1205
 3105SOL    HW220778   1.207   2.773   4.987 -1.4489 -1.3670  1.6921
 3106SOL     OW20779   2.675   2.603  15.039  0.6663 -0.0679 -0.0455
 3106SOL    HW120780   2.632   2.678  15.080 -0.6375 -0.6312 -0.3981
 3106SOL    HW220781   2.629   2.616  14.956 -2.2106  1.6226  1.8229
 3107SOL     OW20782   4.321   2.941   6.790 -0.2375  0.2740  0.1156
 3107SOL    HW120783   4.356   2.956   6.878  0.4338 -0.1173 -0.0814
 3107SOL    HW220784   4.295   2.849   6.789 -0.4362  0.3564 -1.9472
 3108SOL     OW20785   1.872   4.598   5.853 -0.1938 -0.5699  1.1773
 3108SOL    HW120786   1.811   4.655   5.807  0.0689 -1.8954 -0.8003
 3108SOL    HW220787   1.816   4.533   5.895  0.7602 -0.7175  2.2212
 3109SOL     OW20788   4.577   0.631   2.913 -0.3176  0.0677 -0.4500
 3109SOL    HW120789   4.531   0.709   2.882  2.1249  2.1524  1.1554
 3109SOL    HW220790   4.515   0.564   2.885  0.5434 -0.9259 -0.0043
 3110SOL     OW20791   4.150   0.185   8.711 -0.1145 -0.0846  0.5538
 3110SOL    HW120792   4.233   0.144   8.737 -0.4091  0.1842  1.9406
 3110SOL    HW220793   4.132   0.246   8.783  0.9406  0.6510  0.1957
 3111SOL     OW20794   1.534   4.590   3.724 -0.6669  0.0496  0.7496
 3111SOL    HW120795   1.613   4.596   3.778 -0.3451 -0.5656  0.3549
 3111SOL    HW220796   1.581   4.555   3.648 -0.7299  0.9528  0.3023
 3112SOL     OW20797   1.556   4.339   7.329  0.0730 -0.7604  0.9293
 3112SOL    HW120798   1.622   4.270   7.334 -0.5470 -1.3079  1.6256
 3112SOL    HW220799   1.604   4.394   7.267 -0.9498 -0.2850  0.5629
 3113SOL     OW20800   1.794   0.012   9.038 -0.1350 -0.1935  0.7134
 3113SOL    HW120801   1.840   0.038   9.119  0.6069 -6.0679  2.2138
 3113SOL    HW220802   1.823   4.650   9.022  2.0001  0.8980 -1.5548
 3114SOL     OW20803   4.402   0.430   1.823  0.2700  0.1957 -0.0001
 3114SOL    HW120804   4.332   0.450   1.760 -1.1652 -1.3083  1.1296
 3114SOL    HW220805   4.396   0.335   1.834  0.1655  0.2252  0.1860
 3115SOL     OW20806   0.947   3.598  14.675 -0.4895 -0.1552 -0.5313
 3115SOL    HW120807   0.853   3.606  14.656 -0.6666 -1.5124 -0.1777
 3115SOL    HW220808   0.978   3.678  14.633  0.1950  1.3175  2.7241
 3116SOL     OW20809   0.647   1.746   8.006  0.0792 -0.0346  0.2094
 3116SOL    HW120810   0.552   1.746   7.994  0.2651  2.7221 -1.2062
 3116SOL    HW220811   0.653   1.745   8.102  1.0665  1.1869  0.1562
 3117SOL     OW20812   3.603   0.100   3.196 -0.0064 -0.4335 -0.0638
 3117SOL    HW120813   3.654   0.066   3.122  0.1882  0.6528 -0.4437
 3117SOL    HW220814   3.529   0.135   3.146 -1.0652 -0.6678  1.3601
 3118SOL     OW20815   2.528   3.002   3.300  0.2227 -0.5826  0.2728
 3118SOL    HW120816   2.510   2.908   3.300  0.9475 -0.7214  1.6427
 3118SOL    HW220817   2.595   2.990   3.233  2.8301 -0.8290  2.9298
 3119SOL     OW20818   3.065   1.191  14.817 -0.1076 -0.0543 -0.0230
 3119SOL    HW120819   3.119   1.264  14.847  0.7499 -0.8330  0.3510
 3119SOL    HW220820   3.138   1.143  14.777 -0.4397 -0.2568 -0.3921
 3120SOL     OW20821   1.876   1.333   5.972  0.0123 -0.4041 -0.4249
 3120SOL    HW120822   1.970   1.346   5.965  0.2410 -0.8223  1.8003
 3120SOL    HW220823   1.846   1.307   5.885  0.2024  0.7208 -0.8345
 3121SOL     OW20824   0.694   0.024   7.644 -0.7183  0.0692  0.0328
 3121SOL    HW120825   0.740   4.690   7.587  0.7658  1.6374 -0.4880
 3121SOL    HW220826   0.607   4.719   7.624 -0.8856  1.9593 -2.3618
 3122SOL     OW20827   1.528   4.133   2.909  0.0126 -0.0582  0.3411
 3122SOL    HW120828   1.554   4.120   3.001  2.2392  3.9496  0.2941
 3122SOL    HW220829   1.585   4.068   2.869  1.0731  0.7193  0.5586
 3123SOL     OW20830   1.507   0.821   5.255 -0.3528 -0.1959 -0.3449
 3123SOL    HW120831   1.493   0.828   5.161  0.8990 -0.6733 -0.5619
 3123SOL    HW220832   1.520   0.913   5.275  0.3749 -0.8779  2.3103
 3124SOL     OW20833   3.131   1.933   9.830 -0.4128  0.4605  0.4895
 3124SOL    HW120834   3.224   1.954   9.833  0.1632 -1.9835  0.0446
 3124SOL    HW220835   3.122   1.863   9.894 -0.3901 -0.3804 -0.4123
 3125SOL     OW20836   0.820   4.258   6.438 -0.2233  0.6313  0.3311
 3125SOL    HW120837   0.882   4.241   6.367 -0.6732  0.4410 -0.0196
 3125SOL    HW220838   0.807   4.352   6.435  0.1501  0.7228  1.5906
 3126SOL     OW20839   2.304   0.591   3.782  0.4773 -0.1839 -0.0089
 3126SOL    HW120840   2.304   0.544   3.699 -0.2747  0.5333 -0.4150
 3126SOL    HW220841   2.372   0.540   3.827  1.3257  2.4908  1.7618
 3127SOL     OW20842   1.157   3.649  13.714 -0.0096 -0.7591 -0.2493
 3127SOL    HW120843   1.104   3.579  13.675  0.6684 -1.5255  0.1934
 3127SOL    HW220844   1.089   3.710  13.742 -0.7799 -1.9328  0.4001
 3128SOL     OW20845   0.675   2.007   1.616  0.8065 -0.6622 -0.3658
 3128SOL    HW120846   0.685   1.942   1.547  1.5905 -1.7530  0.7880
 3128SOL    HW220847   0.724   1.973   1.690  0.4679 -0.6665 -0.1429
 3129SOL     OW20848   4.581   0.461   1.606 -0.3082  0.2584 -0.1490
 3129SOL    HW120849   4.518   0.424   1.669 -0.3985  0.9334  0.1575
 3129SOL    HW220850   4.517   0.526   1.577  1.7588  1.6530 -1.5964
 3130SOL     OW20851   3.420   1.132   5.652 -0.0434  0.3290  0.1040
 3130SOL    HW120852   3.429   1.164   5.741 -0.1556  2.7935 -0.7566
 3130SOL    HW220853   3.326   1.114   5.641  0.3330 -1.8726  0.4168
 3131SOL     OW20854   3.486   3.094   3.288  0.4804  0.0649 -0.2697
 3131SOL    HW120855   3.455   3.172   3.335  2.0345  0.6721 -0.2510
 3131SOL    HW220856   3.402   3.062   3.256 -0.5200  1.8463  0.5451
 3132SOL     OW20857   2.375   0.567   6.412 -0.0031 -0.0928 -0.1917
 3132SOL    HW120858   2.314   0.613   6.469 -0.7227  0.6202 -1.5321
 3132SOL    HW220859   2.425   0.643   6.383 -0.3524  0.3132  0.2691
 3133SOL     OW20860   3.509   3.817  13.556  0.1595  0.0114 -0.2086
 3133SOL    HW120861   3.459   3.783  13.482 -1.8368  1.3576  0.4990
 3133SOL    HW220862   3.455   3.885  13.595 -3.1763 -1.9961 -1.3468
 3134SOL     OW20863   1.929   1.267   2.663 -0.1384 -0.5123  0.5836
 3134SOL    HW120864   1.941   1.174   2.684  0.1795 -1.2715 -2.8914
 3134SOL    HW220865   1.863   1.265   2.594  0.5792  0.7197 -0.1462
 3135SOL     OW20866   0.699   1.615   4.750  0.1358  0.2344  0.4612
 3135SOL    HW120867   0.627   1.661   4.708 -0.0614 -2.0716 -1.6834
 3135SOL    HW220868   0.688   1.638   4.842 -0.8362 -2.9891  1.1535
 3136SOL     OW20869   2.024   0.777   2.351  0.4814 -0.3177 -0.4239
 3136SOL    HW120870   2.097   0.833   2.376  1.9594 -2.4752  0.0682
 3136SOL    HW220871   2.059   0.691   2.374 -4.9483 -2.4691  0.0284
 3137SOL     OW20872   4.096   4.179   8.502  0.2678 -0.1648  0.3716
 3137SOL    HW120873   4.024   4.116   8.497  0.3732 -0.2703  0.1425
 3137SOL    HW220874   4.168   4.121   8.525 -0.2810 -2.2467 -2.9889
 3138SOL     OW20875   0.213   0.760   6.917 -0.1221  0.6779 -0.2337
 3138SOL    HW120876   0.132   0.710   6.927  0.5483 -0.3896 -0.0228
 3138SOL    HW220877   0.183   0.850   6.922  0.1064  0.7895 -0.8366
 3139SOL     OW20878   2.803   2.044  15.078  0.0121 -0.3149 -0.1194
 3139SOL    HW120879   2.802   2.120  15.136  0.4136  0.0787 -0.6233
 3139SOL    HW220880   2.787   1.973  15.140  2.7217 -1.7048 -1.0012
 3140SOL     OW20881   0.200   2.447   8.447  0.5533  0.2719 -0.4299
 3140SOL    HW120882   0.262   2.380   8.419  0.9567  0.8836 -1.0057
 3140SOL    HW220883   0.226   2.460   8.539 -0.1588 -0.6064 -0.1051
 3141SOL     OW20884   3.444   4.241  12.697  0.6913 -0.0648 -0.3081
 3141SOL    HW120885   3.473   4.255  12.788 -1.8255  2.6847  0.0507
 3141SOL    HW220886   3.511   4.186  12.656 -0.8957 -1.7003 -0.7020
 3142SOL     OW20887   4.191   1.664  14.980  0.2090  0.3629  0.3557
 3142SOL    HW120888   4.234   1.718  15.047  0.8249  0.7732 -0.3735
 3142SOL    HW220889   4.178   1.721  14.904  0.5594  0.2609  0.2195
 3143SOL     OW20890   1.435   0.435   7.260  0.7286  0.6781 -0.6060
 3143SOL    HW120891   1.483   0.457   7.340  0.1871  2.5178 -0.7872
 3143SOL    HW220892   1.397   0.351   7.285  3.3042  0.1102  1.3414
 3144SOL     OW20893   2.417   1.217   1.153  0.0767 -0.3849  0.7255
 3144SOL    HW120894   2.404   1.249   1.242  1.1920  0.2321  0.6706
 3144SOL    HW220895   2.485   1.149   1.156  2.5204  2.1168  2.7738
 3145SOL     OW20896   3.592   1.847  15.686 -0.5253 -0.8171 -0.0079
 3145SOL    HW120897   3.522   1.783  15.674 -0.8706 -0.2712 -0.8863
 3145SOL    HW220898   3.661   1.793  15.648  1.0420  2.0038 -1.1426
 3146SOL     OW20899   4.130   3.043  16.756 -0.5840  0.0826 -0.2184
 3146SOL    HW120900   4.212   2.996  16.771 -0.9381  0.1572  1.8923
 3146SOL    HW220901   4.141   3.133  16.785 -1.5320  0.0841  0.1453
 3147SOL     OW20902   2.421   3.153   1.946 -0.5293 -0.0188  0.6368
 3147SOL    HW120903   2.433   3.069   1.902 -0.2901  1.1237 -1.4862
 3147SOL    HW220904   2.445   3.215   1.877  1.0539 -2.2524 -0.8155
 3148SOL     OW20905   1.194   4.109   6.094 -0.2219 -0.4685 -0.3077
 3148SOL    HW120906   1.260   4.048   6.127 -1.1361 -1.0030  0.4896
 3148SOL    HW220907   1.169   4.072   6.009 -0.0840  1.1271 -1.0593
 3149SOL     OW20908   2.513   0.859  12.051  0.0412  0.0571  0.1535
 3149SOL    HW120909   2.592   0.807  12.041  0.3780  0.4734  0.6868
 3149SOL    HW220910   2.491   0.850  12.144 -0.6550 -0.5749 -0.0713
 3150SOL     OW20911   0.154   3.313   5.595  0.3863  0.2140 -0.0251
 3150SOL    HW120912   0.177   3.224   5.622 -2.0806 -0.2674  0.4977
 3150SOL    HW220913   0.189   3.360   5.671 -1.6693 -0.0302  1.0876
 3151SOL     OW20914   2.575   0.959   8.216 -0.5533  0.5505 -0.1350
 3151SOL    HW120915   2.637   0.908   8.163  1.6034  2.2059  0.8052
 3151SOL    HW220916   2.585   1.049   8.185 -0.3842  0.0048 -1.6573
 3152SOL     OW20917   4.559   0.702   0.802  0.5401  0.3608  0.0722
 3152SOL    HW120918   4.532   0.793   0.814 -2.6191 -0.6826  0.8349
 3152SOL    HW220919   4.501   0.668   0.871 -0.7603  0.7216 -0.8338
 3153SOL     OW20920   4.065   4.264  10.589  0.2464  0.5691  0.2614
 3153SOL    HW120921   4.028   4.191  10.540 -1.1805  2.0500 -0.8832
 3153SOL    HW220922   4.156   4.266  10.560  0.3678 -1.2874  0.5301
 3154SOL     OW20923   0.227   0.567  12.481 -0.1965  0.0330 -0.3670
 3154SOL    HW120924   0.186   0.598  12.400  1.7574 -2.7586 -2.4341
 3154SOL    HW220925   0.322   0.561  12.468 -0.5001 -0.4705 -2.3808
 3155SOL     OW20926   0.169   0.685   7.226  0.3514  0.6739  0.5005
 3155SOL    HW120927   0.218   0.682   7.308  0.1258  0.6677  0.6382
 3155SOL    HW220928   0.220   0.743   7.170  0.6006  0.7451  0.8050
 3156SOL     OW20929   2.042   3.902   0.232 -0.3214  0.4459  0.4871
 3156SOL    HW120930   2.017   3.814   0.261  0.3656  0.2246  0.4209
 3156SOL    HW220931   1.964   3.945   0.265  0.5443  1.7955  0.7994
 3157SOL     OW20932   3.311   0.885   2.798  0.2685  0.0947 -0.2346
 3157SOL    HW120933   3.281   0.853   2.883 -1.3342  0.9326 -0.4903
 3157SOL    HW220934   3.339   0.800   2.763  3.1366  0.7555  0.4422
 3158SOL     OW20935   2.735   3.500   6.028 -0.3535  0.0429  0.1509
 3158SOL    HW120936   2.818   3.530   6.066 -1.3907  1.3942  1.3258
 3158SOL    HW220937   2.699   3.576   5.983 -0.2861 -0.0063  0.0132
 3159SOL     OW20938   1.620   1.872   8.526 -0.3910  0.2635  1.0026
 3159SOL    HW120939   1.697   1.835   8.483 -1.2369  2.0352 -2.0587
 3159SOL    HW220940   1.593   1.801   8.584 -1.7809 -0.8030 -0.9674
 3160SOL     OW20941   4.438   4.241   3.047 -0.4717 -0.1763 -0.9057
 3160SOL    HW120942   4.364   4.186   3.023  0.7083 -2.1723  0.0582
 3160SOL    HW220943   4.488   4.183   3.104  2.1598  2.3128 -0.6523
 3161SOL     OW20944   0.682   4.693  11.624 -0.3355 -0.1840  0.2549
 3161SOL    HW120945   0.659   0.047  11.580  0.3024 -0.9844 -1.5664
 3161SOL    HW220946   0.761   4.664  11.577  0.8768  1.3546  1.3488
 3162SOL     OW20947   0.802   0.972   2.967  0.0049 -0.3880  0.3137
 3162SOL    HW120948   0.725   1.000   2.918 -0.6756 -0.0679  1.5465
 3162SOL    HW220949   0.864   1.045   2.964 -1.0074  0.4849  0.4923
 3163SOL     OW20950   2.601   0.135   5.626  0.5348 -0.6301 -0.2640
 3163SOL    HW120951   2.661   0.207   5.605  0.7760 -1.2303 -1.6545
 3163SOL    HW220952   2.553   0.118   5.544 -0.0526  0.3507 -0.1224
 3164SOL     OW20953   4.094   1.279   0.161 -0.2818 -0.4501  0.6855
 3164SOL    HW120954   4.149   1.346   0.120 -2.6340 -0.3768 -2.3378
 3164SOL    HW220955   4.103   1.204   0.102  0.4530 -1.0074  1.4932
 3165SOL     OW20956   4.548   0.676   5.062 -0.2466  0.0349 -0.0938
 3165SOL    HW120957   4.576   0.586   5.050 -1.6603 -0.4610  0.3354
 3165SOL    HW220958   4.611   0.716   5.122 -0.1297 -0.5951  0.1978
 3166SOL     OW20959   3.242   0.808   9.206 -0.1317  0.1117  0.4437
 3166SOL    HW120960   3.149   0.790   9.214  0.1320 -2.1292 -1.3473
 3166SOL    HW220961   3.276   0.750   9.138  1.5748 -0.0148  1.3995
 3167SOL     OW20962   1.131   0.928   3.685 -0.0996  0.8112  0.2401
 3167SOL    HW120963   1.067   0.996   3.707 -2.8914 -1.3414 -1.1080
 3167SOL    HW220964   1.192   0.960   3.751 -1.0855  0.0618  1.5159
 3168SOL     OW20965   2.490   2.203   8.574 -0.2439 -0.4107 -0.2978
 3168SOL    HW120966   2.437   2.129   8.542 -1.0182 -0.7219  1.7278
 3168SOL    HW220967   2.494   2.178   8.666  0.5024 -0.8067 -0.4291
 3169SOL     OW20968   3.599   3.293  11.086  0.2185 -0.3331  0.3480
 3169SOL    HW120969   3.630   3.284  10.996 -0.0738  1.9907  0.0116
 3169SOL    HW220970   3.661   3.354  11.125 -0.8783  1.2888 -0.4653
 3170SOL     OW20971   2.968   2.209  17.538 -0.3849 -0.2005  0.3491
 3170SOL    HW120972   2.975   2.190  17.632 -0.5782  0.2969  0.4644
 3170SOL    HW220973   2.879   2.244  17.532  0.0150  0.7714  0.1545
 3171SOL     OW20974   0.347   4.565   6.430 -0.2991 -0.8027 -0.3678
 3171SOL    HW120975   0.427   4.616   6.443 -2.0851  1.6117  1.2115
 3171SOL    HW220976   0.317   4.591   6.343  3.5284 -0.9791 -1.7479
 3172SOL     OW20977   2.318   0.121   9.075 -0.5865 -0.3173 -0.1700
 3172SOL    HW120978   2.257   0.174   9.127 -0.7122 -0.9118  0.2838
 3172SOL    HW220979   2.271   0.112   8.992 -0.9236  1.0684 -0.1251
 3173SOL     OW20980   0.805   1.830   4.498 -0.0482  0.2776 -0.2041
 3173SOL    HW120981   0.821   1.850   4.590 -0.3759 -0.0348 -0.0796
 3173SOL    HW220982   0.882   1.870   4.458 -0.8176 -0.4829 -2.4522
 3174SOL     OW20983   4.724   0.820   8.770 -0.1100 -0.0139 -0.6535
 3174SOL    HW120984   0.075   0.850   8.817  0.3808 -3.6521  0.8717
 3174SOL    HW220985   4.699   0.752   8.833  0.6477  0.1222 -0.2078
 3175SOL     OW20986   3.890   2.210   9.339  0.1887 -0.4273 -0.1839
 3175SOL    HW120987   3.810   2.229   9.292  0.5980 -0.9261 -1.0822
 3175SOL    HW220988   3.941   2.284   9.305 -0.8928  0.3142 -0.1676
 3176SOL     OW20989   0.868   1.602   2.609  0.0457  0.3107  0.1192
 3176SOL    HW120990   0.897   1.562   2.527  0.7181  1.8122 -0.3626
 3176SOL    HW220991   0.882   1.693   2.585  2.9344 -0.2732 -0.4308
 3177SOL     OW20992   0.152   1.201  11.212  0.3078 -0.4273 -0.3664
 3177SOL    HW120993   0.206   1.251  11.273  1.2931 -0.1142 -1.4854
 3177SOL    HW220994   0.138   1.121  11.261 -0.4830 -0.3498 -0.4653
 3178SOL     OW20995   1.947   0.718   0.725 -0.1959  0.2944  0.3051
 3178SOL    HW120996   1.868   0.708   0.778  1.3190 -3.3841  1.8787
 3178SOL    HW220997   2.013   0.684   0.785 -0.7035 -2.7412 -0.8638
 3179SOL     OW20998   1.175   0.115   9.484  0.1709  0.4114 -0.1011
 3179SOL    HW120999   1.140   0.195   9.446  0.8520  0.9019  0.3227
 3179SOL    HW221000   1.105   0.096   9.547 -0.2653 -0.8755 -0.9707
 3180SOL     OW21001   4.472   2.045   1.215 -0.6067  0.7844 -0.0365
 3180SOL    HW121002   4.500   1.953   1.218  1.3236  1.3281 -1.7122
 3180SOL    HW221003   4.504   2.072   1.129  1.7621 -3.0412 -0.3385
 3181SOL     OW21004   2.531   4.539   4.052  0.9837  0.0831  0.0930
 3181SOL    HW121005   2.554   4.551   3.960  0.2017 -1.5519 -0.3231
 3181SOL    HW221006   2.436   4.547   4.054  1.0505  1.1003 -0.6014
 3182SOL     OW21007   1.781   1.343   6.432  0.1692  0.0922 -0.0509
 3182SOL    HW121008   1.728   1.405   6.382 -1.6245 -1.3653  0.0190
 3182SOL    HW221009   1.785   1.395   6.512  2.4690  0.9284 -0.7192
 3183SOL     OW21010   2.651   2.477   8.675 -0.0858  0.4634  0.3763
 3183SOL    HW121011   2.694   2.429   8.603  1.0326 -2.5611  3.0826
 3183SOL    HW221012   2.614   2.405   8.725 -0.1200 -0.7661 -1.4329
 3184SOL     OW21013   1.956   2.259   8.714  0.0276  0.1662 -0.2657
 3184SOL    HW121014   2.025   2.196   8.695  1.5776  1.1825  2.1176
 3184SOL    HW221015   1.915   2.263   8.627 -1.0103  1.5701  0.2942
 3185SOL     OW21016   4.417   3.458   8.345  0.1021 -0.4567 -0.2591
 3185SOL    HW121017   4.333   3.488   8.378 -0.0664 -2.0664  0.8114
 3185SOL    HW221018   4.389   3.413   8.266 -0.7331 -0.2443 -0.0798
 3186SOL     OW21019   0.939   3.154  15.206  0.7482 -0.7499  0.1536
 3186SOL    HW121020   0.972   3.177  15.293 -1.2987 -2.4582  1.3676
 3186SOL    HW221021   0.864   3.100  15.232  0.6973  0.1317  1.8670
 3187SOL     OW21022   3.327   0.903   7.412  0.3054  0.6502 -0.2100
 3187SOL    HW121023   3.313   0.861   7.497  1.4180  0.7690  0.0295
 3187SOL    HW221024   3.349   0.824   7.362 -0.5788  2.3014 -3.2180
 3188SOL     OW21025   0.705   3.528   1.133 -0.0956  0.4960 -0.3577
 3188SOL    HW121026   0.712   3.451   1.189 -0.0389  0.1901 -0.7839
 3188SOL    HW221027   0.778   3.522   1.071 -0.5169 -1.3071 -0.6655
 3189SOL     OW21028   1.637   2.393   8.912  0.0374 -0.0397  0.2856
 3189SOL    HW121029   1.678   2.475   8.882  1.0597 -0.4094  0.6844
 3189SOL    HW221030   1.553   2.429   8.941 -0.2868  0.8590 -1.7393
 3190SOL     OW21031   3.414   0.660   2.700  0.1952 -0.6422 -0.2405
 3190SOL    HW121032   3.412   0.581   2.646  1.5321 -1.3987  0.8382
 3190SOL    HW221033   3.490   0.631   2.750 -0.5373 -2.0864  0.0336
 3191SOL     OW21034   0.971   3.402   4.832 -0.1254  0.5143 -0.4360
 3191SOL    HW121035   0.926   3.444   4.905  1.3879 -1.3414  1.5725
 3191SOL    HW221036   0.909   3.343   4.790  0.2673  0.8965 -1.5382
 3192SOL     OW21037   2.572   1.811  13.342  0.1996  0.7322  0.0310
 3192SOL    HW121038   2.606   1.865  13.414  1.2113  0.0920  0.0336
 3192SOL    HW221039   2.651   1.765  13.315  0.4249  0.0379  1.8905
 3193SOL     OW21040   0.009   3.472   3.326 -0.1166  0.2517  0.0587
 3193SOL    HW121041   0.048   3.427   3.251  0.1042  1.3585 -0.4843
 3193SOL    HW221042   4.718   3.395   3.380  2.0148 -0.5251 -0.3080
 3194SOL     OW21043   3.626   1.364   3.844 -0.0705 -0.3572 -0.0129
 3194SOL    HW121044   3.673   1.348   3.926 -1.0111  0.2429  0.6439
 3194SOL    HW221045   3.696   1.380   3.781 -1.3026  2.4810 -0.6609
 3195SOL     OW21046   3.067   1.702   5.583 -0.4478  0.3126 -0.6484
 3195SOL    HW121047   2.989   1.749   5.553 -0.2428  0.6807 -0.5966
 3195SOL    HW221048   3.130   1.772   5.600 -2.0947  1.6764 -0.1806
 3196SOL     OW21049   0.142   4.338   4.906 -0.3645  0.4344  0.0219
 3196SOL    HW121050   0.215   4.397   4.891 -0.4195  0.4179 -0.3252
 3196SOL    HW221051   0.119   4.305   4.819  3.2864 -2.0251 -0.0104
 3197SOL     OW21052   4.200   0.916  14.720  0.1773  0.1198 -0.1969
 3197SOL    HW121053   4.262   0.988  14.715 -0.8029  0.9119 -0.9746
 3197SOL    HW221054   4.115   0.960  14.718  1.2477  2.3186  1.4907
 3198SOL     OW21055   2.187   0.293   3.251 -0.1383 -0.0081 -0.0983
 3198SOL    HW121056   2.203   0.337   3.168 -0.9076  0.7365  0.1438
 3198SOL    HW221057   2.264   0.237   3.250 -0.7365 -0.8231 -1.9371
 3199SOL     OW21058   4.261   2.897   9.985  0.7470  0.1962 -0.0938
 3199SOL    HW121059   4.258   2.846  10.066 -1.1441  1.2498  0.4935
 3199SOL    HW221060   4.355   2.911   9.971  0.8780  0.5781  1.1869
 3200SOL     OW21061   0.831   2.575  17.018 -0.5506 -0.1121  0.4754
 3200SOL    HW121062   0.802   2.525  16.941  1.4391 -1.0045  0.2850
 3200SOL    HW221063   0.804   2.519  17.090 -0.2390  1.0166  1.4649
 3201SOL     OW21064   0.209   1.656   5.958 -0.0382 -0.2495  0.6456
 3201SOL    HW121065   0.125   1.671   5.915 -0.2026  1.7247  1.6742
 3201SOL    HW221066   0.251   1.740   5.941  1.0221 -0.6785  1.1458
 3202SOL     OW21067   0.781   2.320  17.228  0.6464 -0.0433  0.2647
 3202SOL    HW121068   0.760   2.343  17.137 -1.9211  1.6022  1.2570
 3202SOL    HW221069   0.876   2.308  17.233  0.6488 -0.8640 -1.7451
 3203SOL     OW21070   1.458   1.012   6.057 -0.1731 -0.3058  0.6491
 3203SOL    HW121071   1.397   1.083   6.039 -1.6458 -1.7815 -0.2417
 3203SOL    HW221072   1.527   1.041   5.998  0.2949 -1.9194  0.3978
 3204SOL     OW21073   3.684   0.197  14.780 -0.1914 -0.0656  0.0659
 3204SOL    HW121074   3.732   0.274  14.812 -0.7045 -0.5874  2.0450
 3204SOL    HW221075   3.719   0.131  14.840 -0.5259  0.6231  1.0198
 3205SOL     OW21076   2.076   1.716   3.314  0.7602  0.1334 -0.3274
 3205SOL    HW121077   2.018   1.717   3.390  0.4153  2.6158 -0.6366
 3205SOL    HW221078   2.005   1.723   3.250 -0.0056 -0.4111  0.4751
 3206SOL     OW21079   1.553   3.566   5.858 -0.3792  0.0505 -0.0770
 3206SOL    HW121080   1.586   3.606   5.778  0.3516 -1.2510 -0.4189
 3206SOL    HW221081   1.535   3.478   5.827  0.6894  0.1533 -0.9681
 3207SOL     OW21082   2.994   1.099   6.895  0.0610 -0.3009 -0.2152
 3207SOL    HW121083   3.078   1.055   6.883  0.1633 -0.0772 -0.3208
 3207SOL    HW221084   2.968   1.075   6.985 -0.2558  1.7636  0.2482
 3208SOL     OW21085   1.469   1.772   4.855 -0.1136  0.3143  0.7592
 3208SOL    HW121086   1.477   1.678   4.837  0.5699  0.8784 -1.7960
 3208SOL    HW221087   1.504   1.815   4.777  1.3315 -0.2796  1.0724
 3209SOL     OW21088   3.031   2.290   4.453  0.0176 -0.2088 -0.5858
 3209SOL    HW121089   3.124   2.299   4.431 -0.0141  0.0841 -0.5954
 3209SOL    HW221090   2.987   2.316   4.373 -1.9130  0.1037  0.5918
 3210SOL     OW21091   2.196   3.153   7.408 -0.0852 -0.4795  0.6284
 3210SOL    HW121092   2.181   3.217   7.339 -0.1395 -0.7839  0.3596
 3210SOL    HW221093   2.112   3.146   7.455  0.3346 -0.9003  1.3246
 3211SOL     OW21094   1.390   1.182   0.375  0.4912 -0.3837 -0.5482
 3211SOL    HW121095   1.358   1.102   0.416 -0.3228  0.5637  0.6713
 3211SOL    HW221096   1.482   1.176   0.402  0.5075 -1.7504 -0.9449
 3212SOL     OW21097   2.805   1.839   2.296 -0.1711  0.1533  0.0168
 3212SOL    HW121098   2.747   1.805   2.364 -0.4238  1.3612  0.4133
 3212SOL    HW221099   2.836   1.764   2.244 -0.4650 -1.1298  1.7249
 3213SOL     OW21100   1.103   0.144  10.659 -0.0272  0.2220  0.3865
 3213SOL    HW121101   1.017   0.187  10.662 -0.3778 -0.6203  1.9930
 3213SOL    HW221102   1.113   0.106  10.745  2.2768 -2.9792 -1.3229
 3214SOL     OW21103   4.167   2.114   0.537  0.6872 -0.8153 -0.0383
 3214SOL    HW121104   4.137   2.039   0.588 -3.9299  2.2855  1.7373
 3214SOL    HW221105   4.181   2.090   0.445 -0.3741  1.0660 -0.7046
 3215SOL     OW21106   2.208   1.470   5.723  0.2236  0.8810  0.0096
 3215SOL    HW121107   2.304   1.468   5.718  0.0933  0.6542 -2.3294
 3215SOL    HW221108   2.199   1.422   5.806  0.1307  1.0095  0.0730
 3216SOL     OW21109   2.147   0.524   2.353 -0.3689  0.4826 -0.2117
 3216SOL    HW121110   2.113   0.447   2.306 -0.2205  0.2443  0.0752
 3216SOL    HW221111   2.229   0.489   2.389 -0.3282  1.5584  0.7124
 3217SOL     OW21112   0.977   1.237   2.255  0.0989  0.0083  0.2890
 3217SOL    HW121113   0.977   1.215   2.162 -0.4007 -1.0302  0.5320
 3217SOL    HW221114   0.966   1.153   2.298 -1.7560 -0.3843 -0.9415
 3218SOL     OW21115   1.709   1.999   2.776 -0.3261  0.2088 -0.1343
 3218SOL    HW121116   1.773   2.069   2.789 -0.1588  0.0897 -0.3220
 3218SOL    HW221117   1.755   1.935   2.831  0.1064 -0.2581 -1.0438
 3219SOL     OW21118   4.492   1.192   5.116 -0.2968  0.6153 -0.5843
 3219SOL    HW121119   4.571   1.246   5.124  1.0442 -1.5890  1.1667
 3219SOL    HW221120   4.486   1.154   5.204 -0.7902  1.5445 -0.2136
 3220SOL     OW21121   1.975   3.540   6.421 -0.3743 -0.0836 -0.2767
 3220SOL    HW121122   1.916   3.607   6.387 -0.8663  0.3399  1.3868
 3220SOL    HW221123   2.040   3.529   6.352 -0.4823 -0.5163 -0.3113
 3221SOL     OW21124   1.390   3.990   7.353 -0.0638 -0.6672 -0.1385
 3221SOL    HW121125   1.328   3.921   7.376  0.3762 -0.1741  2.6329
 3221SOL    HW221126   1.455   3.973   7.421  0.9484 -1.7659 -1.3811
 3222SOL     OW21127   1.094   4.312   3.066  0.4318 -0.2450 -0.6772
 3222SOL    HW121128   1.010   4.310   3.112  0.9150  1.6559  0.2545
 3222SOL    HW221129   1.123   4.224   3.040 -0.5423 -0.2655 -1.6979
 3223SOL     OW21130   1.848   2.180   9.221 -0.2718  0.3684  0.4668
 3223SOL    HW121131   1.849   2.179   9.125 -1.6387  0.2743  0.4578
 3223SOL    HW221132   1.916   2.113   9.229 -1.0414 -0.2505  1.9271
 3224SOL     OW21133   3.120   1.955   3.623  0.0461  0.0650  1.2475
 3224SOL    HW121134   3.070   1.932   3.544  0.7086  0.3422  0.7453
 3224SOL    HW221135   3.162   2.033   3.588  3.0143 -1.9660  0.2596
 3225SOL     OW21136   4.421   4.312   0.558 -0.1055  0.5117 -0.2102
 3225SOL    HW121137   4.429   4.331   0.652  1.0066  1.6867 -0.5444
 3225SOL    HW221138   4.384   4.224   0.562 -1.0069  0.9611  1.6270
 3226SOL     OW21139   2.818   3.710  14.616  0.1969  0.2858  0.4425
 3226SOL    HW121140   2.769   3.670  14.687 -0.6575 -1.6224 -1.2226
 3226SOL    HW221141   2.827   3.639  14.553  2.2212 -0.4193  1.5289
 3227SOL     OW21142   3.631   3.071   1.105 -0.1061 -0.0246  0.2431
 3227SOL    HW121143   3.539   3.072   1.078  0.0287  0.9905 -0.2194
 3227SOL    HW221144   3.628   3.070   1.200 -1.1696 -1.2450  0.1897
 3228SOL     OW21145   3.936   2.515  15.099 -0.4685  0.2884 -0.1999
 3228SOL    HW121146   3.860   2.513  15.158 -0.3132  0.4263  0.0034
 3228SOL    HW221147   3.971   2.427  15.108 -0.3164  0.0405 -3.3212
 3229SOL     OW21148   4.593   2.800   4.129  0.1514 -0.0315  0.6607
 3229SOL    HW121149   4.529   2.730   4.113 -1.6031  0.6154  5.0401
 3229SOL    HW221150   4.662   2.776   4.067 -0.4282  0.4016 -0.1629
 3230SOL     OW21151   1.126   4.675   6.858  0.1883 -0.3270  0.2571
 3230SOL    HW121152   1.190   4.689   6.788 -1.5090  0.3279 -1.1603
 3230SOL    HW221153   1.053   4.723   6.820 -1.7919 -1.7042  2.2834
 3231SOL     OW21154   3.901   0.137   7.475  0.6614 -0.4412  0.0782
 3231SOL    HW121155   3.854   0.220   7.488 -0.7720 -1.7099  3.1214
 3231SOL    HW221156   3.828   0.076   7.479 -1.3002  1.7906 -1.4689
 3232SOL     OW21157   0.924   2.423   4.802 -0.2656  0.1814 -0.3589
 3232SOL    HW121158   0.836   2.408   4.836  0.7271 -1.2038  1.6506
 3232SOL    HW221159   0.947   2.512   4.827 -0.5840  0.2332 -0.2498
 3233SOL     OW21160   1.827   3.229   3.070  0.0015  0.0261 -0.8178
 3233SOL    HW121161   1.918   3.229   3.042  0.4519  0.9185  0.6412
 3233SOL    HW221162   1.835   3.251   3.163 -0.9007 -0.1562 -0.7002
 3234SOL     OW21163   4.643   4.076   3.838  0.3283  0.5364  0.0589
 3234SOL    HW121164   4.727   4.070   3.884  0.4223 -1.7073 -0.3676
 3234SOL    HW221165   4.640   4.171   3.838 -2.5563  0.4243  1.2937
 3235SOL     OW21166   3.567   1.071   2.713  0.5259 -0.0816 -0.2673
 3235SOL    HW121167   3.547   1.000   2.774  0.5458  0.0374 -0.1237
 3235SOL    HW221168   3.489   1.126   2.719  1.8408  1.7600  0.0005
 3236SOL     OW21169   0.724   4.588   7.414 -0.2535 -0.5496  0.1698
 3236SOL    HW121170   0.652   4.620   7.360 -0.8496 -0.0262  1.2843
 3236SOL    HW221171   0.686   4.500   7.421 -0.3339 -0.5364 -0.1114
 3237SOL     OW21172   1.435   4.137  11.208  0.4380  0.0767 -0.2043
 3237SOL    HW121173   1.393   4.153  11.292  0.8117 -1.3928  0.2579
 3237SOL    HW221174   1.361   4.169  11.156 -0.5946  1.2752  2.0120
 3238SOL     OW21175   1.195   1.111   1.268 -0.0011 -0.0727  0.2946
 3238SOL    HW121176   1.261   1.149   1.325 -0.2559 -0.5199  0.8920
 3238SOL    HW221177   1.160   1.183   1.217  1.1397  1.2118  1.3433
 3239SOL     OW21178   2.611   4.349   7.575  0.0909  0.3236  0.1227
 3239SOL    HW121179   2.595   4.295   7.497 -3.6740 -0.0307  1.1268
 3239SOL    HW221180   2.698   4.317   7.600  0.0237  0.2770  0.2963
 3240SOL     OW21181   4.215   4.392   4.061 -0.4913  0.3012 -0.4415
 3240SOL    HW121182   4.298   4.439   4.071 -2.1304  3.4596 -1.5723
 3240SOL    HW221183   4.246   4.321   4.005 -0.6515  0.0437 -0.2000
 3241SOL     OW21184   2.026   3.506  10.580  0.2600 -0.2865 -0.4180
 3241SOL    HW121185   1.980   3.425  10.599 -0.3991 -0.0268 -0.9018
 3241SOL    HW221186   2.059   3.520  10.669 -1.1786 -0.6785  0.1815
 3242SOL     OW21187   1.014   0.159   4.170  0.1275  0.0951 -0.6105
 3242SOL    HW121188   0.937   0.207   4.140 -0.1990 -1.0111 -1.5045
 3242SOL    HW221189   0.989   0.138   4.260 -0.3777  1.4801 -0.4142
 3243SOL     OW21190   2.064   2.148   8.408  0.8416 -0.1773  0.3529
 3243SOL    HW121191   2.112   2.107   8.336  1.9498  0.4448  0.7365
 3243SOL    HW221192   2.126   2.123   8.476 -0.4979 -0.5673  1.4277
 3244SOL     OW21193   2.686   2.512   8.245 -0.4612  0.5774  0.8227
 3244SOL    HW121194   2.618   2.543   8.186  1.0737 -0.0220 -1.2590
 3244SOL    HW221195   2.647   2.430   8.275 -0.6027  0.6450  0.8193
 3245SOL     OW21196   3.220   2.256   8.778 -0.5886 -0.1395  0.5216
 3245SOL    HW121197   3.270   2.334   8.754  0.2388 -0.4822  1.1277
 3245SOL    HW221198   3.242   2.247   8.871  1.2035  0.2877  0.1323
 3246SOL     OW21199   2.391   0.684   2.082 -0.3033 -0.5308 -0.1285
 3246SOL    HW121200   2.394   0.615   2.149 -1.6283 -0.6015 -0.1333
 3246SOL    HW221201   2.418   0.765   2.125 -0.9990  0.9993 -2.5307
 3247SOL     OW21202   2.160   0.820  13.594 -0.2174  0.5022  0.0736
 3247SOL    HW121203   2.078   0.862  13.621 -1.4551 -0.5283 -2.1468
 3247SOL    HW221204   2.210   0.825  13.676  1.3341 -0.8569 -0.7907
 3248SOL     OW21205   3.157   2.098  16.287 -0.3764 -0.5331 -0.3408
 3248SOL    HW121206   3.148   2.130  16.377  1.3005 -1.1686  0.0653
 3248SOL    HW221207   3.070   2.111  16.251 -0.6801 -2.1867 -0.1827
 3249SOL     OW21208   0.517   2.579  13.191 -0.3314  0.1220 -0.0754
 3249SOL    HW121209   0.508   2.647  13.258  1.8903 -0.3378  0.6689
 3249SOL    HW221210   0.517   2.498  13.242  1.0861 -0.0648 -0.3780
 3250SOL     OW21211   3.996   1.532   6.859  0.9190  0.6225 -0.5002
 3250SOL    HW121212   3.953   1.506   6.941 -0.2726  1.7776 -0.7601
 3250SOL    HW221213   3.938   1.495   6.793  0.8097  2.8885 -1.6643
 3251SOL     OW21214   1.583   1.339  10.327 -0.4692 -0.6578 -0.2359
 3251SOL    HW121215   1.496   1.352  10.289 -0.1083 -2.2733 -1.5689
 3251SOL    HW221216   1.618   1.280  10.260 -1.1419  1.8136 -2.7724
 3252SOL     OW21217   2.596   4.485   3.794 -0.1516 -0.3217  0.0142
 3252SOL    HW121218   2.557   4.426   3.730  0.9804 -0.8291 -0.2000
 3252SOL    HW221219   2.583   4.567   3.746 -0.6791 -1.1249 -1.1955
 3253SOL     OW21220   3.115   4.326   6.442 -0.5081 -0.2862 -0.0670
 3253SOL    HW121221   3.169   4.342   6.365 -3.1335 -0.1038 -1.8817
 3253SOL    HW221222   3.162   4.251   6.478  1.1697  1.7372  2.0104
 3254SOL     OW21223   3.847   2.558   4.394 -0.1251  0.0250 -0.1574
 3254SOL    HW121224   3.894   2.579   4.475 -0.5552  0.8088 -0.1128
 3254SOL    HW221225   3.912   2.527   4.331  0.7759  0.2257  0.6724
 3255SOL     OW21226   4.061   4.271   8.206 -0.1584 -0.6305  0.4223
 3255SOL    HW121227   4.014   4.190   8.184  0.1931 -1.0986  1.4055
 3255SOL    HW221228   4.120   4.244   8.277 -0.1409 -0.7334  0.3697
 3256SOL     OW21229   3.982   3.540  11.811 -0.0995 -0.2998  0.0662
 3256SOL    HW121230   4.049   3.486  11.769  2.0523  2.1138  0.4347
 3256SOL    HW221231   3.985   3.519  11.904  0.0737 -0.7984 -0.0530
 3257SOL     OW21232   1.157   1.634   3.294 -0.0374  0.0380 -0.6316
 3257SOL    HW121233   1.106   1.564   3.253 -1.1579  1.8572 -2.3376
 3257SOL    HW221234   1.243   1.602   3.265  0.2296  0.6573 -0.5201
 3258SOL     OW21235   4.312   1.598   3.698  0.0802  0.1775 -0.3542
 3258SOL    HW121236   4.387   1.657   3.710  1.3606 -1.9380  1.9500
 3258SOL    HW221237   4.342   1.523   3.749 -1.9687 -0.3772  0.0428
 3259SOL     OW21238   1.302   2.258  17.428 -0.1310  0.0020 -0.6730
 3259SOL    HW121239   1.325   2.240  17.519 -0.7045  0.3539 -0.4591
 3259SOL    HW221240   1.313   2.170  17.391  0.5230  0.9483 -2.7116
 3260SOL     OW21241   2.757   4.135   6.270  0.7704 -0.1602  0.5119
 3260SOL    HW121242   2.726   4.046   6.287 -0.5596 -0.2140 -2.1767
 3260SOL    HW221243   2.714   4.145   6.185  0.5279 -0.4466  0.6007
 3261SOL     OW21244   0.952   1.448   4.812  0.6696 -0.3327  0.4156
 3261SOL    HW121245   0.862   1.471   4.790  0.3196 -0.7509  1.4250
 3261SOL    HW221246   0.953   1.497   4.894 -0.2311  0.3995 -0.0083
 3262SOL     OW21247   0.214   0.381   4.197  0.1363 -0.0910 -0.3396
 3262SOL    HW121248   0.270   0.389   4.275 -1.0764  2.2075  0.2975
 3262SOL    HW221249   0.166   0.303   4.226 -0.7016  0.1128 -1.1905
 3263SOL     OW21250   1.071   2.641   3.287 -0.0465  0.4062 -0.1408
 3263SOL    HW121251   1.037   2.560   3.249 -0.8731  1.2790 -1.2591
 3263SOL    HW221252   1.002   2.656   3.352 -1.5860  0.6552 -1.8250
 3264SOL     OW21253   3.106   4.229  11.042  0.1212 -0.3180  0.0118
 3264SOL    HW121254   3.112   4.134  11.029 -0.1454 -0.2624 -0.5261
 3264SOL    HW221255   3.013   4.245  11.028  0.2546  1.5736  1.3422
 3265SOL     OW21256   2.778   3.266   7.415 -0.3725 -0.3805 -0.1680
 3265SOL    HW121257   2.765   3.245   7.507  1.4163 -1.7394 -0.2221
 3265SOL    HW221258   2.814   3.184   7.383 -1.7450 -1.0797  0.0982
 3266SOL     OW21259   2.474   0.029   7.125 -0.0964 -0.1070  0.3716
 3266SOL    HW121260   2.397   4.719   7.084 -0.3971  1.1300 -0.1883
 3266SOL    HW221261   2.504   4.692   7.189  0.9561 -1.5260 -1.5258
 3267SOL     OW21262   3.142   3.852   5.208 -0.6274  0.2620  0.4737
 3267SOL    HW121263   3.082   3.887   5.275 -1.0531  0.6250 -0.0934
 3267SOL    HW221264   3.194   3.792   5.261  0.9252  0.3915 -0.9025
 3268SOL     OW21265   0.768   1.205   6.057 -0.2591  0.8232 -0.5232
 3268SOL    HW121266   0.827   1.252   6.116  0.7256 -0.5562 -0.4220
 3268SOL    HW221267   0.738   1.133   6.113 -0.4249  1.1373 -0.2043
 3269SOL     OW21268   2.337   1.237   5.051  0.3705 -0.2841  0.2539
 3269SOL    HW121269   2.407   1.212   5.112  0.7759 -0.3552 -0.2418
 3269SOL    HW221270   2.389   1.302   5.005 -1.1311  0.7413  0.0188
 3270SOL     OW21271   1.151   3.759  14.841  0.0131  0.7057  0.3279
 3270SOL    HW121272   1.056   3.750  14.843  0.0173  0.3227 -0.9796
 3270SOL    HW221273   1.171   3.674  14.802 -0.7946  0.3173  0.7637
 3271SOL     OW21274   4.547   0.892  16.807  0.3537  0.4812 -0.1650
 3271SOL    HW121275   4.490   0.904  16.731  1.8917  1.0475 -1.2383
 3271SOL    HW221276   4.505   0.951  16.869  0.4128 -1.2760  1.5393
 3272SOL     OW21277   0.026   4.394   6.005 -0.9629 -0.1341  0.5112
 3272SOL    HW121278   0.024   4.487   5.986 -0.2313 -0.3193 -0.4630
 3272SOL    HW221279   4.718   4.392   6.094  0.9825  0.3541  1.2755
 3273SOL     OW21280   3.674   4.695   2.959 -0.6882 -0.9957 -0.1128
 3273SOL    HW121281   3.731   4.629   2.920 -0.5151 -0.6652 -0.4129
 3273SOL    HW221282   3.653   0.021   2.883  1.1601 -1.4679 -0.9432
 3274SOL     OW21283   1.118   0.768   3.163 -0.0395 -0.3221 -0.3786
 3274SOL    HW121284   1.098   0.709   3.235 -2.2700  0.5916 -0.2179
 3274SOL    HW221285   1.189   0.725   3.116  0.3390  1.1605 -1.1790
 3275SOL     OW21286   2.032   0.937  16.152  0.5995 -0.3517  0.5167
 3275SOL    HW121287   2.081   1.018  16.170  0.8284 -0.1243 -1.1824
 3275SOL    HW221288   2.034   0.890  16.235  0.1078 -2.2517 -0.5661
 3276SOL     OW21289   4.106   1.777   6.774 -0.7386 -0.2637  0.2533
 3276SOL    HW121290   4.195   1.800   6.747 -0.9288  0.3864  0.1932
 3276SOL    HW221291   4.103   1.682   6.761 -0.9783 -0.1678 -0.3549
 3277SOL     OW21292   3.018   0.136   8.393 -0.0753 -0.0962 -0.4161
 3277SOL    HW121293   3.107   0.169   8.381  0.0068  0.0714  0.5726
 3277SOL    HW221294   2.997   0.179   8.476  0.2056 -1.4889  0.3734
 3278SOL     OW21295   2.893   1.800   4.615 -0.4038  0.2746 -0.3287
 3278SOL    HW121296   2.910   1.883   4.571  0.3287 -0.7128 -1.8925
 3278SOL    HW221297   2.932   1.736   4.556 -1.7814  0.5556 -1.5403
 3279SOL     OW21298   0.719   0.485  10.565 -0.3790  0.2724 -0.2430
 3279SOL    HW121299   0.695   0.398  10.534  0.1799 -0.3431  1.0660
 3279SOL    HW221300   0.747   0.517  10.479  0.7502 -0.3506 -0.1037
 3280SOL     OW21301   3.095   2.435  10.613  0.1986  0.2415  0.1740
 3280SOL    HW121302   3.049   2.423  10.530  1.5537  1.4102 -0.7484
 3280SOL    HW221303   3.162   2.501  10.594 -1.5230  2.0374  0.2382
 3281SOL     OW21304   4.034   4.481   6.711  0.0809  0.1271 -0.6340
 3281SOL    HW121305   4.037   4.571   6.743 -0.2552  0.8873 -2.7476
 3281SOL    HW221306   4.126   4.454   6.718 -0.1383 -0.4448  0.0221
 3282SOL     OW21307   1.444   1.135   1.389  0.1318 -0.7359 -0.6585
 3282SOL    HW121308   1.512   1.196   1.360 -0.1679 -0.2708 -0.3955
 3282SOL    HW221309   1.447   1.057   1.334 -1.8244 -1.6917  0.5932
 3283SOL     OW21310   1.549   4.688   3.043 -0.9496 -0.8176  1.3907
 3283SOL    HW121311   1.484   4.653   2.983 -0.3660  0.9651 -0.2655
 3283SOL    HW221312   1.550   4.613   3.103  0.2462 -0.8954  1.2733
 3284SOL     OW21313   4.398   0.537   4.558  0.4318  0.3313  0.1696
 3284SOL    HW121314   4.312   0.578   4.552 -0.4106 -1.1158  2.4188
 3284SOL    HW221315   4.432   0.573   4.640 -2.2967  0.0372  1.4269
 3285SOL     OW21316   4.620   1.824  15.612  0.5521  0.6259 -0.8686
 3285SOL    HW121317   4.686   1.881  15.571 -0.2622 -0.8003 -4.1698
 3285SOL    HW221318   4.651   1.836  15.702 -0.7636  1.6355 -0.5564
 3286SOL     OW21319   0.459   4.038  10.330 -0.0360  0.5669 -0.6764
 3286SOL    HW121320   0.498   4.103  10.271  2.1494  1.2279  1.5081
 3286SOL    HW221321   0.535   3.988  10.358 -0.1286  0.7664 -0.0707
 3287SOL     OW21322   2.594   2.893  15.008  0.0555 -0.0194  0.3339
 3287SOL    HW121323   2.553   2.902  14.922  0.3595  0.8776  0.2849
 3287SOL    HW221324   2.669   2.950  14.997  1.4780 -1.7029  1.3435
 3288SOL     OW21325   2.465   1.170   5.464  0.1854 -0.1564 -0.0779
 3288SOL    HW121326   2.512   1.117   5.529  1.2246  0.8956  0.0334
 3288SOL    HW221327   2.493   1.259   5.483  2.9469 -1.0937  0.2148
 3289SOL     OW21328   4.099   2.853  11.704 -0.1921 -0.1191 -0.1997
 3289SOL    HW121329   4.106   2.942  11.739  0.2427 -0.5276  0.7566
 3289SOL    HW221330   4.049   2.868  11.624  0.7262 -2.2203 -1.1625
 3290SOL     OW21331   3.434   0.280  14.303 -0.3541 -0.4053 -0.1755
 3290SOL    HW121332   3.436   0.224  14.381  1.6367  0.0228  0.0897
 3290SOL    HW221333   3.511   0.330  14.331 -1.3499  0.6349  0.6877
 3291SOL     OW21334   4.656   3.544   8.468  0.1810  0.1095 -0.2508
 3291SOL    HW121335   4.639   3.635   8.445  1.3744  0.3546 -0.1339
 3291SOL    HW221336   4.577   3.497   8.441 -0.2859 -0.3245  1.8293
 3292SOL     OW21337   2.682   4.476  14.475  0.1749  0.3372 -0.7090
 3292SOL    HW121338   2.766   4.431  14.471 -0.4817 -0.8677 -1.0961
 3292SOL    HW221339   2.636   4.404  14.431 -0.0875 -0.7003  1.2979
 3293SOL     OW21340   1.517   4.160   6.876  0.0947 -0.3465  0.0525
 3293SOL    HW121341   1.519   4.109   6.957  0.0339 -0.6931 -0.1644
 3293SOL    HW221342   1.442   4.214   6.898  1.0992  1.1069 -0.1120
 3294SOL     OW21343   2.981   0.482   2.972  0.2691 -0.1788  0.4492
 3294SOL    HW121344   2.946   0.571   2.968  2.2231  0.5740  0.2331
 3294SOL    HW221345   3.018   0.482   3.061 -2.3971 -1.1305  1.5676
 3295SOL     OW21346   3.760   4.242   3.020  0.7568 -0.6275  0.4128
 3295SOL    HW121347   3.852   4.268   3.019  0.2567  1.1888  1.4925
 3295SOL    HW221348   3.723   4.269   3.104  0.9615 -1.3229  0.7220
 3296SOL     OW21349   4.661   4.522   7.590  0.4614  0.2446  0.0114
 3296SOL    HW121350   4.645   4.606   7.545 -2.6080  0.2864  1.1919
 3296SOL    HW221351   4.601   4.465   7.543  0.2908  0.9202 -0.5928
 3297SOL     OW21352   0.017   1.981   0.874  0.0337  0.4507  0.1161
 3297SOL    HW121353   0.075   1.923   0.825  1.4399  1.7130  0.2679
 3297SOL    HW221354   4.658   1.974   0.835 -0.2417  0.7854  0.6567
 3298SOL     OW21355   3.227   2.284   5.062 -0.2647  0.3044  0.0759
 3298SOL    HW121356   3.206   2.369   5.023 -1.1608  0.0211 -0.0383
 3298SOL    HW221357   3.233   2.216   4.996 -0.1944  0.8470 -0.4700
 3299SOL     OW21358   0.589   0.895   7.077  0.5651  0.3898 -0.1248
 3299SOL    HW121359   0.680   0.921   7.063  0.3276  1.9783  1.3539
 3299SOL    HW221360   0.585   0.800   7.090 -0.6758  0.6878  1.7412
 3300SOL     OW21361   1.294   4.221   6.438  0.4628 -0.0265  0.4126
 3300SOL    HW121362   1.296   4.264   6.524 -0.1653  0.6930  0.0586
 3300SOL    HW221363   1.202   4.228   6.414  0.9012 -0.5762 -1.3867
 3301SOL     OW21364   1.517   3.846   6.190 -0.1501 -0.0708  0.1832
 3301SOL    HW121365   1.487   3.756   6.175  0.5916 -0.2133 -0.4855
 3301SOL    HW221366   1.480   3.867   6.275  0.0448 -2.5251  0.8628
 3302SOL     OW21367   2.935   2.759   4.950 -0.1057 -0.1012 -0.6019
 3302SOL    HW121368   3.024   2.760   4.984 -0.8467  1.7017  1.2819
 3302SOL    HW221369   2.938   2.835   4.892  1.1267 -0.0551 -0.4763
 3303SOL     OW21370   2.054   1.170   1.990  0.3346  0.1065 -0.1729
 3303SOL    HW121371   2.018   1.249   2.030  0.2698 -0.2041  0.3820
 3303SOL    HW221372   1.986   1.145   1.927  0.1220  0.1537  0.0379
 3304SOL     OW21373   1.856   2.511  17.706  0.1890  0.6530  0.2590
 3304SOL    HW121374   1.937   2.559  17.685  0.7429  1.3316  3.9552
 3304SOL    HW221375   1.790   2.572  17.673 -1.4203 -0.7359  0.9579
 3305SOL     OW21376   1.687   1.997  16.407 -0.2263  0.0954 -0.1223
 3305SOL    HW121377   1.598   2.013  16.438 -0.8641 -1.2670 -1.2389
 3305SOL    HW221378   1.729   1.957  16.484  1.3691 -1.4451 -1.8024
 3306SOL     OW21379   0.018   3.896   9.600 -0.2762 -0.0727 -0.6505
 3306SOL    HW121380   0.055   3.809   9.620 -1.1726 -0.0017  1.2995
 3306SOL    HW221381   0.087   3.953   9.633 -0.1539 -1.7984  2.0403
 3307SOL     OW21382   4.396   3.835  15.299  0.2417 -0.0350 -0.1723
 3307SOL    HW121383   4.327   3.864  15.240  1.0863  1.6193 -0.3600
 3307SOL    HW221384   4.360   3.766  15.354 -0.0086  0.3841  0.1850
 3308SOL     OW21385   2.273   4.392  12.044  0.8926  0.0564  0.0457
 3308SOL    HW121386   2.368   4.394  12.047  0.9102  0.4768 -0.7240
 3308SOL    HW221387   2.253   4.323  12.108 -1.8191 -0.0563 -0.8817
 3309SOL     OW21388   4.178   2.845  15.018  0.1721  0.0806 -0.1999
 3309SOL    HW121389   4.144   2.786  15.086 -0.3801  2.4074  1.5298
 3309SOL    HW221390   4.251   2.785  15.003 -0.0523 -1.0601  3.1154
 3310SOL     OW21391   0.616   1.167   6.298 -0.7536  0.2546 -0.3997
 3310SOL    HW121392   0.684   1.187   6.363 -1.2323 -0.7186  0.3916
 3310SOL    HW221393   0.575   1.252   6.285  0.5434  1.4342  3.3058
 3311SOL     OW21394   0.206   4.023  10.427 -0.2928  0.1308  0.7762
 3311SOL    HW121395   0.226   3.977  10.508  0.8209  2.1037  1.5901
 3311SOL    HW221396   0.291   4.022  10.383 -0.1410 -3.4380  1.1250
 3312SOL     OW21397   0.104   0.606  10.084 -0.2731 -0.2226  0.3498
 3312SOL    HW121398   0.119   0.647  10.169  1.4580  0.8645 -0.4937
 3312SOL    HW221399   0.171   0.539  10.081 -0.0322  0.0330  0.0128
 3313SOL     OW21400   4.179   0.785  17.543 -0.0089  0.0720 -0.3374
 3313SOL    HW121401   4.085   0.796  17.532  0.2287  1.2365 -1.2183
 3313SOL    HW221402   4.204   0.854  17.482 -1.0003  0.7685  0.0611
 3314SOL     OW21403   1.296   0.223   7.291 -0.2059  0.8730  0.0182
 3314SOL    HW121404   1.379   0.178   7.307 -1.2535 -1.3341 -0.6472
 3314SOL    HW221405   1.250   0.188   7.367 -0.7737  1.0669 -0.2391
 3315SOL     OW21406   4.551   3.819  12.848  0.5903  0.4077 -0.4055
 3315SOL    HW121407   4.566   3.770  12.767 -0.4108  1.7266 -1.3823
 3315SOL    HW221408   4.460   3.804  12.873  0.8713 -1.8499 -0.6829
 3316SOL     OW21409   3.039   3.097  12.301  0.7032 -0.0341 -1.0348
 3316SOL    HW121410   3.080   3.074  12.384 -2.8347  0.5403  0.8909
 3316SOL    HW221411   3.021   3.007  12.273 -0.8494 -0.0714  0.0929
 3317SOL     OW21412   3.526   2.027   7.655 -0.3061 -0.1674  0.3783
 3317SOL    HW121413   3.493   1.937   7.642  1.2321 -0.9065  1.5827
 3317SOL    HW221414   3.449   2.083   7.660  0.6550  0.9613  2.2669
 3318SOL     OW21415   3.403   1.487  10.018 -0.0497  0.5825 -0.7315
 3318SOL    HW121416   3.366   1.493   9.930  0.8245  0.9585 -1.0774
 3318SOL    HW221417   3.413   1.395  10.040 -1.8631  0.6835  0.5495
 3319SOL     OW21418   0.907   1.647  15.859 -0.3011  0.0412 -0.1716
 3319SOL    HW121419   0.878   1.636  15.769  0.7574 -1.1814 -0.3712
 3319SOL    HW221420   0.834   1.697  15.897 -0.9481  0.1143 -1.5159
 3320SOL     OW21421   0.828   4.114   6.680  0.7705 -0.1798 -0.5949
 3320SOL    HW121422   0.822   4.159   6.595  0.4947  0.0111 -0.4746
 3320SOL    HW221423   0.748   4.145   6.722 -0.7081 -0.3954 -3.2596
 3321SOL     OW21424   1.726   3.240   1.871  0.3292 -0.5012 -0.2297
 3321SOL    HW121425   1.704   3.147   1.869 -2.8371  0.2401  0.2151
 3321SOL    HW221426   1.652   3.274   1.922  0.2828  0.4169 -0.9012
 3322SOL     OW21427   1.462   3.355   4.365  0.5514 -0.1706  0.2510
 3322SOL    HW121428   1.507   3.309   4.435  2.2273  2.5768  0.9814
 3322SOL    HW221429   1.399   3.290   4.334 -0.2718 -0.1278  1.8475
 3323SOL     OW21430   0.412   1.405   8.087  0.0393 -0.2455  0.0649
 3323SOL    HW121431   0.455   1.489   8.073 -1.9725  0.0822 -4.2380
 3323SOL    HW221432   0.406   1.416   8.182 -0.6182  0.4788 -0.0607
 3324SOL     OW21433   1.221   3.806   7.409  0.6174 -0.9107  0.4476
 3324SOL    HW121434   1.171   3.846   7.338  1.0949 -2.7203 -0.9014
 3324SOL    HW221435   1.150   3.753   7.446 -0.7393  0.5433 -0.0574
 3325SOL     OW21436   0.562   0.772   4.451  0.0185 -0.6807  0.2223
 3325SOL    HW121437   0.631   0.781   4.517  1.0226  1.1516 -1.0784
 3325SOL    HW221438   0.611   0.798   4.373  0.8430 -0.2844  0.8648
 3326SOL     OW21439   0.393   0.160   9.128  0.1928  0.1866  0.1041
 3326SOL    HW121440   0.322   0.100   9.150  1.2091 -0.6036  1.2009
 3326SOL    HW221441   0.429   0.113   9.053  0.9496 -0.3061  0.7813
 3327SOL     OW21442   0.876   2.898   1.799  0.1813  0.1049  0.1576
 3327SOL    HW121443   0.890   2.944   1.881  2.6980 -0.7178  0.1707
 3327SOL    HW221444   0.913   2.813   1.821  1.6936  0.3870 -1.3063
 3328SOL     OW21445   1.685   0.560   2.572  0.4087  0.0042  0.2721
 3328SOL    HW121446   1.615   0.545   2.635  0.3724  1.8166  0.6803
 3328SOL    HW221447   1.656   0.519   2.491  0.0491  0.3396  0.2318
 3329SOL     OW21448   1.993   0.796  11.996  0.3950  0.1507 -0.2977
 3329SOL    HW121449   1.986   0.787  12.091  0.8304 -1.1231 -0.3806
 3329SOL    HW221450   1.951   0.717  11.962  0.5501  0.3818 -1.0381
 3330SOL     OW21451   0.016   1.122   1.668 -0.2405 -0.3794 -0.9591
 3330SOL    HW121452   0.001   1.195   1.608 -0.6600 -0.2951 -0.7554
 3330SOL    HW221453   4.654   1.087   1.675 -0.5591  0.8330  0.9802
 3331SOL     OW21454   0.077   1.910   2.667  0.3147  0.1332 -0.1694
 3331SOL    HW121455   0.133   1.841   2.702 -0.7058  0.7309  2.6462
 3331SOL    HW221456   4.719   1.894   2.708 -0.3243 -0.2657 -1.6360
 3332SOL     OW21457   3.902   1.442   7.333  0.1250  0.4858  0.3845
 3332SOL    HW121458   3.862   1.440   7.246  0.6878  0.5028  0.1264
 3332SOL    HW221459   3.842   1.499   7.382 -3.2836 -1.9130 -1.0948
 3333SOL     OW21460   2.413   3.118  14.326  0.2111 -0.4547  0.1772
 3333SOL    HW121461   2.336   3.080  14.283 -1.0892  1.3366  0.9586
 3333SOL    HW221462   2.461   3.139  14.246  2.4093  0.5466  1.7473
 3334SOL     OW21463   2.247   3.368  15.036 -0.3343 -0.3178 -0.1007
 3334SOL    HW121464   2.155   3.344  15.042 -0.2520 -0.0402  2.0799
 3334SOL    HW221465   2.290   3.300  15.088 -1.3927 -2.1827 -1.6463
 3335SOL     OW21466   3.595   2.574   4.336  0.1676 -0.0512  0.6439
 3335SOL    HW121467   3.686   2.565   4.363  1.2781  1.0109 -2.7725
 3335SOL    HW221468   3.595   2.564   4.241  0.2316 -0.1607  0.6547
 3336SOL     OW21469   2.162   1.414  15.819  0.4647 -0.0066 -0.7300
 3336SOL    HW121470   2.192   1.404  15.729  2.3211 -1.3979  0.0376
 3336SOL    HW221471   2.153   1.510  15.820 -2.4306 -0.2847  0.5097
 3337SOL     OW21472   3.191   3.116   7.860  0.1635  0.4081  0.0972
 3337SOL    HW121473   3.228   3.059   7.927  0.9789 -0.2977 -0.9698
 3337SOL    HW221474   3.106   3.144   7.895 -0.0113  1.3296 -1.0561
 3338SOL     OW21475   0.516   4.621   7.285 -0.2844  0.1058  0.4023
 3338SOL    HW121476   0.523   4.608   7.191 -1.8111  0.7126  0.2145
 3338SOL    HW221477   0.439   4.579   7.324 -0.7292 -0.0656 -0.6795
 3339SOL     OW21478   1.681   1.899   5.744 -0.2395 -0.2057  0.1918
 3339SOL    HW121479   1.761   1.847   5.735 -2.1372 -3.0030 -0.6869
 3339SOL    HW221480   1.663   1.892   5.838  0.8296 -0.3178  0.3819
 3340SOL     OW21481   3.889   0.739   5.229  0.9850  0.6249 -1.0501
 3340SOL    HW121482   3.798   0.752   5.255  0.9074 -1.1152 -0.4418
 3340SOL    HW221483   3.949   0.807   5.259  0.9504 -0.1957  0.8873
 3341SOL     OW21484   4.497   1.886   2.222  0.4334 -0.2705  0.1600
 3341SOL    HW121485   4.436   1.895   2.148  0.0466 -2.1264  0.2418
 3341SOL    HW221486   4.474   1.960   2.277  0.6160 -0.5433  0.6048
 3342SOL     OW21487   0.180   1.738   0.906 -0.1798 -0.9846  0.1998
 3342SOL    HW121488   0.238   1.712   0.977 -0.0236  0.9685  0.7997
 3342SOL    HW221489   0.107   1.744   0.968  1.0656  0.8962  1.5069
 3343SOL     OW21490   0.530   0.531  12.452 -0.0336 -0.2645  0.1829
 3343SOL    HW121491   0.543   0.559  12.361 -0.3747 -0.1051  0.1861
 3343SOL    HW221492   0.557   0.441  12.435  2.7396  0.7892 -1.0007
 3344SOL     OW21493   1.998   2.310   4.073  0.4012  0.0482  0.0384
 3344SOL    HW121494   1.997   2.216   4.092 -0.9466 -0.1589 -1.0685
 3344SOL    HW221495   1.925   2.345   4.124 -0.4852  1.4586 -2.1789
 3345SOL     OW21496   1.400   2.317   6.211 -1.2420 -0.3307 -0.4176
 3345SOL    HW121497   1.324   2.270   6.176  0.9133 -3.9049 -0.2874
 3345SOL    HW221498   1.431   2.239   6.258  1.0556 -0.3094 -1.8772
 3346SOL     OW21499   0.605   3.790  12.507  0.2517 -0.0966  0.0286
 3346SOL    HW121500   0.628   3.710  12.553  1.7674 -0.1804 -0.8734
 3346SOL    HW221501   0.685   3.829  12.473 -0.4356  0.9496 -0.3907
 3347SOL     OW21502   4.524   0.605  17.164 -0.1198 -0.1549 -0.3226
 3347SOL    HW121503   4.578   0.637  17.092  0.2527  0.5549  0.2751
 3347SOL    HW221504   4.480   0.680  17.206 -0.5633 -0.7245  0.2377
 3348SOL     OW21505   1.665   4.214   8.951 -0.4186 -0.0918 -0.5176
 3348SOL    HW121506   1.580   4.255   8.971  0.3267  0.8648  0.6808
 3348SOL    HW221507   1.705   4.223   9.037 -2.8201 -1.1590  0.7128
 3349SOL     OW21508   2.859   1.560   7.545  0.1830  0.0217  0.5439
 3349SOL    HW121509   2.783   1.573   7.601 -1.0208  1.4983 -1.4406
 3349SOL    HW221510   2.809   1.553   7.464 -0.2571 -0.9810  0.9042
 3350SOL     OW21511   2.707   2.216   4.044 -0.1140 -0.0032 -0.4051
 3350SOL    HW121512   2.691   2.268   3.965 -3.2679 -2.1319 -1.1685
 3350SOL    HW221513   2.638   2.245   4.104  0.8067  0.3969  0.4667
 3351SOL     OW21514   3.183   0.449   4.571  0.0381 -0.1401  0.1928
 3351SOL    HW121515   3.248   0.444   4.500 -1.2715 -0.0373 -1.0099
 3351SOL    HW221516   3.188   0.355   4.586 -1.0640  0.2447  2.8204
 3352SOL     OW21517   2.600   4.007   7.427 -0.2774 -0.6246  0.0430
 3352SOL    HW121518   2.577   3.967   7.511 -0.5205 -1.8178 -0.5773
 3352SOL    HW221519   2.646   3.932   7.389  0.5372 -0.1237  0.0401
 3353SOL     OW21520   1.693   0.687   1.989  0.4180  0.1668 -0.0585
 3353SOL    HW121521   1.606   0.655   2.013  0.6510  0.6072  1.3976
 3353SOL    HW221522   1.750   0.651   2.057  0.1631 -2.1397 -1.0777
 3354SOL     OW21523   1.480   0.502   2.751 -0.3888 -0.4139 -0.1800
 3354SOL    HW121524   1.456   0.509   2.844  0.0197  0.1110 -0.1105
 3354SOL    HW221525   1.408   0.459   2.706 -0.1504 -0.7894 -0.2068
 3355SOL     OW21526   0.287   1.940  12.941 -0.0428  0.4958  0.8017
 3355SOL    HW121527   0.223   1.991  12.890 -0.8534 -1.2860  0.0283
 3355SOL    HW221528   0.250   1.956  13.028 -3.6527  0.1643 -0.6665
 3356SOL     OW21529   3.883   2.162   7.730  0.1397 -0.0665 -0.2168
 3356SOL    HW121530   3.888   2.238   7.672 -1.6801 -0.5338 -0.9759
 3356SOL    HW221531   3.818   2.188   7.796 -0.0240  2.0622 -1.2317
 3357SOL     OW21532   3.739   4.628   2.302 -0.1164  0.1336 -0.2126
 3357SOL    HW121533   3.664   4.612   2.244 -0.8338  0.4005  0.6224
 3357SOL    HW221534   3.809   4.575   2.264  0.7285  1.1644 -0.0817
 3358SOL     OW21535   3.275   0.874   4.223  0.1975  0.3777 -0.2259
 3358SOL    HW121536   3.335   0.800   4.216 -0.6136 -0.2330 -0.7134
 3358SOL    HW221537   3.270   0.906   4.132  0.6142  4.8722  1.3358
 3359SOL     OW21538   3.274   3.103   9.490 -0.7103 -0.4185 -0.0132
 3359SOL    HW121539   3.316   3.028   9.448  0.1242  0.1071 -0.1029
 3359SOL    HW221540   3.331   3.172   9.456  0.8023 -1.1234  1.0769
 3360SOL     OW21541   0.552   0.849  16.460 -0.5021  0.0693 -0.1196
 3360SOL    HW121542   0.520   0.761  16.475  0.3448 -0.3752 -0.9304
 3360SOL    HW221543   0.479   0.905  16.488  1.3457  3.4301 -1.8806
 3361SOL     OW21544   0.525   0.005   8.659 -0.5950  0.5381  0.4275
 3361SOL    HW121545   0.552   4.700   8.573 -1.3848  1.6064 -0.2160
 3361SOL    HW221546   0.606   0.034   8.701 -0.2393 -0.8571  0.7031
 3362SOL     OW21547   2.598   1.910   9.863 -0.3379  0.2870 -0.1808
 3362SOL    HW121548   2.623   1.818   9.861 -1.0647  0.0939 -0.1330
 3362SOL    HW221549   2.680   1.958   9.846 -0.6027  0.2651 -1.4980
 3363SOL     OW21550   4.151   0.975   7.301 -0.1370 -0.4408 -0.1487
 3363SOL    HW121551   4.083   1.035   7.269 -0.7555 -1.2020 -0.2601
 3363SOL    HW221552   4.137   0.907   7.235  3.3163 -0.2416 -1.0448
 3364SOL     OW21553   1.700   1.115   8.487  0.7918 -0.2182 -0.0718
 3364SOL    HW121554   1.732   1.037   8.534 -0.2207 -0.3565  0.4003
 3364SOL    HW221555   1.776   1.172   8.487  0.6646 -0.0507 -0.3286
 3365SOL     OW21556   3.956   0.179   5.825 -0.1231  0.0960 -0.1555
 3365SOL    HW121557   3.979   0.087   5.814 -0.6637  0.4427 -4.1727
 3365SOL    HW221558   4.043   0.212   5.845  0.4242 -1.1329 -0.5455
 3366SOL     OW21559   2.487   1.796   5.045  0.1478 -0.3108  0.0087
 3366SOL    HW121560   2.552   1.765   4.982 -2.6971 -0.3834 -2.8606
 3366SOL    HW221561   2.513   1.740   5.119  1.8643  0.4862  0.0244
 3367SOL     OW21562   2.354   1.469   7.549  0.1943  0.4055 -0.0545
 3367SOL    HW121563   2.318   1.409   7.615  0.5599  1.0286  0.7130
 3367SOL    HW221564   2.375   1.539   7.611 -2.3840  0.1091  1.1661
 3368SOL     OW21565   3.903   2.220   3.324  0.4402 -0.6072  0.0603
 3368SOL    HW121566   3.859   2.180   3.248  0.8451  0.7681 -0.8951
 3368SOL    HW221567   3.980   2.268   3.293  1.4095 -1.5605  1.0192
 3369SOL     OW21568   1.743   2.162   3.861 -0.0403 -0.1223  0.1769
 3369SOL    HW121569   1.659   2.170   3.816 -1.0020  0.7834  2.1111
 3369SOL    HW221570   1.776   2.076   3.836  1.4400  0.6391 -0.4179
 3370SOL     OW21571   0.689   1.191   9.389 -0.3026  0.1146  0.0276
 3370SOL    HW121572   0.682   1.098   9.367 -4.0019  1.1892 -3.3087
 3370SOL    HW221573   0.771   1.207   9.436  0.4259 -0.0604 -1.1694
 3371SOL     OW21574   0.872   2.645   3.473  0.1173  0.2570  0.1944
 3371SOL    HW121575   0.817   2.723   3.473 -0.7421 -0.3485 -1.1018
 3371SOL    HW221576   0.808   2.574   3.465 -0.7615  1.1861 -0.9793
 3372SOL     OW21577   2.260   3.133   9.626 -0.2316 -0.0974  0.0057
 3372SOL    HW121578   2.339   3.166   9.584 -0.1236 -1.5410 -0.9218
 3372SOL    HW221579   2.271   3.039   9.609  2.6188 -0.1091  1.8834
 3373SOL     OW21580   1.415   0.380   8.739  0.0219  0.1072  0.1967
 3373SOL    HW121581   1.510   0.389   8.745  0.0995 -1.8419  1.7288
 3373SOL    HW221582   1.393   0.417   8.654 -0.9228  0.5406  0.6320
 3374SOL     OW21583   4.308   0.444   7.962 -0.0313  0.8718 -0.2146
 3374SOL    HW121584   4.307   0.366   8.017  0.8859  0.5214 -0.6861
 3374SOL    HW221585   4.214   0.449   7.947  0.0072 -0.4638 -0.8853
 3375SOL     OW21586   3.279   0.173  15.695 -0.0969  0.2603 -0.2518
 3375SOL    HW121587   3.213   0.107  15.715 -1.9177  1.8896 -0.8652
 3375SOL    HW221588   3.358   0.131  15.661  1.0606  3.1090 -1.0856
 3376SOL     OW21589   2.981   2.839   0.586  0.6249  0.1205  0.1422
 3376SOL    HW121590   3.058   2.862   0.535  0.1225 -0.7155 -0.9870
 3376SOL    HW221591   3.014   2.774   0.648 -1.2624 -0.4811  0.5379
 3377SOL     OW21592   2.359   0.898  12.870  0.2919  0.0598  0.2086
 3377SOL    HW121593   2.310   0.903  12.952 -0.4499 -1.2960 -0.1428
 3377SOL    HW221594   2.402   0.983  12.877 -1.4089  0.8371  1.2317
 3378SOL     OW21595   1.197   3.823   8.649  0.3806 -0.2551  0.4586
 3378SOL    HW121596   1.182   3.899   8.705 -1.2628  1.7175 -2.6341
 3378SOL    HW221597   1.165   3.756   8.709  0.2385  0.8694  1.6282
 3379SOL     OW21598   4.185   3.268   1.654 -0.5331 -0.1382  0.3180
 3379SOL    HW121599   4.113   3.322   1.687  0.9092  2.2681 -0.5079
 3379SOL    HW221600   4.156   3.257   1.563 -0.0467  0.4850  0.0882
 3380SOL     OW21601   4.107   1.390  13.009  0.0347 -0.1821  1.0939
 3380SOL    HW121602   4.022   1.362  13.045 -0.3577  0.3473  0.5786
 3380SOL    HW221603   4.128   1.318  12.949  1.1994  0.8878  0.2448
 3381SOL     OW21604   3.594   1.907   1.037  0.6874  0.3693  0.2153
 3381SOL    HW121605   3.661   1.909   0.969 -0.4413  0.9375 -0.8623
 3381SOL    HW221606   3.516   1.930   0.987  0.8470  1.1010  0.2947
 3382SOL     OW21607   0.469   3.395   1.039 -0.0942 -0.0542 -0.2711
 3382SOL    HW121608   0.399   3.334   1.063 -1.9693  1.0811 -2.8656
 3382SOL    HW221609   0.536   3.328   1.026  0.4031  0.5321 -0.7136
 3383SOL     OW21610   0.732   0.700  17.584 -0.6992  0.2778  0.1810
 3383SOL    HW121611   0.643   0.671  17.602 -0.0395 -1.4832  0.6555
 3383SOL    HW221612   0.722   0.780  17.532 -2.4803  0.2618  0.5227
 3384SOL     OW21613   0.958   1.890   2.869  0.0292  0.8116 -0.4244
 3384SOL    HW121614   1.002   1.857   2.790 -1.7120 -2.0338 -0.2168
 3384SOL    HW221615   0.918   1.970   2.835 -0.9992  0.9197  1.0201
 3385SOL     OW21616   4.254   3.218  10.861  0.0365  0.3131  0.0809
 3385SOL    HW121617   4.191   3.146  10.861  2.9501 -2.2832 -0.4102
 3385SOL    HW221618   4.337   3.176  10.834 -0.8621 -0.2245 -1.8582
 3386SOL     OW21619   2.601   0.465  11.448  0.7414  0.0295 -0.0928
 3386SOL    HW121620   2.631   0.554  11.433 -0.2677  0.4340  0.3165
 3386SOL    HW221621   2.637   0.411  11.377  0.9953  0.7747 -0.5249
 3387SOL     OW21622   0.288   2.828  10.861  0.1129 -0.1267  0.3571
 3387SOL    HW121623   0.279   2.922  10.849 -1.3482 -0.3865 -0.5525
 3387SOL    HW221624   0.362   2.853  10.917  1.1039  2.5659 -2.1732
 3388SOL     OW21625   3.458   3.705  11.451  0.5008  0.2308 -0.3383
 3388SOL    HW121626   3.477   3.620  11.490 -0.8920  0.2170  0.3055
 3388SOL    HW221627   3.463   3.683  11.357 -1.3125  1.4571 -0.7261
 3389SOL     OW21628   2.636   3.721   2.692 -0.3738 -0.2384  0.5835
 3389SOL    HW121629   2.609   3.708   2.601 -0.5016  0.7446  0.4757
 3389SOL    HW221630   2.716   3.771   2.679  0.7383 -1.9023  1.0987
 3390SOL     OW21631   4.530   1.467   7.577  0.3605 -0.9065 -0.1034
 3390SOL    HW121632   4.582   1.423   7.510  2.4733 -1.9578  2.2117
 3390SOL    HW221633   4.552   1.407   7.649  1.8696 -1.3163 -0.9017
 3391SOL     OW21634   2.408   0.189   7.521 -0.4532 -0.1294 -0.4179
 3391SOL    HW121635   2.427   0.155   7.608  0.8772 -0.6205 -0.8981
 3391SOL    HW221636   2.466   0.128   7.475  1.1967  1.4264 -0.4272
 3392SOL     OW21637   0.344   3.012  10.416  0.0798  0.2868  0.5682
 3392SOL    HW121638   0.258   2.999  10.457  0.6328 -1.8300  1.0767
 3392SOL    HW221639   0.316   2.982  10.330 -1.3434 -0.2034  1.1956
 3393SOL     OW21640   1.926   0.418  12.787  0.2985  0.4541 -0.2511
 3393SOL    HW121641   2.005   0.450  12.743  0.0374  0.2365 -0.8829
 3393SOL    HW221642   1.934   0.457  12.874  1.1051  2.3226 -1.1713
 3394SOL     OW21643   1.070   2.913   7.845  0.3297  0.7546  0.0314
 3394SOL    HW121644   1.070   3.008   7.833  2.4932  0.8425  0.6053
 3394SOL    HW221645   0.991   2.891   7.894 -2.0143  0.3509 -3.9130
 3395SOL     OW21646   4.241   1.868   1.176  0.1291 -0.4943  0.0965
 3395SOL    HW121647   4.171   1.930   1.195  0.5764 -0.6445  2.2988
 3395SOL    HW221648   4.269   1.845   1.265  2.1964  1.0646 -0.1571
 3396SOL     OW21649   3.486   3.296   9.412  0.7546  0.4381 -0.4374
 3396SOL    HW121650   3.499   3.295   9.317 -1.1273  0.9179 -0.6985
 3396SOL    HW221651   3.544   3.371   9.424 -0.9751  1.8622 -0.7997
 3397SOL     OW21652   0.642   2.504  14.319  0.5931 -0.2961  0.3512
 3397SOL    HW121653   0.596   2.543  14.244 -0.1761 -2.2445 -0.1793
 3397SOL    HW221654   0.599   2.419  14.326  0.9042 -0.4814  0.0346
 3398SOL     OW21655   3.585   2.458   2.268 -0.0228  0.1225 -0.6487
 3398SOL    HW121656   3.627   2.390   2.321  0.0828  1.1813  0.6256
 3398SOL    HW221657   3.631   2.445   2.185 -2.4221 -2.4972 -1.5721
 3399SOL     OW21658   3.775   1.914  17.085 -0.4384 -0.3793  0.1957
 3399SOL    HW121659   3.754   1.999  17.045 -0.2695 -1.6407 -2.5102
 3399SOL    HW221660   3.711   1.858  17.041 -0.9091 -0.5379  1.0830
 3400SOL     OW21661   3.377   0.769  16.958 -0.0491  0.2611  0.1477
 3400SOL    HW121662   3.338   0.737  17.039  0.8904  0.4810  0.6794
 3400SOL    HW221663   3.393   0.858  16.989 -1.0657  0.1237  1.0611
 3401SOL     OW21664   0.985   2.310   8.553 -0.0767 -0.6074  0.0961
 3401SOL    HW121665   0.915   2.262   8.597 -1.6382  2.6336  1.1107
 3401SOL    HW221666   1.056   2.266   8.599 -2.0605 -1.8822  1.9159
 3402SOL     OW21667   2.672   1.892   6.064  0.4490 -0.3764 -0.1358
 3402SOL    HW121668   2.585   1.892   6.103  1.0223 -0.0319  1.1663
 3402SOL    HW221669   2.698   1.800   6.076  1.4677 -0.0379  0.3382
 3403SOL     OW21670   0.797   1.728   5.239 -0.1861  0.3066  0.5504
 3403SOL    HW121671   0.806   1.646   5.287  2.4730 -1.0525 -2.2626
 3403SOL    HW221672   0.808   1.803   5.298 -0.7576 -0.6498  1.8736
 3404SOL     OW21673   1.240   2.641  17.143 -0.1590  0.0941 -0.2179
 3404SOL    HW121674   1.293   2.601  17.213 -2.9127  0.1811  1.9076
 3404SOL    HW221675   1.187   2.566  17.116  2.0361 -1.5356  0.0041
 3405SOL     OW21676   0.559   3.360   0.159 -0.0348  0.2814 -0.3924
 3405SOL    HW121677   0.585   3.351   0.067 -1.1999 -1.2802 -0.5703
 3405SOL    HW221678   0.595   3.281   0.197  3.5263  2.6568  1.2014
 3406SOL     OW21679   0.235   4.486  15.933 -0.0124  0.3518  0.0874
 3406SOL    HW121680   0.169   4.442  15.986  3.4166 -2.0801  2.2815
 3406SOL    HW221681   0.311   4.433  15.954  0.6577 -0.0918 -3.4227
 3407SOL     OW21682   2.888   4.238  12.457 -0.3481  0.5939  0.0689
 3407SOL    HW121683   2.953   4.199  12.515 -0.4667  0.3814  0.0578
 3407SOL    HW221684   2.831   4.162  12.447 -0.3946  0.6728 -0.2681
 3408SOL     OW21685   2.166   1.578   2.006 -0.6948 -0.0258  0.0413
 3408SOL    HW121686   2.241   1.552   2.060 -0.3805  2.9952  1.1011
 3408SOL    HW221687   2.142   1.656   2.057  0.6048 -0.0221  0.6473
 3409SOL     OW21688   4.256   3.421   5.897 -0.2245 -0.8061 -0.3506
 3409SOL    HW121689   4.294   3.446   5.981  0.4195 -0.5065 -0.7300
 3409SOL    HW221690   4.185   3.485   5.897  1.6989  1.3628  1.7296
 3410SOL     OW21691   2.534   3.952  17.396 -0.0739 -0.5450  0.3852
 3410SOL    HW121692   2.610   3.924  17.447 -1.0216 -2.8276  0.5483
 3410SOL    HW221693   2.560   3.956  17.304  0.5680  1.6859  0.6623
 3411SOL     OW21694   3.478   4.157  13.474 -0.5167  0.1938  0.2520
 3411SOL    HW121695   3.437   4.120  13.553 -1.3601 -0.7612 -0.6259
 3411SOL    HW221696   3.545   4.216  13.509 -0.1397 -0.8686  1.3417
 3412SOL     OW21697   1.662   0.261   2.743  0.5970  0.3295 -0.2602
 3412SOL    HW121698   1.719   0.242   2.818  0.9206 -1.1101 -0.8763
 3412SOL    HW221699   1.586   0.309   2.775 -1.0780 -3.1786  1.0036
 3413SOL     OW21700   0.125   4.544   2.037  0.8096 -0.0710  0.5778
 3413SOL    HW121701   0.081   4.609   2.091  1.9516  0.0098  1.3904
 3413SOL    HW221702   0.163   4.604   1.973 -1.1117  0.7422  0.2068
 3414SOL     OW21703   1.767   0.400   4.998  0.2846 -0.0875 -0.7964
 3414SOL    HW121704   1.745   0.325   4.943 -0.4575  0.4464 -1.2247
 3414SOL    HW221705   1.855   0.375   5.026  0.1576  0.9133  0.4684
 3415SOL     OW21706   3.754   2.064   2.845 -0.2092  0.0103 -0.0721
 3415SOL    HW121707   3.674   2.015   2.864 -0.4757  0.1074 -0.9430
 3415SOL    HW221708   3.780   2.025   2.762 -1.8156  1.3860 -1.2380
 3416SOL     OW21709   0.759   1.940  14.795 -0.5640  0.1096  0.4971
 3416SOL    HW121710   0.748   1.847  14.817 -0.1919 -0.0200  0.1367
 3416SOL    HW221711   0.852   1.933  14.773 -0.6066  1.8427 -0.1757
 3417SOL     OW21712   0.122   2.059   8.086 -0.1969  0.1007  0.5559
 3417SOL    HW121713   0.111   1.986   8.025  0.1026 -1.2331  2.0950
 3417SOL    HW221714   0.212   2.085   8.071  0.2893 -1.0378  1.5544
 3418SOL     OW21715   3.562   3.732   3.074  0.0979  0.2078  0.3278
 3418SOL    HW121716   3.621   3.699   3.142  0.2998 -1.6966 -0.7710
 3418SOL    HW221717   3.620   3.803   3.045  1.1219  0.2260  2.4467
 3419SOL     OW21718   2.791   1.062   1.940  0.0556  0.3856  0.5942
 3419SOL    HW121719   2.721   1.094   1.883  0.5340  0.9005  0.3006
 3419SOL    HW221720   2.770   0.969   1.931 -0.4845  0.5780 -0.0924
 3420SOL     OW21721   3.329   1.338   8.644  0.0872 -0.1090  0.4597
 3420SOL    HW121722   3.351   1.294   8.726  1.9937 -2.9893 -1.6191
 3420SOL    HW221723   3.398   1.307   8.586  0.2317  0.7740  0.1581
 3421SOL     OW21724   1.120   0.383   9.408 -0.1161  0.4963  0.3841
 3421SOL    HW121725   1.035   0.424   9.417  0.1934  1.2774 -0.2495
 3421SOL    HW221726   1.171   0.406   9.486 -1.9632 -0.4006  1.8364
 3422SOL     OW21727   2.203   0.483   8.550 -0.4784 -0.0029  0.0624
 3422SOL    HW121728   2.134   0.544   8.525  0.0501  1.1005  1.3019
 3422SOL    HW221729   2.174   0.410   8.495  1.3455 -1.4451  1.0346
 3423SOL     OW21730   4.506   4.006  17.593 -0.2355  0.7392  0.0176
 3423SOL    HW121731   4.523   4.068  17.664  0.9961  0.5813 -0.1402
 3423SOL    HW221732   4.541   4.043  17.512  2.8051 -1.1969  0.4425
 3424SOL     OW21733   3.189   0.304   2.027  0.2699 -0.7911  0.0634
 3424SOL    HW121734   3.121   0.365   2.056 -0.3605 -1.3613 -0.2005
 3424SOL    HW221735   3.257   0.341   2.083  1.1571  0.0089 -1.5789
 3425SOL     OW21736   1.573   2.849   7.172 -0.8892 -0.5939  0.9788
 3425SOL    HW121737   1.562   2.891   7.257  1.7198 -0.2175  1.1287
 3425SOL    HW221738   1.653   2.799   7.191  1.0803  2.7133  1.3799
 3426SOL     OW21739   3.711   2.784   1.266 -0.6512 -0.1716  0.4089
 3426SOL    HW121740   3.632   2.829   1.296 -0.3905 -1.0540  2.4303
 3426SOL    HW221741   3.694   2.696   1.299  1.3989 -0.6859  0.1249
 3427SOL     OW21742   3.100   3.685   8.942  0.9144 -0.0432 -0.4087
 3427SOL    HW121743   3.193   3.708   8.941  0.9138 -0.0607 -1.2610
 3427SOL    HW221744   3.090   3.672   8.847  2.5829 -0.2985 -0.5471
 3428SOL     OW21745   0.065   3.869  14.467  0.2009  0.1551 -0.0522
 3428SOL    HW121746   4.697   3.861  14.477  0.1909 -0.9963 -0.9798
 3428SOL    HW221747   0.098   3.836  14.550 -0.0952  1.3374  0.5292
 3429SOL     OW21748   2.056   0.129   4.315 -0.3834  0.3545 -0.3368
 3429SOL    HW121749   2.057   0.142   4.410 -4.1681  2.2803 -0.5711
 3429SOL    HW221750   2.126   0.191   4.296  1.4354 -1.0318  1.7460
 3430SOL     OW21751   1.341   0.601   6.623  0.0389  0.1836 -0.0601
 3430SOL    HW121752   1.275   0.566   6.563 -0.9285 -3.0975  2.8681
 3430SOL    HW221753   1.416   0.622   6.568 -0.2183  1.8093  0.2209
 3431SOL     OW21754   0.511   0.698   7.772  0.2911 -0.0674  0.3314
 3431SOL    HW121755   0.478   0.608   7.776 -1.7811  0.5629 -2.1052
 3431SOL    HW221756   0.429   0.747   7.775 -0.4037 -1.2241  0.3582
 3432SOL     OW21757   0.550   4.227  11.922  0.2127  0.0739  0.0749
 3432SOL    HW121758   0.615   4.284  11.879 -0.7682  1.0229 -0.1573
 3432SOL    HW221759   0.592   4.143  11.907  2.1637  0.8997  0.8705
 3433SOL     OW21760   3.477   4.609   6.776 -0.1896 -0.0214 -0.7637
 3433SOL    HW121761   3.481   4.678   6.841  1.1363 -0.1177 -0.7349
 3433SOL    HW221762   3.491   4.537   6.837  0.6417  0.5609 -0.2698
 3434SOL     OW21763   2.943   4.052   3.255 -0.4922 -1.3298  0.1859
 3434SOL    HW121764   2.959   4.111   3.182 -0.7629  0.4699  1.5568
 3434SOL    HW221765   2.968   4.109   3.328  1.6106 -0.9685 -0.8313
 3435SOL     OW21766   3.093   4.112   2.439  0.0120  0.0784 -0.4478
 3435SOL    HW121767   3.053   4.162   2.511  0.5412  2.9526 -2.1310
 3435SOL    HW221768   3.025   4.046   2.427 -1.2748  1.3005 -0.0140
 3436SOL     OW21769   4.667   3.432   0.823  0.1663  0.1786 -0.5237
 3436SOL    HW121770   4.616   3.511   0.841 -2.1502 -1.0738 -1.5677
 3436SOL    HW221771   4.600   3.363   0.821 -1.8989  2.2449 -1.1954
 3437SOL     OW21772   2.913   3.029   6.863 -0.3080  0.0534 -0.2360
 3437SOL    HW121773   2.866   3.067   6.937 -2.2378 -1.9400 -0.4174
 3437SOL    HW221774   2.941   3.103   6.809  0.6891 -0.2326 -0.1181
 3438SOL     OW21775   3.683   0.877   2.940 -0.4810  0.2169 -0.1918
 3438SOL    HW121776   3.678   0.837   2.853 -2.1607  3.0428 -1.4148
 3438SOL    HW221777   3.766   0.841   2.970 -1.2051 -0.6392  0.7812
 3439SOL     OW21778   2.320   0.597   3.267  0.1254  0.4922  0.2165
 3439SOL    HW121779   2.246   0.561   3.316 -0.0498  0.2053 -0.2569
 3439SOL    HW221780   2.300   0.689   3.284  0.8350  0.5325  0.8294
 3440SOL     OW21781   0.916   0.987   7.445  0.4537  0.2872 -0.1965
 3440SOL    HW121782   0.959   1.072   7.453  2.1132 -0.4291 -1.4312
 3440SOL    HW221783   0.835   1.009   7.399  0.8522 -0.0369 -1.0541
 3441SOL     OW21784   1.485   1.454   1.551 -0.5467  0.4376 -0.1465
 3441SOL    HW121785   1.500   1.422   1.640  0.6779  1.0373 -0.1308
 3441SOL    HW221786   1.550   1.525   1.552  1.2442 -1.2062  1.4136
 3442SOL     OW21787   2.783   4.487   1.821  0.5936 -0.2698  0.0926
 3442SOL    HW121788   2.806   4.580   1.827  2.9218 -0.7894 -0.7360
 3442SOL    HW221789   2.768   4.475   1.727  2.5565 -1.4932 -0.0647
 3443SOL     OW21790   2.037   3.751   2.561  0.0946  0.3790  0.1339
 3443SOL    HW121791   2.043   3.656   2.554  0.9627  0.3527  1.2455
 3443SOL    HW221792   1.962   3.754   2.620  0.5006 -0.5439  0.7108
 3444SOL     OW21793   1.929   3.103   1.095  0.1775  0.1601 -0.0023
 3444SOL    HW121794   1.871   3.164   1.141 -1.0335 -1.5413  0.7498
 3444SOL    HW221795   1.898   3.108   1.005 -1.6589 -0.2302  0.6101
 3445SOL     OW21796   4.563   0.190   2.664 -0.2401 -0.1006  0.2715
 3445SOL    HW121797   4.620   0.114   2.668 -0.9087 -0.6554 -0.8597
 3445SOL    HW221798   4.630   0.239   2.618 -0.2198 -0.8673 -0.5010
 3446SOL     OW21799   0.367   1.877  13.351  0.5324  0.5544  0.1505
 3446SOL    HW121800   0.295   1.907  13.296  1.8040  1.6908 -0.8978
 3446SOL    HW221801   0.324   1.812  13.406  1.9548 -0.2621  0.2996
 3447SOL     OW21802   2.635   0.205   1.871  0.4585  0.2366  0.7650
 3447SOL    HW121803   2.640   0.164   1.785  0.8211  1.1740  0.3384
 3447SOL    HW221804   2.728   0.229   1.877  0.5272 -0.1400  1.1735
 3448SOL     OW21805   1.671   1.439  11.089 -0.3868 -0.6764  0.0310
 3448SOL    HW121806   1.762   1.409  11.086 -0.3476 -0.3116 -2.5911
 3448SOL    HW221807   1.638   1.433  11.000  0.4806 -1.4721 -0.2359
 3449SOL     OW21808   2.134   0.281   2.000  0.2768  0.2018 -0.1734
 3449SOL    HW121809   2.224   0.277   1.968  0.7541  1.2117  1.0449
 3449SOL    HW221810   2.128   0.376   1.997  1.0584  0.2446 -0.5884
 3450SOL     OW21811   4.105   0.941   7.590 -0.3231 -0.2633 -0.6728
 3450SOL    HW121812   4.104   0.960   7.496  1.7730 -0.4412 -0.7217
 3450SOL    HW221813   4.190   0.978   7.613 -1.0845  1.2790 -0.3035
 3451SOL     OW21814   4.162   2.050   0.259  0.6995  0.9951  0.0044
 3451SOL    HW121815   4.257   2.048   0.243  0.0857  0.3556 -3.6701
 3451SOL    HW221816   4.120   2.024   0.177 -1.4969  1.8492  0.8587
 3452SOL     OW21817   1.183   1.023   3.428  0.1183 -0.7992  0.3263
 3452SOL    HW121818   1.097   1.062   3.410  0.3284 -0.7080 -0.4765
 3452SOL    HW221819   1.178   1.003   3.522 -1.9228 -0.3062  0.3378
 3453SOL     OW21820   0.571   0.728   9.842  0.1193  0.2041 -0.0022
 3453SOL    HW121821   0.642   0.665   9.854 -1.1399 -1.3906 -0.8366
 3453SOL    HW221822   0.518   0.710   9.920 -0.1668  0.6539 -0.0906
 3454SOL     OW21823   2.900   0.020   8.781 -0.2598  0.1988  0.2432
 3454SOL    HW121824   2.840   4.689   8.735  2.5698 -2.1062 -0.4768
 3454SOL    HW221825   2.982   4.698   8.773 -0.3518 -0.1121  1.2257
 3455SOL     OW21826   1.362   2.309  16.355  0.2474  0.0516  0.3700
 3455SOL    HW121827   1.301   2.304  16.282 -0.5241  0.5194  0.9855
 3455SOL    HW221828   1.316   2.368  16.415  1.9096  2.4253 -0.7032
 3456SOL     OW21829   1.468   2.729   3.745 -0.5514 -0.6324  0.0854
 3456SOL    HW121830   1.532   2.784   3.788 -1.9498 -0.9717  2.6173
 3456SOL    HW221831   1.417   2.689   3.816 -1.0329 -0.4117 -0.1359
 3457SOL     OW21832   4.405   4.705  11.791  0.0733 -0.1103  0.4574
 3457SOL    HW121833   4.332   4.647  11.767  1.7896 -1.8440 -0.6395
 3457SOL    HW221834   4.387   0.059  11.745  0.8029  1.1597  2.4208
 3458SOL     OW21835   1.831   3.167   0.854  0.4652  0.2481  0.0750
 3458SOL    HW121836   1.813   3.261   0.865 -0.2176 -0.0384  1.3880
 3458SOL    HW221837   1.746   3.127   0.869  1.7087 -1.8319  1.5972
 3459SOL     OW21838   3.625   3.393   8.369 -0.8300 -0.5736  0.2631
 3459SOL    HW121839   3.718   3.398   8.388 -0.7346  1.0425 -0.6579
 3459SOL    HW221840   3.614   3.298   8.375  2.0905 -0.9760 -0.7308
 3460SOL     OW21841   0.723   1.911   9.257  0.3995  0.3500  0.1399
 3460SOL    HW121842   0.759   1.924   9.170  1.1698 -0.2246  0.3790
 3460SOL    HW221843   0.786   1.960   9.311  0.5013  1.8834 -1.3616
 3461SOL     OW21844   0.206   2.762  11.308  0.1689  0.3057  0.7454
 3461SOL    HW121845   0.246   2.728  11.228  1.1509 -1.6216  2.0559
 3461SOL    HW221846   0.287   2.787  11.353  0.3003  1.0674  0.0796
 3462SOL     OW21847   1.746   2.846   8.097  0.5530 -0.2837  0.7597
 3462SOL    HW121848   1.732   2.940   8.110 -0.5394 -0.7440  2.9787
 3462SOL    HW221849   1.665   2.808   8.062  0.5251  0.3564  0.1462
 3463SOL     OW21850   0.384   3.561   3.930  0.2677 -0.5444 -0.1032
 3463SOL    HW121851   0.393   3.612   4.010  0.4572 -0.9616  0.1440
 3463SOL    HW221852   0.469   3.580   3.888  0.0117 -1.8756 -1.2264
 3464SOL     OW21853   1.096   3.593  10.864 -0.1117  0.0163 -0.3161
 3464SOL    HW121854   1.130   3.506  10.840  1.1761  0.7277 -1.1072
 3464SOL    HW221855   1.011   3.568  10.898 -0.6426  1.0650 -0.8885
 3465SOL     OW21856   2.910   0.698  15.415  0.1256  0.3691  0.0815
 3465SOL    HW121857   2.846   0.656  15.358  0.8423  1.9991 -1.9087
 3465SOL    HW221858   2.873   0.782  15.441  3.1454  1.9770 -0.8130
 3466SOL     OW21859   2.255   3.948   5.303  0.3397  0.6175  0.1581
 3466SOL    HW121860   2.255   3.921   5.395  2.8728 -1.6007 -0.5204
 3466SOL    HW221861   2.194   4.021   5.313  0.0615  0.5401 -0.9958
 3467SOL     OW21862   2.791   1.109   7.767 -0.0808  0.1126 -0.0482
 3467SOL    HW121863   2.709   1.149   7.738  0.3608  0.2469 -1.1135
 3467SOL    HW221864   2.772   1.015   7.771  0.9738 -0.1470 -1.0468
 3468SOL     OW21865   0.853   1.428   2.400 -0.2996 -0.3049 -0.2782
 3468SOL    HW121866   0.792   1.478   2.346  1.7063  2.2779 -0.1909
 3468SOL    HW221867   0.901   1.379   2.333  1.6979  2.8349 -1.1858
 3469SOL     OW21868   0.199   0.561  13.865 -0.4877  0.5060  0.1382
 3469SOL    HW121869   0.146   0.603  13.797  0.3258  1.8585  0.3479
 3469SOL    HW221870   0.134   0.537  13.931  0.5872 -1.6577  0.4372
 3470SOL     OW21871   0.044   3.652   4.760 -0.0278  0.4170  0.1278
 3470SOL    HW121872   0.129   3.622   4.726 -0.1904 -0.6172  0.6170
 3470SOL    HW221873   0.047   3.744   4.734  0.2348  1.0800  2.5067
 3471SOL     OW21874   2.378   0.637   4.894 -0.3436  0.4243 -0.6211
 3471SOL    HW121875   2.394   0.729   4.871 -0.5775  0.9454  1.3137
 3471SOL    HW221876   2.294   0.616   4.852  0.2890  1.0697 -2.2063
 3472SOL     OW21877   3.542   2.244  10.304  0.1745  0.1587 -0.5505
 3472SOL    HW121878   3.467   2.299  10.324  1.0754  1.2837 -0.2168
 3472SOL    HW221879   3.501   2.161  10.280  0.4978 -0.0051 -0.5528
 3473SOL     OW21880   1.686   0.289   9.906  0.7968  0.1182 -0.2528
 3473SOL    HW121881   1.706   0.259   9.817  0.1012  0.6224 -0.5837
 3473SOL    HW221882   1.771   0.329   9.920  0.6222 -0.0936  1.4575
 3474SOL     OW21883   3.455   3.198   5.104 -0.3511 -0.1315  0.0761
 3474SOL    HW121884   3.507   3.226   5.028 -0.7211 -2.9534 -1.2093
 3474SOL    HW221885   3.380   3.155   5.063 -1.4574  2.8527 -0.9951
 3475SOL     OW21886   3.069   0.565   5.322  0.2337 -0.1865 -0.0560
 3475SOL    HW121887   3.024   0.584   5.404 -0.5908 -1.8531 -0.1198
 3475SOL    HW221888   2.998   0.582   5.260  0.3823 -0.5180 -0.3218
 3476SOL     OW21889   1.249   0.750   9.896 -0.0945 -0.3322 -0.0046
 3476SOL    HW121890   1.287   0.701   9.969  1.4748  0.0036 -0.6111
 3476SOL    HW221891   1.322   0.810   9.878 -0.5587  0.2079 -0.0882
 3477SOL     OW21892   1.929   1.570   1.380 -0.0098 -0.2662 -0.1541
 3477SOL    HW121893   2.019   1.540   1.389  1.0780  3.2248  0.5570
 3477SOL    HW221894   1.889   1.549   1.465  1.2977  0.2531  0.5843
 3478SOL     OW21895   4.574   3.862   8.617 -0.3712  0.4863  0.3476
 3478SOL    HW121896   4.641   3.806   8.656 -1.5619 -1.1857 -0.0598
 3478SOL    HW221897   4.559   3.813   8.537 -0.2850  1.7055 -0.4207
 3479SOL     OW21898   3.902   3.568  16.386  0.0672 -0.4861  0.3107
 3479SOL    HW121899   3.950   3.512  16.325  2.3413  0.1592  1.5429
 3479SOL    HW221900   3.901   3.513  16.465  0.2738  0.0372  0.6739
 3480SOL     OW21901   1.549   4.618   1.748 -0.1749 -0.2531  0.0910
 3480SOL    HW121902   1.614   4.639   1.681 -1.3087  0.9819 -0.6113
 3480SOL    HW221903   1.609   4.594   1.819 -0.4940 -2.3967 -0.3790
 3481SOL     OW21904   4.558   0.617   7.053  0.0650 -0.2460 -0.1849
 3481SOL    HW121905   4.567   0.670   7.133 -1.7286  0.1504 -0.2356
 3481SOL    HW221906   4.462   0.616   7.048  0.0122 -0.4978  0.8228
 3482SOL     OW21907   2.822   3.562   2.324  0.6785  0.2520 -0.2058
 3482SOL    HW121908   2.881   3.514   2.383 -2.0954 -1.2243  1.4034
 3482SOL    HW221909   2.738   3.565   2.371  1.3232 -1.8077  1.0895
 3483SOL     OW21910   4.636   1.177   4.718  0.3509  0.1694  0.0986
 3483SOL    HW121911   4.563   1.232   4.746  1.9533  1.5834  1.4511
 3483SOL    HW221912   4.628   1.185   4.623 -2.0709 -0.8616  0.2024
 3484SOL     OW21913   4.088   1.989   2.380 -0.1254 -0.1684 -0.2408
 3484SOL    HW121914   4.049   1.915   2.335 -0.0748  0.4871 -1.3514
 3484SOL    HW221915   4.027   2.050   2.339 -2.0671 -2.8410 -1.3021
 3485SOL     OW21916   3.326   1.606   3.095  0.0795  0.3576  0.6527
 3485SOL    HW121917   3.320   1.624   3.001  0.2264 -0.0794  0.5605
 3485SOL    HW221918   3.236   1.574   3.106 -0.0509  0.6706  0.5077
 3486SOL     OW21919   1.892   0.857   8.302 -1.0728 -0.1469  0.3615
 3486SOL    HW121920   1.981   0.891   8.300 -0.7042 -1.0751  0.7901
 3486SOL    HW221921   1.852   0.902   8.377 -1.3575 -1.8437  1.2303
 3487SOL     OW21922   0.548   3.981   6.512  0.3846  0.4510  0.2985
 3487SOL    HW121923   0.493   3.910   6.481 -2.4237  1.8991  1.9247
 3487SOL    HW221924   0.631   3.963   6.469  0.5941 -0.2912  1.0186
 3488SOL     OW21925   0.770   1.108   4.471 -0.0308 -0.3872  0.5097
 3488SOL    HW121926   0.817   1.137   4.393  0.6852  0.1735  1.1569
 3488SOL    HW221927   0.847   1.112   4.527 -0.6623 -0.8385  1.4099
 3489SOL     OW21928   0.986   4.317   2.080  0.3398 -0.1193  0.7251
 3489SOL    HW121929   0.981   4.314   2.175 -0.3391  1.1855  0.7337
 3489SOL    HW221930   0.933   4.394   2.061  0.5072 -0.5767 -1.6792
 3490SOL     OW21931   4.235   2.097   2.997 -0.1439  0.2993  0.3192
 3490SOL    HW121932   4.237   2.190   3.021 -2.6196  0.3959  0.2213
 3490SOL    HW221933   4.187   2.061   3.072  1.0381  3.1835  2.4570
 3491SOL     OW21934   2.182   0.884   4.908 -0.8832  0.4356  0.0471
 3491SOL    HW121935   2.161   0.918   4.821 -1.9820 -1.9007 -0.6107
 3491SOL    HW221936   2.268   0.919   4.928  0.1930 -2.5362  0.7029
 3492SOL     OW21937   2.457   3.160  11.017 -0.1241  0.2878  0.7818
 3492SOL    HW121938   2.438   3.071  10.987  1.6059  0.4911 -0.9349
 3492SOL    HW221939   2.497   3.153  11.104  1.4229  1.8188  0.1858
 3493SOL     OW21940   4.213   2.404   3.593  0.1143  0.2251  0.1059
 3493SOL    HW121941   4.202   2.313   3.620 -2.9254 -0.0097 -1.8224
 3493SOL    HW221942   4.131   2.407   3.544 -0.0779  1.0332  0.4809
 3494SOL     OW21943   1.508   2.511   8.125 -0.3005 -0.6001 -0.4122
 3494SOL    HW121944   1.488   2.462   8.045 -0.7603 -0.5985 -0.2983
 3494SOL    HW221945   1.500   2.439   8.188  1.4236  0.1960  0.7001
 3495SOL     OW21946   1.486   1.503  13.262 -0.2234 -0.5533 -0.1541
 3495SOL    HW121947   1.574   1.508  13.225 -0.5056 -2.0345 -1.0337
 3495SOL    HW221948   1.445   1.486  13.177 -2.1705 -1.8578  1.0303
 3496SOL     OW21949   1.838   4.616  13.129 -0.1931 -0.3991 -0.0196
 3496SOL    HW121950   1.769   4.552  13.113  1.1247 -1.5094 -1.2670
 3496SOL    HW221951   1.915   4.558  13.138  0.0222 -0.1929 -0.5882
 3497SOL     OW21952   3.973   3.352   5.863  0.0157 -0.2053  0.2761
 3497SOL    HW121953   3.906   3.293   5.828 -0.4390  2.1013 -2.7294
 3497SOL    HW221954   4.051   3.303   5.837 -0.0177 -0.0009 -0.2078
 3498SOL     OW21955   1.803   0.591   7.754  0.0751 -0.3839  0.2517
 3498SOL    HW121956   1.822   0.683   7.771  0.3208 -0.0880 -1.5832
 3498SOL    HW221957   1.770   0.602   7.665  1.6585 -1.0956 -0.4277
 3499SOL     OW21958   4.518   3.203   5.518 -0.0339  0.6919  0.4570
 3499SOL    HW121959   4.492   3.214   5.609 -0.9187  1.0587  0.1483
 3499SOL    HW221960   4.595   3.260   5.514 -0.2651  0.7390 -3.2846
 3500SOL     OW21961   3.877   4.413   2.205  0.3527  0.3357 -0.0882
 3500SOL    HW121962   3.814   4.387   2.137  2.4872 -1.0759 -1.5359
 3500SOL    HW221963   3.855   4.343   2.266 -0.2729  1.0366  0.4903
 3501SOL     OW21964   4.662   2.843   1.499 -0.0238  0.0249 -0.0857
 3501SOL    HW121965   4.621   2.782   1.559 -1.3835  1.9785  0.9633
 3501SOL    HW221966   4.655   2.923   1.552  2.2935 -0.4902  0.9861
 3502SOL     OW21967   3.249   3.473   9.466 -0.2595 -0.0955 -0.1654
 3502SOL    HW121968   3.323   3.418   9.489 -0.1483 -0.1508 -0.6519
 3502SOL    HW221969   3.219   3.426   9.388 -1.1665 -2.6053  1.7143
 3503SOL     OW21970   0.182   1.280   5.676 -0.6157 -0.4346 -0.1400
 3503SOL    HW121971   0.161   1.295   5.583 -0.4133  1.0019  0.0548
 3503SOL    HW221972   0.244   1.349   5.696 -0.8270 -0.3322  0.1589
 3504SOL     OW21973   0.647   0.053   6.922 -0.2930 -0.1329  0.0647
 3504SOL    HW121974   0.601   0.137   6.919  1.6894  0.9150 -0.8097
 3504SOL    HW221975   0.700   0.055   7.002  0.7278  0.7606 -0.6316
 3505SOL     OW21976   4.526   4.631  13.812 -0.1443 -0.5866 -1.0503
 3505SOL    HW121977   4.488   4.604  13.728 -1.5673 -1.2583 -0.1862
 3505SOL    HW221978   4.616   4.597  13.811 -0.1300 -0.5676  0.1950
 3506SOL     OW21979   0.138   0.954   6.246  0.2525 -0.3336  0.2336
 3506SOL    HW121980   0.098   0.974   6.161  2.3741  0.0424 -0.6595
 3506SOL    HW221981   0.220   1.002   6.249 -0.6305  0.9555  3.2003
 3507SOL     OW21982   2.309   4.236   5.789 -0.0415 -0.5393 -0.1143
 3507SOL    HW121983   2.310   4.143   5.812 -0.1914  0.0990  2.4743
 3507SOL    HW221984   2.351   4.227   5.703 -1.2641 -3.4312 -0.4268
 3508SOL     OW21985   2.755   2.831   0.761  0.0028 -0.4167 -0.5497
 3508SOL    HW121986   2.830   2.855   0.707  0.5600  0.2501  0.5343
 3508SOL    HW221987   2.685   2.856   0.701  0.7909 -0.4107 -1.4625
 3509SOL     OW21988   3.661   2.508   9.650 -0.8229 -1.0482  0.1034
 3509SOL    HW121989   3.745   2.498   9.694 -0.3757 -1.0956 -0.7455
 3509SOL    HW221990   3.692   2.514   9.559  1.0848 -0.4387  0.7832
 3510SOL     OW21991   0.335   2.054   4.816  0.1455  0.1094  0.3289
 3510SOL    HW121992   0.339   1.983   4.751  1.3856  0.2540  0.2488
 3510SOL    HW221993   0.251   2.032   4.857  0.3009 -1.1211 -0.0180
 3511SOL     OW21994   0.171   0.029   3.567  0.9888  0.1299  0.0466
 3511SOL    HW121995   0.182   0.103   3.509  0.9838 -0.8910 -1.2591
 3511SOL    HW221996   0.081   0.047   3.594 -0.2536 -2.4990 -2.2944
 3512SOL     OW21997   2.951   1.130   8.336  0.6562 -0.0365 -0.5989
 3512SOL    HW121998   2.942   1.037   8.359 -0.9901  0.4914  0.9345
 3512SOL    HW221999   3.020   1.116   8.271 -0.6775 -0.1988 -1.9988
 3513SOL     OW22000   0.053   1.545   5.088 -0.0786 -0.3005  0.5637
 3513SOL    HW122001   0.046   1.451   5.104 -2.6401 -0.5245 -1.9844
 3513SOL    HW222002   4.687   1.564   5.084  0.1369  0.1949 -2.1945
 3514SOL     OW22003   3.456   0.646  15.499 -0.4028 -0.3021 -0.1103
 3514SOL    HW122004   3.387   0.579  15.507  0.3238 -0.8821  1.4338
 3514SOL    HW222005   3.524   0.597  15.545 -1.4392 -0.1265  1.6493
 3515SOL     OW22006   3.042   0.635   4.749 -0.0092  0.2149 -0.1876
 3515SOL    HW122007   3.114   0.645   4.811  0.7875 -1.4233 -0.8540
 3515SOL    HW222008   3.080   0.578   4.682 -1.2125 -2.0310  1.0604
 3516SOL     OW22009   1.101   1.483   1.860  0.2357 -0.9579 -0.1106
 3516SOL    HW122010   1.139   1.553   1.913  0.0653 -1.0160  0.0903
 3516SOL    HW222011   1.175   1.461   1.804  0.6525  1.7038 -0.5727
 3517SOL     OW22012   0.293   1.123  13.101 -0.1958 -0.3583  0.1245
 3517SOL    HW122013   0.203   1.133  13.133  0.3638 -0.5659  1.7605
 3517SOL    HW222014   0.335   1.208  13.113 -0.9466 -0.3381  2.6560
 3518SOL     OW22015   0.455   2.537   6.464  0.0726 -0.6826  0.4616
 3518SOL    HW122016   0.535   2.581   6.434 -1.2425  1.3250 -0.0824
 3518SOL    HW222017   0.490   2.464   6.515  0.1545 -0.9855 -0.0280
 3519SOL     OW22018   4.333   2.890   3.946  0.0125  0.6625 -0.0004
 3519SOL    HW122019   4.349   2.979   3.976  2.6771 -0.1101  0.8625
 3519SOL    HW222020   4.408   2.878   3.887  0.2135  1.9844 -0.0056
 3520SOL     OW22021   3.306   3.367   7.823  0.8289 -0.3110  0.2793
 3520SOL    HW122022   3.276   3.400   7.908 -1.5344  1.1192 -1.1119
 3520SOL    HW222023   3.268   3.281   7.811  0.7328 -0.2063 -0.1578
 3521SOL     OW22024   0.126   3.336   6.231  0.3674  0.6554  0.1920
 3521SOL    HW122025   0.148   3.317   6.322  0.4103 -0.7171 -0.1151
 3521SOL    HW222026   0.105   3.429   6.240 -0.6372  0.3076  1.5375
 3522SOL     OW22027   3.782   3.084   4.733  0.4389  0.6622 -0.1228
 3522SOL    HW122028   3.863   3.080   4.784 -0.9077  1.0203  2.0548
 3522SOL    HW222029   3.716   3.109   4.799 -1.4967  0.4683 -1.9784
 3523SOL     OW22030   2.803   4.227  16.279 -0.2685  0.1276 -0.1469
 3523SOL    HW122031   2.744   4.299  16.258 -0.1689  0.5118  0.9494
 3523SOL    HW222032   2.739   4.163  16.247  1.3953 -1.9150  0.6456
 3524SOL     OW22033   4.013   3.935   9.410 -0.0296  0.2035  0.0237
 3524SOL    HW122034   3.960   3.858   9.391  2.2597 -1.4712  0.4477
 3524SOL    HW222035   4.002   3.940   9.505  0.8810 -1.8997  0.2198
 3525SOL     OW22036   0.307   2.718   5.327  0.7452  0.2414 -0.0522
 3525SOL    HW122037   0.370   2.759   5.267  2.9012  1.1191  2.8333
 3525SOL    HW222038   0.229   2.773   5.313  0.5906  0.2802  0.9658
 3526SOL     OW22039   1.417   0.212   5.509  0.1619  0.7339 -0.4982
 3526SOL    HW122040   1.506   0.247   5.510  0.2685  0.4340  0.2829
 3526SOL    HW222041   1.381   0.255   5.586  0.6818  0.1742  0.0647
 3527SOL     OW22042   1.533   0.991  12.616  0.4980 -0.0915  0.1605
 3527SOL    HW122043   1.542   1.079  12.578 -1.6995  0.2140  0.3484
 3527SOL    HW222044   1.481   0.956  12.544  0.4011 -0.3609  0.3634
 3528SOL     OW22045   0.062   0.852   8.321 -0.5418 -0.4203  0.0966
 3528SOL    HW122046   0.091   0.920   8.382 -1.2843  0.4189 -0.4860
 3528SOL    HW222047   4.703   0.828   8.352 -0.2007  1.2029  2.2990
 3529SOL     OW22048   3.852   2.859  12.876 -0.2090  0.4252 -0.4094
 3529SOL    HW122049   3.779   2.814  12.833  0.4934 -0.4946 -0.6512
 3529SOL    HW222050   3.852   2.799  12.951 -1.2810 -0.7555 -1.3342
 3530SOL     OW22051   3.723   3.394  11.423 -0.2126 -0.7088 -0.0749
 3530SOL    HW122052   3.753   3.484  11.411 -2.2783  0.0460  0.3425
 3530SOL    HW222053   3.630   3.406  11.442  0.1832  0.0512  1.4269
 3531SOL     OW22054   3.315   3.394   5.277  0.5007  0.4023 -0.3031
 3531SOL    HW122055   3.371   3.335   5.226  0.8164  0.7356 -0.3423
 3531SOL    HW222056   3.239   3.394   5.218 -0.7773  0.9697  1.3316
 3532SOL     OW22057   2.875   2.409   2.256 -0.5050  0.0620 -0.8332
 3532SOL    HW122058   2.969   2.397   2.264 -0.2903  0.8169 -2.3641
 3532SOL    HW222059   2.851   2.317   2.271  0.1577 -0.4638 -3.0565
 3533SOL     OW22060   2.242   4.092   2.844  0.0827  0.3829  0.0939
 3533SOL    HW122061   2.277   4.011   2.808  0.6434  0.5246  0.3202
 3533SOL    HW222062   2.232   4.069   2.936  0.2826 -1.1590 -0.2699
 3534SOL     OW22063   2.125   0.783   5.555  0.0976 -0.4777  0.1915
 3534SOL    HW122064   2.210   0.784   5.600  0.5237  2.2723 -0.6945
 3534SOL    HW222065   2.130   0.865   5.507 -0.4866 -0.7372 -0.3049
 3535SOL     OW22066   0.603   1.096  15.286 -0.6620 -0.1177 -0.4313
 3535SOL    HW122067   0.694   1.081  15.310 -1.3339  1.4736  3.1017
 3535SOL    HW222068   0.584   1.019  15.231  1.6899  1.1088 -2.9353
 3536SOL     OW22069   1.979   1.699   7.229 -0.4768  0.3240  0.1898
 3536SOL    HW122070   1.935   1.784   7.227  2.5991  1.8997 -0.7743
 3536SOL    HW222071   1.903   1.643   7.237 -0.0926 -0.2025  0.1232
 3537SOL     OW22072   0.355   0.331  10.879  0.0225 -0.8352  0.6855
 3537SOL    HW122073   0.407   0.344  10.958  2.3842  0.3667 -1.0769
 3537SOL    HW222074   0.279   0.297  10.928 -0.6788 -3.1256 -2.0212
 3538SOL     OW22075   2.695   1.250  14.079 -0.0161 -0.2023 -0.2103
 3538SOL    HW122076   2.776   1.251  14.129 -0.0463 -1.4940 -0.1211
 3538SOL    HW222077   2.720   1.291  13.996  1.9046  2.5995  1.7624
 3539SOL     OW22078   4.385   0.606   1.450 -0.2715 -0.1199 -0.6439
 3539SOL    HW122079   4.448   0.609   1.378 -0.7458 -0.2188 -1.0555
 3539SOL    HW222080   4.312   0.550   1.426  0.3644 -0.9109 -0.7350
 3540SOL     OW22081   0.061   1.254   3.215 -0.2479 -0.3607  0.5611
 3540SOL    HW122082   0.080   1.161   3.207 -1.4354 -0.4918 -0.7402
 3540SOL    HW222083   0.082   1.272   3.307  0.9701 -2.4283  0.6868
 3541SOL     OW22084   1.101   3.677   2.949  0.0300 -0.0366  0.1352
 3541SOL    HW122085   1.127   3.673   2.857 -0.4014  1.0525 -0.0267
 3541SOL    HW222086   1.159   3.744   2.985 -1.5195  0.5727  1.4764
 3542SOL     OW22087   3.385   2.127   2.436 -0.0195 -0.0122 -0.3208
 3542SOL    HW122088   3.382   2.221   2.419  0.9274  0.2998  1.1721
 3542SOL    HW222089   3.369   2.093   2.348 -0.7430 -1.8809  0.5082
 3543SOL     OW22090   0.935   1.556  14.711  0.3998  0.0025 -0.1928
 3543SOL    HW122091   0.931   1.593  14.800 -1.2354 -0.3562 -0.0994
 3543SOL    HW222092   0.960   1.469  14.743 -1.6035 -0.0341  1.3504
 3544SOL     OW22093   4.486   2.940   7.614  0.3724  0.0887 -0.1166
 3544SOL    HW122094   4.551   2.955   7.682  1.1225 -0.5495 -0.6974
 3544SOL    HW222095   4.539   2.947   7.535  1.7289 -3.7941  0.4338
 3545SOL     OW22096   3.154   0.058   5.334 -0.1621  0.0402  0.4039
 3545SOL    HW122097   3.074   0.024   5.375 -0.6223 -0.8109 -1.2078
 3545SOL    HW222098   3.116   0.096   5.255 -1.4059  1.5415  1.7093
 3546SOL     OW22099   3.814   2.471   4.002 -0.2800  0.0220  0.3017
 3546SOL    HW122100   3.741   2.528   4.026 -2.7582 -1.8330 -2.7386
 3546SOL    HW222101   3.789   2.436   3.916  0.9440  0.7959 -0.3751
 3547SOL     OW22102   4.192   2.268  12.012  0.4528 -0.2126  0.1274
 3547SOL    HW122103   4.287   2.281  12.020  0.4869 -0.5253  0.2294
 3547SOL    HW222104   4.192   2.200  12.079 -2.1546  1.3198  1.6986
 3548SOL     OW22105   0.481   0.984   8.937 -0.5040 -0.3135 -0.9888
 3548SOL    HW122106   0.570   0.981   8.904 -0.0027 -2.3444  0.5339
 3548SOL    HW222107   0.486   0.935   9.019 -0.4003 -0.5654 -1.1485
 3549SOL     OW22108   4.161   2.940   9.524  0.5518  0.1381  0.4829
 3549SOL    HW122109   4.122   2.859   9.489  2.2825 -1.7924  2.9968
 3549SOL    HW222110   4.090   3.004   9.517  1.6397  1.2676 -0.0278
 3550SOL     OW22111   0.512   3.933   3.252 -0.1361  1.0530 -0.3633
 3550SOL    HW122112   0.587   3.929   3.193  0.2436 -1.4153  0.3138
 3550SOL    HW222113   0.456   3.989   3.196 -1.9054  0.3885  0.7507
 3551SOL     OW22114   1.350   1.314   2.724 -0.4657  0.3434 -0.3567
 3551SOL    HW122115   1.342   1.399   2.682  2.1380  1.2794  1.0286
 3551SOL    HW222116   1.360   1.262   2.644  2.5592  0.7019 -0.2257
 3552SOL     OW22117   2.473   3.774   1.870  0.4486 -0.2846 -0.0076
 3552SOL    HW122118   2.528   3.851   1.854  0.2702 -0.2845 -0.6090
 3552SOL    HW222119   2.473   3.766   1.966 -0.8567  3.4624  0.2840
 3553SOL     OW22120   1.274   2.544   3.472 -0.3752 -0.1426  0.1672
 3553SOL    HW122121   1.203   2.574   3.415 -0.2534 -0.0238  0.0765
 3553SOL    HW222122   1.221   2.478   3.516 -0.7005  1.7648  2.6575
 3554SOL     OW22123   4.351   3.471   7.533  0.0277  0.5082  0.3605
 3554SOL    HW122124   4.383   3.527   7.463 -1.2491  0.5743 -0.1751
 3554SOL    HW222125   4.350   3.384   7.494  2.7583  1.1269 -1.0632
 3555SOL     OW22126   2.671   4.145  11.994  0.1710 -0.4604  0.6444
 3555SOL    HW122127   2.756   4.102  11.981  0.3460 -0.4455  1.7305
 3555SOL    HW222128   2.612   4.081  12.035  0.0403 -0.3793  0.5836
 3556SOL     OW22129   4.599   4.514   9.595 -0.3315 -0.2648 -0.2360
 3556SOL    HW122130   4.663   4.482   9.531  0.7488  0.9091  0.2512
 3556SOL    HW222131   4.603   4.609   9.581  1.5896 -0.1865  0.8835
 3557SOL     OW22132   0.874   1.622   3.528 -0.8334  0.0516 -0.2245
 3557SOL    HW122133   0.908   1.537   3.499 -1.8753 -0.2489 -0.5883
 3557SOL    HW222134   0.874   1.664   3.442  0.1911  1.8773  0.6815
 3558SOL     OW22135   1.438   2.049   7.150  0.5942  0.1672  0.0189
 3558SOL    HW122136   1.479   2.112   7.090  0.5196 -0.6313 -0.8548
 3558SOL    HW222137   1.403   2.104   7.220 -1.0234  0.4758 -1.0489
 3559SOL     OW22138   4.678   1.311   7.384 -0.0723  0.3207  0.2784
 3559SOL    HW122139   0.033   1.271   7.411  0.1981 -0.4521 -1.6595
 3559SOL    HW222140   4.712   1.382   7.330  1.7126 -0.9856 -0.3285
 3560SOL     OW22141   4.395   3.288   4.958  0.2759  0.7469  0.0424
 3560SOL    HW122142   4.419   3.207   4.913  0.8351  2.1151 -2.0864
 3560SOL    HW222143   4.351   3.253   5.036  1.7695 -1.2469  0.0217
 3561SOL     OW22144   1.299   1.508   2.532 -0.4743  0.7829 -0.3552
 3561SOL    HW122145   1.303   1.451   2.456 -0.2666  1.6341 -0.9881
 3561SOL    HW222146   1.342   1.590   2.509  1.0390 -0.1550 -0.8488
 3562SOL     OW22147   2.275   1.524  16.519 -0.3943  0.1099  0.6625
 3562SOL    HW122148   2.340   1.523  16.589  0.0333 -3.4011  0.2247
 3562SOL    HW222149   2.247   1.613  16.538  0.0757  0.1141  1.3277
 3563SOL     OW22150   4.404   1.742   8.379  0.4092 -0.3187 -0.8282
 3563SOL    HW122151   4.478   1.684   8.399  0.7440 -0.0131 -1.1854
 3563SOL    HW222152   4.431   1.776   8.294  0.2595  0.8869 -0.3866
 3564SOL     OW22153   1.690   3.760   7.436  0.0104  0.1427  0.5591
 3564SOL    HW122154   1.637   3.831   7.473 -0.6506 -0.7611  1.3604
 3564SOL    HW222155   1.626   3.735   7.369  1.2184 -0.5615 -0.3255
 3565SOL     OW22156   2.504   3.333   9.218  0.8468  0.2794  0.3895
 3565SOL    HW122157   2.520   3.253   9.168  2.4102  0.7784  0.0859
 3565SOL    HW222158   2.567   3.393   9.178  0.6526 -1.0490 -1.9292
 3566SOL     OW22159   1.663   1.039   2.565  0.1533 -0.2615  0.2013
 3566SOL    HW122160   1.571   1.018   2.551 -0.2517  0.4386  1.8539
 3566SOL    HW222161   1.701   0.952   2.577 -1.1536 -0.7570  0.7361
 3567SOL     OW22162   0.162   3.741   2.428  0.1428  0.1892  0.4735
 3567SOL    HW122163   0.083   3.715   2.476  0.7272 -2.5581 -0.0110
 3567SOL    HW222164   0.137   3.718   2.338  0.5192  0.0367  0.4097
 3568SOL     OW22165   4.703   3.319   4.857  0.7570 -0.3521  0.1059
 3568SOL    HW122166   4.634   3.312   4.923  0.2579 -2.4787 -0.6216
 3568SOL    HW222167   4.665   3.384   4.797 -0.3862 -1.0203  0.1020
 3569SOL     OW22168   0.114   1.784  13.461 -0.2245  0.0883  0.1014
 3569SOL    HW122169   0.109   1.878  13.478  0.2756 -0.1764  1.6610
 3569SOL    HW222170   0.026   1.765  13.427 -0.1117  0.4061 -0.3564
 3570SOL     OW22171   1.607   4.628   7.014 -0.1790  0.2259  0.2241
 3570SOL    HW122172   1.628   4.535   7.028  0.0989  0.3362  0.5304
 3570SOL    HW222173   1.639   4.666   7.096 -0.3325  1.6220 -0.3787
 3571SOL     OW22174   0.331   3.518  10.566  0.0051  0.4370 -0.2788
 3571SOL    HW122175   0.275   3.573  10.620 -1.2909  1.2290 -2.4126
 3571SOL    HW222176   0.360   3.586  10.505  1.1185 -2.4940 -3.0525
 3572SOL     OW22177   3.354   2.323  16.107 -0.0344 -0.3789 -0.1449
 3572SOL    HW122178   3.360   2.367  16.192 -1.2034 -1.1485  0.3307
 3572SOL    HW222179   3.377   2.231  16.122  1.2262  0.3758  2.5347
 3573SOL     OW22180   3.004   0.026   0.714  0.2558  0.4924 -0.3362
 3573SOL    HW122181   2.913   0.009   0.690 -0.2331  0.7417  1.3600
 3573SOL    HW222182   3.034   4.668   0.745 -0.2191  0.9006  1.2722
 3574SOL     OW22183   4.262   3.876   0.549 -0.5452  0.8503  0.4751
 3574SOL    HW122184   4.343   3.927   0.559  1.9138 -2.4598 -2.5320
 3574SOL    HW222185   4.207   3.949   0.520  1.0866  1.8051 -0.2522
 3575SOL     OW22186   2.297   1.973   0.351  0.6766  0.0003 -0.3041
 3575SOL    HW122187   2.314   2.067   0.353  0.4903  0.0536 -1.1385
 3575SOL    HW222188   2.234   1.970   0.423  1.5066 -1.9041  0.3442
 3576SOL     OW22189   3.851   2.627   5.900 -0.0444 -0.1365  0.0774
 3576SOL    HW122190   3.785   2.684   5.939 -1.0032 -1.1752 -0.0443
 3576SOL    HW222191   3.854   2.663   5.812 -0.8014 -0.6010 -0.1385
 3577SOL     OW22192   2.092   3.030  17.524  0.4982  0.2826 -0.1090
 3577SOL    HW122193   2.038   3.021  17.602  1.2603 -0.5734  0.3163
 3577SOL    HW222194   2.081   2.939  17.500 -1.1542  1.1292 -2.5767
 3578SOL     OW22195   3.599   1.713   8.214  0.2135 -0.1328 -0.1471
 3578SOL    HW122196   3.664   1.783   8.212 -0.5559  0.6211  1.2718
 3578SOL    HW222197   3.657   1.637   8.203  0.8486 -0.0996  2.9570
 3579SOL     OW22198   3.870   4.000   4.066 -0.0721  0.1071  0.2705
 3579SOL    HW122199   3.818   4.079   4.074  0.8706  0.7996 -0.5298
 3579SOL    HW222200   3.829   3.956   3.992  0.1474 -1.8101  1.2693
 3580SOL     OW22201   2.850   2.411   7.071  0.1458 -0.2788 -0.1668
 3580SOL    HW122202   2.856   2.480   7.005 -0.7124 -0.0589 -0.0232
 3580SOL    HW222203   2.912   2.347   7.036  1.5460  0.4423  1.0441
 3581SOL     OW22204   1.139   3.562  13.086 -0.0988  0.3201  0.0971
 3581SOL    HW122205   1.223   3.526  13.058  1.6036  2.0426  2.9294
 3581SOL    HW222206   1.165   3.643  13.129 -0.1063  0.5409 -0.3250
 3582SOL     OW22207   3.276   3.002   2.781 -0.0831 -0.3272 -0.8828
 3582SOL    HW122208   3.350   2.973   2.834 -0.1377 -0.2172 -0.7459
 3582SOL    HW222209   3.245   2.920   2.743 -0.1571 -0.2741 -0.9373
 3583SOL     OW22210   4.681   0.276   9.003  0.2957 -0.5389  0.1035
 3583SOL    HW122211   4.621   0.318   9.066 -0.5837 -0.0046 -1.0746
 3583SOL    HW222212   4.703   0.350   8.947  0.2013  0.3929  1.2850
 3584SOL     OW22213   2.133   2.349   3.433 -0.0785 -0.1600  0.5756
 3584SOL    HW122214   2.044   2.359   3.467 -0.1165 -1.8547  0.9748
 3584SOL    HW222215   2.150   2.442   3.420 -1.5351 -0.1069 -0.9314
 3585SOL     OW22216   1.304   2.008   3.569  0.1938  0.0629 -0.0534
 3585SOL    HW122217   1.216   1.991   3.537  1.2408 -1.8881 -1.8922
 3585SOL    HW222218   1.352   1.932   3.537  2.0136 -0.2949  3.5589
 3586SOL     OW22219   1.691   3.847  13.139  0.0322 -0.2116  0.3676
 3586SOL    HW122220   1.775   3.878  13.170  1.4309 -1.5216 -2.0985
 3586SOL    HW222221   1.667   3.779  13.202  1.2162 -1.2489 -0.3036
 3587SOL     OW22222   2.728   0.642   4.119  0.0208 -0.3965  0.1083
 3587SOL    HW122223   2.768   0.608   4.039  0.5213 -1.2674  0.7202
 3587SOL    HW222224   2.776   0.715   4.158  1.3148 -1.2766  0.1633
 3588SOL     OW22225   2.468   0.895   2.232  0.0850 -0.8018  0.2586
 3588SOL    HW122226   2.557   0.861   2.241  0.4766 -0.4759 -2.4224
 3588SOL    HW222227   2.438   0.878   2.321  0.8711  0.6927  0.7991
 3589SOL     OW22228   0.569   0.625   2.137 -0.2926 -0.0202 -0.1651
 3589SOL    HW122229   0.604   0.661   2.218  1.0948 -2.4642  0.3434
 3589SOL    HW222230   0.476   0.646   2.146 -0.4319 -0.4869 -0.5121
 3590SOL     OW22231   1.058   0.020  10.901 -0.1750  0.1867 -0.1564
 3590SOL    HW122232   1.078   4.699  10.981 -0.2018 -1.5390 -1.1977
 3590SOL    HW222233   0.967   0.043  10.921  0.3884  0.6842  1.7827
 3591SOL     OW22234   3.213   3.153   4.964 -0.0769 -0.4506  0.0416
 3591SOL    HW122235   3.132   3.135   4.916 -1.8494  1.4864  2.3163
 3591SOL    HW222236   3.199   3.246   4.982 -1.0723 -0.7335  0.7417
 3592SOL     OW22237   0.259   0.975   5.613  0.1360 -0.2184 -0.0891
 3592SOL    HW122238   0.205   1.053   5.619  1.2412  0.4520  1.1475
 3592SOL    HW222239   0.324   0.990   5.682 -1.5236 -2.6186  2.0196
 3593SOL     OW22240   0.281   4.249  13.200 -0.5572  0.3684 -0.4443
 3593SOL    HW122241   0.327   4.319  13.155  0.6593 -0.5553 -0.6517
 3593SOL    HW222242   0.190   4.274  13.190 -0.2632  1.6640  0.1990
 3594SOL     OW22243   4.106   1.835   6.429 -0.0364  0.0761 -0.1085
 3594SOL    HW122244   4.048   1.888   6.374 -0.0719 -0.0597 -0.2030
 3594SOL    HW222245   4.191   1.876   6.411 -0.8419  2.9475  2.6317
 3595SOL     OW22246   0.890   0.429  13.002 -0.5804 -0.7661 -0.1240
 3595SOL    HW122247   0.909   0.336  13.011  0.4468 -0.3724  1.8656
 3595SOL    HW222248   0.825   0.436  13.072  0.6281  1.4985  0.7907
 3596SOL     OW22249   3.253   3.728   2.602  0.6558  0.4097  0.0356
 3596SOL    HW122250   3.297   3.801   2.645 -0.7510  0.8744  0.6977
 3596SOL    HW222251   3.173   3.710   2.650 -0.2725  1.0503 -1.2539
 3597SOL     OW22252   2.200   1.548   0.116 -0.6996 -1.0228  0.2095
 3597SOL    HW122253   2.166   1.603   0.187  1.4384  2.5127 -1.4909
 3597SOL    HW222254   2.291   1.575   0.130 -0.5160 -1.2366 -0.6331
 3598SOL     OW22255   1.855   2.786   7.155 -0.4373 -0.0561 -0.5167
 3598SOL    HW122256   1.868   2.757   7.064 -0.4057  1.2494 -0.9286
 3598SOL    HW222257   1.949   2.781   7.173 -0.8074 -1.7319  0.9100
 3599SOL     OW22258   2.669   2.848  12.170 -0.0361 -0.2942 -0.1030
 3599SOL    HW122259   2.576   2.871  12.175 -0.3865 -1.2764 -2.1197
 3599SOL    HW222260   2.698   2.919  12.228  0.5287 -0.9482  0.4144
 3600SOL     OW22261   3.638   4.519   3.607 -0.1240 -0.3080 -0.2405
 3600SOL    HW122262   3.563   4.524   3.667  1.5193  0.3262  1.7583
 3600SOL    HW222263   3.622   4.592   3.547  0.5013 -0.3170 -0.4148
 3601SOL     OW22264   3.442   1.153   7.442 -0.2495 -0.2325 -0.0593
 3601SOL    HW122265   3.420   1.070   7.399  0.5104  0.1722 -1.2218
 3601SOL    HW222266   3.424   1.207   7.365  0.6957 -0.6648 -0.5779
 3602SOL     OW22267   0.418   2.888  16.682  0.2443  0.0749  0.2836
 3602SOL    HW122268   0.470   2.933  16.615  0.6564 -0.5222  0.2030
 3602SOL    HW222269   0.482   2.886  16.752 -1.4874 -1.0804  1.8234
 3603SOL     OW22270   2.565   2.820   2.159 -0.3467  0.0519  0.3990
 3603SOL    HW122271   2.606   2.740   2.190  1.7451  1.7540  2.0661
 3603SOL    HW222272   2.509   2.787   2.088  0.6812 -0.1617 -0.3190
 3604SOL     OW22273   2.653   0.864   3.017 -0.8010 -0.0004 -0.6808
 3604SOL    HW122274   2.747   0.861   3.003 -0.7352 -0.2574 -0.1783
 3604SOL    HW222275   2.649   0.954   3.050  0.1619 -0.3245  0.3179
 3605SOL     OW22276   2.755   0.926   8.567 -0.1784  0.3477 -0.6536
 3605SOL    HW122277   2.804   0.915   8.485  3.2060 -2.0822  1.7259
 3605SOL    HW222278   2.791   0.851   8.613 -0.9556 -0.2381 -1.0041
 3606SOL     OW22279   3.143   0.453   8.324  0.0426 -0.1271  0.3076
 3606SOL    HW122280   3.177   0.365   8.339  0.9063  0.3579  1.1785
 3606SOL    HW222281   3.069   0.457   8.384 -0.9276 -1.6232 -0.7929
 3607SOL     OW22282   4.010   2.792   3.367 -0.9258 -0.3696  0.1568
 3607SOL    HW122283   3.929   2.802   3.317 -0.3875 -0.6054 -0.7630
 3607SOL    HW222284   4.070   2.781   3.293 -0.1805 -1.9626  0.9844
 3608SOL     OW22285   3.805   2.376   0.673  0.7202  0.0238 -0.2245
 3608SOL    HW122286   3.860   2.298   0.657 -1.5853 -1.8981  1.2552
 3608SOL    HW222287   3.782   2.360   0.764  1.4906 -1.5658 -0.3074
 3609SOL     OW22288   0.549   2.586   4.385 -0.1915 -0.0374 -0.2003
 3609SOL    HW122289   0.564   2.559   4.294 -1.7199  2.0314 -1.0569
 3609SOL    HW222290   0.610   2.521   4.422 -0.4668  0.3117  0.8434
 3610SOL     OW22291   1.976   2.950   5.680  0.2898  0.0301 -0.4546
 3610SOL    HW122292   1.900   2.924   5.628 -0.9817 -0.8313  1.8066
 3610SOL    HW222293   2.052   2.907   5.641  0.8702 -1.5828  2.3986
 3611SOL     OW22294   2.163   3.042   8.823 -0.3712 -0.5089  0.4640
 3611SOL    HW122295   2.207   3.124   8.798  0.9852 -1.1834  0.6163
 3611SOL    HW222296   2.206   3.008   8.902  1.8165 -1.5466 -1.1540
 3612SOL     OW22297   4.156   1.640   3.266  0.3948 -0.2622 -0.0134
 3612SOL    HW122298   4.117   1.675   3.186 -0.0825  2.2472  1.3555
 3612SOL    HW222299   4.248   1.651   3.240  0.9895 -0.0839  2.1486
 3613SOL     OW22300   1.146   1.880   5.355 -0.3022 -0.4403 -0.1210
 3613SOL    HW122301   1.231   1.923   5.354 -1.2994  1.5841  1.3995
 3613SOL    HW222302   1.173   1.796   5.389  1.5144 -0.4663 -1.6290
 3614SOL     OW22303   3.018   1.183   7.612 -0.1489  0.0207 -0.0228
 3614SOL    HW122304   2.943   1.159   7.665  0.5229 -0.6027  0.6453
 3614SOL    HW222305   3.069   1.102   7.610 -0.6174 -0.3407  2.3248
 3615SOL     OW22306   3.856   0.718  14.787 -0.3268 -0.2177  0.2189
 3615SOL    HW122307   3.918   0.752  14.722  2.4253 -1.4145  2.2655
 3615SOL    HW222308   3.910   0.718  14.866 -2.0015 -0.1593  1.3524
 3616SOL     OW22309   1.662   0.561   3.283 -0.0255  0.4177 -0.1936
 3616SOL    HW122310   1.569   0.546   3.301  0.0011  1.4073  0.8174
 3616SOL    HW222311   1.659   0.649   3.322 -1.1929  0.6049 -0.7102
 3617SOL     OW22312   0.143   3.632   7.679  0.2246  0.3847  0.2675
 3617SOL    HW122313   0.123   3.725   7.682 -0.7623  0.1677  0.4896
 3617SOL    HW222314   0.105   3.608   7.594  0.0273  0.9685  0.1948
 3618SOL     OW22315   3.572   1.355  10.253  0.4511 -0.4781  0.0301
 3618SOL    HW122316   3.525   1.297  10.193 -2.5440  0.5764  1.3727
 3618SOL    HW222317   3.499   1.415  10.261  1.6895  1.1980 -1.3221
 3619SOL     OW22318   0.807   0.405   3.012 -0.1994 -0.4063  0.0968
 3619SOL    HW122319   0.872   0.436   3.075 -1.9412 -1.5101  2.4735
 3619SOL    HW222320   0.732   0.457   3.041  0.4467  1.3533 -1.3946
 3620SOL     OW22321   4.106   0.617  13.343 -0.2463  0.0806 -0.4296
 3620SOL    HW122322   4.194   0.647  13.321  0.7291 -1.2200  1.6722
 3620SOL    HW222323   4.052   0.657  13.275  1.3779  1.7164 -0.7568
 3621SOL     OW22324   4.140   1.729  17.081 -0.4280  0.7413  0.8959
 3621SOL    HW122325   4.173   1.659  17.137  0.7569 -0.2270 -1.0175
 3621SOL    HW222326   4.173   1.705  16.994 -0.8373  2.2692  0.3089
 3622SOL     OW22327   0.988   0.328   5.003 -0.2230 -0.6203 -0.1365
 3622SOL    HW122328   0.989   0.307   5.096 -3.9078 -0.5690 -0.0973
 3622SOL    HW222329   1.036   0.248   4.979 -1.2445 -1.9049  2.1576
 3623SOL     OW22330   4.072   1.284   5.679 -0.0472  0.4869  0.0777
 3623SOL    HW122331   4.063   1.221   5.750  0.7119  0.0000 -0.2593
 3623SOL    HW222332   3.981   1.307   5.663  0.0199 -0.3233 -1.4303
 3624SOL     OW22333   2.879   1.126   4.615 -0.1294 -0.2495 -0.2119
 3624SOL    HW122334   2.815   1.185   4.656  1.4097  0.0108  1.7969
 3624SOL    HW222335   2.830   1.050   4.582 -0.9326 -0.2064  0.8730
 3625SOL     OW22336   0.768   0.514   7.379 -0.3351 -0.2511  0.3044
 3625SOL    HW122337   0.677   0.485   7.367  0.6400 -3.4851  0.5841
 3625SOL    HW222338   0.776   0.581   7.311  0.5135 -0.0541  0.6084
 3626SOL     OW22339   2.465   3.289  12.454 -0.1419 -0.3793  0.5433
 3626SOL    HW122340   2.442   3.196  12.446 -1.8197  0.0560  0.3015
 3626SOL    HW222341   2.454   3.318  12.364  0.0609  0.8147  0.9037
 3627SOL     OW22342   4.458   3.553   6.517  0.4032 -0.2544 -0.0947
 3627SOL    HW122343   4.441   3.646   6.506  0.0914 -0.1579  1.2013
 3627SOL    HW222344   4.549   3.550   6.548  0.1013  1.3105  0.9370
 3628SOL     OW22345   4.169   3.244   4.646  0.4187  0.4723  0.1794
 3628SOL    HW122346   4.138   3.187   4.716 -0.4268 -2.9028 -2.9679
 3628SOL    HW222347   4.231   3.183   4.606 -0.4326 -0.3343  0.0847
 3629SOL     OW22348   4.451   3.485  10.554 -0.3396 -0.3618 -0.2467
 3629SOL    HW122349   4.473   3.419  10.621 -0.0674 -0.8045 -0.7683
 3629SOL    HW222350   4.539   3.524  10.549  0.2126 -1.6400 -0.6459
 3630SOL     OW22351   2.323   2.966   9.062 -0.1746  0.0539  0.1604
 3630SOL    HW122352   2.291   2.915   9.136 -0.6375  0.1456  0.0235
 3630SOL    HW222353   2.393   3.013   9.109  1.0622 -1.6725  0.0346
 3631SOL     OW22354   0.070   3.027  10.301  0.4097 -0.1581  0.2799
 3631SOL    HW122355   0.082   3.054  10.210 -0.4609 -1.0978 -0.1123
 3631SOL    HW222356   0.115   3.097  10.347  1.3535  1.6979 -3.4204
 3632SOL     OW22357   3.906   2.043   6.842  0.1665  0.2197  0.2888
 3632SOL    HW122358   3.940   1.960   6.878  0.7986  1.4015  2.4244
 3632SOL    HW222359   3.812   2.028   6.838  0.3620 -0.9321 -0.0344
 3633SOL     OW22360   0.737   1.900   3.112  0.0956 -0.8556  0.0424
 3633SOL    HW122361   0.734   1.978   3.056 -1.4359 -1.3978 -0.6285
 3633SOL    HW222362   0.734   1.828   3.049  3.9012 -2.6164  1.8774
 3634SOL     OW22363   1.189   4.604   7.979  0.0171  0.2453  0.2478
 3634SOL    HW122364   1.200   4.511   7.998 -0.3006 -0.0011 -0.7433
 3634SOL    HW222365   1.265   4.606   7.920 -1.4403 -2.6756 -1.7090
 3635SOL     OW22366   4.499   1.750   5.433  0.2209 -0.0511  0.3077
 3635SOL    HW122367   4.553   1.828   5.445  1.9093 -1.5099  2.2432
 3635SOL    HW222368   4.497   1.721   5.524 -2.0960  1.7052  0.7926
 3636SOL     OW22369   0.575   3.389  17.408  0.4435  0.3339 -0.2852
 3636SOL    HW122370   0.510   3.453  17.437 -1.9677 -1.8855 -0.7218
 3636SOL    HW222371   0.627   3.445  17.351 -0.3125  1.2854 -0.0379
 3637SOL     OW22372   0.269   3.513   4.673  0.2157  0.7258 -0.3377
 3637SOL    HW122373   0.282   3.431   4.624  0.4543  1.3239 -1.2684
 3637SOL    HW222374   0.344   3.559   4.634  0.3206  0.3008 -0.6412
 3638SOL     OW22375   3.521   2.231   5.590  0.2911 -0.4008 -0.0091
 3638SOL    HW122376   3.615   2.224   5.606  0.0527 -1.3947  1.0202
 3638SOL    HW222377   3.504   2.317   5.629 -0.1634  0.3624 -1.8985
 3639SOL     OW22378   0.482   3.424   1.341 -0.1791 -0.0975 -0.0150
 3639SOL    HW122379   0.469   3.425   1.436  1.2813 -0.2412  0.1807
 3639SOL    HW222380   0.486   3.330   1.322  0.0682 -0.0323 -0.2823
 3640SOL     OW22381   2.176   3.187  10.434 -0.2984  0.0358  0.4921
 3640SOL    HW122382   2.198   3.137  10.513 -3.1492 -2.4968 -0.2967
 3640SOL    HW222383   2.231   3.265  10.446  0.1776 -0.4076  1.1842
 3641SOL     OW22384   3.985   0.734   9.106  0.7531 -0.5079 -0.3394
 3641SOL    HW122385   3.907   0.738   9.161  0.7564  0.3625 -0.3931
 3641SOL    HW222386   4.053   0.732   9.173 -1.2559 -0.9907  1.6854
 3642SOL     OW22387   0.364   3.770   6.888 -0.2326  0.1849  0.0220
 3642SOL    HW122388   0.279   3.808   6.864  0.6847  1.2739 -1.4921
 3642SOL    HW222389   0.423   3.840   6.860 -1.2102  1.5008  1.2403
 3643SOL     OW22390   3.488   2.309   4.698  0.4728  0.1804 -0.3898
 3643SOL    HW122391   3.458   2.341   4.783 -0.2832 -1.8746  0.1259
 3643SOL    HW222392   3.569   2.359   4.691  1.2925 -0.6415  3.3232
 3644SOL     OW22393   1.971   2.331   3.075 -0.0862 -0.4996  0.0540
 3644SOL    HW122394   2.019   2.249   3.092  0.3825 -0.5836 -1.6923
 3644SOL    HW222395   2.030   2.402   3.103  0.4103 -0.7755 -0.2866
 3645SOL     OW22396   2.341   2.908   6.174  0.3740  0.0245  0.8401
 3645SOL    HW122397   2.408   2.933   6.110  1.0752  0.2819  1.6650
 3645SOL    HW222398   2.393   2.927   6.253 -0.6621  1.7888  1.0943
 3646SOL     OW22399   3.273   0.263   3.253  0.5175  0.3540  0.2542
 3646SOL    HW122400   3.302   0.328   3.189 -2.5119  0.0209 -1.4868
 3646SOL    HW222401   3.263   0.192   3.190  3.4925  1.6250 -1.6307
 3647SOL     OW22402   3.344   2.848  17.034 -0.3530 -0.6150  0.3989
 3647SOL    HW122403   3.344   2.824  16.941 -0.7382 -2.0706  0.7767
 3647SOL    HW222404   3.295   2.930  17.026 -1.0662 -0.9789  1.1009
 3648SOL     OW22405   0.932   1.161   3.300 -0.6270  0.3814  0.0483
 3648SOL    HW122406   0.927   1.250   3.266 -2.5241 -0.2793 -1.3780
 3648SOL    HW222407   0.960   1.105   3.228 -1.2312  2.4620 -1.7874
 3649SOL     OW22408   0.138   2.470   6.740  0.5344  0.4544 -0.0510
 3649SOL    HW122409   0.065   2.409   6.753  0.6810 -0.1834 -2.2564
 3649SOL    HW222410   0.209   2.418   6.778  0.6895  1.7706  1.4448
 3650SOL     OW22411   0.690   0.925   9.335 -0.0730 -0.2447  0.2094
 3650SOL    HW122412   0.647   0.900   9.417 -0.6400 -0.7661 -0.2521
 3650SOL    HW222413   0.758   0.858   9.336 -0.6090 -0.7714  1.8789
 3651SOL     OW22414   2.542   3.608   8.874  0.0945 -0.6980  0.5565
 3651SOL    HW122415   2.491   3.564   8.941 -1.7538  1.7712  0.7837
 3651SOL    HW222416   2.551   3.694   8.915 -0.1664  0.5155 -1.9375
 3652SOL     OW22417   1.075   2.583   3.674  0.4722  0.1308 -0.8887
 3652SOL    HW122418   1.082   2.490   3.653 -1.2185 -0.1730 -0.1029
 3652SOL    HW222419   1.015   2.613   3.606 -0.3675  2.1315  0.6958
 3653SOL     OW22420   4.469   0.320   4.811  0.4402  0.1528  0.9879
 3653SOL    HW122421   4.547   0.375   4.804  1.5971 -1.5921  0.1228
 3653SOL    HW222422   4.502   0.236   4.780 -0.9734 -0.6353  1.6693
 3654SOL     OW22423   4.360   4.607  10.006 -0.0754 -0.1272  0.4238
 3654SOL    HW122424   4.370   4.576  10.096 -2.1636  1.8151  1.3232
 3654SOL    HW222425   4.278   4.571   9.972 -1.0361  4.3591 -2.0012
 3655SOL     OW22426   3.388   0.205  16.946  0.5753  0.3009  0.5896
 3655SOL    HW122427   3.413   0.293  16.972  1.5806  0.0515  0.4674
 3655SOL    HW222428   3.331   0.196  17.023 -0.9486  2.7633 -0.2656
 3656SOL     OW22429   1.915   1.738  11.835  0.6978  0.0530  0.5352
 3656SOL    HW122430   1.979   1.688  11.785 -0.4439 -0.0044 -0.8613
 3656SOL    HW222431   1.837   1.715  11.784  1.6718 -2.1753  0.0544
 3657SOL     OW22432   3.673   2.209  13.674  0.4163 -0.3664 -0.3391
 3657SOL    HW122433   3.677   2.131  13.729 -1.9442  0.0804  0.4517
 3657SOL    HW222434   3.594   2.257  13.699 -0.6059 -1.8219 -0.8025
 3658SOL     OW22435   2.670   1.708   8.631  0.0613 -0.0267 -0.5159
 3658SOL    HW122436   2.697   1.800   8.633 -2.9746  0.8413 -0.1660
 3658SOL    HW222437   2.738   1.687   8.695  0.4776  2.1362 -0.2363
 3659SOL     OW22438   0.166   2.642   7.698 -0.4130 -0.1936 -0.2534
 3659SOL    HW122439   0.093   2.583   7.680 -0.1291 -0.7886  0.5352
 3659SOL    HW222440   0.225   2.630   7.624 -0.0340  0.9247 -0.1323
 3660SOL     OW22441   3.913   0.501   7.818 -0.2653 -0.2300 -0.2722
 3660SOL    HW122442   3.964   0.442   7.874  1.5592  2.3658  0.8488
 3660SOL    HW222443   3.955   0.585   7.839 -0.3766  0.4104 -2.6552
 3661SOL     OW22444   2.435   3.622   3.826 -0.0860 -0.2259 -0.1683
 3661SOL    HW122445   2.472   3.601   3.912 -2.1529 -0.5520  0.6437
 3661SOL    HW222446   2.353   3.573   3.833 -0.9656  1.7208  3.1616
 3662SOL     OW22447   3.023   1.151  12.709 -0.4887 -0.2540  0.2498
 3662SOL    HW122448   3.107   1.105  12.703  0.8369  2.1628  0.5070
 3662SOL    HW222449   3.020   1.146  12.805  0.3792 -1.7799  0.2046
 3663SOL     OW22450   2.512   1.632   7.201  0.3727 -0.8353 -0.0896
 3663SOL    HW122451   2.445   1.690   7.238  0.2726 -0.7636 -0.3826
 3663SOL    HW222452   2.591   1.677   7.232 -2.4873  2.8692  1.7480
 3664SOL     OW22453   3.177   2.704  17.413  0.6060 -0.3168  0.2651
 3664SOL    HW122454   3.102   2.656  17.377 -0.4259  0.7912  0.9634
 3664SOL    HW222455   3.138   2.790  17.427  1.8947  0.3262 -0.1176
 3665SOL     OW22456   1.438   3.601   4.495  0.0812  0.0098 -0.4561
 3665SOL    HW122457   1.448   3.523   4.442 -0.6513 -1.7944  2.0680
 3665SOL    HW222458   1.444   3.558   4.580 -2.7013  0.5830  0.0197
 3666SOL     OW22459   0.502   1.859   3.761 -0.2849  0.0366  0.2403
 3666SOL    HW122460   0.590   1.840   3.730  0.0066 -0.0192  1.0901
 3666SOL    HW222461   0.456   1.849   3.678 -0.2838 -3.1362  0.6233
 3667SOL     OW22462   3.768   1.679   7.476  0.0150 -0.0842 -0.2768
 3667SOL    HW122463   3.756   1.774   7.485  3.0759  0.1404  1.6160
 3667SOL    HW222464   3.794   1.659   7.566 -1.2379  1.1392  0.3666
 3668SOL     OW22465   2.277   0.465   9.153 -0.5088 -0.1213  0.3333
 3668SOL    HW122466   2.244   0.377   9.138 -1.1260  0.1674  0.0053
 3668SOL    HW222467   2.266   0.481   9.247  1.1468 -0.7123  0.6284
 3669SOL     OW22468   3.306   0.361   1.783  0.6710 -0.1893 -0.1676
 3669SOL    HW122469   3.264   0.327   1.862  2.7099 -3.3645 -0.4756
 3669SOL    HW222470   3.232   0.362   1.722  0.0423  0.0030  0.5995
 3670SOL     OW22471   4.350   1.951   9.162 -0.2895 -0.6849 -0.2163
 3670SOL    HW122472   4.306   1.896   9.098 -1.0225  0.1499 -0.4247
 3670SOL    HW222473   4.414   1.893   9.204 -2.2141 -1.3704  1.7838
 3671SOL     OW22474   0.924   2.522  14.239  0.0339  0.1169  0.1991
 3671SOL    HW122475   0.948   2.433  14.265 -0.6262 -1.1264 -3.5251
 3671SOL    HW222476   0.829   2.518  14.247 -0.0219 -1.4387 -1.2411
 3672SOL     OW22477   3.476   3.954   8.363  0.1230  0.1332 -0.3175
 3672SOL    HW122478   3.495   4.047   8.370  1.0547  0.0315 -1.6915
 3672SOL    HW222479   3.405   3.953   8.299  0.5501 -1.4395 -0.7787
 3673SOL     OW22480   0.290   3.246   8.594  0.9802 -0.5450 -1.1526
 3673SOL    HW122481   0.354   3.187   8.635 -0.7148 -1.9295 -0.4680
 3673SOL    HW222482   0.213   3.236   8.651  1.4642 -0.9555 -0.5614
 3674SOL     OW22483   3.781   2.738   0.735 -0.0207  0.3505 -0.3185
 3674SOL    HW122484   3.703   2.685   0.716 -0.1027  0.5016 -0.3960
 3674SOL    HW222485   3.756   2.760   0.825 -0.4425  0.3925 -0.4446
 3675SOL     OW22486   4.083   1.067   3.758  0.0363  0.4327 -0.5391
 3675SOL    HW122487   4.094   1.005   3.686  2.8471  0.5540 -0.2057
 3675SOL    HW222488   4.125   1.151   3.738  0.8256 -0.2185 -1.5397
 3676SOL     OW22489   0.357   2.797   7.268 -0.1004  0.3365 -0.0734
 3676SOL    HW122490   0.448   2.828   7.262 -0.0289  0.3075  0.8904
 3676SOL    HW222491   0.315   2.881   7.249 -0.6087  0.2665  0.7348
 3677SOL     OW22492   3.834   3.408   0.531  0.5695 -0.4701 -0.1393
 3677SOL    HW122493   3.790   3.476   0.480  2.4210  0.0315 -1.0689
 3677SOL    HW222494   3.835   3.329   0.477 -1.0825  0.4255 -1.4702
 3678SOL     OW22495   1.816   0.065   1.956  0.2502 -0.2415 -0.1039
 3678SOL    HW122496   1.788   4.702   1.944  2.1061 -0.7232 -0.7989
 3678SOL    HW222497   1.911   0.060   1.961  0.3688  0.1886 -1.8562
 3679SOL     OW22498   1.843   4.433  16.196 -0.1421  0.0029  0.1310
 3679SOL    HW122499   1.937   4.427  16.211 -0.2198 -1.4921  0.0586
 3679SOL    HW222500   1.809   4.394  16.277 -1.3846  0.2753 -0.2543
 3680SOL     OW22501   1.693   1.493   7.756  0.1743 -0.2816  0.0876
 3680SOL    HW122502   1.671   1.579   7.721  1.0964 -0.0066  0.1870
 3680SOL    HW222503   1.646   1.509   7.838  0.5869 -0.6743  0.4011
 3681SOL     OW22504   0.896   0.448  17.112 -0.5269  0.4002  0.5636
 3681SOL    HW122505   0.913   0.380  17.177 -0.8835  0.3960  0.6515
 3681SOL    HW222506   0.810   0.423  17.077  0.6784  0.8678 -2.7859
 3682SOL     OW22507   0.304   4.046   7.069 -0.4809  0.0852  0.5653
 3682SOL    HW122508   0.304   4.134   7.031  0.3613  0.2068  0.8404
 3682SOL    HW222509   0.397   4.024   7.075 -0.6488 -1.1910 -1.2540
 3683SOL     OW22510   1.629   1.259   2.791 -0.4878 -0.0018  0.3158
 3683SOL    HW122511   1.673   1.192   2.738  2.4753  0.9926  1.5220
 3683SOL    HW222512   1.597   1.323   2.728  0.0624  0.2047  0.2478
 3684SOL     OW22513   1.925   4.657   5.033  0.1707  0.8781  0.0864
 3684SOL    HW122514   1.902   4.630   5.122  1.6268 -1.8543 -0.3546
 3684SOL    HW222515   1.905   4.572   4.994  1.6358  0.3372  0.4886
 3685SOL     OW22516   4.611   1.204  15.956  0.1096  0.6732  0.1454
 3685SOL    HW122517   4.545   1.244  16.013 -0.7807 -1.4928  0.6467
 3685SOL    HW222518   4.606   1.270  15.887 -0.9120 -0.7411 -1.1270
 3686SOL     OW22519   1.340   2.276   2.100 -0.2161 -0.4070 -0.4268
 3686SOL    HW122520   1.323   2.274   2.194 -0.1885  0.8901 -0.3876
 3686SOL    HW222521   1.435   2.280   2.094 -0.1824 -0.8526 -0.1441
 3687SOL     OW22522   3.609   1.593   7.229  0.0616 -0.5188  0.2960
 3687SOL    HW122523   3.582   1.675   7.187 -1.2885 -0.5533  1.0925
 3687SOL    HW222524   3.676   1.619   7.292 -1.9577 -0.0721  2.2569
 3688SOL     OW22525   4.725   0.116   8.660  0.0412  0.4008  0.3661
 3688SOL    HW122526   0.056   0.099   8.586 -1.4267 -1.0938 -0.4291
 3688SOL    HW222527   4.645   0.158   8.627 -1.0662 -2.6750 -0.8030
 3689SOL     OW22528   3.772   2.193   5.606 -0.2651  0.3079 -0.0995
 3689SOL    HW122529   3.795   2.270   5.659  0.5486  0.2817 -0.4090
 3689SOL    HW222530   3.793   2.225   5.518  0.8018 -0.9084 -0.2863
 3690SOL     OW22531   0.349   2.533   6.156 -0.3368  0.2355 -0.4312
 3690SOL    HW122532   0.422   2.484   6.194  0.1244  2.3879  1.4663
 3690SOL    HW222533   0.304   2.469   6.100 -0.4024 -0.4980  0.4405
 3691SOL     OW22534   2.121   2.542  14.900 -0.3565 -0.0253  0.0752
 3691SOL    HW122535   2.120   2.561  14.994  0.0778 -0.9132  0.2654
 3691SOL    HW222536   2.086   2.624  14.866 -0.5996 -0.3474 -0.4670
 3692SOL     OW22537   3.664   0.742   4.348  0.4235  0.4831 -0.5476
 3692SOL    HW122538   3.625   0.655   4.359 -1.6573  1.5209  0.2852
 3692SOL    HW222539   3.607   0.797   4.402  3.1856  2.5291  0.3053
 3693SOL     OW22540   0.407   1.356   2.973  0.3375  0.1518  0.1655
 3693SOL    HW122541   0.339   1.344   3.040 -0.5540  0.2096 -0.7223
 3693SOL    HW222542   0.356   1.363   2.892 -0.4829  0.9107  0.7421
 3694SOL     OW22543   2.054   2.295   8.052 -0.1781  0.5866  0.5860
 3694SOL    HW122544   2.137   2.340   8.063 -0.0450  0.6884 -0.8437
 3694SOL    HW222545   1.992   2.369   8.050  0.7631  1.2439 -3.4454
 3695SOL     OW22546   2.150   4.554   7.347 -0.2456  0.0299  0.3166
 3695SOL    HW122547   2.225   4.574   7.403  2.0815 -1.1474 -2.3621
 3695SOL    HW222548   2.109   4.638   7.329 -0.4014  0.2638  1.7673
 3696SOL     OW22549   1.905   1.006   4.519 -0.5298  0.4025 -0.4619
 3696SOL    HW122550   1.920   0.913   4.500  3.8717  0.8909  0.4391
 3696SOL    HW222551   1.820   1.023   4.479 -0.3870  1.5264 -0.2830
 3697SOL     OW22552   0.324   3.362   4.442 -0.4509 -0.0967 -0.3152
 3697SOL    HW122553   0.408   3.319   4.424 -1.2598 -1.6957 -0.2384
 3697SOL    HW222554   0.266   3.286   4.432  1.4857 -1.6311  0.0836
 3698SOL     OW22555   2.107   2.078  17.522  0.2316 -0.4012  0.8853
 3698SOL    HW122556   2.077   2.123  17.601  0.4816 -1.4544  1.5867
 3698SOL    HW222557   2.163   2.010  17.559  0.8664 -1.1269 -1.4144
 3699SOL     OW22558   0.099   1.722   4.433  0.1702  0.1192 -0.2210
 3699SOL    HW122559   0.162   1.712   4.362  0.0716  0.1782 -0.3179
 3699SOL    HW222560   0.017   1.686   4.399 -0.4970  1.0351  0.4079
 3700SOL     OW22561   3.333   1.150   4.553  0.2269  0.5874  0.3964
 3700SOL    HW122562   3.400   1.197   4.504  1.4032 -0.9173  0.5736
 3700SOL    HW222563   3.256   1.204   4.535 -0.5345  0.1645  2.3614
 3701SOL     OW22564   1.739   4.023   6.189  0.0281  0.1031  0.1805
 3701SOL    HW122565   1.824   3.981   6.183 -0.3978 -0.5945 -0.9138
 3701SOL    HW222566   1.674   3.953   6.200 -0.9528  1.1065  0.8582
 3702SOL     OW22567   3.730   0.647   4.657  0.1103 -0.0290  0.9483
 3702SOL    HW122568   3.820   0.618   4.673  0.1742  0.0609  0.7517
 3702SOL    HW222569   3.746   0.741   4.648  0.1292  0.0534  1.8589
 3703SOL     OW22570   0.952   2.342  16.708 -0.2372 -0.1759  0.2720
 3703SOL    HW122571   0.915   2.429  16.693 -1.8489 -0.6662  1.3468
 3703SOL    HW222572   0.888   2.314  16.773 -1.6093  0.8156 -0.6505
 3704SOL     OW22573   2.342   3.177  16.205  0.4419  0.2949 -0.3780
 3704SOL    HW122574   2.250   3.185  16.227  0.3935  3.7107 -1.8007
 3704SOL    HW222575   2.369   3.114  16.272  0.9945  0.9661  0.0348
 3705SOL     OW22576   1.521   3.289   1.656 -0.2564 -0.0571  0.3212
 3705SOL    HW122577   1.523   3.195   1.641 -1.3153  0.1408 -1.0788
 3705SOL    HW222578   1.589   3.295   1.724  0.7014  1.6052 -0.7722
 3706SOL     OW22579   3.474   3.478   2.530  0.2503  0.1214  0.2001
 3706SOL    HW122580   3.547   3.531   2.561  0.4843  0.1176 -0.3589
 3706SOL    HW222581   3.414   3.508   2.599  1.7928  1.2017  1.0806
 3707SOL     OW22582   2.109   1.909  10.333 -0.2272 -0.5255  0.1512
 3707SOL    HW122583   2.156   1.950  10.260  0.1607 -1.8994 -0.3755
 3707SOL    HW222584   2.041   1.874  10.276 -0.5387  0.3850 -0.0308
 3708SOL     OW22585   4.630   4.122  10.321  0.1681 -0.3434 -0.1876
 3708SOL    HW122586   4.535   4.113  10.318  0.1356 -0.9919  2.5172
 3708SOL    HW222587   4.648   4.036  10.282 -1.2752 -1.3199  1.3027
 3709SOL     OW22588   3.483   2.487  10.058 -0.0798  0.2225 -0.2022
 3709SOL    HW122589   3.460   2.550   9.990 -0.2724 -1.7167 -1.9549
 3709SOL    HW222590   3.401   2.439  10.071 -0.4514  1.0244  0.3692
 3710SOL     OW22591   2.446   3.351  16.865 -0.0064 -0.3236 -0.6641
 3710SOL    HW122592   2.352   3.336  16.872 -0.2240  2.0433  1.4331
 3710SOL    HW222593   2.484   3.354  16.953 -1.0953  0.0368 -0.2116
 3711SOL     OW22594   1.565   1.938   0.209  0.0232 -0.9608  0.2418
 3711SOL    HW122595   1.509   1.926   0.132 -0.4407 -0.1965  0.4588
 3711SOL    HW222596   1.501   1.985   0.263  0.3030  2.5620 -2.4917
 3712SOL     OW22597   1.175   4.156  15.551 -0.6052  0.2859  0.1332
 3712SOL    HW122598   1.158   4.071  15.590  1.2013 -1.2447 -2.3944
 3712SOL    HW222599   1.263   4.149  15.514 -1.0025  0.3412 -0.8220
 3713SOL     OW22600   2.173   3.366  16.956  0.9560 -0.3387 -0.3807
 3713SOL    HW122601   2.161   3.287  17.010 -1.0204 -0.0891 -0.4391
 3713SOL    HW222602   2.079   3.375  16.938  0.5742  1.7357  2.7587
 3714SOL     OW22603   3.855   0.574   2.904  0.1836  0.0872  1.2979
 3714SOL    HW122604   3.929   0.566   2.844  1.4195  0.2754  2.8134
 3714SOL    HW222605   3.778   0.594   2.851  0.0064 -1.4947  0.9634
 3715SOL     OW22606   4.029   0.647   3.271 -0.1920 -0.2048 -0.4687
 3715SOL    HW122607   4.117   0.623   3.242 -0.2536 -0.8499 -0.1385
 3715SOL    HW222608   4.053   0.692   3.352  3.5402 -1.8324 -0.6560
 3716SOL     OW22609   1.983   2.131   1.879  0.0612 -0.2173 -0.6475
 3716SOL    HW122610   1.915   2.182   1.833 -0.5154  2.0240  2.6600
 3716SOL    HW222611   1.929   2.065   1.922 -0.9129  0.0376 -1.4787
 3717SOL     OW22612   1.063   2.935   6.486 -0.2942  0.5573 -0.0901
 3717SOL    HW122613   1.012   2.861   6.453  0.4774  0.3887 -0.9028
 3717SOL    HW222614   1.058   2.984   6.404 -1.9229  0.9638  0.2726
 3718SOL     OW22615   0.811   2.352   6.620  0.1824  0.3747  0.0591
 3718SOL    HW122616   0.884   2.373   6.561  1.1337 -0.4077  0.9402
 3718SOL    HW222617   0.759   2.311   6.551  1.5654 -1.1463 -0.0965
 3719SOL     OW22618   3.160   0.170   5.084  0.2246  0.2876 -0.2622
 3719SOL    HW122619   3.231   0.111   5.057 -0.9427 -0.8490 -0.8568
 3719SOL    HW222620   3.206   0.247   5.049  0.7036 -0.0586 -0.3978
 3720SOL     OW22621   4.118   2.224   6.162  0.5021  0.2734  0.2925
 3720SOL    HW122622   4.197   2.274   6.184  0.9702 -0.7963  1.0918
 3720SOL    HW222623   4.158   2.143   6.128 -0.9608 -0.3278 -0.0011
 3721SOL     OW22624   2.665   0.226   4.015  0.0384 -0.2320 -0.1397
 3721SOL    HW122625   2.760   0.225   4.032 -0.1254 -0.5544  0.7554
 3721SOL    HW222626   2.628   0.252   4.099  0.0376 -0.2037 -0.1486
 3722SOL     OW22627   4.674   2.217  17.535 -0.6150  0.0554 -0.3469
 3722SOL    HW122628   4.687   2.296  17.482 -2.6184  0.5556 -0.0668
 3722SOL    HW222629   0.003   2.156  17.488 -0.8333  0.2894 -0.9126
 3723SOL     OW22630   2.868   3.969  16.997  0.1665 -0.1287 -0.0825
 3723SOL    HW122631   2.963   3.955  17.002  0.4439  1.8693  0.1407
 3723SOL    HW222632   2.851   3.973  16.902 -3.7718 -0.2122  0.6223
 3724SOL     OW22633   4.379   4.614   7.372 -0.1669  0.1980  0.0432
 3724SOL    HW122634   4.450   4.677   7.381 -1.4978  1.5731  0.8921
 3724SOL    HW222635   4.309   4.668   7.336  0.8955  2.3080  1.1450
 3725SOL     OW22636   3.606   2.806  15.244 -0.0273 -0.1492 -0.4486
 3725SOL    HW122637   3.549   2.844  15.177  1.8125 -1.1088 -2.5743
 3725SOL    HW222638   3.686   2.802  15.191 -0.2364 -0.6098 -0.7349
 3726SOL     OW22639   2.725   3.903   3.077 -0.4711 -0.2791  0.2664
 3726SOL    HW122640   2.816   3.922   3.056 -0.7177 -0.6126 -1.1048
 3726SOL    HW222641   2.693   3.966   3.012  1.6807  1.5526  0.9999
 3727SOL     OW22642   1.183   3.457   9.546 -0.2146  0.1672  0.0939
 3727SOL    HW122643   1.252   3.410   9.500  0.1432 -0.1784  0.9731
 3727SOL    HW222644   1.225   3.502   9.619 -0.6656  2.6134 -1.1369
 3728SOL     OW22645   3.460   2.005   5.457  0.0787 -0.9068 -0.0817
 3728SOL    HW122646   3.487   2.008   5.365 -0.8242 -0.1350 -0.3205
 3728SOL    HW222647   3.483   2.096   5.477  0.6953 -1.1537  0.3375
 3729SOL     OW22648   3.201   3.627   4.331  0.1676  0.3083 -0.2351
 3729SOL    HW122649   3.268   3.656   4.269  0.2970  0.7562  0.1123
 3729SOL    HW222650   3.124   3.637   4.276 -1.0779  0.0835  1.4486
 3730SOL     OW22651   2.416   2.468  13.315  0.5645  0.4387 -0.2338
 3730SOL    HW122652   2.413   2.496  13.406 -1.6764  0.4958 -0.3318
 3730SOL    HW222653   2.476   2.528  13.270  1.0441  0.3851  0.3366
 3731SOL     OW22654   0.689   1.085   1.027  0.0693 -0.5173 -0.1380
 3731SOL    HW122655   0.765   1.094   1.084  0.1949 -1.3351 -0.1707
 3731SOL    HW222656   0.662   1.176   1.013 -0.8766 -1.0280 -1.5770
 3732SOL     OW22657   3.285   3.573   2.331 -0.3999  0.4106  0.0292
 3732SOL    HW122658   3.308   3.530   2.413 -0.7803 -1.5455 -0.8999
 3732SOL    HW222659   3.190   3.562   2.337 -0.3776 -0.9852 -2.3095
 3733SOL     OW22660   4.198   4.602  13.776  0.3274 -0.4272 -0.0864
 3733SOL    HW122661   4.116   4.647  13.755 -0.8298 -2.5659 -0.1544
 3733SOL    HW222662   4.231   4.605  13.686  1.0396 -1.1572  0.1472
 3734SOL     OW22663   1.347   4.246   4.988  0.3896  0.4761  0.0401
 3734SOL    HW122664   1.316   4.167   4.943 -2.5734  1.4577  0.3780
 3734SOL    HW222665   1.370   4.301   4.914  0.2183  0.3752 -0.0885
 3735SOL     OW22666   2.370   4.231   5.498  0.0319  0.2344 -0.5116
 3735SOL    HW122667   2.309   4.295   5.462  0.2795  0.8331  0.1324
 3735SOL    HW222668   2.430   4.222   5.423  1.1015  0.1548  0.3469
 3736SOL     OW22669   1.280   3.547  14.731 -0.6130  0.0888  0.5716
 3736SOL    HW122670   1.346   3.533  14.663 -0.0015  1.3446  0.9094
 3736SOL    HW222671   1.222   3.472  14.735  0.8042 -0.9951  0.7643
 3737SOL     OW22672   4.042   3.983   9.097  0.2488  0.3860 -0.5138
 3737SOL    HW122673   4.025   3.948   9.184 -0.7955 -0.7483 -1.1833
 3737SOL    HW222674   3.958   4.022   9.072  0.2134  0.6723  0.0479
 3738SOL     OW22675   2.598   0.224   5.205 -0.6089  0.2168 -0.4067
 3738SOL    HW122676   2.578   0.296   5.145 -0.2983  0.3036 -0.4084
 3738SOL    HW222677   2.654   0.162   5.158  0.5807  0.2772  0.9407
 3739SOL     OW22678   3.723   0.085   8.537  0.2975  0.0608  0.0861
 3739SOL    HW122679   3.695   0.081   8.629  0.6055 -0.0025  0.1753
 3739SOL    HW222680   3.818   0.086   8.543  0.4257  3.8163 -2.5191
 3740SOL     OW22681   4.370   2.201   8.364 -0.4244  0.2811 -0.4486
 3740SOL    HW122682   4.381   2.276   8.305  0.5981 -0.7433 -1.5801
 3740SOL    HW222683   4.399   2.231   8.450  0.5967  0.8892 -1.0003
 3741SOL     OW22684   0.311   4.219   9.212  0.4882  0.0987  0.4490
 3741SOL    HW122685   0.284   4.210   9.121  0.4839  2.0044  0.2785
 3741SOL    HW222686   0.397   4.178   9.223  0.0690 -1.1481 -0.9354
 3742SOL     OW22687   0.906   0.791  14.486 -0.1677  0.5841  0.4824
 3742SOL    HW122688   0.819   0.807  14.522 -0.4964 -1.2808  0.4900
 3742SOL    HW222689   0.961   0.859  14.524 -0.5475  1.2946 -0.2291
 3743SOL     OW22690   3.589   1.642   5.849 -0.1670  0.2470 -0.2136
 3743SOL    HW122691   3.613   1.654   5.757 -1.8899 -1.3264 -0.8718
 3743SOL    HW222692   3.584   1.732   5.880  1.6220  0.0618  0.5987
 3744SOL     OW22693   4.420   2.231   0.373 -0.0459 -0.3899  0.1434
 3744SOL    HW122694   4.328   2.253   0.365 -0.4983 -1.7040  1.7282
 3744SOL    HW222695   4.435   2.246   0.466  1.0149 -1.1190  0.0935
 3745SOL     OW22696   1.806   3.401   6.601 -0.1819 -0.2168  0.1097
 3745SOL    HW122697   1.871   3.436   6.540  0.0342  2.2051  1.7637
 3745SOL    HW222698   1.844   3.321   6.638  0.4016 -0.9598 -2.0409
 3746SOL     OW22699   3.870   1.707   2.581 -0.0034 -0.1674 -0.0378
 3746SOL    HW122700   3.884   1.801   2.566  0.4013 -0.5216 -1.8674
 3746SOL    HW222701   3.910   1.668   2.504  0.3204  2.2348 -1.0981
 3747SOL     OW22702   0.051   3.613   6.122  0.8549  0.6464 -0.2850
 3747SOL    HW122703   0.105   3.608   6.042  1.7684  1.4396  0.2725
 3747SOL    HW222704   4.708   3.675   6.104  3.6063  4.6120  2.4141
 3748SOL     OW22705   2.351   1.892   3.474  0.4281  0.2304 -0.0333
 3748SOL    HW122706   2.372   1.875   3.566  0.5387 -0.1724 -0.1334
 3748SOL    HW222707   2.320   1.983   3.477 -1.6156 -0.4743  0.3939
 3749SOL     OW22708   4.031   1.225   3.184 -0.3274 -0.2136 -0.2253
 3749SOL    HW122709   3.963   1.161   3.165 -0.7431 -0.4330  2.0602
 3749SOL    HW222710   4.039   1.274   3.102 -0.2725 -1.1209 -0.7601
 3750SOL     OW22711   0.940   3.583   3.352  0.7199 -0.1653  0.0573
 3750SOL    HW122712   0.890   3.516   3.397  0.6069 -0.3149 -0.2892
 3750SOL    HW222713   0.968   3.543   3.269  2.3021  2.3768 -0.6579
 3751SOL     OW22714   1.116   3.141   4.663  0.1185  0.7313  0.5804
 3751SOL    HW122715   1.148   3.077   4.599  0.4557  2.3711 -0.9004
 3751SOL    HW222716   1.029   3.165   4.631  0.2317  1.1706  0.5897
 3752SOL     OW22717   2.202   2.143   1.689  0.3764 -0.4295  0.3822
 3752SOL    HW122718   2.267   2.119   1.755  3.7284 -0.1688 -2.8945
 3752SOL    HW222719   2.129   2.160   1.749  0.4890 -2.2521  1.0354
 3753SOL     OW22720   1.113   0.068   5.338 -0.7350 -0.2120 -0.1680
 3753SOL    HW122721   1.203   0.091   5.313 -1.1859 -0.4509 -1.9885
 3753SOL    HW222722   1.132   4.713   5.384  2.6568  0.1824 -0.8778
 3754SOL     OW22723   0.430   0.577   6.887  0.0044 -0.6523  0.4509
 3754SOL    HW122724   0.472   0.571   6.973  1.0954 -1.0210 -0.1138
 3754SOL    HW222725   0.368   0.649   6.901 -2.0303 -1.9974 -1.4612
 3755SOL     OW22726   1.636   1.238  13.074  0.1516  0.0768  0.2181
 3755SOL    HW122727   1.679   1.206  13.154 -1.1983 -2.0279  0.1120
 3755SOL    HW222728   1.611   1.326  13.100 -0.2451  0.2361 -0.7255
 3756SOL     OW22729   3.751   0.944   5.954 -0.8831 -1.1701  0.7622
 3756SOL    HW122730   3.784   0.877   5.893 -2.2614 -0.8650 -0.3229
 3756SOL    HW222731   3.792   0.909   6.033  0.6587 -1.5642 -0.2070
 3757SOL     OW22732   2.773   0.427   0.922 -0.0137  0.3127  0.4952
 3757SOL    HW122733   2.718   0.408   0.998  1.1956 -1.5456  0.8942
 3757SOL    HW222734   2.850   0.376   0.948  0.0812  0.5240  0.6273
 3758SOL     OW22735   4.132   0.144   7.747 -0.2158  0.7217  0.7346
 3758SOL    HW122736   4.158   0.068   7.800  2.0228  0.4599 -0.7349
 3758SOL    HW222737   4.052   0.109   7.710  1.6811 -0.9794 -1.7703
 3759SOL     OW22738   2.913   3.269   6.711 -0.3710  0.0590 -0.1615
 3759SOL    HW122739   2.959   3.307   6.636  0.0366  1.7876  0.9779
 3759SOL    HW222740   2.868   3.347   6.745  0.5163  0.4551  0.1098
 3760SOL     OW22741   3.672   1.125   0.491 -0.2959  0.8894 -0.5933
 3760SOL    HW122742   3.614   1.130   0.567 -2.5659  0.8987 -2.3029
 3760SOL    HW222743   3.754   1.157   0.529  0.9733 -0.2623 -2.3606
 3761SOL     OW22744   1.754   1.046   1.925 -0.3909 -0.1051  0.7441
 3761SOL    HW122745   1.829   0.991   1.903 -1.4098 -1.9030  1.7767
 3761SOL    HW222746   1.688   1.012   1.865  0.3873 -0.4640  0.0933
 3762SOL     OW22747   1.749   1.053  11.903  0.2043  0.7098 -0.1855
 3762SOL    HW122748   1.663   1.076  11.937  0.9773  1.3271  1.3883
 3762SOL    HW222749   1.740   0.977  11.846 -0.1228  1.7642 -1.5412
 3763SOL     OW22750   4.538   4.502   7.111 -0.2523 -0.3508 -0.1835
 3763SOL    HW122751   4.450   4.519   7.079  0.2202  1.8136 -0.3126
 3763SOL    HW222752   4.584   4.493   7.027  2.0751 -0.9301  1.1390
 3764SOL     OW22753   3.958   0.369   7.186  0.2004 -0.3290  0.3144
 3764SOL    HW122754   3.870   0.402   7.164  0.7388  1.1488  0.3510
 3764SOL    HW222755   3.950   0.343   7.277  2.3255 -1.3128  0.2178
 3765SOL     OW22756   4.544   1.340   5.512  0.3579 -0.0002 -0.4915
 3765SOL    HW122757   4.628   1.331   5.468 -0.2664  0.8760 -1.8609
 3765SOL    HW222758   4.486   1.308   5.443  0.9671  0.3725 -1.1838
 3766SOL     OW22759   0.835   0.727   2.832  0.7889 -0.5666 -0.4308
 3766SOL    HW122760   0.894   0.656   2.855  1.1813  0.5978  2.1141
 3766SOL    HW222761   0.860   0.799   2.889 -0.4964  1.0068 -1.8552
 3767SOL     OW22762   0.647   3.794  17.641  0.4188  0.4801 -0.0938
 3767SOL    HW122763   0.707   3.720  17.628 -1.1413 -0.4857 -1.8835
 3767SOL    HW222764   0.570   3.752  17.680 -0.3901  0.4044 -1.7826
 3768SOL     OW22765   4.539   3.788   0.841 -0.1204 -0.5462  0.0719
 3768SOL    HW122766   4.501   3.721   0.783  0.2415  1.0539 -2.0091
 3768SOL    HW222767   4.604   3.820   0.779  0.2916 -1.6240 -0.0412
 3769SOL     OW22768   1.392   4.465  12.513  0.0389 -0.3393 -0.0875
 3769SOL    HW122769   1.425   4.376  12.508  4.1910  1.2703 -0.9201
 3769SOL    HW222770   1.438   4.488  12.594 -0.0786 -0.4978  0.0259
 3770SOL     OW22771   4.605   2.912   6.472  0.3823  0.0743 -0.0954
 3770SOL    HW122772   4.607   2.885   6.381 -1.2909 -1.5664  0.3545
 3770SOL    HW222773   4.699   2.913   6.493  0.7864 -0.8329 -1.9121
 3771SOL     OW22774   3.184   1.355   8.343  0.1424  0.2678  0.6774
 3771SOL    HW122775   3.166   1.280   8.287  2.6767 -0.1161  0.4095
 3771SOL    HW222776   3.108   1.412   8.330  2.2040  3.2459  1.5835
 3772SOL     OW22777   2.028   1.028   7.579  0.1680  0.2777 -0.2956
 3772SOL    HW122778   2.024   0.988   7.492  0.2228 -2.0274  0.7651
 3772SOL    HW222779   2.121   1.004   7.582 -0.4769 -2.1512  0.2378
 3773SOL     OW22780   2.823   0.660   6.387 -0.5221  0.5199  0.2930
 3773SOL    HW122781   2.837   0.639   6.295  2.6215  1.3388  0.5759
 3773SOL    HW222782   2.777   0.744   6.388 -1.6048 -0.0633 -0.7667
 3774SOL     OW22783   2.056   1.683   6.673  0.0528 -0.7485 -0.0303
 3774SOL    HW122784   2.014   1.703   6.589 -0.8722  0.0558  0.6332
 3774SOL    HW222785   1.982   1.667   6.731 -0.6654  1.2075 -0.4017
 3775SOL     OW22786   1.769   1.381   3.048  0.1982  0.3300 -0.0600
 3775SOL    HW122787   1.729   1.311   2.996 -1.0195  1.2899 -0.4170
 3775SOL    HW222788   1.736   1.342   3.129  1.1293  0.8718  0.5943
 3776SOL     OW22789   4.053   2.121   1.975 -0.0566  0.2816 -0.1677
 3776SOL    HW122790   4.082   2.150   1.889 -0.0672  2.4849  0.5826
 3776SOL    HW222791   4.052   2.193   2.038  1.4218  0.7517 -0.6759
 3777SOL     OW22792   3.669   2.991  11.153 -0.1520  0.0582  0.1047
 3777SOL    HW122793   3.633   2.930  11.090  1.6546  0.2462 -1.1052
 3777SOL    HW222794   3.620   3.069  11.125  0.8018  0.8150  0.5125
 3778SOL     OW22795   4.348   0.704  11.026  0.0931  0.0802  0.2961
 3778SOL    HW122796   4.336   0.628  10.968 -1.8728 -0.0541  0.8708
 3778SOL    HW222797   4.312   0.772  10.968 -2.6423 -2.0762 -0.5528
 3779SOL     OW22798   3.941   4.201   5.270  0.0249  0.1732 -0.0004
 3779SOL    HW122799   3.900   4.126   5.313  0.0625 -0.0140 -0.2891
 3779SOL    HW222800   3.899   4.269   5.322 -0.1584  0.2584 -0.2575
 3780SOL     OW22801   4.667   4.120   5.162  0.1699  0.3955 -0.0063
 3780SOL    HW122802   4.624   4.065   5.226  0.2032 -0.7942 -1.0097
 3780SOL    HW222803   4.703   4.188   5.220 -1.4983  0.2099  1.2371
 3781SOL     OW22804   0.185   3.231   2.087  0.0286  0.1564 -0.0614
 3781SOL    HW122805   0.204   3.324   2.099  0.1543 -0.1200  1.9032
 3781SOL    HW222806   0.103   3.223   2.039  0.3580 -0.2825 -0.5696
 3782SOL     OW22807   3.479   0.131   6.459  0.0218  0.5262  0.6882
 3782SOL    HW122808   3.528   0.204   6.421  0.1345 -0.9415 -1.9876
 3782SOL    HW222809   3.549   0.071   6.485  1.1721  2.3667  1.8582
 3783SOL     OW22810   1.309   0.808   9.300  0.2035  0.3354 -0.9157
 3783SOL    HW122811   1.217   0.814   9.328  0.2372 -2.9787 -0.0086
 3783SOL    HW222812   1.363   0.794   9.377 -0.5877 -2.1680 -0.7998
 3784SOL     OW22813   1.402   4.494  11.115 -0.3301  0.2009  0.3017
 3784SOL    HW122814   1.307   4.484  11.113 -0.1548 -1.4310  0.3916
 3784SOL    HW222815   1.416   4.517  11.023  0.0963 -0.4878  0.1931
 3785SOL     OW22816   1.977   0.748   6.420  0.0009  0.0691 -0.0631
 3785SOL    HW122817   1.978   0.702   6.336 -0.6410  0.7249 -0.4309
 3785SOL    HW222818   1.931   0.682   6.470  0.5659  1.1688  1.8910
 3786SOL     OW22819   1.315   0.247  10.508  0.2806  0.0402 -0.5162
 3786SOL    HW122820   1.240   0.239  10.566  0.3670  1.3985 -0.2176
 3786SOL    HW222821   1.382   0.286  10.563  1.5318 -0.5539 -1.6089
 3787SOL     OW22822   3.026   1.562  11.487 -0.1477 -0.4273 -0.5723
 3787SOL    HW122823   3.043   1.472  11.459 -1.1179 -0.1924 -1.9196
 3787SOL    HW222824   2.934   1.569  11.461 -0.5370  1.6117  1.2675
 3788SOL     OW22825   3.962   1.874   1.129 -0.2559 -0.3128 -0.1470
 3788SOL    HW122826   4.001   1.922   1.056 -1.2790 -0.2234 -0.6431
 3788SOL    HW222827   4.001   1.931   1.196 -1.2128  0.9560 -0.6671
 3789SOL     OW22828   4.125   0.306   5.093 -0.2588  0.2354  0.5759
 3789SOL    HW122829   4.121   0.290   4.998 -1.0858 -1.6705  0.9304
 3789SOL    HW222830   4.217   0.330   5.108 -0.1522 -0.5741  1.2020
 3790SOL     OW22831   4.205   4.641   2.452  0.5810 -0.2820  0.4011
 3790SOL    HW122832   4.151   4.720   2.453 -1.3699 -1.5867 -0.9263
 3790SOL    HW222833   4.167   4.585   2.385 -1.0008  1.2578  0.0216
 3791SOL     OW22834   1.991   3.669   3.282  0.3580 -0.1436 -0.2924
 3791SOL    HW122835   2.008   3.728   3.209  0.0187  0.9548  0.5183
 3791SOL    HW222836   1.927   3.727   3.322  0.5482 -1.6980  2.3216
 3792SOL     OW22837   3.115   1.498   8.663  0.2303 -0.0430  0.2434
 3792SOL    HW122838   3.198   1.455   8.682  1.4137  2.3034  0.2616
 3792SOL    HW222839   3.146   1.541   8.583 -1.8959 -0.1715 -0.6541
 3793SOL     OW22840   1.962   0.964   7.209 -0.3001 -0.2187 -0.2017
 3793SOL    HW122841   1.893   0.906   7.175 -1.0604 -0.1062  1.1538
 3793SOL    HW222842   1.913   1.033   7.253  1.3985 -0.5150  2.1056
 3794SOL     OW22843   2.614   4.020  16.215  0.2024  0.0789  0.2226
 3794SOL    HW122844   2.554   4.022  16.290 -0.3225  0.6958 -0.2093
 3794SOL    HW222845   2.543   3.995  16.155  0.1062  0.5089  0.1559
 3795SOL     OW22846   3.109   2.284   0.606 -0.0789  0.1364  0.2530
 3795SOL    HW122847   3.047   2.212   0.611 -2.2265  2.0479  0.7629
 3795SOL    HW222848   3.161   2.262   0.683 -0.7844  0.4783  0.8161
 3796SOL     OW22849   3.297   2.285  11.671 -0.2731 -0.2876  0.2532
 3796SOL    HW122850   3.391   2.303  11.675 -0.4112  0.0879  1.8517
 3796SOL    HW222851   3.272   2.338  11.747  2.3679 -0.4662  1.2729
 3797SOL     OW22852   3.173   0.284  14.848  0.5240 -0.0624  0.5509
 3797SOL    HW122853   3.241   0.221  14.826 -0.8523 -0.6151 -2.1981
 3797SOL    HW222854   3.220   0.361  14.818  0.2431  0.5805  1.7490
 3798SOL     OW22855   0.592   3.120   7.693 -0.4298 -0.0953  0.6790
 3798SOL    HW122856   0.508   3.165   7.705 -1.0883 -1.4345  1.1082
 3798SOL    HW222857   0.608   3.136   7.600  1.5966  1.4749  1.3153
 3799SOL     OW22858   1.311   1.664  14.075  0.6728 -0.1375 -0.1141
 3799SOL    HW122859   1.256   1.729  14.031  1.1827  0.1293 -0.3641
 3799SOL    HW222860   1.295   1.674  14.168 -1.7188 -1.6985 -0.3868
 3800SOL     OW22861   0.213   0.643   1.908 -0.5406  0.1939 -0.3135
 3800SOL    HW122862   0.153   0.591   1.854  0.7070 -1.3593 -0.1989
 3800SOL    HW222863   0.279   0.657   1.840 -0.5094 -1.0189 -0.5258
 3801SOL     OW22864   0.133   2.903   6.552  0.0699  0.4157  0.9054
 3801SOL    HW122865   0.132   2.808   6.539  0.1456  0.4464  0.6754
 3801SOL    HW222866   0.227   2.918   6.558 -0.2976  2.3212  1.7299
 3802SOL     OW22867   2.249   4.383  15.537  0.1654 -0.2895  0.0293
 3802SOL    HW122868   2.267   4.422  15.451 -1.8965 -0.8145 -0.6445
 3802SOL    HW222869   2.220   4.293  15.518 -1.8646 -0.3617  3.5053
 3803SOL     OW22870   4.250   3.628   1.693 -0.4962 -0.2638 -0.3820
 3803SOL    HW122871   4.219   3.718   1.684  0.6563  0.1293 -0.4187
 3803SOL    HW222872   4.268   3.598   1.604  0.2886 -0.4150 -0.1673
 3804SOL     OW22873   2.760   0.602   8.176 -0.0816 -0.0455  0.1206
 3804SOL    HW122874   2.732   0.528   8.122  0.8743  0.0280 -0.4660
 3804SOL    HW222875   2.691   0.598   8.242 -1.8581  1.8487 -1.6133
 3805SOL     OW22876   1.944   4.264   7.758  0.0964  0.1487  0.2126
 3805SOL    HW122877   1.995   4.330   7.805 -0.4331  1.8728 -1.6220
 3805SOL    HW222878   1.858   4.305   7.770 -0.5931 -0.7200 -1.6767
 3806SOL     OW22879   3.759   3.711   3.271  0.5895 -0.5005  0.1970
 3806SOL    HW122880   3.844   3.749   3.248  1.5085 -2.3991  0.3504
 3806SOL    HW222881   3.737   3.754   3.354  1.5876  0.3583  0.0223
 3807SOL     OW22882   2.529   2.641  11.660 -0.2233  0.5901 -0.1426
 3807SOL    HW122883   2.566   2.670  11.744 -0.6847  0.4360  0.1140
 3807SOL    HW222884   2.467   2.571  11.680  0.0748  0.5031  0.4957
 3808SOL     OW22885   1.873   2.836   8.339  0.1703 -0.4875 -0.4330
 3808SOL    HW122886   1.823   2.757   8.359  0.6744 -0.1770  1.9696
 3808SOL    HW222887   1.837   2.835   8.250 -0.3254 -1.3113 -0.2326
 3809SOL     OW22888   3.322   0.623   3.314 -0.3590  0.1496 -0.1352
 3809SOL    HW122889   3.357   0.712   3.315 -1.5557  0.6147  0.1591
 3809SOL    HW222890   3.405   0.576   3.304 -0.8927 -1.0230  0.9652
 3810SOL     OW22891   1.982   0.679   4.570 -0.7236 -0.1260  0.1190
 3810SOL    HW122892   2.065   0.688   4.524 -0.6480 -1.2336  0.0402
 3810SOL    HW222893   1.929   0.630   4.507 -0.1635 -0.7916  0.1699
 3811SOL     OW22894   1.022   3.524   0.473  0.1428 -0.4003 -0.2070
 3811SOL    HW122895   1.107   3.504   0.512 -0.1156  0.6525  0.8827
 3811SOL    HW222896   1.042   3.498   0.383 -0.7400 -3.2750  0.4498
 3812SOL     OW22897   3.442   4.233  11.792 -0.1350  0.0160  0.0048
 3812SOL    HW122898   3.416   4.195  11.708 -0.2325  2.4435 -1.0680
 3812SOL    HW222899   3.441   4.151  11.841  0.1705  1.1609  1.9405
 3813SOL     OW22900   3.508   4.340  12.971 -0.6228  0.6770  0.3196
 3813SOL    HW122901   3.451   4.409  12.936  0.1942  1.7250  1.0541
 3813SOL    HW222902   3.533   4.378  13.055 -1.0974 -1.2631  1.3440
 3814SOL     OW22903   4.208   4.502  11.991 -0.2488  0.2872  0.1315
 3814SOL    HW122904   4.300   4.521  12.011 -0.4181 -1.5677  2.6908
 3814SOL    HW222905   4.193   4.530  11.901 -2.6040  0.6513  0.6547
 3815SOL     OW22906   2.364   0.127   3.782  0.1498  0.5977  0.3947
 3815SOL    HW122907   2.345   0.116   3.875 -0.1107  0.2776  0.3031
 3815SOL    HW222908   2.450   0.086   3.776  0.6941  1.6212  1.2511
 3816SOL     OW22909   3.886   1.032   5.445  0.3116 -0.0016 -0.4405
 3816SOL    HW122910   3.818   1.045   5.511  0.2870  0.8044 -0.6233
 3816SOL    HW222911   3.828   1.039   5.369 -1.4481  1.9882  1.0948
 3817SOL     OW22912   1.996   3.340  15.069  0.8406 -0.2236 -0.1060
 3817SOL    HW122913   1.994   3.255  15.113  1.8792 -0.1176  0.1573
 3817SOL    HW222914   1.907   3.371  15.084  0.1927 -1.8331 -0.7044
 3818SOL     OW22915   4.134   3.636   3.280  0.3975  0.3047 -0.1154
 3818SOL    HW122916   4.081   3.701   3.235  1.0871 -1.0302 -2.8787
 3818SOL    HW222917   4.213   3.634   3.226  2.0586  1.4055  2.2674
 3819SOL     OW22918   3.856   3.825   4.841 -0.6381 -0.8887  0.0523
 3819SOL    HW122919   3.838   3.872   4.922  0.5595  1.6982 -1.1792
 3819SOL    HW222920   3.795   3.873   4.785 -0.3554  0.1445  0.6337
 3820SOL     OW22921   0.260   0.639  15.344  0.6079  0.3674 -0.1619
 3820SOL    HW122922   0.233   0.607  15.258 -1.8052 -0.3483  0.8431
 3820SOL    HW222923   0.323   0.708  15.324  0.3189  0.9319  0.8703
 3821SOL     OW22924   0.527   2.277   6.928 -0.5388 -0.3530  0.3402
 3821SOL    HW122925   0.558   2.355   6.974 -1.3184  0.2092 -0.0775
 3821SOL    HW222926   0.605   2.222   6.919 -0.4841  0.0058 -1.4204
 3822SOL     OW22927   3.488   2.668   2.040 -0.5516  0.1428 -0.2006
 3822SOL    HW122928   3.576   2.632   2.051 -1.0182 -0.9151  0.0573
 3822SOL    HW222929   3.510   2.759   2.061 -0.3637  0.1264 -0.3251
 3823SOL     OW22930   0.153   3.054   5.686 -0.2004 -0.1933  0.2895
 3823SOL    HW122931   0.217   3.018   5.746  0.3078 -1.6522 -1.1114
 3823SOL    HW222932   0.096   2.980   5.663 -2.3442  1.6967 -0.5241
 3824SOL     OW22933   0.807   1.063   2.584 -0.5911  0.8384 -0.0603
 3824SOL    HW122934   0.742   1.059   2.514  0.6450 -1.4228 -1.0887
 3824SOL    HW222935   0.812   0.968   2.597  1.9272  0.7063 -2.0273
 3825SOL     OW22936   0.293   0.959  16.499  0.3043 -0.9997 -0.0326
 3825SOL    HW122937   0.225   0.899  16.530 -1.0049  0.9837  0.9248
 3825SOL    HW222938   0.267   0.954  16.407  1.4918 -0.1563 -0.4226
 3826SOL     OW22939   1.460   0.610   5.396  0.4612  0.6823 -0.0162
 3826SOL    HW122940   1.467   0.651   5.483  0.3497  1.8370 -0.5606
 3826SOL    HW222941   1.484   0.680   5.337 -0.5771  0.0351 -1.2046
 3827SOL     OW22942   0.766   1.552   7.850  0.5429  0.1593 -0.3359
 3827SOL    HW122943   0.765   1.578   7.758  2.3089 -0.1502 -0.4300
 3827SOL    HW222944   0.738   1.631   7.898  0.2017 -0.3219  0.2566
 3828SOL     OW22945   2.206   2.568   0.706  0.0135 -0.5709 -0.2457
 3828SOL    HW122946   2.190   2.622   0.628  2.8309 -0.1311 -0.5293
 3828SOL    HW222947   2.234   2.485   0.667  1.5040 -1.8480  3.6342
 3829SOL     OW22948   4.360   3.552   6.104  0.2087  0.4511 -0.3348
 3829SOL    HW122949   4.450   3.543   6.134  0.3106 -1.9893 -1.3663
 3829SOL    HW222950   4.315   3.575   6.185 -1.1728 -2.5964 -0.2308
 3830SOL     OW22951   1.531   4.041   7.132  0.3179  0.3043  0.4607
 3830SOL    HW122952   1.483   4.037   7.215  1.8651 -1.0988  1.2879
 3830SOL    HW222953   1.519   3.951   7.102  1.9366  0.7774 -1.5813
 3831SOL     OW22954   3.886   1.162   2.545 -0.1886 -0.0567 -0.1779
 3831SOL    HW122955   3.962   1.218   2.559  0.2370 -0.0183 -2.4952
 3831SOL    HW222956   3.880   1.186   2.452  0.0925 -1.2420 -0.5100
 3832SOL     OW22957   1.801   2.132   1.011 -0.6530  0.0500  0.1065
 3832SOL    HW122958   1.831   2.137   1.102  0.0459 -0.0418 -0.1199
 3832SOL    HW222959   1.730   2.194   1.027  0.8757  1.5904  0.9846
 3833SOL     OW22960   1.430   3.327   9.460 -0.1888 -0.4406  0.0333
 3833SOL    HW122961   1.452   3.235   9.469  2.8138  0.2706 -0.0722
 3833SOL    HW222962   1.487   3.359   9.530 -1.5090 -2.4577  2.0345
 3834SOL     OW22963   3.750   0.403   3.905 -0.1401  0.6405  0.1264
 3834SOL    HW122964   3.707   0.469   3.851 -1.9333 -1.0466 -0.4755
 3834SOL    HW222965   3.680   0.339   3.915  1.5140 -1.3149 -0.7017
 3835SOL     OW22966   4.631   2.980   3.329 -0.7549 -0.4154 -0.5678
 3835SOL    HW122967   4.563   2.928   3.371 -2.2989  1.0390 -1.2372
 3835SOL    HW222968   4.706   2.926   3.352 -0.1088 -0.1368 -1.9789
 3836SOL     OW22969   3.511   3.856   8.059 -0.7007  0.0813  0.3140
 3836SOL    HW122970   3.569   3.829   7.987  0.5796  1.8265  0.7038
 3836SOL    HW222971   3.500   3.948   8.038 -1.1795  0.0859  0.5782
 3837SOL     OW22972   4.193   1.292   4.011  0.4881  0.5423  0.0154
 3837SOL    HW122973   4.231   1.364   4.063 -0.9719 -0.4560  2.4711
 3837SOL    HW222974   4.136   1.341   3.952 -0.7947 -0.8392  0.1284
 3838SOL     OW22975   0.427   4.295  15.902  0.2938  0.4014 -0.2201
 3838SOL    HW122976   0.370   4.242  15.847 -0.8190 -0.0987  1.4191
 3838SOL    HW222977   0.482   4.232  15.949 -1.1353 -2.1265 -1.9420
 3839SOL     OW22978   3.029   4.309  14.188 -0.1437 -0.1143 -0.6465
 3839SOL    HW122979   3.047   4.358  14.107 -3.0017 -0.2830 -1.3951
 3839SOL    HW222980   3.088   4.236  14.170 -2.0039 -1.2917 -1.9681
 3840SOL     OW22981   3.474   1.847   9.659 -0.0166 -0.2652 -0.1838
 3840SOL    HW122982   3.528   1.770   9.673  0.1774 -0.5538 -2.5304
 3840SOL    HW222983   3.467   1.886   9.747 -2.5821 -0.4332 -0.3032
 3841SOL     OW22984   4.579   2.348   3.822  0.2361 -0.4315 -0.2309
 3841SOL    HW122985   4.525   2.423   3.799 -0.0922 -0.3729  0.7431
 3841SOL    HW222986   4.514   2.279   3.814 -2.4426  2.1742 -1.0811
 3842SOL     OW22987   3.236   3.710   0.787 -0.6628 -0.8495 -0.2702
 3842SOL    HW122988   3.297   3.753   0.846 -0.7829 -2.5793  1.1014
 3842SOL    HW222989   3.199   3.786   0.742  1.5408  1.0654  1.2356
 3843SOL     OW22990   0.780   4.376   3.588  0.4562  0.3012 -0.1152
 3843SOL    HW122991   0.689   4.352   3.575  0.6787  0.3733 -1.9367
 3843SOL    HW222992   0.781   4.408   3.678  2.1406  0.0578 -0.0375
 3844SOL     OW22993   2.055   1.416  14.300 -0.4369  0.1131 -0.2777
 3844SOL    HW122994   2.047   1.327  14.264  0.3446  0.3647 -1.0521
 3844SOL    HW222995   2.109   1.393  14.375  0.5149  0.1974 -0.9482
 3845SOL     OW22996   1.716   0.988   0.278 -0.3726  0.2095 -0.4570
 3845SOL    HW122997   1.727   1.046   0.203  0.4079  2.3649  1.3461
 3845SOL    HW222998   1.806   0.954   0.284 -0.6531 -0.8148 -1.9582
 3846SOL     OW22999   4.035   4.301  11.344 -0.3758 -0.0925 -0.2186
 3846SOL    HW123000   3.974   4.230  11.363 -2.3420  2.0081  1.3654
 3846SOL    HW223001   3.980   4.334  11.273 -0.2053  2.7952  1.0008
 3847SOL     OW23002   1.910   3.985   9.037 -0.4484 -0.1716 -0.1447
 3847SOL    HW123003   1.917   3.889   9.044  2.2946  0.2504  2.8246
 3847SOL    HW223004   1.882   4.007   9.126  2.5464 -1.2336  1.0886
 3848SOL     OW23005   4.660   3.943   3.602  0.3819  0.4863  0.1813
 3848SOL    HW123006   4.645   3.963   3.694  3.0204  1.3225  0.4249
 3848SOL    HW223007   4.600   3.999   3.552 -0.9971 -1.7169 -0.6504
 3849SOL     OW23008   1.526   0.416   4.372  0.2371  0.1893 -0.0148
 3849SOL    HW123009   1.490   0.503   4.392 -2.8454 -1.4207  1.4352
 3849SOL    HW223010   1.500   0.376   4.455  1.5110  1.5216  1.0297
 3850SOL     OW23011   0.773   4.063   1.516 -0.1647 -0.1710  0.4680
 3850SOL    HW123012   0.741   3.973   1.504 -1.2552  0.2736  0.0692
 3850SOL    HW223013   0.868   4.052   1.518  0.0747  1.6652 -0.8773
 3851SOL     OW23014   2.474   2.696   4.344  0.2018  0.4319 -0.1397
 3851SOL    HW123015   2.492   2.615   4.298  1.5787  0.7233 -0.1355
 3851SOL    HW223016   2.550   2.695   4.403  1.5917 -0.0724 -1.9346
 3852SOL     OW23017   0.005   2.360  15.060  0.1695 -0.4369 -1.0242
 3852SOL    HW123018   0.093   2.395  15.066 -0.4313  0.7152  1.2722
 3852SOL    HW223019   0.008   2.313  14.977  2.0237  0.5302 -1.4998
 3853SOL     OW23020   3.537   1.398  11.728  0.1419  0.5072  0.2420
 3853SOL    HW123021   3.566   1.481  11.689 -0.7797  0.1405 -1.2075
 3853SOL    HW223022   3.456   1.385  11.678 -1.1335  5.7636  0.9545
 3854SOL     OW23023   4.620   3.712   6.766 -0.2911  0.0105  0.0502
 3854SOL    HW123024   4.566   3.706   6.687  0.1326 -1.9961 -0.0985
 3854SOL    HW223025   4.625   3.621   6.796 -0.2798  0.1050  0.3396
 3855SOL     OW23026   1.607   4.423   0.754  0.4822  0.1558 -0.0819
 3855SOL    HW123027   1.578   4.463   0.672 -3.1047 -1.5455  0.3687
 3855SOL    HW223028   1.634   4.502   0.801  0.6247 -1.1758  2.0918
 3856SOL     OW23029   1.346   2.763   6.449  0.7160 -0.3077 -0.5468
 3856SOL    HW123030   1.256   2.796   6.451  0.2799 -1.5373  0.3749
 3856SOL    HW223031   1.364   2.798   6.362  0.9219  0.6796 -0.1017
 3857SOL     OW23032   0.094   3.934   3.383  0.2616 -0.0077  0.0865
 3857SOL    HW123033   0.045   3.924   3.464  0.9681 -2.1183  0.2647
 3857SOL    HW223034   0.151   4.010   3.395 -0.7472  0.9677 -1.2701
 3858SOL     OW23035   2.217   2.734  12.403 -0.1089 -0.6138  0.5490
 3858SOL    HW123036   2.287   2.703  12.460  0.1040 -0.9219  0.1254
 3858SOL    HW223037   2.218   2.668  12.333 -1.9735  1.2167 -1.2085
 3859SOL     OW23038   0.431   3.311  17.169 -0.0232 -0.2018 -0.0844
 3859SOL    HW123039   0.448   3.286  17.260  0.2214  1.2339  0.2624
 3859SOL    HW223040   0.364   3.378  17.184 -1.1661 -2.1562  3.6078
 3860SOL     OW23041   0.522   3.907   8.356 -0.0603 -0.0901  0.1736
 3860SOL    HW123042   0.601   3.961   8.351  0.8900 -1.4085  0.7974
 3860SOL    HW223043   0.459   3.979   8.363  1.7444  1.4780  0.3342
 3861SOL     OW23044   2.736   3.544   6.356  0.0147  0.5248 -0.2982
 3861SOL    HW123045   2.794   3.584   6.292  0.0544 -0.1362 -0.6829
 3861SOL    HW223046   2.805   3.503   6.408 -0.7250 -0.2615  0.0651
 3862SOL     OW23047   4.373   2.937   1.066 -0.0332  0.8981  0.0774
 3862SOL    HW123048   4.311   2.915   1.135 -0.2316  0.1057 -0.3476
 3862SOL    HW223049   4.311   2.924   0.994  0.7929 -0.8551 -0.3231
 3863SOL     OW23050   1.886   3.377   5.757 -0.1549 -0.6348  0.5798
 3863SOL    HW123051   1.945   3.301   5.756 -2.2046 -2.2251  0.5013
 3863SOL    HW223052   1.799   3.337   5.764 -0.4224 -0.0837  0.3726
 3864SOL     OW23053   3.106   1.184   9.093 -0.3992 -0.3738  0.5731
 3864SOL    HW123054   3.061   1.100   9.094  1.1853 -1.2172  1.5307
 3864SOL    HW223055   3.082   1.219   9.007  1.1456  1.1942  0.7711
 3865SOL     OW23056   1.284   3.935  16.343 -0.4152 -0.3791 -0.4565
 3865SOL    HW123057   1.289   3.840  16.332  3.2106 -0.1904 -0.4635
 3865SOL    HW223058   1.374   3.936  16.376 -1.2109  2.6288  1.6557
 3866SOL     OW23059   3.233   1.756  15.050 -0.1878 -0.2784 -0.8126
 3866SOL    HW123060   3.216   1.739  15.143 -0.3426 -0.8908 -0.9522
 3866SOL    HW223061   3.292   1.686  15.023  1.1664  0.4316  0.2869
 3867SOL     OW23062   1.382   0.243   7.610  0.4579 -0.2909  0.6826
 3867SOL    HW123063   1.303   0.289   7.581 -0.1753 -1.0388  1.2227
 3867SOL    HW223064   1.366   0.150   7.593 -3.1596  0.2706  0.8770
 3868SOL     OW23065   4.394   2.861   1.783 -0.1393 -0.3237 -0.1719
 3868SOL    HW123066   4.347   2.935   1.823  2.1626  1.6204 -1.0850
 3868SOL    HW223067   4.470   2.852   1.840 -0.4551 -1.1366  0.1161
 3869SOL     OW23068   3.884   0.713   2.394  0.0395  0.3537  0.1235
 3869SOL    HW123069   3.794   0.742   2.406 -0.8496 -1.9392 -1.1091
 3869SOL    HW223070   3.874   0.629   2.350 -0.4891  0.3680  0.2191
 3870SOL     OW23071   4.384   1.559   6.460  0.0941  0.5233 -0.3840
 3870SOL    HW123072   4.378   1.465   6.446  0.2150  0.6678 -1.4236
 3870SOL    HW223073   4.418   1.597   6.378  1.5357 -0.5276 -0.2674
 3871SOL     OW23074   0.831   1.111   0.246  0.1190 -0.4616 -0.0479
 3871SOL    HW123075   0.922   1.082   0.254  0.9445  1.9550 -0.6748
 3871SOL    HW223076   0.796   1.045   0.186 -0.0158 -1.0243  0.6578
 3872SOL     OW23077   4.496   4.113   7.820  0.3568 -0.4989  0.4312
 3872SOL    HW123078   4.444   4.190   7.845  1.6779  1.0038 -1.4362
 3872SOL    HW223079   4.564   4.127   7.886  0.4977 -2.5029  0.6978
 3873SOL     OW23080   2.487   3.845  13.690 -0.0215  0.9329  0.4678
 3873SOL    HW123081   2.563   3.791  13.713 -0.5199 -1.3631 -3.2528
 3873SOL    HW223082   2.461   3.870  13.779  1.9556 -1.3433  1.6927
 3874SOL     OW23083   3.797   2.602   6.234  0.5011  0.3879  0.0126
 3874SOL    HW123084   3.879   2.614   6.282 -0.1792  0.5276  1.1322
 3874SOL    HW223085   3.752   2.687   6.229  0.6168  0.4003 -0.7769
 3875SOL     OW23086   4.681   2.551   3.478 -0.6170  0.2268 -0.2555
 3875SOL    HW123087   4.615   2.481   3.480 -0.5270  0.1191 -1.2066
 3875SOL    HW223088   4.679   2.575   3.385 -1.4782  0.2557 -0.2364
 3876SOL     OW23089   4.219   2.543  10.503 -0.6311  1.0781 -0.0387
 3876SOL    HW123090   4.312   2.534  10.524 -0.8292 -0.0066  0.3916
 3876SOL    HW223091   4.217   2.630  10.544  1.7668  1.0950  0.0943
 3877SOL     OW23092   1.165   2.584   6.248 -0.4170  0.0390 -0.8409
 3877SOL    HW123093   1.208   2.634   6.179  1.7987  0.0384  0.5507
 3877SOL    HW223094   1.120   2.522   6.190 -2.1379 -1.4436  2.1013
 3878SOL     OW23095   2.993   2.830  12.212 -0.3769  0.2673  0.2567
 3878SOL    HW123096   2.934   2.781  12.155  1.4879 -0.1356 -1.3258
 3878SOL    HW223097   3.041   2.758  12.251 -0.5949  0.4909  0.9577
 3879SOL     OW23098   1.469   1.841  14.724  0.2638 -0.2199  0.7401
 3879SOL    HW123099   1.555   1.884  14.721  1.3344 -2.2475  2.2456
 3879SOL    HW223100   1.488   1.764  14.777 -0.9338  1.1658  3.1982
 3880SOL     OW23101   1.420   0.214   3.884 -0.6639 -0.5934 -0.5203
 3880SOL    HW123102   1.467   0.140   3.923  1.9661  1.8856  0.9366
 3880SOL    HW223103   1.427   0.282   3.951  0.8380 -1.5257  0.2777
 3881SOL     OW23104   0.041   0.850  15.798  0.2375  0.4132  0.5171
 3881SOL    HW123105   4.683   0.875  15.834  0.1630 -0.6821  1.1120
 3881SOL    HW223106   0.019   0.770  15.750 -0.9033 -0.6309  2.7629
 3882SOL     OW23107   4.420   2.825   5.712  0.3886 -0.5752 -0.4818
 3882SOL    HW123108   4.482   2.812   5.783  0.4335 -1.3449 -0.6677
 3882SOL    HW223109   4.351   2.767   5.744 -0.5503 -0.6192 -2.5618
 3883SOL     OW23110   4.340   4.190   3.667  0.6857 -0.3273  0.1683
 3883SOL    HW123111   4.278   4.244   3.619 -0.9586 -0.8978  1.6671
 3883SOL    HW223112   4.341   4.223   3.757 -1.3705  0.6792 -0.1853
 3884SOL     OW23113   1.198   1.719  16.610 -0.3074 -0.0906 -0.9264
 3884SOL    HW123114   1.225   1.640  16.564 -1.3196 -0.2744 -1.2060
 3884SOL    HW223115   1.283   1.763  16.615 -1.2362  1.6391 -0.4875
 3885SOL     OW23116   3.312   3.494   9.169 -0.6674  0.4588 -0.2082
 3885SOL    HW123117   3.367   3.466   9.095 -1.1243  1.6290 -0.9927
 3885SOL    HW223118   3.363   3.560   9.215  0.5100  0.1367 -1.0411
 3886SOL     OW23119   2.665   4.485   4.494 -0.7830 -0.5680 -0.1818
 3886SOL    HW123120   2.705   4.530   4.569  1.1758 -0.3209 -1.4040
 3886SOL    HW223121   2.629   4.559   4.445 -1.6111 -0.4783  0.5375
 3887SOL     OW23122   1.043   2.631   4.099 -0.0095  0.0181 -0.1733
 3887SOL    HW123123   1.090   2.555   4.134 -1.3635 -0.1346  1.3172
 3887SOL    HW223124   1.073   2.629   4.008  1.8818  1.8692  0.4183
 3888SOL     OW23125   3.613   1.093   9.339  0.3518  0.2502 -0.2416
 3888SOL    HW123126   3.609   1.015   9.396  0.0163 -1.7810 -3.0582
 3888SOL    HW223127   3.532   1.081   9.291 -0.3595  1.1867  0.7321
 3889SOL     OW23128   1.294   2.197   7.344  0.2355 -0.0778  0.0838
 3889SOL    HW123129   1.359   2.258   7.379  0.6199 -1.0274  1.0347
 3889SOL    HW223130   1.208   2.222   7.376 -0.1745 -0.5339 -0.6736
 3890SOL     OW23131   2.739   2.017  16.947 -0.4959 -0.3296 -0.3771
 3890SOL    HW123132   2.814   1.963  16.971 -0.8957 -1.4243 -1.6240
 3890SOL    HW223133   2.725   1.991  16.856 -0.9932 -1.9710  0.1676
 3891SOL     OW23134   4.692   0.907   1.976 -0.4669  0.0029 -0.3389
 3891SOL    HW123135   0.023   0.832   1.984 -0.7508 -0.2234 -0.3641
 3891SOL    HW223136   4.654   0.883   1.892  1.2074 -2.8853 -0.2551
 3892SOL     OW23137   2.755   3.429   7.198  0.0915  0.2007  0.0837
 3892SOL    HW123138   2.766   3.395   7.287 -0.4085  0.1338  0.1184
 3892SOL    HW223139   2.835   3.404   7.152 -0.3391 -0.2280 -0.4234
 3893SOL     OW23140   1.092   4.466  10.859 -0.1464 -0.2958  0.4404
 3893SOL    HW123141   1.102   4.489  10.951 -1.2729  0.7964  0.2966
 3893SOL    HW223142   1.058   4.547  10.821  0.1702  0.9176  2.7558
 3894SOL     OW23143   2.019   4.190   7.150  0.3028  0.3162  0.1445
 3894SOL    HW123144   2.056   4.108   7.183  0.2110  0.4644  0.6136
 3894SOL    HW223145   1.937   4.166   7.108  0.0648 -0.3167  0.9703
 3895SOL     OW23146   1.820   3.133   5.918 -0.3077  0.6062 -0.0355
 3895SOL    HW123147   1.906   3.095   5.901 -1.6138 -1.9356 -0.8966
 3895SOL    HW223148   1.811   3.127   6.013 -2.2181  0.0731 -0.2500
 3896SOL     OW23149   3.438   2.666   8.951 -0.0737  0.7594 -0.0667
 3896SOL    HW123150   3.368   2.717   8.911  0.4982 -0.6984 -2.8991
 3896SOL    HW223151   3.480   2.734   9.004 -2.1286  0.1903  2.2847
 3897SOL     OW23152   1.875   0.157  13.438 -0.1818  1.0020  0.1115
 3897SOL    HW123153   1.803   0.096  13.420 -0.2995  0.6976  1.6040
 3897SOL    HW223154   1.888   0.192  13.350 -0.9502 -2.3236 -1.3387
 3898SOL     OW23155   2.166   4.670   9.351 -0.5595 -0.1804  0.0126
 3898SOL    HW123156   2.259   4.677   9.331 -0.2640 -0.3007  1.3247
 3898SOL    HW223157   2.157   4.589   9.401  0.4668 -1.4139 -1.8517
 3899SOL     OW23158   2.056   0.774   1.118 -0.1015 -0.4927  0.5278
 3899SOL    HW123159   2.068   0.835   1.045  2.0523 -0.5856  0.8138
 3899SOL    HW223160   2.088   0.832   1.187 -0.5883 -2.0800  2.0766
 3900SOL     OW23161   0.942   2.776  15.939 -0.3586 -0.2418 -0.2601
 3900SOL    HW123162   0.988   2.830  15.876 -1.3355  2.9955  1.8282
 3900SOL    HW223163   0.854   2.813  15.951 -0.5831 -1.3144  1.4929
 3901SOL     OW23164   1.818   3.119  16.259  0.3842 -0.6032 -0.0088
 3901SOL    HW123165   1.729   3.110  16.223  0.7285 -0.2378 -0.9508
 3901SOL    HW223166   1.811   3.068  16.339  1.1852  0.5220  0.7712
 3902SOL     OW23167   0.246   1.053   9.306  0.6683 -1.1646 -0.1481
 3902SOL    HW123168   0.307   1.052   9.380  1.9001  0.1818 -1.1575
 3902SOL    HW223169   0.298   1.090   9.235 -1.8240  2.7522  0.1097
 3903SOL     OW23170   2.817   2.434   4.286 -0.1029  0.1761  0.2784
 3903SOL    HW123171   2.875   2.510   4.290  0.2581 -0.0777 -0.1417
 3903SOL    HW223172   2.843   2.394   4.203 -0.5253  0.2412  0.1148
 3904SOL     OW23173   3.008   1.912  16.905 -0.1378  0.3338  0.1710
 3904SOL    HW123174   3.076   1.928  16.839  1.4556 -2.7570  1.0616
 3904SOL    HW223175   2.953   1.847  16.861 -0.4188  3.0431 -3.5071
 3905SOL     OW23176   0.123   1.201   3.761 -0.0214  0.2035  0.2464
 3905SOL    HW123177   0.109   1.111   3.731 -0.4605 -0.1975  1.6718
 3905SOL    HW223178   0.096   1.199   3.853  0.6608  2.6211  0.5120
 3906SOL     OW23179   1.665   1.581   0.451 -0.2140 -0.6999 -0.3905
 3906SOL    HW123180   1.729   1.632   0.402 -0.9231  1.0355  0.4976
 3906SOL    HW223181   1.691   1.604   0.540 -1.9948  1.5888 -0.4639
 3907SOL     OW23182   3.134   3.260  15.768  0.0438  0.1821  0.1971
 3907SOL    HW123183   3.123   3.348  15.803 -3.4405  0.9718 -2.9015
 3907SOL    HW223184   3.158   3.278  15.677 -0.7703  1.6173  0.2781
 3908SOL     OW23185   4.667   4.429   2.358  0.1711 -0.2896 -0.1834
 3908SOL    HW123186   4.649   4.358   2.420  0.4873 -0.8255 -0.7087
 3908SOL    HW223187   0.033   4.410   2.347  0.2512 -1.0962  1.8249
 3909SOL     OW23188   3.232   1.890   5.711 -0.3478 -0.3764 -0.2664
 3909SOL    HW123189   3.225   1.974   5.665 -0.7073  0.3445  1.0944
 3909SOL    HW223190   3.220   1.913   5.803 -0.3571  0.9509 -0.5988
 3910SOL     OW23191   2.827   3.550   3.955  0.1550  0.2206  0.2921
 3910SOL    HW123192   2.769   3.518   3.885  1.5815 -0.6669 -0.5041
 3910SOL    HW223193   2.769   3.618   3.988 -1.1383 -0.7095 -0.0582
 3911SOL     OW23194   3.930   0.959   6.224  0.1804 -0.6964 -0.2534
 3911SOL    HW123195   3.921   0.868   6.195 -1.5623 -1.5276  2.8418
 3911SOL    HW223196   3.843   0.991   6.249 -0.0469 -1.6322  0.1580
 3912SOL     OW23197   0.441   0.067   5.064 -0.2509 -0.1767 -0.2954
 3912SOL    HW123198   0.401   0.124   4.998  2.4293  0.7105 -1.1312
 3912SOL    HW223199   0.474   4.727   5.005  2.4521  0.2925  0.6910
 3913SOL     OW23200   1.839   1.106   1.275  0.1409 -0.0028  0.6172
 3913SOL    HW123201   1.798   1.189   1.300  1.8286  0.6671  1.1208
 3913SOL    HW223202   1.776   1.048   1.232 -0.0654  0.8768 -0.2644
 3914SOL     OW23203   2.866   1.092   5.804  0.2768  0.1438  0.9237
 3914SOL    HW123204   2.842   1.021   5.744 -0.2758  0.5925  0.6115
 3914SOL    HW223205   2.927   1.048   5.863  1.6309 -0.6492 -1.0490
 3915SOL     OW23206   2.884   2.122   0.542 -1.1599 -0.2127  0.4959
 3915SOL    HW123207   2.847   2.068   0.471 -1.9054 -0.8301  1.3470
 3915SOL    HW223208   2.839   2.202   0.517 -2.3495 -0.7692  0.8479
 3916SOL     OW23209   3.402   0.474   5.664 -0.0106 -0.5873 -0.0934
 3916SOL    HW123210   3.449   0.457   5.583  1.4047  1.2970  0.3321
 3916SOL    HW223211   3.381   0.388   5.701  2.1384 -1.4432 -0.8204
 3917SOL     OW23212   2.935   2.142   8.927  1.0409 -0.5549  0.0684
 3917SOL    HW123213   2.966   2.215   8.873 -1.3253  2.4751  2.8552
 3917SOL    HW223214   3.018   2.136   8.975  1.1992 -1.2280 -0.2903
 3918SOL     OW23215   4.720   3.173   9.691  0.3334  0.5441 -0.2605
 3918SOL    HW123216   4.722   3.241   9.624 -0.9484  0.1248 -0.7286
 3918SOL    HW223217   0.087   3.173   9.707  0.6964  2.2177 -2.4838
 3919SOL     OW23218   0.672   2.947   7.036 -0.2987 -0.2495 -0.3766
 3919SOL    HW123219   0.663   2.912   7.124 -0.1326 -0.2053 -0.3411
 3919SOL    HW223220   0.742   2.896   6.997 -0.2532  2.2234 -3.5347
 3920SOL     OW23221   1.330   2.280   7.665 -0.0835 -0.0319 -0.8285
 3920SOL    HW123222   1.350   2.367   7.699 -2.7239 -0.9987  3.2255
 3920SOL    HW223223   1.350   2.212   7.729  1.0580  1.0355 -0.0566
 3921SOL     OW23224   0.231   3.946   0.436 -0.2637  0.2824  0.3781
 3921SOL    HW123225   0.291   3.880   0.471  0.4771  0.0628 -1.2882
 3921SOL    HW223226   0.290   3.991   0.375 -0.3695  2.3198  1.8024
 3922SOL     OW23227   0.562   4.003   7.409  0.1525  0.4291  0.1726
 3922SOL    HW123228   0.581   3.942   7.337 -1.3849 -0.4066  0.4802
 3922SOL    HW223229   0.644   4.017   7.457  0.6582 -1.4666 -0.1291
 3923SOL     OW23230   3.891   4.322   7.724  0.0363 -0.3926 -0.4369
 3923SOL    HW123231   3.813   4.362   7.761  0.8480  2.3457 -1.7254
 3923SOL    HW223232   3.912   4.248   7.781 -0.5867 -0.4949 -0.3339
 3924SOL     OW23233   4.330   1.850  15.120  0.1780 -0.2463 -0.4883
 3924SOL    HW123234   4.372   1.776  15.163  1.3991  1.3434  1.0628
 3924SOL    HW223235   4.409   1.864  15.068  0.7768 -1.7106  0.0297
 3925SOL     OW23236   1.350   1.328   5.112 -0.2655  0.7214  0.6823
 3925SOL    HW123237   1.263   1.346   5.147 -1.1167  1.0592 -1.5885
 3925SOL    HW223238   1.339   1.342   5.018  0.4528  0.0428  0.4915
 3926SOL     OW23239   4.379   4.110   5.033  0.9044 -0.1414 -0.2294
 3926SOL    HW123240   4.416   4.183   5.083  0.1511  1.5667 -2.1996
 3926SOL    HW223241   4.293   4.098   5.074 -0.0641  2.2482 -1.5611
 3927SOL     OW23242   2.872   1.914   5.460 -0.2410 -0.7467 -0.4414
 3927SOL    HW123243   2.781   1.920   5.430 -0.2439 -0.9472 -0.4738
 3927SOL    HW223244   2.902   2.004   5.447  2.1660 -1.2071  1.8297
 3928SOL     OW23245   0.255   2.514  14.976  0.0974  0.3530 -0.4657
 3928SOL    HW123246   0.267   2.605  14.948  0.4189 -0.1743 -2.0283
 3928SOL    HW223247   0.321   2.474  14.921  1.5338  2.0001  0.0588
 3929SOL     OW23248   3.325   3.523   6.781 -0.2648 -0.2078  0.1654
 3929SOL    HW123249   3.233   3.524   6.809  1.0408  2.3257  4.3350
 3929SOL    HW223250   3.321   3.603   6.727  1.0621  0.3695  0.9282
 3930SOL     OW23251   2.734   2.811   6.214  0.0506 -0.0632 -0.4278
 3930SOL    HW123252   2.753   2.875   6.283 -2.3806  0.5799 -0.3573
 3930SOL    HW223253   2.764   2.730   6.254  0.5915  1.1223  1.5851
 3931SOL     OW23254   1.419   0.536   1.451 -0.0364 -0.2547  0.5901
 3931SOL    HW123255   1.383   0.455   1.488  1.2155 -0.8363  0.5395
 3931SOL    HW223256   1.387   0.525   1.362  0.4725 -1.4143  0.5369
 3932SOL     OW23257   3.408   4.086   6.467 -0.3634 -0.4304  0.2075
 3932SOL    HW123258   3.462   4.034   6.408 -2.0823 -1.2590 -0.6287
 3932SOL    HW223259   3.472   4.117   6.531 -0.6122  0.9351 -0.2020
 3933SOL     OW23260   3.697   2.301   2.037 -0.2746  0.3825 -0.5833
 3933SOL    HW123261   3.740   2.216   2.022 -2.0970 -0.3450 -1.6690
 3933SOL    HW223262   3.610   2.288   1.999 -0.6350 -0.1218  0.4133
 3934SOL     OW23263   0.969   1.234  14.586 -0.2324 -0.0775 -0.0898
 3934SOL    HW123264   1.036   1.207  14.524 -0.3659 -1.0969  0.2049
 3934SOL    HW223265   0.952   1.319  14.546 -1.5254 -0.3387 -0.1060
 3935SOL     OW23266   4.396   1.861   4.340 -0.6141  0.4885  0.0611
 3935SOL    HW123267   4.451   1.931   4.376  0.1099  0.1677 -0.4319
 3935SOL    HW223268   4.450   1.830   4.267  0.1570  0.6692  0.5498
 3936SOL     OW23269   2.295   1.715  17.348 -0.2757  0.0709  0.3096
 3936SOL    HW123270   2.265   1.744  17.434 -3.0545 -0.6690 -0.4191
 3936SOL    HW223271   2.298   1.800  17.304  3.8830 -0.0965  0.2337
 3937SOL     OW23272   1.823   3.838  16.086  0.4230  0.2955  0.2026
 3937SOL    HW123273   1.803   3.783  16.161 -0.8246  0.4187 -0.0350
 3937SOL    HW223274   1.854   3.777  16.019  0.1759  2.2911 -1.7451
 3938SOL     OW23275   4.562   3.664   5.545 -0.0437 -0.1882 -0.0909
 3938SOL    HW123276   4.483   3.717   5.550  0.7052  0.9954 -0.7543
 3938SOL    HW223277   4.514   3.592   5.503  0.7158 -0.9178  0.2850
 3939SOL     OW23278   3.679   3.661   3.777 -0.5675  0.4176 -0.5788
 3939SOL    HW123279   3.695   3.567   3.787 -1.0338  0.2793 -1.1584
 3939SOL    HW223280   3.634   3.668   3.861  1.3750  1.1859  0.4045
 3940SOL     OW23281   2.818   4.307   6.499  0.5136  0.0153  0.0882
 3940SOL    HW123282   2.769   4.244   6.447 -0.7279  0.8369  0.2659
 3940SOL    HW223283   2.906   4.294   6.464  0.6248 -0.6819  0.6261
 3941SOL     OW23284   4.665   1.538   9.115  0.0333 -0.2507 -0.5141
 3941SOL    HW123285   4.619   1.469   9.067  1.8354 -1.5982 -0.3108
 3941SOL    HW223286   4.725   1.483   9.165 -1.8156 -2.1262 -0.3423
 3942SOL     OW23287   2.247   0.850  13.847  0.0924 -0.1247 -0.4139
 3942SOL    HW123288   2.326   0.851  13.901  0.4216  1.1601 -0.9159
 3942SOL    HW223289   2.215   0.938  13.865 -0.9216 -1.1675  2.8761
 3943SOL     OW23290   3.423   3.910   6.795 -0.2619 -0.1953  0.2481
 3943SOL    HW123291   3.415   3.824   6.836  0.9563  0.8775  2.7003
 3943SOL    HW223292   3.432   3.878   6.705 -1.1082 -0.0210  0.1059
 3944SOL     OW23293   4.361   4.360  14.011  0.2719 -0.0739  0.4324
 3944SOL    HW123294   4.419   4.288  14.038 -0.0092  0.4562  2.4417
 3944SOL    HW223295   4.274   4.327  14.032  0.0080 -0.2705 -0.9953
 3945SOL     OW23296   3.325   4.623  11.016 -0.0910  0.1338 -0.0705
 3945SOL    HW123297   3.285   4.669  11.090 -0.6082  1.6735 -1.2931
 3945SOL    HW223298   3.250   4.626  10.958  0.6739 -2.0643 -1.1767
 3946SOL     OW23299   0.973   4.181   4.847 -0.1436 -0.4586 -0.7029
 3946SOL    HW123300   0.949   4.141   4.763 -0.5643 -0.1675 -0.7230
 3946SOL    HW223301   1.013   4.261   4.812 -0.0567  0.3741  1.3081
 3947SOL     OW23302   4.140   2.105   8.289 -0.5815  0.4954  0.0729
 3947SOL    HW123303   4.122   2.144   8.204  0.5636  2.6552  0.8189
 3947SOL    HW223304   4.226   2.140   8.314  1.1894 -1.5287 -3.1045
 3948SOL     OW23305   2.045   0.660  13.860 -0.2370 -0.5719 -0.0500
 3948SOL    HW123306   1.983   0.708  13.805 -0.0138  1.9626  1.8979
 3948SOL    HW223307   2.119   0.719  13.848 -2.2629  2.0615  0.4609
 3949SOL     OW23308   3.769   3.894  13.623 -0.3032  0.0300  0.0318
 3949SOL    HW123309   3.679   3.863  13.621 -0.2522 -0.3369  4.0495
 3949SOL    HW223310   3.784   3.929  13.535 -0.3476 -0.5826 -0.2128
 3950SOL     OW23311   3.082   0.786   5.533  0.4798 -0.0778 -0.0794
 3950SOL    HW123312   3.176   0.797   5.515 -0.0524  0.3327 -2.5915
 3950SOL    HW223313   3.097   0.721   5.602 -0.4332  0.8279  0.9470
 3951SOL     OW23314   2.865   3.964   2.374  0.1428  0.3128 -0.7172
 3951SOL    HW123315   2.823   4.049   2.367 -0.1883  0.1662 -0.5210
 3951SOL    HW223316   2.843   3.924   2.290  2.1063 -0.7211 -0.7465
 3952SOL     OW23317   1.200   3.936   7.848 -0.0253  0.2164 -0.0377
 3952SOL    HW123318   1.112   3.957   7.879  1.5038  1.9325  3.1638
 3952SOL    HW223319   1.219   4.021   7.809  1.6601 -0.4101 -0.5919
 3953SOL     OW23320   1.697   2.419   1.279  0.3961 -0.3255 -0.2768
 3953SOL    HW123321   1.789   2.413   1.304 -0.5455 -0.7460  3.0693
 3953SOL    HW223322   1.699   2.382   1.191  0.9756 -0.9390 -0.0005
 3954SOL     OW23323   4.061   0.694   9.554 -0.6723  0.5832  0.0702
 3954SOL    HW123324   4.130   0.757   9.532  2.3986 -3.2306 -1.2667
 3954SOL    HW223325   4.128   0.627   9.572 -1.5583 -0.0718  0.9257
 3955SOL     OW23326   2.579   3.613   8.592  0.1969 -0.5435 -0.3541
 3955SOL    HW123327   2.662   3.587   8.634  0.4699  3.2620  1.5792
 3955SOL    HW223328   2.519   3.606   8.666 -1.6632  3.3876 -1.4793
 3956SOL     OW23329   3.222   4.234   8.824 -0.3145  0.6106  0.1689
 3956SOL    HW123330   3.285   4.287   8.873 -1.1561  1.1580  0.6642
 3956SOL    HW223331   3.147   4.238   8.883 -1.1656 -1.1823 -0.7992
 3957SOL     OW23332   4.727   4.295   3.430  0.3818 -0.2220  0.1475
 3957SOL    HW123333   4.661   4.353   3.466  0.0502 -0.3488 -0.2495
 3957SOL    HW223334   0.043   4.350   3.365  0.6674  2.2700  2.4541
 3958SOL     OW23335   4.201   2.085   4.096  0.1838 -0.7161  0.0404
 3958SOL    HW123336   4.110   2.111   4.082 -0.0081 -1.2346  0.3295
 3958SOL    HW223337   4.221   2.138   4.173  1.4230 -0.5701 -0.3773
 3959SOL     OW23338   2.128   1.702   5.488  0.4662  0.4837  0.0810
 3959SOL    HW123339   2.103   1.707   5.581  0.4906  0.7446  0.0745
 3959SOL    HW223340   2.173   1.619   5.475 -0.6343 -0.1929  0.5816
 3960SOL     OW23341   2.230   2.174   4.889  0.3799 -0.2134  0.0045
 3960SOL    HW123342   2.246   2.087   4.926  0.7796  0.1455  0.6972
 3960SOL    HW223343   2.303   2.187   4.829  2.1084 -1.5721  1.7774
 3961SOL     OW23344   0.189   3.153   2.624 -0.0744  0.5482 -0.2256
 3961SOL    HW123345   0.265   3.104   2.656 -1.3308 -1.7434 -0.7692
 3961SOL    HW223346   0.166   3.098   2.550 -1.4060  2.3217 -1.1230
 3962SOL     OW23347   0.935   2.199   8.276  0.4498 -0.0720  0.2159
 3962SOL    HW123348   0.978   2.161   8.353 -0.2406 -0.3969  0.4408
 3962SOL    HW223349   1.014   2.240   8.240 -0.1519  0.7443 -0.1684
 3963SOL     OW23350   3.314   3.345   8.394  0.3357  0.1636 -0.1157
 3963SOL    HW123351   3.278   3.301   8.317  1.0913 -0.0164 -0.3661
 3963SOL    HW223352   3.399   3.306   8.414 -0.4933 -0.6772  1.7215
 3964SOL     OW23353   1.934   2.655   6.900  0.3949  0.1949 -0.9535
 3964SOL    HW123354   1.870   2.589   6.875  0.4541 -0.0676 -0.4129
 3964SOL    HW223355   1.988   2.588   6.941 -2.1331 -1.2108  0.0867
 3965SOL     OW23356   1.194   3.673   4.365 -0.2968 -0.1373 -0.2148
 3965SOL    HW123357   1.284   3.678   4.398  0.3751 -3.3639 -1.5349
 3965SOL    HW223358   1.196   3.582   4.334  3.1454  0.0247 -0.4381
 3966SOL     OW23359   0.299   0.013  15.852  0.3264 -1.0042  0.2441
 3966SOL    HW123360   0.263   4.660  15.892  0.1606 -2.5574 -3.0281
 3966SOL    HW223361   0.239   0.078  15.890  0.9092 -0.6792  0.6012
 3967SOL     OW23362   1.507   1.284   4.544  0.1733  0.4146 -0.3936
 3967SOL    HW123363   1.569   1.232   4.492 -0.6058 -0.3566 -0.5518
 3967SOL    HW223364   1.563   1.342   4.596  1.1493 -0.3340 -0.6218
 3968SOL     OW23365   2.020   2.695   4.466  0.1077  0.1778  0.3297
 3968SOL    HW123366   2.106   2.735   4.481 -0.1034  0.6243  0.3505
 3968SOL    HW223367   2.053   2.629   4.404 -0.0671 -0.9562  1.4497
 3969SOL     OW23368   1.037   1.817   8.986  0.1661  0.3012  0.3123
 3969SOL    HW123369   0.946   1.846   8.999  0.0632 -1.1688  2.8979
 3969SOL    HW223370   1.050   1.750   9.053  0.6442  0.4005  0.3169
 3970SOL     OW23371   0.150   3.284   1.433 -0.0398 -0.6170 -0.1862
 3970SOL    HW123372   0.200   3.283   1.515 -0.9004  1.9509  0.3553
 3970SOL    HW223373   0.062   3.277   1.469  0.3115 -1.5167  0.5016
 3971SOL     OW23374   3.715   1.055  10.006  0.1274  0.1609  0.3453
 3971SOL    HW123375   3.687   1.042  10.097 -1.6202  0.7845 -0.0918
 3971SOL    HW223376   3.736   0.964   9.988 -1.3847 -0.2570  0.6649
 3972SOL     OW23377   4.126   1.061   0.030  0.3846  0.1169 -0.1415
 3972SOL    HW123378   4.074   1.048  17.661  1.8411 -0.7491 -0.9389
 3972SOL    HW223379   4.207   1.015   0.009  1.2657  2.3645 -1.6498
 3973SOL     OW23380   3.962   1.016   7.109  0.3650  0.0612 -0.7108
 3973SOL    HW123381   3.998   1.067   7.036  0.9437 -0.3086 -0.6821
 3973SOL    HW223382   3.869   1.038   7.117  0.1437 -0.2480 -2.5973
 3974SOL     OW23383   2.977   4.533   6.269  0.1588  0.1116  0.0369
 3974SOL    HW123384   3.019   4.533   6.356 -1.3459  2.3107  0.7466
 3974SOL    HW223385   3.045   4.580   6.221  0.2323  0.4204  0.4393
 3975SOL     OW23386   3.766   1.787   3.269 -0.4374  0.6028  0.0878
 3975SOL    HW123387   3.690   1.728   3.261 -1.3477  2.1123 -2.4526
 3975SOL    HW223388   3.724   1.872   3.254 -0.5672  1.1350  3.6281
 3976SOL     OW23389   0.695   2.294   3.489 -0.4749 -0.0380  0.1545
 3976SOL    HW123390   0.752   2.270   3.562 -0.7184 -0.4333  0.2127
 3976SOL    HW223391   0.661   2.377   3.522 -0.1535  0.4686 -0.7964
 3977SOL     OW23392   0.185   0.179   6.057  0.4513  0.3982  0.5082
 3977SOL    HW123393   0.128   0.206   5.985  0.1652  0.8592  0.9080
 3977SOL    HW223394   0.252   0.134   6.006  0.8281  2.8699 -1.1620
 3978SOL     OW23395   2.597   3.984   3.460 -0.2150 -0.3914 -0.4082
 3978SOL    HW123396   2.583   3.926   3.386  0.9332  1.5589 -2.1397
 3978SOL    HW223397   2.616   4.068   3.419  0.4464 -0.5442 -0.4174
 3979SOL     OW23398   1.282   4.549   9.452  0.1396  0.3997  0.2087
 3979SOL    HW123399   1.221   4.620   9.473 -0.4241  0.2476 -0.9186
 3979SOL    HW223400   1.219   4.480   9.473  0.9142 -0.4291 -0.1827
 3980SOL     OW23401   2.554   1.469   8.674  0.1799  0.4877  0.0148
 3980SOL    HW123402   2.554   1.415   8.595 -0.3514  0.6064 -0.0647
 3980SOL    HW223403   2.617   1.537   8.649 -0.7979  1.9438  1.5213
 3981SOL     OW23404   0.747   0.190   1.730 -0.3282  0.8388 -0.1116
 3981SOL    HW123405   0.751   0.166   1.638 -1.2492 -1.5792  0.4608
 3981SOL    HW223406   0.790   0.115   1.772  1.2886  1.8238 -0.0160
 3982SOL     OW23407   3.402   1.186  12.147 -0.3858 -0.8527 -0.0365
 3982SOL    HW123408   3.392   1.110  12.090 -0.7287 -1.8693  1.3887
 3982SOL    HW223409   3.484   1.219  12.112 -1.3911  0.3513 -1.2562
 3983SOL     OW23410   0.100   0.873  13.537 -0.6192 -0.3673  0.3244
 3983SOL    HW123411   0.167   0.905  13.597 -2.9629  1.3136  1.9856
 3983SOL    HW223412   0.093   0.950  13.481 -0.7651 -0.6014  0.0198
 3984SOL     OW23413   4.351   2.559   7.748 -0.1419 -0.4160 -0.1919
 3984SOL    HW123414   4.394   2.631   7.794  1.5505 -2.6494  1.7155
 3984SOL    HW223415   4.256   2.570   7.760 -0.4953 -0.8321 -2.6113
 3985SOL     OW23416   2.685   0.694   2.607  0.2040  0.0126 -0.1020
 3985SOL    HW123417   2.604   0.732   2.574 -0.0741 -1.0072 -0.5979
 3985SOL    HW223418   2.701   0.626   2.542 -0.4142 -0.9772  0.7944
 3986SOL     OW23419   2.585   0.185   8.973  0.2946 -0.2441  0.1451
 3986SOL    HW123420   2.515   0.121   8.982  0.0002  0.1488  0.6587
 3986SOL    HW223421   2.536   0.263   8.947  1.8081  0.4904 -0.5444
 3987SOL     OW23422   3.141   3.943   8.461 -0.2730  0.2126  0.0960
 3987SOL    HW123423   3.197   3.920   8.387  1.8260 -1.6215  2.2481
 3987SOL    HW223424   3.201   3.915   8.530 -0.9316 -0.1986  0.5005
 3988SOL     OW23425   1.011   2.349   2.986 -0.0023  0.1364 -0.1256
 3988SOL    HW123426   1.042   2.298   3.061 -0.6639 -0.5251 -0.3050
 3988SOL    HW223427   1.094   2.371   2.944 -0.2430  0.3739 -0.4716
 3989SOL     OW23428   4.372   2.482  15.684 -0.3020 -0.0930 -0.1181
 3989SOL    HW123429   4.286   2.456  15.649 -0.0560 -2.0889  0.7831
 3989SOL    HW223430   4.419   2.506  15.604 -0.0409  3.4479  1.1186
 3990SOL     OW23431   1.260   2.377  15.525 -0.4983 -0.7577 -0.0127
 3990SOL    HW123432   1.325   2.345  15.586  0.5656 -1.0104 -1.2774
 3990SOL    HW223433   1.313   2.409  15.452 -2.1923 -0.6243 -1.1962
 3991SOL     OW23434   1.531   1.508  12.725 -0.3462  0.2243 -0.3207
 3991SOL    HW123435   1.459   1.465  12.680 -1.4921  3.5323 -1.7013
 3991SOL    HW223436   1.608   1.488  12.671 -0.5728  1.0286 -0.9434
 3992SOL     OW23437   4.602   0.524  16.636 -0.3832  0.1877  0.1429
 3992SOL    HW123438   4.603   0.433  16.667  0.3900  0.7164  1.6716
 3992SOL    HW223439   4.507   0.533  16.640 -0.5356 -0.8493 -1.1495
 3993SOL     OW23440   2.049   0.618   6.167  0.1434 -0.2115 -0.1975
 3993SOL    HW123441   2.077   0.701   6.130 -1.0230  1.2879  2.2588
 3993SOL    HW223442   2.066   0.557   6.095  0.6317 -1.0838  0.6589
 3994SOL     OW23443   3.906   4.500   8.182 -0.2809 -0.0164  0.1100
 3994SOL    HW123444   3.933   4.568   8.244 -0.1149  1.5862 -1.6905
 3994SOL    HW223445   3.959   4.423   8.200  0.9583  1.1072  1.2087
 3995SOL     OW23446   0.349   3.399   2.993  0.1322  0.2794  0.5787
 3995SOL    HW123447   0.361   3.480   3.042  1.3201  0.3919  0.0879
 3995SOL    HW223448   0.438   3.370   2.975 -0.7374 -2.4549  0.6567
 3996SOL     OW23449   2.646   0.241   2.285  0.2433 -0.4455  0.5852
 3996SOL    HW123450   2.661   0.187   2.362 -3.4204 -1.1456  0.8229
 3996SOL    HW223451   2.613   0.175   2.223  1.6193 -0.2164 -0.3884
 3997SOL     OW23452   0.112   0.342   8.283 -0.0601  0.1902 -0.2118
 3997SOL    HW123453   0.135   0.432   8.262  0.0972 -0.0422 -1.0425
 3997SOL    HW223454   0.018   0.359   8.289 -0.3991 -0.7751 -2.5056
 3998SOL     OW23455   2.772   0.074   5.066 -0.2046 -0.0159  0.1386
 3998SOL    HW123456   2.737   0.003   5.120  2.3652 -0.7732  0.7877
 3998SOL    HW223457   2.859   0.080   5.105  0.1193  0.0552 -0.5813
 3999SOL     OW23458   3.504   4.289   5.827 -0.3300  0.0534  0.5148
 3999SOL    HW123459   3.443   4.289   5.900  1.1005  1.1779  1.6960
 3999SOL    HW223460   3.510   4.380   5.796 -1.2229 -0.1769 -0.3269
 4000SOL     OW23461   3.636   1.727   6.722 -0.3248  0.4954  0.4274
 4000SOL    HW123462   3.574   1.733   6.649  0.2665  4.0187  0.2357
 4000SOL    HW223463   3.716   1.751   6.676 -1.9518 -0.3915 -2.8297
 4001SOL     OW23464   2.336   4.711   2.402 -0.0326  0.0537  0.0054
 4001SOL    HW123465   2.279   4.636   2.418 -0.7342  0.4876 -0.4574
 4001SOL    HW223466   2.417   4.669   2.373 -0.3761 -0.7026  0.1472
 4002SOL     OW23467   3.925   2.802   2.567  0.2614  0.2535  0.0484
 4002SOL    HW123468   3.860   2.846   2.622 -1.1559 -1.7583 -0.0282
 4002SOL    HW223469   3.870   2.754   2.505  0.3549  1.5461 -1.0571
 4003SOL     OW23470   0.502   0.294   6.828  0.4458  0.0040  0.7753
 4003SOL    HW123471   0.528   0.386   6.828  1.3387 -0.2427 -1.2078
 4003SOL    HW223472   0.452   0.283   6.909 -0.4913  0.3064  0.2368
 4004SOL     OW23473   3.663   3.305   3.528  0.0730  0.6017  0.4243
 4004SOL    HW123474   3.674   3.331   3.437 -0.7407 -0.1272  0.1141
 4004SOL    HW223475   3.729   3.235   3.529 -0.6298 -0.0693  0.2017
 4005SOL     OW23476   1.172   4.396   2.679 -0.7313 -0.5667  0.0566
 4005SOL    HW123477   1.195   4.303   2.681 -0.8015 -0.5766  0.3200
 4005SOL    HW223478   1.082   4.386   2.709 -1.0242  0.3160 -0.5331
 4006SOL     OW23479   0.339   4.090   8.736 -0.1649 -0.7251 -0.4368
 4006SOL    HW123480   0.247   4.102   8.758  1.0103  3.5064  2.0832
 4006SOL    HW223481   0.347   4.182   8.711 -2.1187 -0.8497 -1.5309
 4007SOL     OW23482   2.335   2.338   5.228 -0.0920 -0.4555  0.7012
 4007SOL    HW123483   2.347   2.432   5.235 -1.2780 -0.4279  2.2432
 4007SOL    HW223484   2.383   2.313   5.148  0.1884  0.9709  0.4237
 4008SOL     OW23485   0.388   2.831   3.650  0.0292 -0.2511  0.1325
 4008SOL    HW123486   0.399   2.739   3.626  0.1134 -0.2119  0.0179
 4008SOL    HW223487   0.373   2.882   3.571 -1.7093 -2.6251 -1.0790
 4009SOL     OW23488   3.979   3.146   0.682 -0.3598  0.1272 -0.5396
 4009SOL    HW123489   3.897   3.118   0.722  1.2903 -1.5714  1.6373
 4009SOL    HW223490   3.946   3.150   0.592  0.1413  0.7212 -0.6950
 4010SOL     OW23491   3.719   2.187   5.903  0.2762  0.4122  0.2435
 4010SOL    HW123492   3.678   2.255   5.957  1.4106  0.9234  0.4608
 4010SOL    HW223493   3.775   2.243   5.849  0.7573  2.0145  2.4008
 4011SOL     OW23494   4.022   1.450   3.877  0.2119  0.3126  0.2432
 4011SOL    HW123495   3.975   1.518   3.925 -0.3171  1.1324 -1.4232
 4011SOL    HW223496   3.978   1.450   3.791 -0.9962  2.1347  0.8628
 4012SOL     OW23497   2.746   4.165  17.452  0.1399 -0.3162  0.2017
 4012SOL    HW123498   2.763   4.072  17.470 -0.7135 -0.6881 -0.9512
 4012SOL    HW223499   2.744   4.169  17.357 -2.5894 -0.0467  0.2708
 4013SOL     OW23500   1.588   1.216   9.468 -0.1996  0.0437 -0.5875
 4013SOL    HW123501   1.497   1.190   9.458 -0.4269  1.4926 -2.4642
 4013SOL    HW223502   1.608   1.159   9.542  0.2393  0.8447 -0.0852
 4014SOL     OW23503   2.585   2.307   7.157 -0.0441 -0.0828 -0.1268
 4014SOL    HW123504   2.596   2.213   7.141  0.9130  0.4519 -2.5992
 4014SOL    HW223505   2.670   2.340   7.127 -0.5920  1.4042 -0.0363
 4015SOL     OW23506   3.484   0.037   7.029 -0.2591  0.0899  0.4266
 4015SOL    HW123507   3.554   0.059   7.090 -1.7228 -0.4995  2.3270
 4015SOL    HW223508   3.405   0.070   7.072 -0.3538 -1.2168  1.2524
 4016SOL     OW23509   0.699   3.551   7.926  0.0287  0.1719  0.0499
 4016SOL    HW123510   0.774   3.608   7.909 -0.5332  1.3442  1.4695
 4016SOL    HW223511   0.724   3.466   7.889  0.1406  0.1709  0.1271
 4017SOL     OW23512   2.441   2.887  11.567 -0.1079 -0.5467  0.0008
 4017SOL    HW123513   2.467   2.972  11.603 -0.9662 -0.1808 -0.2347
 4017SOL    HW223514   2.491   2.828  11.623 -0.1613 -0.5230  0.0727
 4018SOL     OW23515   4.211   2.945   5.244 -0.5901  0.5076 -0.7404
 4018SOL    HW123516   4.236   3.034   5.217 -0.2881  0.6899  0.1438
 4018SOL    HW223517   4.249   2.921   5.328 -4.1149  1.9080  1.2672
 4019SOL     OW23518   2.642   1.437  10.694 -0.0935  0.0895  0.5630
 4019SOL    HW123519   2.726   1.483  10.693 -0.3857  0.5518 -1.9225
 4019SOL    HW223520   2.635   1.443  10.599 -1.9057 -0.5495  0.6546
 4020SOL     OW23521   3.503   1.868  10.682 -0.2950  0.0876 -0.2979
 4020SOL    HW123522   3.541   1.784  10.706 -1.3340 -0.0439  0.8745
 4020SOL    HW223523   3.485   1.845  10.591  0.9344 -0.6060 -0.3684
 4021SOL     OW23524   4.095   2.317  17.709 -0.1262 -0.1137 -0.1253
 4021SOL    HW123525   4.029   2.356   0.055 -0.7467 -0.3542 -0.6823
 4021SOL    HW223526   4.081   2.223   0.014  2.0528 -0.5645 -0.8531
 4022SOL     OW23527   4.144   2.409   9.038  0.0000  0.0428  0.4240
 4022SOL    HW123528   4.204   2.449   8.975  0.8716  0.4642  1.5129
 4022SOL    HW223529   4.171   2.318   9.026 -0.1502  0.6578 -4.2582
 4023SOL     OW23530   0.585   3.472  13.819 -0.4408  0.3716  0.1065
 4023SOL    HW123531   0.677   3.444  13.818 -0.4221  0.4060  1.5282
 4023SOL    HW223532   0.542   3.387  13.807  0.0192  0.0528  0.7029
 4024SOL     OW23533   3.562   0.836   0.841 -0.3406 -0.0090 -0.0878
 4024SOL    HW123534   3.641   0.886   0.861 -0.3720 -0.5639  1.4336
 4024SOL    HW223535   3.486   0.886   0.869  0.1052  0.9012 -0.5069
 4025SOL     OW23536   4.026   0.005  14.714 -0.5004 -0.0491  0.2985
 4025SOL    HW123537   4.041   4.718  14.808 -0.8452  2.2434  0.7018
 4025SOL    HW223538   4.070   4.654  14.681 -1.3023 -0.5192  0.3637
 4026SOL     OW23539   4.442   2.155   5.165  0.1966  0.0459 -0.0751
 4026SOL    HW123540   4.387   2.227   5.135  1.1936  1.4913  1.6249
 4026SOL    HW223541   4.502   2.146   5.090  1.3168  3.0397  0.4840
 4027SOL     OW23542   3.444   4.648   9.565  0.6883  0.7873  0.3064
 4027SOL    HW123543   3.374   4.584   9.562  1.3323  0.1178 -0.4269
 4027SOL    HW223544   3.407   4.699   9.637 -1.3405 -0.6418  0.2590
 4028SOL     OW23545   3.098   1.756  10.007 -0.0263 -0.3102  0.6801
 4028SOL    HW123546   3.134   1.684  10.059  0.1337 -1.2740 -0.7461
 4028SOL    HW223547   3.024   1.786  10.060  0.9966  0.4903  1.6407
 4029SOL     OW23548   2.977   2.567  17.196 -0.2025 -0.3030 -0.0333
 4029SOL    HW123549   2.905   2.515  17.233 -0.6364 -0.5506 -1.2084
 4029SOL    HW223550   3.024   2.494  17.156  1.7912  1.1416 -0.2996
 4030SOL     OW23551   1.776   3.062  13.948 -0.1358 -0.4148 -0.3821
 4030SOL    HW123552   1.868   3.066  13.974 -0.0379 -0.5889 -0.6975
 4030SOL    HW223553   1.747   3.007  14.021  2.0297 -0.5417  0.3837
 4031SOL     OW23554   4.306   3.959   5.484 -0.6629  0.1202 -0.0699
 4031SOL    HW123555   4.275   4.002   5.564 -0.8955 -1.2894  0.6048
 4031SOL    HW223556   4.330   3.874   5.523 -2.0992  0.6967  2.0869
 4032SOL     OW23557   4.343   2.655   6.401 -0.5784 -0.4342 -0.6418
 4032SOL    HW123558   4.394   2.626   6.326  0.9335  0.8303 -0.1149
 4032SOL    HW223559   4.409   2.678   6.467 -0.4496 -0.1173 -0.8846
 4033SOL     OW23560   1.216   1.879  12.600 -0.3714  0.1425 -0.0592
 4033SOL    HW123561   1.260   1.805  12.642  1.4520  1.2698  0.0118
 4033SOL    HW223562   1.187   1.927  12.678 -1.3453  1.0652 -0.9793
 4034SOL     OW23563   3.347   4.130  14.377  0.2839  0.6197  0.3250
 4034SOL    HW123564   3.399   4.059  14.340  0.0465 -0.2043  1.5876
 4034SOL    HW223565   3.415   4.193  14.399  1.6601 -0.8161  0.1635
 4035SOL     OW23566   1.077   4.071   4.181 -0.1209  0.3237  0.2700
 4035SOL    HW123567   1.025   4.137   4.226 -1.5203 -0.8377  0.3453
 4035SOL    HW223568   1.141   4.128   4.138 -0.7047 -0.8474 -2.1939
 4036SOL     OW23569   3.929   2.723   4.135  0.8673 -0.4269  0.2437
 4036SOL    HW123570   3.837   2.709   4.159  0.2528  1.3197 -1.1339
 4036SOL    HW223571   3.949   2.810   4.169  0.7714 -0.2605 -0.1377
 4037SOL     OW23572   3.197   0.189   4.580 -0.0538 -0.2841  0.5925
 4037SOL    HW123573   3.116   0.138   4.576  0.7467 -1.5185  0.0371
 4037SOL    HW223574   3.265   0.130   4.612 -0.4936  0.7955  3.4699
 4038SOL     OW23575   3.010   2.230   2.892  0.2938 -0.0943  0.2362
 4038SOL    HW123576   2.940   2.179   2.852  0.9401 -0.4124 -0.4961
 4038SOL    HW223577   2.962   2.292   2.947 -1.4767 -0.3821 -0.9903
 4039SOL     OW23578   3.001   3.251   0.022  0.1766  0.2801 -0.2113
 4039SOL    HW123579   3.034   3.287  17.650  0.7700  1.5898  0.5880
 4039SOL    HW223580   3.040   3.320   0.077 -2.4195  0.6613  1.1759
 4040SOL     OW23581   1.786   3.885   5.538  0.3221 -0.7497 -0.2154
 4040SOL    HW123582   1.872   3.921   5.559  0.8556 -2.3323  0.2973
 4040SOL    HW223583   1.807   3.850   5.451  0.1980 -0.5045 -0.3426
 4041SOL     OW23584   2.618   2.973   6.060 -0.1110 -0.6306  0.2442
 4041SOL    HW123585   2.636   2.895   6.112  1.0776 -0.5618 -0.0726
 4041SOL    HW223586   2.705   3.004   6.035 -0.5884 -0.5427 -1.2722
 4042SOL     OW23587   4.428   4.487  17.352  0.0347 -0.3861 -0.1084
 4042SOL    HW123588   4.472   4.487  17.437 -1.7831 -1.8873  0.8158
 4042SOL    HW223589   4.504   4.472  17.296  0.8910 -2.0890  1.4971
 4043SOL     OW23590   2.691   2.735  11.860  0.4414 -0.0363  0.6329
 4043SOL    HW123591   2.707   2.738  11.954 -0.3548 -0.5238  0.7875
 4043SOL    HW223592   2.699   2.826  11.833  1.8478 -0.3131  0.1357
 4044SOL     OW23593   2.638   3.467  10.331 -1.1163  0.1893  0.7377
 4044SOL    HW123594   2.631   3.454  10.426 -0.6461  0.4825  0.8150
 4044SOL    HW223595   2.709   3.406  10.311 -0.3831  1.1468  0.3691
 4045SOL     OW23596   1.786   3.942   0.364  0.0193  0.6253  0.0202
 4045SOL    HW123597   1.780   3.892   0.445 -3.4193 -0.2270 -0.7573
 4045SOL    HW223598   1.741   4.020   0.395 -2.5380 -1.2090  0.8900
 4046SOL     OW23599   1.505   2.739   6.675 -0.3221  0.2896  0.1888
 4046SOL    HW123600   1.464   2.746   6.589  0.9600  2.2019 -0.2692
 4046SOL    HW223601   1.532   2.827   6.700 -0.2762  0.7196 -1.3757
 4047SOL     OW23602   1.090   1.819   4.069 -0.1623  0.1030 -0.0095
 4047SOL    HW123603   1.057   1.795   3.983  0.7342 -1.9835  0.2357
 4047SOL    HW223604   1.184   1.801   4.068 -0.2481 -0.3555  0.3282
 4048SOL     OW23605   3.063   0.451   9.332 -0.4774  0.2231  0.0729
 4048SOL    HW123606   3.038   0.539   9.302 -4.5746 -1.2508 -0.8652
 4048SOL    HW223607   3.001   0.432   9.402  0.2397 -0.5020  0.5095
 4049SOL     OW23608   2.624   0.473   2.002 -0.1036  0.2449 -0.1414
 4049SOL    HW123609   2.570   0.494   2.078 -0.7946  0.4431 -0.6882
 4049SOL    HW223610   2.638   0.378   2.003  1.2333  0.4359 -0.6573
 4050SOL     OW23611   4.309   3.129   1.867  0.1091  0.2699  0.0806
 4050SOL    HW123612   4.234   3.145   1.924 -0.4869  1.3351 -1.0186
 4050SOL    HW223613   4.292   3.170   1.782  2.0689  0.5742 -0.1698
 4051SOL     OW23614   3.505   2.399  12.752  0.3423  0.0806  0.2465
 4051SOL    HW123615   3.598   2.421  12.763  0.4898 -0.7525  0.6415
 4051SOL    HW223616   3.489   2.437  12.666  1.3585 -1.4003 -0.6091
 4052SOL     OW23617   2.471   1.907   0.141 -0.1481  0.0645  0.5429
 4052SOL    HW123618   2.414   1.925   0.216  1.2703  1.2177  1.3494
 4052SOL    HW223619   2.543   1.965   0.165  0.7150 -1.0669  0.6456
 4053SOL     OW23620   0.454   2.796   5.112 -0.5890  0.6219 -0.3858
 4053SOL    HW123621   0.496   2.882   5.110  0.3527  0.2498  2.7205
 4053SOL    HW223622   0.519   2.746   5.062 -0.9164 -1.0308  0.8289
 4054SOL     OW23623   1.069   3.889   2.542 -0.5491 -0.1340  0.1110
 4054SOL    HW123624   0.973   3.894   2.547 -0.6971 -1.2014 -1.5300
 4054SOL    HW223625   1.079   3.802   2.581 -1.0096 -0.0795  0.3547
 4055SOL     OW23626   3.371   4.552   3.728  0.2201 -0.5437  0.3786
 4055SOL    HW123627   3.338   4.470   3.693 -2.4475  0.2859  0.9433
 4055SOL    HW223628   3.358   4.531   3.820  3.4381  0.4185  1.0576
 4056SOL     OW23629   0.547   0.485   9.034 -0.3248 -0.5379  0.0610
 4056SOL    HW123630   0.551   0.561   8.976 -0.9797 -0.1863  0.4818
 4056SOL    HW223631   0.643   0.481   9.036 -0.4219 -2.1314  1.3265
 4057SOL     OW23632   2.031   1.182  11.505 -0.2896  0.1317 -0.2432
 4057SOL    HW123633   2.037   1.274  11.479  0.8395 -0.2961 -1.4974
 4057SOL    HW223634   2.092   1.136  11.447  2.7033  0.0862  2.8873
 4058SOL     OW23635   2.586   3.889   8.629 -0.2679 -0.3674  0.7905
 4058SOL    HW123636   2.599   3.851   8.542 -0.7182 -0.1711  0.6380
 4058SOL    HW223637   2.680   3.900   8.642  0.2796 -2.4904 -1.3102
 4059SOL     OW23638   2.155   1.356   1.157  0.6957 -0.0666 -0.3835
 4059SOL    HW123639   2.172   1.443   1.193 -0.4009  0.1319 -0.3387
 4059SOL    HW223640   2.198   1.295   1.217  1.1329  1.9834  1.3821
 4060SOL     OW23641   3.238   4.245   1.885 -0.1792 -1.0630 -0.0871
 4060SOL    HW123642   3.199   4.233   1.972  0.3823 -3.4488 -0.1707
 4060SOL    HW223643   3.207   4.172   1.832 -2.5700  1.5440 -2.3271
 4061SOL     OW23644   0.662   3.224   2.050 -0.3961  0.4494  0.4907
 4061SOL    HW123645   0.622   3.213   2.136 -0.5115  2.6946  0.7414
 4061SOL    HW223646   0.753   3.244   2.073  0.1941  1.0389 -2.3104
 4062SOL     OW23647   1.505   2.219   3.718 -0.6210 -0.0946 -0.0126
 4062SOL    HW123648   1.429   2.182   3.673 -0.2832  3.0873 -3.3035
 4062SOL    HW223649   1.471   2.307   3.735  0.5870  0.3692  0.0708
 4063SOL     OW23650   3.350   0.713   9.446 -0.2270 -0.4368 -0.6530
 4063SOL    HW123651   3.415   0.782   9.462 -0.2108 -0.4177 -0.8072
 4063SOL    HW223652   3.328   0.736   9.356  0.3931 -1.0302 -0.9564
 4064SOL     OW23653   2.647   3.449   7.871  0.1671  0.4171 -0.0315
 4064SOL    HW123654   2.600   3.415   7.947 -0.0644 -0.7286 -0.6834
 4064SOL    HW223655   2.567   3.463   7.820  0.4750  1.8523 -0.1303
 4065SOL     OW23656   0.603   3.880   7.079 -0.1215  0.2289  0.1719
 4065SOL    HW123657   0.696   3.901   7.089 -0.0487  0.2075 -0.4695
 4065SOL    HW223658   0.595   3.896   6.985  0.0609 -1.2521 -0.0917
 4066SOL     OW23659   2.894   0.380  12.012  0.2658 -0.5947  0.2561
 4066SOL    HW123660   2.884   0.311  12.078 -0.9313  0.0111  0.7088
 4066SOL    HW223661   2.985   0.359  11.991  0.9270  0.5988  1.9803
 4067SOL     OW23662   2.042   2.766  16.244  0.2445 -0.1078  0.3560
 4067SOL    HW123663   1.981   2.798  16.177  0.2992  0.3131  0.5048
 4067SOL    HW223664   2.009   2.683  16.278  1.1627 -0.8043 -0.4389
 4068SOL     OW23665   3.693   3.466   1.807  0.2882  0.3705 -0.2216
 4068SOL    HW123666   3.619   3.517   1.840  0.3399 -0.8570  1.7845
 4068SOL    HW223667   3.664   3.447   1.718  0.0827 -4.5080  0.8994
 4069SOL     OW23668   4.714   2.392   2.892 -0.3581  0.1403  0.7337
 4069SOL    HW123669   4.627   2.358   2.871 -0.1428 -0.5371  0.9334
 4069SOL    HW223670   4.704   2.487   2.882  1.4880  0.3031  0.5008
 4070SOL     OW23671   0.035   1.666   8.290 -0.0734  0.6229 -0.3867
 4070SOL    HW123672   0.012   1.684   8.382  4.4344 -0.7646  1.0093
 4070SOL    HW223673   4.677   1.633   8.260 -0.2353  0.8018 -0.1234
 4071SOL     OW23674   1.119   3.287   6.289  0.2031  0.0080 -0.3730
 4071SOL    HW123675   1.191   3.258   6.345 -0.3589  0.5055  0.6019
 4071SOL    HW223676   1.155   3.267   6.203  0.5162 -0.5706 -0.1064
 4072SOL     OW23677   1.260   0.509   3.577  0.4354  0.2500  0.0302
 4072SOL    HW123678   1.354   0.500   3.593  0.3753  0.7378  0.6311
 4072SOL    HW223679   1.226   0.442   3.636 -1.0340 -1.2827 -2.5187
 4073SOL     OW23680   3.771   2.367   7.883 -0.7122 -0.1839  0.5166
 4073SOL    HW123681   3.818   2.336   7.960 -1.6765  0.7782  1.4989
 4073SOL    HW223682   3.742   2.450   7.921  0.5807  0.6462 -0.2814
 4074SOL     OW23683   3.009   3.900   7.676 -0.3311  0.0362  0.4621
 4074SOL    HW123684   3.083   3.881   7.732 -0.5265 -0.7550  0.4503
 4074SOL    HW223685   2.958   3.819   7.679 -1.0105  0.4444  0.0575
 4075SOL     OW23686   2.158   3.620  17.286 -0.4292 -0.1483  0.6102
 4075SOL    HW123687   2.069   3.653  17.300  0.3347  2.1405  0.2297
 4075SOL    HW223688   2.181   3.554  17.351 -2.3926 -0.5846  0.8288
 4076SOL     OW23689   0.896   4.671   5.729 -0.6066 -0.5719 -0.3289
 4076SOL    HW123690   0.973   4.671   5.786 -0.4718 -0.0157 -0.5106
 4076SOL    HW223691   0.876   4.577   5.721  0.8815 -0.9386  0.3346
 4077SOL     OW23692   3.111   4.205   5.733  0.1672  0.2581 -0.2109
 4077SOL    HW123693   3.051   4.131   5.739  1.6325 -0.7351  2.1427
 4077SOL    HW223694   3.059   4.283   5.714 -2.1125 -0.7040  2.2123
 4078SOL     OW23695   4.382   1.355   7.197  0.4275  0.5356  1.0966
 4078SOL    HW123696   4.327   1.418   7.243 -1.1541  0.5871 -0.8678
 4078SOL    HW223697   4.418   1.315   7.276 -2.1053  0.3774  2.1628
 4079SOL     OW23698   2.875   1.633   8.783 -0.2488 -0.0650 -0.0915
 4079SOL    HW123699   2.950   1.599   8.733  1.1190  1.1231  1.1530
 4079SOL    HW223700   2.829   1.553   8.807 -1.0446  0.1228 -0.9963
 4080SOL     OW23701   2.963   2.479  14.006 -0.0666  0.6268 -1.2096
 4080SOL    HW123702   2.927   2.415  14.068  0.0932  0.9224 -0.8131
 4080SOL    HW223703   2.931   2.566  14.028 -0.5118  0.2446 -0.3246
 4081SOL     OW23704   1.315   4.080  10.289 -0.1011  0.2385  0.2968
 4081SOL    HW123705   1.355   4.150  10.237  1.0451  0.9254  2.0820
 4081SOL    HW223706   1.373   4.013  10.253  0.1219  1.0746 -0.8854
 4082SOL     OW23707   3.534   2.018   5.818  0.5031 -0.5953  0.1518
 4082SOL    HW123708   3.579   1.991   5.737 -0.9530  1.3464 -1.3086
 4082SOL    HW223709   3.604   2.066   5.863  1.2583 -1.4513 -0.0928
 4083SOL     OW23710   1.798   2.118   5.937  0.0922  0.2150  0.7860
 4083SOL    HW123711   1.754   2.119   6.022 -0.6518 -2.0473  0.4151
 4083SOL    HW223712   1.781   2.204   5.899 -2.2054 -0.2083  0.8685
 4084SOL     OW23713   1.525   4.717   0.546  0.2159 -0.1176  0.2092
 4084SOL    HW123714   1.507   4.626   0.525  1.3260 -0.7428  1.9209
 4084SOL    HW223715   1.493   0.034   0.468  1.0341  1.5648  0.8344
 4085SOL     OW23716   1.773   4.020   4.028  0.1456 -0.1149 -0.1566
 4085SOL    HW123717   1.858   4.039   3.988 -0.1650  2.2533  0.2856
 4085SOL    HW223718   1.791   3.995   4.119 -0.1199 -1.6692 -0.5323
 4086SOL     OW23719   3.374   4.242   3.012 -1.2989  0.4520 -0.1581
 4086SOL    HW123720   3.309   4.195   2.959  0.5827 -1.0214 -1.1491
 4086SOL    HW223721   3.426   4.264   2.934 -1.6824  1.1568 -0.2180
 4087SOL     OW23722   4.310   4.606   0.700  1.1397  0.1621  0.0401
 4087SOL    HW123723   4.401   4.599   0.673  1.1663  1.9352 -0.3658
 4087SOL    HW223724   4.257   4.580   0.625  0.0633  1.5303  0.3156
 4088SOL     OW23725   3.322   1.631   4.142 -0.1044  0.4926 -0.5072
 4088SOL    HW123726   3.309   1.538   4.157  0.4895  0.5181  0.1858
 4088SOL    HW223727   3.355   1.624   4.052  0.0254 -0.3969 -0.3879
 4089SOL     OW23728   4.185   4.576   8.556  0.2408  0.3469  0.0174
 4089SOL    HW123729   4.193   4.558   8.650 -1.2015 -3.1144 -0.5424
 4089SOL    HW223730   4.269   4.618   8.537  0.8489 -2.2435 -3.0895
 4090SOL     OW23731   2.345   4.023   6.152  0.3550 -0.0880 -0.6074
 4090SOL    HW123732   2.354   3.957   6.084 -1.6138 -1.6886  0.6841
 4090SOL    HW223733   2.409   3.990   6.215 -1.0345 -2.8026 -0.6243
 4091SOL     OW23734   1.854   0.496   0.580  0.4044  0.1822 -0.1435
 4091SOL    HW123735   1.904   0.544   0.646 -0.3082  1.5301 -0.5754
 4091SOL    HW223736   1.897   0.516   0.497  0.9538 -0.6311 -0.0458
 4092SOL     OW23737   4.441   4.425   9.797 -0.1831 -0.5436  0.1442
 4092SOL    HW123738   4.492   4.456   9.723  0.0030 -1.3923 -0.0796
 4092SOL    HW223739   4.365   4.480   9.776  2.9088  3.2226 -1.2472
 4093SOL     OW23740   1.392   2.306   0.190 -0.2733 -0.0120  0.1144
 4093SOL    HW123741   1.329   2.372   0.221 -0.3306 -1.5321  3.2411
 4093SOL    HW223742   1.474   2.355   0.194 -0.9871  1.1965  0.0275
 4094SOL     OW23743   0.113   0.993   3.181  0.4965 -0.3270 -0.4572
 4094SOL    HW123744   0.027   0.968   3.215  0.3993  1.1615  0.4053
 4094SOL    HW223745   0.130   0.934   3.108 -1.1574 -1.1072 -0.2260
 4095SOL     OW23746   1.761   1.988   7.286  0.1907  0.0719  0.3440
 4095SOL    HW123747   1.809   2.035   7.354  1.9840 -0.6384 -0.4161
 4095SOL    HW223748   1.670   1.987   7.316 -0.3525  3.3108 -1.1655
 4096SOL     OW23749   1.125   4.239   0.693 -0.1327  0.2292 -0.2687
 4096SOL    HW123750   1.079   4.161   0.662  1.3608 -1.0813  0.8134
 4096SOL    HW223751   1.215   4.215   0.714 -0.5153 -0.7851  0.2290
 4097SOL     OW23752   1.254   2.065   1.969  0.9997  0.3057 -0.2630
 4097SOL    HW123753   1.267   2.155   1.999 -1.4790 -0.0743  2.0325
 4097SOL    HW223754   1.342   2.028   1.973  1.1990  0.8172  0.1364
 4098SOL     OW23755   2.265   0.867   3.273  0.0603  0.2629  0.4778
 4098SOL    HW123756   2.175   0.867   3.240 -0.7675  0.3768  2.7079
 4098SOL    HW223757   2.273   0.962   3.283  0.7136  0.3053 -0.3844
 4099SOL     OW23758   0.500   3.306   6.548 -0.0864 -0.0420 -0.0056
 4099SOL    HW123759   0.576   3.363   6.536 -0.3759  0.1363 -0.9775
 4099SOL    HW223760   0.529   3.217   6.567  0.1005  0.4234  1.9702
 4100SOL     OW23761   3.546   0.467   3.259 -0.2491 -0.5286  0.0549
 4100SOL    HW123762   3.552   0.401   3.329 -1.3171  0.0334  0.6679
 4100SOL    HW223763   3.640   0.474   3.243 -0.1561  0.0365  0.8668
 4101SOL     OW23764   2.734   0.438   6.698  0.4782  0.6786  0.1048
 4101SOL    HW123765   2.676   0.371   6.661  0.0437  0.2157  1.5885
 4101SOL    HW223766   2.816   0.428   6.649  0.1986  0.1815 -0.2629
 4102SOL     OW23767   0.421   0.731   6.624  0.3146  0.2485  0.2236
 4102SOL    HW123768   0.389   0.729   6.715 -1.8790  2.4599 -0.4755
 4102SOL    HW223769   0.345   0.692   6.581 -0.6444  3.3240 -0.8737
 4103SOL     OW23770   0.922   2.308   7.890  0.0968  0.5641  0.0450
 4103SOL    HW123771   0.991   2.319   7.956 -0.1580 -1.7082  0.7013
 4103SOL    HW223772   0.957   2.245   7.827 -1.5464 -0.1451 -0.1482
 4104SOL     OW23773   3.076   2.127   7.275 -0.4842  0.3483  0.3081
 4104SOL    HW123774   3.133   2.167   7.210  0.2692 -0.6251  0.3692
 4104SOL    HW223775   3.131   2.049   7.283 -1.4224 -0.3287  0.1471
 4105SOL     OW23776   0.563   4.545   7.010 -0.3136  0.0768 -0.3837
 4105SOL    HW123777   0.647   4.528   6.968  0.7830 -0.9746  2.2351
 4105SOL    HW223778   0.543   4.623   6.959 -0.3124 -0.4692 -1.2113
 4106SOL     OW23779   1.078   3.597   8.115 -0.2502  0.0443 -0.3832
 4106SOL    HW123780   1.139   3.550   8.172  0.1761 -0.8777 -1.6104
 4106SOL    HW223781   1.002   3.613   8.171  1.6097 -1.0283  2.4693
 4107SOL     OW23782   0.541   3.916   2.392  0.1058  0.2220  1.0113
 4107SOL    HW123783   0.507   3.859   2.323 -0.1650  4.0876 -2.0448
 4107SOL    HW223784   0.461   3.956   2.424 -0.4177 -0.7229  0.8682
 4108SOL     OW23785   4.416   3.518   0.977  0.9248 -0.3009 -0.1396
 4108SOL    HW123786   4.322   3.535   0.978  0.8635 -0.6813  0.6942
 4108SOL    HW223787   4.408   3.422   0.976  0.7976 -0.3119  2.2537
 4109SOL     OW23788   2.911   0.689   5.134  0.1790 -0.0627 -0.1706
 4109SOL    HW123789   2.999   0.685   5.097  0.3020 -1.5592  0.2821
 4109SOL    HW223790   2.903   0.785   5.134 -0.1051 -0.0803  1.0360
 4110SOL     OW23791   1.161   2.876  17.016  0.0335  0.1652  0.1738
 4110SOL    HW123792   1.075   2.847  16.986 -0.5795  0.6393  1.4354
 4110SOL    HW223793   1.177   2.817  17.090 -2.6046 -2.8152 -1.6754
 4111SOL     OW23794   0.599   1.699   6.093 -0.0606  0.2064  0.3082
 4111SOL    HW123795   0.520   1.661   6.131 -0.0267 -0.2346 -0.0663
 4111SOL    HW223796   0.562   1.777   6.053 -0.3269  0.0306  0.2093
 4112SOL     OW23797   1.288   4.616   4.949 -0.5120  0.0298  0.5831
 4112SOL    HW123798   1.246   4.533   4.969 -1.4399  0.0776 -1.2055
 4112SOL    HW223799   1.377   4.601   4.917 -0.4989  0.1366  0.5690
 4113SOL     OW23800   2.834   2.486  10.730 -0.0366 -0.2682  0.0512
 4113SOL    HW123801   2.893   2.412  10.717 -1.9721 -1.3567 -2.7306
 4113SOL    HW223802   2.773   2.432  10.781  0.8012 -0.2209  1.0986
 4114SOL     OW23803   4.081   0.610   6.821 -0.0155 -0.2382  0.1762
 4114SOL    HW123804   3.993   0.599   6.856 -1.1198  0.7969 -2.2488
 4114SOL    HW223805   4.076   0.703   6.799 -0.5833 -0.0653  1.0488
 4115SOL     OW23806   0.196   0.309   2.895 -0.6241  0.0810 -0.5445
 4115SOL    HW123807   0.132   0.380   2.898 -0.8552 -0.0942 -1.2882
 4115SOL    HW223808   0.230   0.329   2.808  1.3106  0.2781  0.2543
 4116SOL     OW23809   2.369   3.728   2.769 -0.1507  0.4008  0.0975
 4116SOL    HW123810   2.464   3.731   2.758 -0.2228 -0.0279 -0.6621
 4116SOL    HW223811   2.353   3.657   2.707  1.9236 -1.4003  1.6222
 4117SOL     OW23812   2.310   3.558   9.029 -0.0295 -0.0355  0.4572
 4117SOL    HW123813   2.317   3.464   9.046 -3.1054 -0.3932 -0.3027
 4117SOL    HW223814   2.296   3.608   9.110 -0.3574  0.1088  0.3097
 4118SOL     OW23815   4.189   0.698   2.453 -0.0839 -0.1868 -0.7360
 4118SOL    HW123816   4.245   0.691   2.375 -0.1144  0.2072 -0.7955
 4118SOL    HW223817   4.105   0.720   2.411  0.1075  0.3118 -0.8619
 4119SOL     OW23818   4.223   4.364   6.408 -0.4292  0.2612  0.3259
 4119SOL    HW123819   4.290   4.297   6.423 -1.3935 -0.0910  3.1742
 4119SOL    HW223820   4.206   4.360   6.314  0.9402  0.1653  0.0786
 4120SOL     OW23821   3.902   1.826   9.113 -0.2705  0.2191  0.0948
 4120SOL    HW123822   3.932   1.850   9.201  1.7658 -0.9447 -0.2904
 4120SOL    HW223823   3.843   1.900   9.094  1.6077  0.9817 -2.7398
 4121SOL     OW23824   2.472   2.054   3.156 -0.6930 -0.1968 -0.0912
 4121SOL    HW123825   2.473   2.129   3.097 -1.3889 -1.1311 -1.2849
 4121SOL    HW223826   2.466   2.103   3.238  1.9175 -0.7254  0.4134
 4122SOL     OW23827   4.509   4.187   1.653 -0.0413 -0.9330 -0.0442
 4122SOL    HW123828   4.569   4.251   1.691 -0.4905 -0.5699  0.0503
 4122SOL    HW223829   4.569   4.113   1.640  2.4343  0.7869  1.7062
 4123SOL     OW23830   1.147   2.976   7.063  0.1479  0.1169  0.3552
 4123SOL    HW123831   1.123   2.972   6.970  2.1219  1.1000 -0.1903
 4123SOL    HW223832   1.227   3.028   7.061  0.5556 -0.3818  3.1018
 4124SOL     OW23833   0.947   4.066   3.157 -0.5827 -0.0381  0.3324
 4124SOL    HW123834   0.921   3.975   3.173  0.2299  0.0170  1.9869
 4124SOL    HW223835   0.916   4.076   3.067 -0.5002 -2.4945  0.0438
 4125SOL     OW23836   4.691   4.512  12.959 -0.2444  0.6792 -0.2939
 4125SOL    HW123837   4.603   4.492  12.927  0.1256 -1.4648  0.0534
 4125SOL    HW223838   0.011   4.524  12.877 -0.0781 -0.0545 -0.3033
 4126SOL     OW23839   2.938   3.352   5.722  0.1048 -0.2190  0.3319
 4126SOL    HW123840   2.975   3.438   5.745 -2.4565  1.2439 -1.0683
 4126SOL    HW223841   2.965   3.364   5.631 -2.2621  1.0579 -0.2178
 4127SOL     OW23842   3.895   0.447  14.739  0.4634  0.3358  0.1334
 4127SOL    HW123843   3.894   0.543  14.746 -0.3418  0.4500 -1.6685
 4127SOL    HW223844   3.819   0.426  14.684  0.1370 -1.8474  1.4408
 4128SOL     OW23845   4.293   3.376  17.672 -0.6446 -0.4439 -0.0347
 4128SOL    HW123846   4.205   3.340  17.672 -1.4056  1.4267 -2.0348
 4128SOL    HW223847   4.306   3.396  17.579  0.4956 -0.1421  0.1879
 4129SOL     OW23848   3.298   3.645   5.654 -0.1926 -0.3063 -0.1137
 4129SOL    HW123849   3.352   3.675   5.727  1.8324 -2.5339 -0.7116
 4129SOL    HW223850   3.239   3.719   5.640  0.6033  0.4177  0.3835
 4130SOL     OW23851   2.909   0.613   3.910 -0.2194 -0.4580  0.0946
 4130SOL    HW123852   2.925   0.545   3.844 -1.0387  0.5289 -1.1093
 4130SOL    HW223853   2.996   0.647   3.927  0.2233 -1.2189 -0.6584
 4131SOL     OW23854   1.572   0.538   8.033  0.3287 -0.1442 -0.8656
 4131SOL    HW123855   1.558   0.457   7.984  0.0035 -0.6976  0.1432
 4131SOL    HW223856   1.560   0.599   7.959 -0.2169  0.0746 -0.5954
 4132SOL     OW23857   1.011   0.939   6.144  0.3065  0.2164  0.0019
 4132SOL    HW123858   1.086   0.905   6.192 -0.4968  0.5373  1.4962
 4132SOL    HW223859   0.937   0.890   6.180  0.3070  0.2372  0.0312
 4133SOL     OW23860   0.051   1.475   1.997  0.2587 -0.0830 -0.2733
 4133SOL    HW123861   0.090   1.395   1.960  2.1297  0.8898 -0.4092
 4133SOL    HW223862   4.687   1.452   1.981 -0.3490  1.3538  1.1833
 4134SOL     OW23863   0.537   2.231  14.339 -0.4559  0.0014  0.8087
 4134SOL    HW123864   0.476   2.176  14.389 -1.7467 -1.6099 -2.5845
 4134SOL    HW223865   0.560   2.176  14.265 -0.1362  0.5252  0.5245
 4135SOL     OW23866   1.160   0.517   5.137  0.1492 -0.2907  0.0834
 4135SOL    HW123867   1.228   0.540   5.074  0.2227 -2.8888 -0.7923
 4135SOL    HW223868   1.105   0.458   5.085 -0.6965 -0.6643  1.4105
 4136SOL     OW23869   2.042   1.571  13.458 -0.1293  0.0687  0.0850
 4136SOL    HW123870   1.982   1.618  13.399 -1.5435 -0.4637  1.1239
 4136SOL    HW223871   2.032   1.621  13.539  1.6207 -1.1714  1.0730
 4137SOL     OW23872   3.363   4.359  10.973  0.0008  0.0632 -0.3928
 4137SOL    HW123873   3.349   4.449  11.001 -2.9595 -0.1521 -1.1615
 4137SOL    HW223874   3.278   4.315  10.977  0.1848 -0.1575  1.0221
 4138SOL     OW23875   0.986   0.595  14.661  0.6757  0.5875  0.1049
 4138SOL    HW123876   0.967   0.623  14.571 -0.6673  0.5562  0.3679
 4138SOL    HW223877   1.080   0.578  14.667  0.1598 -1.5917  1.8979
 4139SOL     OW23878   2.135   2.900   1.978 -0.2387 -0.0712  0.4085
 4139SOL    HW123879   2.042   2.902   2.000 -0.3982 -0.4680 -0.2258
 4139SOL    HW223880   2.138   2.975   1.920 -1.2441 -1.8787 -1.9604
 4140SOL     OW23881   0.169   0.113   8.847  0.0512 -0.4378 -0.0681
 4140SOL    HW123882   0.118   0.123   8.767 -1.6132  0.1918  1.0750
 4140SOL    HW223883   0.092   0.121   8.903  0.9078 -2.8797  1.4518
 4141SOL     OW23884   4.008   2.810   1.537  0.1560 -0.2779  0.1667
 4141SOL    HW123885   3.983   2.859   1.615  0.8006  2.4305 -1.3463
 4141SOL    HW223886   3.978   2.870   1.469  0.3327  0.3527  0.6447
 4142SOL     OW23887   2.289   1.413   8.428  0.3754 -0.4725 -0.2861
 4142SOL    HW123888   2.206   1.397   8.384  0.5166  1.0437 -1.1318
 4142SOL    HW223889   2.344   1.446   8.356 -0.0038  0.3627 -0.1923
 4143SOL     OW23890   1.666   3.587   2.277  0.0655 -0.1159 -0.2480
 4143SOL    HW123891   1.733   3.520   2.264  0.0711 -0.3107  0.8133
 4143SOL    HW223892   1.628   3.572   2.190  1.6244 -1.9411 -0.6376
 4144SOL     OW23893   2.433   0.863  12.326 -0.1901  0.1800 -0.1042
 4144SOL    HW123894   2.484   0.881  12.405  1.1216  0.4399 -1.0148
 4144SOL    HW223895   2.408   0.948  12.290  3.7657  0.5984 -1.8463
 4145SOL     OW23896   4.710   3.898   0.656 -0.6232 -0.0100  0.7295
 4145SOL    HW123897   0.020   3.824   0.608 -2.3431 -0.4194  0.0490
 4145SOL    HW223898   0.053   3.953   0.692  0.6685 -0.4017 -1.2260
 4146SOL     OW23899   1.666   1.426  12.507 -0.2097  0.7312  0.1970
 4146SOL    HW123900   1.655   1.352  12.448 -0.5281  0.4988  0.5445
 4146SOL    HW223901   1.742   1.460  12.460  0.6527  0.5694  1.4601
 4147SOL     OW23902   2.498   3.273   0.492 -0.4282 -0.1612 -0.3650
 4147SOL    HW123903   2.483   3.324   0.413  0.9397 -0.7126 -0.9754
 4147SOL    HW223904   2.432   3.204   0.484  0.4150 -1.0128  0.0123
 4148SOL     OW23905   3.179   3.109  17.010 -0.0242  0.4158 -0.0141
 4148SOL    HW123906   3.267   3.144  17.005  0.0085  0.4005  0.5216
 4148SOL    HW223907   3.113   3.175  16.992  0.5415  0.8114 -0.6157
 4149SOL     OW23908   0.030   2.198   6.717 -0.4393 -1.0244  0.2953
 4149SOL    HW123909   4.683   2.212   6.658 -1.2562  1.3682  1.9311
 4149SOL    HW223910   4.725   2.129   6.774  2.0570 -1.9981  0.5669
 4150SOL     OW23911   4.293   2.677   0.066  0.1403  0.0342  0.0430
 4150SOL    HW123912   4.362   2.635   0.015 -1.0912 -1.5745 -0.2934
 4150SOL    HW223913   4.275   2.752   0.009  0.5003  1.4966  1.8223
 4151SOL     OW23914   3.958   2.624  13.340  0.0686  0.1453  0.3992
 4151SOL    HW123915   3.892   2.572  13.386  1.5669 -1.4178  0.8045
 4151SOL    HW223916   3.962   2.580  13.255 -1.4766  1.1427 -0.1958
 4152SOL     OW23917   3.405   3.224   4.694 -0.4295 -0.3947  0.6365
 4152SOL    HW123918   3.413   3.278   4.615 -1.3895 -0.6919  0.3319
 4152SOL    HW223919   3.311   3.231   4.712 -0.9313 -1.1117 -1.7301
 4153SOL     OW23920   0.182   2.548   1.984 -0.0004  0.7163  0.0228
 4153SOL    HW123921   0.191   2.616   1.917  2.1774  0.1803 -0.2260
 4153SOL    HW223922   0.152   2.476   1.928  0.4438  0.0582  0.6256
 4154SOL     OW23923   0.069   1.041   2.439  0.3574 -0.6516  0.0281
 4154SOL    HW123924   4.719   1.068   2.487  0.6802 -0.4944  0.4618
 4154SOL    HW223925   0.030   0.966   2.394 -0.2121 -0.0449 -0.4934
 4155SOL     OW23926   1.348   3.107   4.287  0.0973  0.3330 -1.0116
 4155SOL    HW123927   1.423   3.048   4.281  0.2362  0.4010 -0.0515
 4155SOL    HW223928   1.269   3.053   4.297  0.5621 -0.1905 -0.2040
 4156SOL     OW23929   4.556   3.081   2.007 -0.0146 -0.3770  0.4448
 4156SOL    HW123930   4.568   3.168   2.044 -2.1379  0.3580 -0.5768
 4156SOL    HW223931   4.467   3.086   1.972  0.6864  0.7933 -1.1533
 4157SOL     OW23932   1.972   1.880  12.918 -0.7757 -0.0753  0.0698
 4157SOL    HW123933   1.891   1.930  12.907 -0.0179  1.2766  0.5801
 4157SOL    HW223934   1.950   1.802  12.869  1.1580 -0.7590  0.2878
 4158SOL     OW23935   3.444   3.263  17.241 -0.4557 -0.7729  0.6016
 4158SOL    HW123936   3.429   3.206  17.167  3.3567 -0.7880 -0.1423
 4158SOL    HW223937   3.380   3.334  17.231 -0.4055 -0.5972  1.4471
 4159SOL     OW23938   0.863   0.044   4.372  0.4016  0.2276 -0.4933
 4159SOL    HW123939   0.772   0.046   4.344  0.2899  0.0944 -0.1351
 4159SOL    HW223940   0.855   0.103   4.447 -0.6904 -1.1785  0.4875
 4160SOL     OW23941   1.389   0.545   3.291 -0.0868  0.3943  0.3936
 4160SOL    HW123942   1.380   0.635   3.321 -0.1555 -0.0581  1.7427
 4160SOL    HW223943   1.343   0.490   3.355 -1.5713  1.4999  0.2387
 4161SOL     OW23944   2.311   1.091  12.643 -0.1916  0.1515 -0.5414
 4161SOL    HW123945   2.385   1.035  12.618 -0.6976 -1.6322  1.9425
 4161SOL    HW223946   2.345   1.131  12.723 -1.7355 -1.9191  1.1677
 4162SOL     OW23947   2.263   0.173   5.714 -0.1998 -0.1137  0.3223
 4162SOL    HW123948   2.260   0.210   5.802 -1.7547  1.2295 -0.2783
 4162SOL    HW223949   2.306   0.088   5.720 -1.6960 -1.0133 -1.4340
 4163SOL     OW23950   1.452   2.771   5.652 -0.5865 -0.7575 -0.6848
 4163SOL    HW123951   1.491   2.684   5.652 -0.4689 -0.7061  0.4524
 4163SOL    HW223952   1.417   2.779   5.740 -0.2949  0.7200 -0.6921
 4164SOL     OW23953   1.228   4.188   7.732 -0.1318  0.3658 -0.2898
 4164SOL    HW123954   1.306   4.203   7.679  0.5235 -2.6029 -0.1623
 4164SOL    HW223955   1.162   4.177   7.663 -0.1635  0.3116 -0.2507
 4165SOL     OW23956   3.860   3.211  14.852  0.2621  0.0633  0.3904
 4165SOL    HW123957   3.912   3.148  14.901  1.2363 -0.4934 -1.3290
 4165SOL    HW223958   3.931   3.241  14.795 -0.7115  0.1838 -0.7507
 4166SOL     OW23959   2.460   4.652   4.994 -0.1314 -0.3775 -0.0994
 4166SOL    HW123960   2.405   4.577   4.973 -1.8628  1.2170 -1.3321
 4166SOL    HW223961   2.387   4.714   4.993  1.1664  1.1520 -0.3316
 4167SOL     OW23962   3.231   1.389  14.920 -0.0163 -0.5463  0.4449
 4167SOL    HW123963   3.281   1.356  14.995 -1.1847 -0.4922  1.2456
 4167SOL    HW223964   3.162   1.426  14.975 -1.0636 -1.7797 -0.0494
 4168SOL     OW23965   0.481   4.603   7.921  0.1981  0.3776  0.2926
 4168SOL    HW123966   0.508   4.677   7.975 -2.9994  0.7315  1.4265
 4168SOL    HW223967   0.425   4.561   7.986 -0.7119  1.8454  0.4700
 4169SOL     OW23968   2.425   0.419  16.486  0.0288  0.3979 -0.0621
 4169SOL    HW123969   2.424   0.382  16.574  2.4406 -0.0777 -0.2461
 4169SOL    HW223970   2.488   0.364  16.440  1.1307  2.1493 -0.6315
 4170SOL     OW23971   0.248   1.605  11.308  0.3993 -0.1239 -0.3064
 4170SOL    HW123972   0.201   1.630  11.228 -0.4179  0.0562  0.2313
 4170SOL    HW223973   0.248   1.689  11.354  0.1051 -0.0106 -0.5114
 4171SOL     OW23974   2.225   1.277   2.552 -0.4482 -0.0417 -0.1926
 4171SOL    HW123975   2.242   1.182   2.554  1.5556  0.3568  0.5171
 4171SOL    HW223976   2.138   1.296   2.588  0.0928 -0.1037  1.1306
 4172SOL     OW23977   3.562   4.076  13.004 -0.4161  0.4027  0.1159
 4172SOL    HW123978   3.545   4.051  13.095 -1.9412 -1.3123 -0.6351
 4172SOL    HW223979   3.531   4.165  12.990 -1.7290 -0.3274 -1.6819
 4173SOL     OW23980   1.837   0.215   2.950  0.0369 -0.1752 -0.2173
 4173SOL    HW123981   1.845   0.162   3.030 -3.9669  0.1037  0.3904
 4173SOL    HW223982   1.908   0.177   2.899 -0.1466  1.2625 -1.5437
 4174SOL     OW23983   3.567   4.253   7.760 -0.7454 -0.6726 -0.0563
 4174SOL    HW123984   3.612   4.336   7.775 -0.2789 -0.8539 -0.4587
 4174SOL    HW223985   3.506   4.276   7.691 -2.0185 -3.1604  0.2356
 4175SOL     OW23986   2.267   2.713   4.554 -0.0052 -0.0990  0.3062
 4175SOL    HW123987   2.273   2.657   4.632 -0.1923 -2.0974 -1.1071
 4175SOL    HW223988   2.310   2.655   4.491 -0.4861  0.0371 -0.1513
 4176SOL     OW23989   0.666   0.174   2.145  0.5938  0.4742 -0.6396
 4176SOL    HW123990   0.651   0.185   2.051  0.8664 -1.5592 -0.9394
 4176SOL    HW223991   0.731   0.104   2.156 -0.4726 -0.2850  0.9403
 4177SOL     OW23992   0.429   2.413   3.090 -0.4268  0.5691  0.1383
 4177SOL    HW123993   0.366   2.341   3.091 -0.6926  0.8086  0.4241
 4177SOL    HW223994   0.506   2.365   3.122  0.5041  1.2510 -1.0669
 4178SOL     OW23995   4.344   3.025  11.702  0.0852 -0.3074 -0.7793
 4178SOL    HW123996   4.341   3.096  11.637 -0.8042  1.3061  1.0261
 4178SOL    HW223997   4.437   3.034  11.721  0.0792 -1.6849 -0.1297
 4179SOL     OW23998   0.957   3.085   3.570 -0.3936  0.2558 -0.3313
 4179SOL    HW123999   1.017   3.071   3.644 -1.6603 -1.7984  0.2849
 4179SOL    HW224000   1.005   3.123   3.496  0.6411  2.0655  1.2371
 4180SOL     OW24001   4.048   2.461   7.092 -0.1434  0.0635 -0.2342
 4180SOL    HW124002   4.035   2.377   7.047 -0.5530  0.8094 -1.5097
 4180SOL    HW224003   3.998   2.514   7.030  1.5809  0.0915 -1.6235
 4181SOL     OW24004   3.836   2.834   8.724  0.2721 -0.3689 -0.7923
 4181SOL    HW124005   3.843   2.739   8.733  0.5587  0.0590  3.3672
 4181SOL    HW224006   3.744   2.857   8.715  0.9959  2.1382 -1.9953
 4182SOL     OW24007   2.650   2.205  17.127  0.1685 -0.7717  0.3128
 4182SOL    HW124008   2.633   2.137  17.193 -2.5818 -1.0478 -0.6727
 4182SOL    HW224009   2.676   2.151  17.053 -0.2200  0.8940 -1.0378
 4183SOL     OW24010   0.509   0.010   2.946 -0.5437 -0.2194  0.3904
 4183SOL    HW124011   0.455   4.681   2.891  0.3204  0.1602 -0.8441
 4183SOL    HW224012   0.532   0.082   2.888 -3.9656 -0.3075 -1.0894
 4184SOL     OW24013   2.416   2.726   1.932  0.4210  0.0197 -0.6085
 4184SOL    HW124014   2.420   2.787   1.858  0.6569  2.6695  1.5894
 4184SOL    HW224015   2.446   2.645   1.891  1.5532  0.7417 -1.2064
 4185SOL     OW24016   0.501   2.834  11.279  0.2892  0.0482 -0.4785
 4185SOL    HW124017   0.587   2.792  11.270  0.0096 -0.6373 -0.0055
 4185SOL    HW224018   0.507   2.876  11.364 -1.4840 -0.4270 -0.1167
 4186SOL     OW24019   3.885   3.819  10.905 -0.2555 -0.1880  0.1652
 4186SOL    HW124020   3.813   3.818  10.841 -0.5963  3.1217  0.4878
 4186SOL    HW224021   3.917   3.909  10.892  2.5656 -1.0375  1.2857
 4187SOL     OW24022   3.939   3.433   8.458  0.1230 -0.3687 -0.2572
 4187SOL    HW124023   4.032   3.437   8.479 -0.2971  2.9894  0.8627
 4187SOL    HW224024   3.951   3.362   8.394  3.1320  0.9913 -1.1721
 4188SOL     OW24025   1.181   1.103  12.554 -0.1139 -0.6016  0.0590
 4188SOL    HW124026   1.227   1.038  12.607  0.1784  0.8310  1.5571
 4188SOL    HW224027   1.088   1.081  12.568 -0.5981  0.2355 -1.8754
 4189SOL     OW24028   3.910   2.302  13.281  0.1269  0.4170  0.2958
 4189SOL    HW124029   3.985   2.243  13.276 -0.8217 -0.5805 -2.0865
 4189SOL    HW224030   3.924   2.349  13.198  2.8023  0.8536  0.9874
 4190SOL     OW24031   0.527   3.701   3.389  0.1521  0.1160 -0.6707
 4190SOL    HW124032   0.507   3.788   3.354  0.6874  0.7468  0.6234
 4190SOL    HW224033   0.451   3.695   3.446  0.9069 -3.0874  0.0211
 4191SOL     OW24034   1.104   3.957  17.100  0.7475  0.1707  0.2148
 4191SOL    HW124035   1.110   3.899  17.024 -1.4836  2.1163 -1.4791
 4191SOL    HW224036   1.184   4.009  17.095  0.5070  0.4767 -0.5572
 4192SOL     OW24037   2.331   4.633   5.778  0.2169 -0.7800 -0.3222
 4192SOL    HW124038   2.273   4.561   5.802 -1.7621  0.1663 -2.2792
 4192SOL    HW224039   2.403   4.622   5.840  0.7505 -0.2326 -0.8351
 4193SOL     OW24040   3.815   4.415   5.089 -0.1312 -0.4487 -0.1262
 4193SOL    HW124041   3.815   4.479   5.159  0.4858 -1.5486  0.8730
 4193SOL    HW224042   3.865   4.346   5.133 -1.7520 -1.1080  0.7007
 4194SOL     OW24043   2.033   0.774  12.815  0.1132  0.6567  0.2537
 4194SOL    HW124044   2.080   0.691  12.828  1.0056  1.3240  1.3563
 4194SOL    HW224045   1.953   0.752  12.768  1.5261 -4.2219  0.1635
 4195SOL     OW24046   4.610   3.570  15.598  0.7200 -0.2348 -0.2911
 4195SOL    HW124047   4.614   3.648  15.543 -0.5057  0.6373  0.8458
 4195SOL    HW224048   4.639   3.601  15.684  2.5331 -1.8098 -0.3399
 4196SOL     OW24049   1.276   2.557   3.868  0.1016  0.0549  0.0544
 4196SOL    HW124050   1.225   2.493   3.918 -1.4728  3.1525  2.4443
 4196SOL    HW224051   1.214   2.584   3.801 -0.9684  3.7568  2.5456
 4197SOL     OW24052   1.017   1.263   1.543 -0.4900  1.1543  0.4818
 4197SOL    HW124053   0.976   1.311   1.615 -1.3226 -0.9527  1.3986
 4197SOL    HW224054   1.088   1.323   1.518 -1.1773  1.0733 -1.6816
 4198SOL     OW24055   0.624   1.046   2.408 -0.2117 -0.7695  0.2328
 4198SOL    HW124056   0.600   1.089   2.325  1.0040 -0.7661 -0.1209
 4198SOL    HW224057   0.539   1.025   2.447 -0.4048  0.3578  0.4360
 4199SOL     OW24058   0.856   3.027  15.721  0.8186  0.1106  0.1594
 4199SOL    HW124059   0.810   3.073  15.791 -0.4354 -1.6398  0.4777
 4199SOL    HW224060   0.914   3.095  15.687  2.2092 -0.1563  2.0166
 4200SOL     OW24061   1.733   3.494  11.505  0.2987  0.0518 -0.2818
 4200SOL    HW124062   1.788   3.424  11.541 -2.1782 -0.9546  1.5852
 4200SOL    HW224063   1.795   3.566  11.511  0.2244 -0.0747  1.8451
 4201SOL     OW24064   4.420   4.087   4.205  0.1622  0.1757 -0.1270
 4201SOL    HW124065   4.513   4.105   4.217  0.6109 -1.4552 -1.2032
 4201SOL    HW224066   4.409   4.028   4.280 -2.2387 -1.2625 -1.6183
 4202SOL     OW24067   1.142   4.276  10.001 -0.6037 -0.3362 -0.1938
 4202SOL    HW124068   1.055   4.288   9.962 -0.2895  0.5650 -0.6240
 4202SOL    HW224069   1.117   4.285  10.093  3.0700 -1.5191  0.9176
 4203SOL     OW24070   2.244   1.905   4.303 -0.5774 -0.1928 -0.5483
 4203SOL    HW124071   2.202   1.851   4.370  0.7078 -1.4707 -0.7657
 4203SOL    HW224072   2.328   1.859   4.294 -1.5039 -1.6526 -1.7380
 4204SOL     OW24073   1.996   4.268   8.448 -0.0372  0.0941  0.0896
 4204SOL    HW124074   1.982   4.198   8.511 -3.9590  2.1796  1.5731
 4204SOL    HW224075   1.910   4.309   8.434  0.0582  0.8272  1.6048
 4205SOL     OW24076   1.870   1.855   0.682  0.4700 -0.1340  0.1619
 4205SOL    HW124077   1.846   1.762   0.682 -0.9196  0.2166 -1.6488
 4205SOL    HW224078   1.800   1.890   0.737  1.3506 -0.4433  1.4593
 4206SOL     OW24079   1.211   0.084   8.226  0.1155 -0.4280  0.4850
 4206SOL    HW124080   1.160   0.106   8.304  0.6415 -1.2845  1.0718
 4206SOL    HW224081   1.216   4.717   8.241  1.5958 -0.5712 -1.0140
 4207SOL     OW24082   0.639   1.821   2.088  0.6741  0.7298 -0.3895
 4207SOL    HW124083   0.602   1.901   2.124  0.9445 -0.7594  3.2378
 4207SOL    HW224084   0.586   1.785   2.017 -0.2418 -0.3732  0.8455
 4208SOL     OW24085   3.733   4.239  10.813  0.0559 -0.1527  1.0988
 4208SOL    HW124086   3.672   4.260  10.742 -0.4356 -2.0040  0.9666
 4208SOL    HW224087   3.714   4.311  10.873 -0.3812 -1.0329  2.0071
 4209SOL     OW24088   4.225   2.569  13.395 -0.0542 -0.1440  0.4011
 4209SOL    HW124089   4.270   2.651  13.375 -0.0551 -0.4430 -0.8227
 4209SOL    HW224090   4.134   2.590  13.377 -0.2069 -2.7667 -1.7778
 4210SOL     OW24091   1.533   0.231   1.706 -0.0957  0.0503  0.1476
 4210SOL    HW124092   1.529   0.167   1.635  1.3202 -0.9869  0.9926
 4210SOL    HW224093   1.553   0.308   1.652  1.8739 -0.8446 -0.3891
 4211SOL     OW24094   1.847   3.530  11.168 -0.0278 -0.0358 -0.2444
 4211SOL    HW124095   1.869   3.449  11.213  2.5517  0.7196 -0.1033
 4211SOL    HW224096   1.927   3.584  11.166  0.0670 -0.1491  0.6253
 4212SOL     OW24097   0.209   4.079  10.106 -0.1259  0.1213  0.0393
 4212SOL    HW124098   0.272   4.031  10.161 -0.0017  2.7258  2.1733
 4212SOL    HW224099   0.124   4.046  10.137  0.8855 -2.5873 -0.0127
 4213SOL     OW24100   2.317   2.759   5.731  0.1130 -0.0028 -0.4046
 4213SOL    HW124101   2.278   2.795   5.652  0.1884  0.1953 -0.3502
 4213SOL    HW224102   2.356   2.677   5.699 -1.9863 -1.8428  1.6721
 4214SOL     OW24103   1.750   4.093  17.454  1.0793 -0.2941  0.8409
 4214SOL    HW124104   1.747   4.028  17.525  1.5600 -0.3371  0.8244
 4214SOL    HW224105   1.666   4.067  17.417  0.8263  0.8417  0.6300
 4215SOL     OW24106   3.839   0.955  12.223  0.5520  0.5769 -0.1543
 4215SOL    HW124107   3.875   1.009  12.293 -2.2730 -0.0441  1.7667
 4215SOL    HW224108   3.846   0.869  12.265  1.3703 -0.5472 -2.5345
 4216SOL     OW24109   1.692   2.248  17.654 -0.3505  0.0199  0.9742
 4216SOL    HW124110   1.777   2.289  17.640  0.3021 -1.3548  0.8882
 4216SOL    HW224111   1.670   2.298   0.022 -0.5745  1.9547 -0.3429
 4217SOL     OW24112   0.893   2.593  16.582  0.3198  0.3163 -0.1022
 4217SOL    HW124113   0.940   2.662  16.628 -1.5145  0.0204  2.2159
 4217SOL    HW224114   0.878   2.632  16.496  1.2280  1.6511  0.3362
 4218SOL     OW24115   3.708   4.036   0.101  0.7838  0.4215  0.1596
 4218SOL    HW124116   3.763   4.067   0.172  1.7010  1.0807 -0.8317
 4218SOL    HW224117   3.767   4.071   0.035  0.8513  1.4838  0.7831
 4219SOL     OW24118   4.718   4.319   0.493 -0.1002  0.5555  0.0556
 4219SOL    HW124119   4.626   4.339   0.510 -0.1035 -1.8536  2.9340
 4219SOL    HW224120   0.029   4.366   0.567  0.7791  0.7161 -0.5031
 4220SOL     OW24121   3.137   2.239   0.328 -0.3555  0.3793 -0.2714
 4220SOL    HW124122   3.121   2.258   0.420  2.5834 -0.6738  0.4573
 4220SOL    HW224123   3.230   2.260   0.321  0.0823 -1.5473 -0.3777
 4221SOL     OW24124   1.448   4.371   8.978  0.1745  0.0659  0.0041
 4221SOL    HW124125   1.433   4.419   8.897  0.8046 -0.6047 -0.5163
 4221SOL    HW224126   1.460   4.455   9.022  1.9121 -0.3826  0.3757
 4222SOL     OW24127   2.323   3.139  14.599  0.3387  0.4680  0.2226
 4222SOL    HW124128   2.316   3.234  14.613  0.7577  0.4334  0.6522
 4222SOL    HW224129   2.368   3.146  14.515  0.7992  0.3457  0.4589
 4223SOL     OW24130   4.285   0.365  12.946  0.0022 -0.2287  0.0398
 4223SOL    HW124131   4.370   0.397  12.917 -0.0742  1.8142  2.0476
 4223SOL    HW224132   4.237   0.442  12.915 -1.4000 -1.3966 -0.6735
 4224SOL     OW24133   1.963   1.627   7.806 -0.1453  0.3110 -0.1692
 4224SOL    HW124134   1.898   1.601   7.740 -0.6284  0.9666  0.0531
 4224SOL    HW224135   1.967   1.541   7.848  0.2986 -0.0517 -0.9367
 4225SOL     OW24136   0.882   0.760  12.647 -0.2445 -0.1995  0.4389
 4225SOL    HW124137   0.791   0.745  12.675  0.0963 -0.0366  1.5955
 4225SOL    HW224138   0.924   0.719  12.722  2.0081  0.3015 -0.5592
 4226SOL     OW24139   2.343   0.515   7.257 -0.3566  0.4604  0.1233
 4226SOL    HW124140   2.361   0.568   7.179  2.3164 -0.7716 -0.0916
 4226SOL    HW224141   2.422   0.462   7.265  0.1301  1.2628  0.6317
 4227SOL     OW24142   3.318   2.111   8.090  0.1760 -0.2860  0.1290
 4227SOL    HW124143   3.256   2.041   8.071 -0.9353  0.4557  1.0453
 4227SOL    HW224144   3.387   2.098   8.025  1.8988 -0.6044  2.0373
 4228SOL     OW24145   0.749   0.891   1.260  0.9351  0.2311 -0.6205
 4228SOL    HW124146   0.655   0.900   1.248  0.6589 -1.4786  0.1352
 4228SOL    HW224147   0.758   0.823   1.328  2.2705  1.1727  0.1551
 4229SOL     OW24148   4.659   3.455   5.810 -0.0262  0.4118  0.1033
 4229SOL    HW124149   4.721   3.484   5.743  1.1742  0.6185  1.2910
 4229SOL    HW224150   4.722   3.433   5.879 -0.0770  1.7159  0.5677
 4230SOL     OW24151   2.296   3.759   8.610  0.1504 -0.5132 -0.2881
 4230SOL    HW124152   2.380   3.800   8.633  0.1189 -1.5059  1.6010
 4230SOL    HW224153   2.324   3.708   8.534  3.2140  0.0365  0.4775
 4231SOL     OW24154   0.490   1.506   5.046  0.1475 -0.1685 -0.5969
 4231SOL    HW124155   0.538   1.586   5.027  0.0891 -0.1632 -0.7225
 4231SOL    HW224156   0.402   1.537   5.026  0.2222 -1.1900 -2.5007
 4232SOL     OW24157   0.176   4.293   9.825  0.6861 -0.6250 -0.0753
 4232SOL    HW124158   0.204   4.384   9.841 -1.2171  0.1343 -1.1015
 4232SOL    HW224159   0.221   4.250   9.898 -0.5149 -1.0768  0.3844
 4233SOL     OW24160   4.630   3.700   2.265 -0.2093  0.4052  0.0830
 4233SOL    HW124161   4.595   3.646   2.335  1.3494  0.8099  1.1635
 4233SOL    HW224162   4.587   3.785   2.276  2.2269  1.9513 -2.3576
 4234SOL     OW24163   3.755   0.535   7.095 -0.3908 -0.0535 -0.2823
 4234SOL    HW124164   3.714   0.582   7.168  2.4480  2.0117 -0.0007
 4234SOL    HW224165   3.796   0.609   7.051  0.5257 -0.0738  0.5343
 4235SOL     OW24166   2.166   3.936   0.598 -0.1313 -0.1667 -0.2008
 4235SOL    HW124167   2.205   3.940   0.510 -0.5768  1.4091 -0.3307
 4235SOL    HW224168   2.186   3.851   0.636 -0.0243  0.3879  0.9643
 4236SOL     OW24169   3.040   4.716   4.502  0.1617  0.1590 -0.5247
 4236SOL    HW124170   3.009   4.716   4.411  2.0213  0.7614 -1.1599
 4236SOL    HW224171   2.965   4.683   4.551 -0.6795  1.1069 -1.1711
 4237SOL     OW24172   2.444   2.914  11.877 -0.0974 -0.1885 -0.3294
 4237SOL    HW124173   2.529   2.897  11.836  1.3093  0.9857  2.1104
 4237SOL    HW224174   2.404   2.986  11.829  2.8277  2.2943  0.9241
 4238SOL     OW24175   3.069   2.136  10.094 -0.2660  0.5445 -0.2301
 4238SOL    HW124176   3.073   2.129   9.998  0.4816  0.8599 -0.2166
 4238SOL    HW224177   3.023   2.055  10.118 -1.7078  2.0470  2.0609
 4239SOL     OW24178   0.098   2.395   7.306  0.8506 -0.1644 -0.1382
 4239SOL    HW124179   0.089   2.358   7.394 -0.0718 -1.0264 -0.5862
 4239SOL    HW224180   0.191   2.377   7.294  0.9338 -0.1919  0.5794
 4240SOL     OW24181   4.369   2.910   7.036 -0.1152 -0.4428  0.4327
 4240SOL    HW124182   4.347   2.940   7.124 -0.3055 -0.8423  0.5174
 4240SOL    HW224183   4.446   2.856   7.054  1.2476  1.2695 -0.2010
 4241SOL     OW24184   2.049   1.270   4.954 -0.2674  0.5382  0.6020
 4241SOL    HW124185   2.125   1.261   5.011  1.0759 -0.0221 -1.2973
 4241SOL    HW224186   1.990   1.199   4.978 -1.0413  0.8283 -0.3946
 4242SOL     OW24187   2.029   0.492  10.555  0.3690  0.0943  0.6919
 4242SOL    HW124188   1.987   0.407  10.537  0.8367  0.1219 -0.5703
 4242SOL    HW224189   1.961   0.552  10.523  0.5288  0.2533  0.6519
 4243SOL     OW24190   4.451   1.636   3.269  0.5123 -0.8936  0.0159
 4243SOL    HW124191   4.522   1.585   3.229  1.7999 -1.6631  3.3346
 4243SOL    HW224192   4.455   1.587   3.351 -0.9872  1.7061  1.6447
 4244SOL     OW24193   0.037   2.941   2.066 -0.3262 -0.0087 -0.0816
 4244SOL    HW124194   4.682   2.990   2.070 -0.8816 -0.8206 -1.7918
 4244SOL    HW224195   0.088   2.968   2.143 -1.5881  0.2600  0.6600
 4245SOL     OW24196   3.470   2.666   6.898 -0.1818  0.7711 -0.0333
 4245SOL    HW124197   3.541   2.663   6.834 -1.6974  2.6844 -1.7821
 4245SOL    HW224198   3.510   2.700   6.978 -0.3265  0.0724  0.3446
 4246SOL     OW24199   2.742   2.292   4.749 -0.1983  0.2891  0.3517
 4246SOL    HW124200   2.777   2.380   4.768  1.6864 -0.3208 -0.3460
 4246SOL    HW224201   2.803   2.239   4.800  0.0860  1.2869  1.0677
 4247SOL     OW24202   2.788   3.122   5.533 -0.6009  0.0023 -0.1385
 4247SOL    HW124203   2.839   3.123   5.614 -0.1692 -0.2651 -0.4105
 4247SOL    HW224204   2.859   3.107   5.470 -1.8632 -3.6211 -0.7048
 4248SOL     OW24205   1.314   2.427   4.601 -0.2380  0.0477 -0.3650
 4248SOL    HW124206   1.363   2.366   4.546  0.2425  0.7389 -0.7116
 4248SOL    HW224207   1.352   2.405   4.686  1.9373  0.7981 -1.1197
 4249SOL     OW24208   4.245   1.821   1.461 -0.2394 -0.1272  0.3856
 4249SOL    HW124209   4.254   1.812   1.556  2.6451  2.8291  0.4093
 4249SOL    HW224210   4.164   1.873   1.458 -0.3194 -0.3798 -1.5357
 4250SOL     OW24211   4.694   2.212  11.928  0.0293 -0.0562  0.1268
 4250SOL    HW124212   0.031   2.282  11.930  1.0092 -0.9567 -0.1700
 4250SOL    HW224213   0.017   2.146  11.880  0.3633  0.0150  0.3800
 4251SOL     OW24214   4.066   3.487   6.703 -0.1090 -0.6016 -0.4466
 4251SOL    HW124215   4.121   3.412   6.727 -0.0741 -0.7759 -1.0549
 4251SOL    HW224216   4.111   3.504   6.620 -0.4027 -0.3561 -0.5558
 4252SOL     OW24217   3.062   3.339   6.046  0.4189 -0.2315 -0.0425
 4252SOL    HW124218   3.126   3.303   5.985  0.7984  0.7886 -0.2501
 4252SOL    HW224219   3.064   3.432   6.024 -2.4792  0.0881  0.9716
 4253SOL     OW24220   0.272   0.526  14.172 -0.0569 -0.5898 -0.5825
 4253SOL    HW124221   0.277   0.512  14.077 -0.8447 -1.8102 -0.4487
 4253SOL    HW224222   0.344   0.587  14.188  0.5310 -1.3343 -0.3892
 4254SOL     OW24223   4.679   4.276   6.526  0.5760  0.2450  0.3031
 4254SOL    HW124224   0.013   4.348   6.528 -2.5644  2.9284 -0.0904
 4254SOL    HW224225   4.692   4.241   6.614 -1.6706 -0.7835  0.2485
 4255SOL     OW24226   2.171   1.243   6.953  0.1318 -0.0387  0.2107
 4255SOL    HW124227   2.090   1.207   6.917  0.5489 -2.0266  1.2994
 4255SOL    HW224228   2.145   1.335   6.965 -0.8763 -0.2741 -0.1586
 4256SOL     OW24229   0.700   3.739   6.673  0.3008 -0.3704 -0.5822
 4256SOL    HW124230   0.756   3.788   6.733  1.2242  0.2289 -1.9357
 4256SOL    HW224231   0.703   3.805   6.603 -1.7592  0.6155  0.2713
 4257SOL     OW24232   3.476   0.918   4.458  0.4611  0.0770 -0.4715
 4257SOL    HW124233   3.412   0.976   4.499  0.0433 -0.8131  0.1316
 4257SOL    HW224234   3.468   0.940   4.366 -2.2379  0.7260 -0.0744
 4258SOL     OW24235   0.293   2.945  14.163  0.6119 -0.1646  0.2326
 4258SOL    HW124236   0.328   2.953  14.252 -0.2967  0.4102  0.5320
 4258SOL    HW224237   0.297   3.035  14.131  1.1056  0.1639  1.2033
 4259SOL     OW24238   4.679   1.536   4.789 -0.0755 -0.3151  0.9912
 4259SOL    HW124239   0.036   1.498   4.815 -1.2268 -2.6580  1.2951
 4259SOL    HW224240   4.624   1.473   4.835 -0.2219 -0.0851  1.1277
 4260SOL     OW24241   0.210   3.538  14.931  0.5998 -0.2317 -0.1612
 4260SOL    HW124242   0.149   3.610  14.944 -0.6169 -1.3670  0.3501
 4260SOL    HW224243   0.269   3.563  15.002 -0.7461  1.7232  0.2774
 4261SOL     OW24244   4.705   1.455   6.481 -0.0563 -0.7697  0.2190
 4261SOL    HW124245   4.691   1.445   6.387  3.3904  1.0063 -0.4550
 4261SOL    HW224246   0.070   1.432   6.489  0.6981  1.6562 -1.6232
 4262SOL     OW24247   3.464   3.151  16.963 -0.5972  0.7348  0.3990
 4262SOL    HW124248   3.515   3.086  16.914 -1.8661 -0.2543  0.3717
 4262SOL    HW224249   3.478   3.222  16.901  0.4978 -0.6433 -0.9384
 4263SOL     OW24250   2.836   3.663   8.705  0.5271 -0.4988 -0.1428
 4263SOL    HW124251   2.832   3.741   8.649 -3.8434 -0.3363  0.3353
 4263SOL    HW224252   2.929   3.666   8.725  0.7179  1.5303 -1.3625
 4264SOL     OW24253   3.373   2.435   6.376 -0.0777  0.1124  0.2798
 4264SOL    HW124254   3.427   2.476   6.443 -1.0229  0.5040  0.7935
 4264SOL    HW224255   3.357   2.510   6.319  0.8761 -0.8012 -1.1993
 4265SOL     OW24256   0.076   2.966   2.432  0.9351 -0.2986  0.2294
 4265SOL    HW124257   0.151   2.910   2.417  1.1521 -0.6927  2.8717
 4265SOL    HW224258   0.015   2.899   2.463 -0.0406  0.3795 -0.1830
 4266SOL     OW24259   2.157   1.771   5.754  0.3254  0.0520  0.1404
 4266SOL    HW124260   2.235   1.820   5.779  1.0818 -1.0735 -0.0097
 4266SOL    HW224261   2.195   1.688   5.785  1.2401  1.3356  2.4935
 4267SOL     OW24262   4.031   2.386  12.214  0.2326  0.3279 -0.8336
 4267SOL    HW124263   4.073   2.386  12.128 -0.6227  2.0632 -1.2442
 4267SOL    HW224264   3.941   2.396  12.185 -0.8955 -0.2385  2.5049
 4268SOL     OW24265   4.714   2.612   5.043  0.1100  0.1523  0.1242
 4268SOL    HW124266   0.081   2.631   5.051 -0.1377  1.0223  1.0430
 4268SOL    HW224267   4.697   2.574   5.129  0.4011  3.2190  1.5599
 4269SOL     OW24268   1.447   2.879   4.488 -0.6430  0.1129 -0.8696
 4269SOL    HW124269   1.385   2.806   4.484  2.4203 -2.5169 -0.7136
 4269SOL    HW224270   1.446   2.895   4.582 -2.8706 -1.5074 -0.6231
 4270SOL     OW24271   0.292   0.396  10.115 -0.5223  0.0615  0.1492
 4270SOL    HW124272   0.379   0.434  10.125 -0.0336 -1.4388  1.5576
 4270SOL    HW224273   0.280   0.380  10.021  0.7068  0.7395 -0.1302
 4271SOL     OW24274   3.439   4.670   1.875 -0.0453  0.6787 -0.0414
 4271SOL    HW124275   3.489   4.701   1.799 -0.6564 -0.7136 -1.0044
 4271SOL    HW224276   3.442   4.575   1.860  3.3740  0.3911  2.4043
 4272SOL     OW24277   3.594   1.015  13.650 -0.0969 -0.5322 -0.2332
 4272SOL    HW124278   3.511   1.012  13.698 -0.0831 -2.0817 -0.3035
 4272SOL    HW224279   3.628   1.100  13.679 -2.1654 -0.3075  1.5640
 4273SOL     OW24280   2.655   1.561   2.075 -0.1649  0.1988 -0.2841
 4273SOL    HW124281   2.743   1.597   2.091 -0.4954  1.9367 -2.3320
 4273SOL    HW224282   2.661   1.480   2.124 -0.2351  1.0964  1.2021
 4274SOL     OW24283   2.041   1.833   2.122  0.2929 -0.2256  0.2279
 4274SOL    HW124284   2.036   1.899   2.192  0.5537  0.7270 -0.6425
 4274SOL    HW224285   1.999   1.870   2.044 -0.3222  1.4451  1.3483
 4275SOL     OW24286   0.666   0.231  10.042  0.5470 -0.1777 -0.8892
 4275SOL    HW124287   0.609   0.259  10.113  2.5816 -1.2723  1.1955
 4275SOL    HW224288   0.744   0.259  10.090  1.0239 -0.8989 -1.2398
 4276SOL     OW24289   4.127   1.995   0.940  0.5837  0.0226  0.1590
 4276SOL    HW124290   4.124   2.089   0.956 -2.0800 -0.0384  0.0130
 4276SOL    HW224291   4.134   1.993   0.844 -4.1982 -2.4989 -0.1294
 4277SOL     OW24292   3.634   3.546  10.834  0.7374 -0.0876 -0.1303
 4277SOL    HW124293   3.720   3.516  10.806  0.7050  0.6230 -1.0151
 4277SOL    HW224294   3.612   3.488  10.907 -0.3361 -0.2679 -0.5904
 4278SOL     OW24295   1.655   0.580   5.138 -0.0534 -0.0112  0.0310
 4278SOL    HW124296   1.568   0.601   5.103 -0.6582  0.1898  1.6363
 4278SOL    HW224297   1.691   0.514   5.079 -2.9982  0.3897 -2.2498
 4279SOL     OW24298   2.519   3.789   2.439 -0.0883 -0.1524 -0.0826
 4279SOL    HW124299   2.429   3.797   2.407 -0.6581  0.0091  1.5947
 4279SOL    HW224300   2.548   3.856   2.377 -1.0925 -0.0028 -0.3959
 4280SOL     OW24301   4.226   1.480   5.559  0.1807  0.1219 -0.5157
 4280SOL    HW124302   4.147   1.535   5.568  1.2872  1.4988  0.7047
 4280SOL    HW224303   4.191   1.402   5.601  0.6213  0.5558  0.6318
 4281SOL     OW24304   2.936   3.325   9.275  0.2404 -0.1815 -0.8866
 4281SOL    HW124305   2.956   3.311   9.182  1.4212 -0.2785 -0.6171
 4281SOL    HW224306   2.992   3.256   9.311 -1.1488  0.1236  1.8223
 4282SOL     OW24307   2.001   3.961  14.108  0.5588  0.2623  0.8010
 4282SOL    HW124308   2.005   3.916  14.192 -0.7684 -0.7251  0.3416
 4282SOL    HW224309   1.911   3.941  14.085  0.2096 -0.2289  2.6006
 4283SOL     OW24310   1.030   3.787  10.661  0.2048  0.2982 -0.1087
 4283SOL    HW124311   1.110   3.787  10.608  0.9711  0.2635  1.0591
 4283SOL    HW224312   1.048   3.725  10.732 -0.7648 -1.0196 -1.0168
 4284SOL     OW24313   4.085   3.835   7.928 -0.3892  0.6238 -0.0822
 4284SOL    HW124314   4.079   3.844   7.833  0.8614 -2.3000 -0.4592
 4284SOL    HW224315   4.030   3.758   7.938  1.6405 -0.4595  2.9998
 4285SOL     OW24316   1.080   2.786   2.720 -0.7054 -0.2526 -0.2825
 4285SOL    HW124317   1.023   2.838   2.777 -0.7755 -1.5970  0.8556
 4285SOL    HW224318   1.093   2.835   2.638 -0.4344  0.1659  0.0123
 4286SOL     OW24319   3.495   4.504   5.668  0.2050  0.1970  0.0720
 4286SOL    HW124320   3.511   4.518   5.574 -1.3948 -4.0081 -0.8474
 4286SOL    HW224321   3.405   4.535   5.660  0.7847  2.1448  1.0863
 4287SOL     OW24322   0.481   0.423   6.466  0.0898 -0.0726  0.4664
 4287SOL    HW124323   0.556   0.419   6.525 -1.3923 -1.7516  2.2043
 4287SOL    HW224324   0.414   0.451   6.529 -1.4814 -0.4968 -1.0019
 4288SOL     OW24325   3.891   3.135   5.256 -0.2464 -0.5188  0.3284
 4288SOL    HW124326   3.938   3.066   5.209 -2.3554 -0.4797 -1.8111
 4288SOL    HW224327   3.926   3.215   5.216 -0.9227  0.4791  1.7203
 4289SOL     OW24328   0.431   0.241   3.114  0.0546  0.0988  0.2962
 4289SOL    HW124329   0.392   0.238   3.027  0.7302  1.6854 -0.0631
 4289SOL    HW224330   0.437   0.336   3.122  0.1393  0.1455 -0.3124
 4290SOL     OW24331   2.862   3.268  12.406  0.3313  0.4017 -0.3340
 4290SOL    HW124332   2.908   3.202  12.354 -0.3522 -1.7634  1.8306
 4290SOL    HW224333   2.780   3.220  12.407 -0.4621  1.7279 -1.3033
 4291SOL     OW24334   2.593   0.356   6.177  0.0364 -0.3460  0.2506
 4291SOL    HW124335   2.530   0.363   6.106 -1.5586  2.2065  1.9225
 4291SOL    HW224336   2.661   0.419   6.154  0.7548  0.1506  3.6822
 4292SOL     OW24337   3.028   3.605   5.755 -0.4999  0.4293 -0.3184
 4292SOL    HW124338   3.000   3.697   5.747 -1.3769  0.4337  2.9292
 4292SOL    HW224339   3.116   3.608   5.717 -0.4399  0.3130 -0.1880
 4293SOL     OW24340   3.114   3.404   3.467  0.5904  0.3116  0.2364
 4293SOL    HW124341   3.152   3.489   3.486 -0.5533  0.6240  1.0758
 4293SOL    HW224342   3.021   3.423   3.457  0.5867  0.6512  0.9630
 4294SOL     OW24343   2.703   3.694   4.346 -0.5097 -0.3416 -0.1616
 4294SOL    HW124344   2.658   3.774   4.372 -0.3202 -0.4867  0.6066
 4294SOL    HW224345   2.690   3.699   4.251 -0.5238  1.0792 -0.0879
 4295SOL     OW24346   1.160   2.708   7.149 -0.2814  0.2520  0.2501
 4295SOL    HW124347   1.106   2.714   7.229  1.7944 -2.3398  1.8363
 4295SOL    HW224348   1.142   2.797   7.118 -0.8348  0.8747  2.3343
 4296SOL     OW24349   0.726   2.702   9.826 -0.3504 -0.0705  0.4917
 4296SOL    HW124350   0.769   2.660   9.901  0.0315  1.1639  0.9706
 4296SOL    HW224351   0.672   2.633   9.786  1.2483  0.3658 -2.4757
 4297SOL     OW24352   4.571   2.575  15.845  0.4217 -0.2558 -0.5216
 4297SOL    HW124353   4.557   2.549  15.936 -2.1416  1.2685 -0.4847
 4297SOL    HW224354   4.486   2.551  15.808 -1.1199  1.0465  2.1848
 4298SOL     OW24355   3.894   1.418   9.020  0.0394  0.0638 -0.4298
 4298SOL    HW124356   3.814   1.374   8.990  0.0899 -0.1080 -0.3154
 4298SOL    HW224357   3.862   1.505   9.044  0.1403 -0.2631  0.8664
 4299SOL     OW24358   1.596   2.400   2.487  0.4953  0.1035  0.9457
 4299SOL    HW124359   1.558   2.488   2.480 -0.6280 -0.4135  0.6298
 4299SOL    HW224360   1.678   2.400   2.437 -1.7786 -0.2934 -2.7743
 4300SOL     OW24361   3.979   2.677  11.425 -0.7037 -0.0023 -0.0757
 4300SOL    HW124362   3.953   2.586  11.414  1.3479 -0.6956  0.8125
 4300SOL    HW224363   3.894   2.717  11.443 -0.5228  0.5200 -0.3721
 4301SOL     OW24364   3.359   0.746  13.017  0.5509  0.1383 -0.2882
 4301SOL    HW124365   3.303   0.816  12.984 -0.6408 -0.4224  0.5116
 4301SOL    HW224366   3.439   0.792  12.994  0.6836  0.4541  0.7899
 4302SOL     OW24367   1.160   3.927   0.712  1.1672  0.6034  0.0799
 4302SOL    HW124368   1.200   3.856   0.662 -1.7536 -1.3770  0.5195
 4302SOL    HW224369   1.230   3.958   0.769  0.1407  3.1323 -0.0729
 4303SOL     OW24370   1.314   2.792  16.415  0.1877  0.1728 -0.3238
 4303SOL    HW124371   1.274   2.769  16.499  1.1917 -0.4181 -0.0166
 4303SOL    HW224372   1.319   2.888  16.416  1.4674  0.1121 -1.8040
 4304SOL     OW24373   4.623   3.061   1.624  0.3002  0.5047 -0.4863
 4304SOL    HW124374   4.703   3.069   1.677  0.8557 -0.1588 -1.2293
 4304SOL    HW224375   4.575   3.143   1.634 -0.2256  0.3555 -1.9254
 4305SOL     OW24376   0.240   3.557   2.178 -0.3728  0.8318 -0.2732
 4305SOL    HW124377   0.299   3.502   2.126  1.9117  1.0611  2.0693
 4305SOL    HW224378   0.255   3.521   2.265 -0.5168 -0.2214 -0.6806
 4306SOL     OW24379   3.611   2.955  14.586  0.3921 -0.3674 -0.2567
 4306SOL    HW124380   3.556   2.876  14.582 -2.5177  1.6962 -1.3633
 4306SOL    HW224381   3.603   2.986  14.496  0.9135  2.3835  0.6602
 4307SOL     OW24382   4.237   3.537   4.050 -0.0710  0.5247 -0.1506
 4307SOL    HW124383   4.185   3.517   4.128 -0.5328  1.0526 -0.3263
 4307SOL    HW224384   4.228   3.454   4.003 -0.2739  0.1927  0.4711
 4308SOL     OW24385   3.813   3.008   3.673 -0.3155 -0.1802  0.2462
 4308SOL    HW124386   3.878   2.939   3.670  0.1046  0.3158 -2.0013
 4308SOL    HW224387   3.836   3.068   3.602  1.1985 -0.5300  0.4520
 4309SOL     OW24388   2.962   0.422   6.513 -0.5792 -0.2990 -0.4313
 4309SOL    HW124389   2.911   0.457   6.439 -0.9595  2.4669  1.1255
 4309SOL    HW224390   3.048   0.461   6.495 -0.3098 -0.8921 -0.4183
 4310SOL     OW24391   3.585   0.215   4.253 -0.2371 -0.5293 -0.5858
 4310SOL    HW124392   3.677   0.208   4.226 -0.5961  1.1960 -2.3559
 4310SOL    HW224393   3.602   0.253   4.339  1.4094  0.6828 -1.4456
 4311SOL     OW24394   0.606   2.438   1.833 -0.0567  0.1302 -0.0650
 4311SOL    HW124395   0.617   2.381   1.757  0.5517  0.5931 -0.3240
 4311SOL    HW224396   0.595   2.375   1.904  0.0587  1.0730  0.7919
 4312SOL     OW24397   1.295   3.057  16.516  0.0389  0.4225  0.3141
 4312SOL    HW124398   1.253   3.035  16.599 -2.7398  1.3568 -0.8560
 4312SOL    HW224399   1.321   3.149  16.527  0.9555  0.4951 -2.4166
 4313SOL     OW24400   0.386   3.958  12.557 -0.0873 -0.4056 -0.0398
 4313SOL    HW124401   0.465   3.905  12.545  1.3231  1.1361  2.4604
 4313SOL    HW224402   0.380   4.007  12.475 -0.8556 -0.9983 -0.3355
 4314SOL     OW24403   3.334   0.912   5.441 -0.3183 -0.0151 -0.4696
 4314SOL    HW124404   3.261   0.973   5.430 -0.2840  0.0374 -0.4089
 4314SOL    HW224405   3.400   0.978   5.460 -0.8382  0.9892 -2.0925
 4315SOL     OW24406   3.092   2.101   3.993 -0.1657 -0.4824 -0.6112
 4315SOL    HW124407   3.175   2.070   4.028 -0.5269 -0.6483  0.1038
 4315SOL    HW224408   3.070   2.029   3.934 -0.7544 -1.6450  1.0264
 4316SOL     OW24409   0.948   3.005   5.535 -0.1839  0.3039  0.2976
 4316SOL    HW124410   0.922   2.951   5.461 -0.9844  2.4322 -0.9770
 4316SOL    HW224411   0.865   3.011   5.583 -0.5330  1.4182 -0.4484
 4317SOL     OW24412   2.613   2.345   3.798  0.6593  0.1343 -0.2704
 4317SOL    HW124413   2.642   2.436   3.797  0.0768  0.3053 -0.9795
 4317SOL    HW224414   2.642   2.311   3.714  1.4916  1.6294 -0.6030
 4318SOL     OW24415   3.586   3.166   4.354 -0.1831 -0.0115 -0.1912
 4318SOL    HW124416   3.543   3.087   4.387  0.3158  0.3917  1.4108
 4318SOL    HW224417   3.640   3.186   4.431  0.3895  0.8022 -0.8040
 4319SOL     OW24418   3.887   1.452   0.302 -0.3849  0.0460  0.5320
 4319SOL    HW124419   3.942   1.386   0.344  0.3926 -0.3005 -1.0137
 4319SOL    HW224420   3.833   1.479   0.376  0.8177  1.1771  0.9996
 4320SOL     OW24421   2.977   2.367   3.652 -0.9206  0.0924  0.2080
 4320SOL    HW124422   2.912   2.298   3.658 -0.3704 -0.5098 -0.7938
 4320SOL    HW224423   2.998   2.364   3.559 -2.1847 -1.4248 -0.0212
 4321SOL     OW24424   1.941   4.015   2.614  0.1261 -0.0835 -0.4299
 4321SOL    HW124425   2.033   4.042   2.608  0.5150 -1.2929  0.2103
 4321SOL    HW224426   1.937   3.943   2.551  1.3669 -0.4430 -0.1056
 4322SOL     OW24427   0.889   1.665  14.955 -0.0298 -0.4432 -0.1817
 4322SOL    HW124428   0.830   1.725  15.002 -2.8764 -0.4503 -3.8074
 4322SOL    HW224429   0.883   1.586  15.008 -2.2123 -0.9696 -1.2288
 4323SOL     OW24430   1.833   1.812  13.439  0.4563 -0.0518 -0.6945
 4323SOL    HW124431   1.748   1.788  13.477  1.4919  0.1761  1.7793
 4323SOL    HW224432   1.834   1.757  13.361 -2.0395 -0.4974 -0.4397
 4324SOL     OW24433   4.496   2.151  13.832 -0.1140 -0.3454 -0.2352
 4324SOL    HW124434   4.415   2.171  13.786 -1.1322  0.1636  1.7584
 4324SOL    HW224435   4.462   2.088  13.895  0.7101  1.2414  1.7925
 4325SOL     OW24436   4.095   3.334  11.294 -0.2684  0.3016  0.0806
 4325SOL    HW124437   4.034   3.300  11.360 -1.1072  0.5323 -0.5723
 4325SOL    HW224438   4.098   3.256  11.238  0.2874  0.0205  0.5045
 4326SOL     OW24439   0.067   1.952   5.673  0.0758 -0.6580  0.1451
 4326SOL    HW124440   4.726   1.939   5.607  0.5842  0.7780 -0.6580
 4326SOL    HW224441   0.145   1.913   5.634  1.2016 -0.1831  1.9122
 4327SOL     OW24442   4.704   3.958   4.144 -0.3776 -0.3012  0.0538
 4327SOL    HW124443   0.037   3.893   4.182 -0.1028 -0.1067 -0.0531
 4327SOL    HW224444   4.639   3.903   4.101 -2.8167  2.0744  0.7305
 4328SOL     OW24445   1.686   1.709   3.739  0.2741 -0.6222 -0.3963
 4328SOL    HW124446   1.730   1.770   3.799  0.6570 -1.2900  0.0067
 4328SOL    HW224447   1.656   1.641   3.799 -0.1058  1.1201  1.3952
 4329SOL     OW24448   3.891   2.439   9.141  0.2174 -0.3113  0.2229
 4329SOL    HW124449   3.833   2.486   9.081 -0.0151 -0.7869  0.0752
 4329SOL    HW224450   3.963   2.422   9.081 -0.2814  1.2467 -0.8355
 4330SOL     OW24451   0.412   4.672   4.111  0.5133 -0.4394  0.5298
 4330SOL    HW124452   0.347   4.601   4.107 -0.4740  0.5000 -0.0435
 4330SOL    HW224453   0.364   0.026   4.099 -0.6507 -1.0226  1.2937
 4331SOL     OW24454   3.668   2.829  11.369  0.5659 -0.0400  0.1828
 4331SOL    HW124455   3.585   2.860  11.405 -0.7696 -0.8005 -2.2364
 4331SOL    HW224456   3.684   2.895  11.301 -1.6647 -0.5826 -0.8479
 4332SOL     OW24457   0.633   2.505   4.158 -0.2001  0.0521  0.1100
 4332SOL    HW124458   0.672   2.581   4.116  0.3944 -0.8012 -0.8826
 4332SOL    HW224459   0.711   2.466   4.199  0.4265  3.0908  1.8020
 4333SOL     OW24460   4.600   3.123  11.696  0.5149  0.0479 -0.3820
 4333SOL    HW124461   4.577   3.212  11.672  1.9425  0.1840 -1.1942
 4333SOL    HW224462   4.647   3.081  11.624 -0.3768 -0.8023 -0.4751
 4334SOL     OW24463   2.417   3.396  12.215  0.2012  0.5148 -0.3330
 4334SOL    HW124464   2.426   3.491  12.226 -0.7784  0.9307 -3.0923
 4334SOL    HW224465   2.485   3.378  12.150  1.3861 -0.8045  1.2784
 4335SOL     OW24466   2.390   2.241   3.386 -0.5231  0.3017 -0.3846
 4335SOL    HW124467   2.415   2.224   3.477 -2.4580  0.5547  0.1967
 4335SOL    HW224468   2.300   2.270   3.396 -1.6008 -3.1589  0.0308
 4336SOL     OW24469   2.658   4.426   5.512  0.3732 -0.1553  0.1164
 4336SOL    HW124470   2.577   4.467   5.483 -0.3500 -1.4459  0.3268
 4336SOL    HW224471   2.623   4.338   5.520  1.9052 -1.0034 -2.3767
 4337SOL     OW24472   4.165   4.634   1.822 -0.1194  0.1472  0.1372
 4337SOL    HW124473   4.250   4.627   1.865  0.5776  0.7416 -1.1557
 4337SOL    HW224474   4.184   4.626   1.729 -0.9315  0.0630 -0.0209
 4338SOL     OW24475   2.687   3.627   7.001 -0.5052 -0.2383 -0.2250
 4338SOL    HW124476   2.696   3.599   7.092 -1.0635  0.9170  0.1929
 4338SOL    HW224477   2.658   3.717   7.017  5.0682  1.0362  2.9018
 4339SOL     OW24478   1.367   2.243   2.372  0.8163 -0.3902 -0.4333
 4339SOL    HW124479   1.355   2.292   2.453  1.1482  1.2410 -1.3656
 4339SOL    HW224480   1.462   2.252   2.365  0.6980  0.4618 -0.9386
 4340SOL     OW24481   4.290   4.240  17.399 -0.5038 -0.0316 -0.4582
 4340SOL    HW124482   4.310   4.333  17.392 -1.5382  0.2699  0.5554
 4340SOL    HW224483   4.249   4.231  17.485 -0.4225  1.3465 -0.2731
 4341SOL     OW24484   1.885   1.334   0.269  0.4520 -0.4097 -0.5240
 4341SOL    HW124485   1.803   1.359   0.227  0.8078  1.3094 -0.1569
 4341SOL    HW224486   1.940   1.306   0.195  0.6237 -1.0736 -0.1505
 4342SOL     OW24487   4.391   0.532  12.346 -0.0483 -0.1102 -0.0989
 4342SOL    HW124488   4.333   0.457  12.334  1.3002 -1.0429 -0.7715
 4342SOL    HW224489   4.470   0.492  12.309  0.4818  0.1870  0.7270
 4343SOL     OW24490   0.995   1.049   9.167 -0.0066 -0.2037 -0.0999
 4343SOL    HW124491   0.990   1.007   9.253 -2.8802  1.4547  0.5723
 4343SOL    HW224492   1.079   1.025   9.130 -0.1665 -0.1000 -0.5324
 4344SOL     OW24493   3.268   0.300   6.130  0.1527  0.1426  0.6179
 4344SOL    HW124494   3.243   0.229   6.189 -0.5617 -1.9423 -2.2160
 4344SOL    HW224495   3.329   0.355   6.180  1.3728  0.9406 -1.7501
 4345SOL     OW24496   1.440   1.373   6.005  0.2302 -0.8317 -0.1701
 4345SOL    HW124497   1.361   1.339   5.962  0.0308 -0.2552 -0.2536
 4345SOL    HW224498   1.401   1.381   6.092  1.9558 -2.7286  0.7877
 4346SOL     OW24499   0.137   3.315  14.790 -0.5855  0.1876 -0.2196
 4346SOL    HW124500   0.135   3.255  14.865 -0.1606  1.9128  1.1555
 4346SOL    HW224501   0.174   3.389  14.836 -0.3538  0.9882 -1.6850
 4347SOL     OW24502   0.281   0.185   8.475 -0.5878  0.7187  0.0430
 4347SOL    HW124503   0.360   0.229   8.445  0.4581 -1.4370 -0.3044
 4347SOL    HW224504   0.220   0.233   8.418  0.3584 -1.5526 -2.8724
 4348SOL     OW24505   1.335   3.871  13.700  0.4395  0.3137  0.1996
 4348SOL    HW124506   1.382   3.879  13.783  1.4998 -1.8260 -0.1798
 4348SOL    HW224507   1.271   3.801  13.712 -0.9524  1.5714  0.0240
 4349SOL     OW24508   0.685   0.984   1.591  0.3638 -0.2149 -0.1192
 4349SOL    HW124509   0.627   0.937   1.531 -0.9679 -1.6832  2.3751
 4349SOL    HW224510   0.636   1.065   1.609  0.8544  0.1840 -0.5604
 4350SOL     OW24511   3.038   0.189   8.093 -0.1338  0.0074 -0.3979
 4350SOL    HW124512   2.988   0.213   8.171 -0.3924  2.8714 -1.4426
 4350SOL    HW224513   3.085   0.112   8.126  0.6169 -0.5117 -2.7010
 4351SOL     OW24514   4.022   4.489  17.160  0.3408  0.3063 -0.3587
 4351SOL    HW124515   4.087   4.463  17.095  0.4086 -0.9413  0.2142
 4351SOL    HW224516   4.082   4.482  17.235  1.0272  0.7707 -0.8686
 4352SOL     OW24517   0.702   1.327  16.549  0.2434 -0.7423  0.0972
 4352SOL    HW124518   0.759   1.253  16.530 -0.0420 -0.7394 -0.7572
 4352SOL    HW224519   0.640   1.282  16.606 -0.8467  2.0640  1.1054
 4353SOL     OW24520   1.203   4.262  16.309  0.0091  0.0350 -0.6711
 4353SOL    HW124521   1.144   4.337  16.322 -0.3315 -0.4611  0.6291
 4353SOL    HW224522   1.277   4.290  16.363 -1.0252 -1.0222  1.2893
 4354SOL     OW24523   0.555   1.966   6.990  0.0875  0.1561  0.2162
 4354SOL    HW124524   0.470   2.007   6.973  0.1221 -0.9551 -2.6613
 4354SOL    HW224525   0.613   2.021   7.043  2.2810 -0.4127 -1.5753
 4355SOL     OW24526   4.424   3.843   4.937 -0.2086 -0.1356 -0.0380
 4355SOL    HW124527   4.420   3.938   4.941 -0.1771 -0.0822 -1.4240
 4355SOL    HW224528   4.347   3.819   4.988 -1.3233  2.2590 -0.5957
 4356SOL     OW24529   1.984   4.121   0.580 -0.5105 -0.1676  0.3935
 4356SOL    HW124530   2.047   4.183   0.543  0.7449 -2.1329 -0.7798
 4356SOL    HW224531   2.042   4.045   0.586  0.9835  0.8892 -0.6413
 4357SOL     OW24532   3.395   2.000   6.747  0.0029 -0.3199  0.4404
 4357SOL    HW124533   3.312   2.038   6.721 -1.3558 -3.3192  0.4459
 4357SOL    HW224534   3.461   2.044   6.692  2.2955 -2.7115  1.2542
 4358SOL     OW24535   4.679   1.841   7.932 -0.1559 -0.6162  0.6001
 4358SOL    HW124536   4.624   1.838   8.010 -1.3056 -1.2027 -0.2388
 4358SOL    HW224537   4.616   1.879   7.872 -0.8652  3.2583  3.8294
 4359SOL     OW24538   3.527   4.318   4.864  0.1654 -0.1717  0.0748
 4359SOL    HW124539   3.486   4.343   4.781  0.9276 -0.3986 -0.3700
 4359SOL    HW224540   3.617   4.325   4.833 -1.1999  2.3921 -3.3165
 4360SOL     OW24541   1.053   4.573   4.270  0.2179  0.0958  0.0307
 4360SOL    HW124542   1.003   4.650   4.300  0.1047  0.2350 -0.5078
 4360SOL    HW224543   1.083   4.604   4.184  3.0195  0.0677  0.9876
 4361SOL     OW24544   2.553   1.222   7.716  1.0145 -0.4504  0.0975
 4361SOL    HW124545   2.560   1.305   7.668  1.5482 -0.3610  0.3316
 4361SOL    HW224546   2.463   1.211   7.745  0.8123  1.3142  0.1221
 4362SOL     OW24547   3.645   3.799   9.647 -0.3504 -0.2149 -0.1758
 4362SOL    HW124548   3.699   3.875   9.625 -0.1795 -0.2087  0.2670
 4362SOL    HW224549   3.702   3.754   9.709  0.6926  1.1155 -0.1769
 4363SOL     OW24550   0.058   2.682   8.427 -0.1144 -0.0073  0.1182
 4363SOL    HW124551   0.114   2.604   8.428 -1.5091 -1.0394 -1.5975
 4363SOL    HW224552   0.052   2.693   8.522 -0.4951 -0.6886  0.1731
 4364SOL     OW24553   4.344   4.299   9.058  0.2273  0.3560  0.5545
 4364SOL    HW124554   4.419   4.322   9.003  0.2015 -1.7368 -0.3311
 4364SOL    HW224555   4.373   4.343   9.137 -2.3694 -0.6308  2.0779
 4365SOL     OW24556   3.628   2.304   9.249 -0.4871  0.3910  0.4320
 4365SOL    HW124557   3.568   2.377   9.232 -0.2722  1.0425  2.3711
 4365SOL    HW224558   3.566   2.233   9.232  0.0694 -0.2251  0.9930
 4366SOL     OW24559   3.710   1.009  11.439 -0.1135 -0.6157  0.2954
 4366SOL    HW124560   3.689   1.083  11.495 -0.0170  0.5290 -1.1659
 4366SOL    HW224561   3.805   1.018  11.431 -0.0223 -0.3729  1.6825
 4367SOL     OW24562   1.750   2.862  14.134  0.2006 -0.1703 -0.2673
 4367SOL    HW124563   1.812   2.803  14.177 -0.1439 -0.2888  0.0692
 4367SOL    HW224564   1.673   2.806  14.136 -0.3329  0.5712 -0.1408
 4368SOL     OW24565   1.967   1.877  12.186  0.8273  0.0300 -0.4577
 4368SOL    HW124566   2.057   1.869  12.217  1.2543 -0.6609 -1.8663
 4368SOL    HW224567   1.951   1.945  12.251 -2.4759 -0.2968 -0.9346
 4369SOL     OW24568   3.778   3.471   1.276 -0.0528 -0.2283  0.3247
 4369SOL    HW124569   3.778   3.548   1.333  0.2158 -0.4774  0.6597
 4369SOL    HW224570   3.869   3.446   1.293  0.0599 -1.0018 -1.3614
 4370SOL     OW24571   1.915   1.219  14.824 -0.1553 -0.1533 -0.7474
 4370SOL    HW124572   1.838   1.221  14.767 -0.1209  0.7290 -0.7661
 4370SOL    HW224573   1.968   1.295  14.799 -1.2473  0.4931 -1.1008
 4371SOL     OW24574   1.219   2.328  16.741  0.6151  0.2852  0.0214
 4371SOL    HW124575   1.241   2.396  16.677 -0.6712  0.7800  0.1002
 4371SOL    HW224576   1.126   2.346  16.754  0.4470  0.2620 -1.0846
 4372SOL     OW24577   3.970   3.634   5.273  0.1393 -0.5272  0.4419
 4372SOL    HW124578   3.955   3.684   5.353  1.4874 -0.7206  0.8028
 4372SOL    HW224579   3.936   3.701   5.214 -0.0607 -1.3286 -0.3658
 4373SOL     OW24580   0.885   0.459   8.111  0.3323  0.7318 -0.0127
 4373SOL    HW124581   0.872   0.463   8.016 -0.9671 -1.0249  0.0919
 4373SOL    HW224582   0.977   0.479   8.128  0.0577  0.2528  2.0372
 4374SOL     OW24583   3.211   3.912   3.744  0.9177 -0.3645 -0.1184
 4374SOL    HW124584   3.156   3.950   3.676  2.4234  1.9093 -0.0687
 4374SOL    HW224585   3.269   3.986   3.761 -1.3873  0.9480  1.9537
 4375SOL     OW24586   0.056   1.668  12.661  0.3999 -0.2162 -0.0694
 4375SOL    HW124587   0.057   1.613  12.583 -1.1130 -0.6021  0.1821
 4375SOL    HW224588   0.147   1.667  12.691  0.7397  2.1662 -1.0199
 4376SOL     OW24589   3.258   0.731   3.018 -0.3891 -0.0814  0.5755
 4376SOL    HW124590   3.273   0.658   3.079  1.2066 -0.8802 -0.7684
 4376SOL    HW224591   3.190   0.777   3.067 -1.0756 -2.2418  1.6809
 4377SOL     OW24592   4.703   2.665   4.688 -0.0494  0.7129 -0.4623
 4377SOL    HW124593   4.615   2.636   4.713 -0.4154  2.6208  0.4527
 4377SOL    HW224594   4.689   2.735   4.624 -1.1025  0.8790 -0.0482
 4378SOL     OW24595   0.624   0.363   3.463  0.5422 -0.0162 -0.1297
 4378SOL    HW124596   0.546   0.417   3.469 -0.4457 -1.5052  0.4430
 4378SOL    HW224597   0.596   0.285   3.415 -2.0285  1.3872 -0.8941
 4379SOL     OW24598   4.222   2.906   1.317  0.2294  0.6556  0.4686
 4379SOL    HW124599   4.251   2.921   1.406  0.8168 -0.8626  0.5307
 4379SOL    HW224600   4.129   2.894   1.338  0.7375 -0.1565  2.1902
 4380SOL     OW24601   3.569   2.841   2.549  0.3549  0.3183 -0.1995
 4380SOL    HW124602   3.609   2.926   2.528 -1.6312  1.3133  0.0591
 4380SOL    HW224603   3.637   2.783   2.516 -0.7782 -0.5009 -1.1076
 4381SOL     OW24604   1.259   2.081   2.906 -0.2109 -0.2249 -0.3440
 4381SOL    HW124605   1.332   2.131   2.942 -0.4140 -0.3620  0.2469
 4381SOL    HW224606   1.231   2.026   2.979 -0.0792  0.5818  0.3225
 4382SOL     OW24607   3.186   3.421  17.173 -0.1141  0.3997 -0.3180
 4382SOL    HW124608   3.099   3.391  17.197  0.2183 -0.1043  0.2545
 4382SOL    HW224609   3.184   3.511  17.207  0.6853  0.2473  0.1317
 4383SOL     OW24610   3.789   2.500   9.409  0.1603  0.0769  0.0381
 4383SOL    HW124611   3.745   2.425   9.368  1.2946  0.2997 -1.6064
 4383SOL    HW224612   3.852   2.518   9.339 -0.0032 -2.1362 -0.6762
 4384SOL     OW24613   2.906   4.091  15.932 -0.2123 -0.3718  0.6085
 4384SOL    HW124614   2.942   4.082  15.843 -1.5003 -2.3970  0.2955
 4384SOL    HW224615   2.892   4.185  15.942  0.6842  0.0818 -2.1227
 4385SOL     OW24616   2.745   3.497  17.522  0.5161  0.2069 -0.6825
 4385SOL    HW124617   2.724   3.527  17.434  2.4219 -0.2506 -1.2947
 4385SOL    HW224618   2.757   3.577  17.572 -3.0721 -0.7160  1.6469
 4386SOL     OW24619   4.015   3.286   3.746 -0.7124 -0.1549  0.0511
 4386SOL    HW124620   4.099   3.240   3.756 -0.0702  0.5762 -1.8837
 4386SOL    HW224621   3.987   3.220   3.682  1.6437 -0.6431 -0.4790
 4387SOL     OW24622   2.396   2.355  10.256 -0.2165 -0.2246  0.5315
 4387SOL    HW124623   2.465   2.397  10.307 -0.3262  1.0882 -0.3985
 4387SOL    HW224624   2.417   2.396  10.172 -1.4121  1.6022  1.1345
 4388SOL     OW24625   3.738   3.241  10.851  0.0683  0.0621  0.7820
 4388SOL    HW124626   3.718   3.190  10.773  0.1566 -2.5193  2.4592
 4388SOL    HW224627   3.829   3.257  10.827  0.1753  0.4545  1.4354
 4389SOL     OW24628   3.820   2.880   8.064  0.3259 -0.3153  0.1277
 4389SOL    HW124629   3.749   2.934   8.030  0.7575  1.4663  1.9986
 4389SOL    HW224630   3.896   2.909   8.013  0.0571  1.0167  0.4834
 4390SOL     OW24631   3.805   0.748   0.703  0.2299  0.3595  0.6981
 4390SOL    HW124632   3.795   0.780   0.613  0.4267 -1.6692 -0.0532
 4390SOL    HW224633   3.844   0.829   0.736  0.9767  0.3253 -0.1190
 4391SOL     OW24634   1.214   3.846   5.845  0.4684  0.0448 -0.3203
 4391SOL    HW124635   1.127   3.874   5.816 -0.3132 -2.6801 -0.5927
 4391SOL    HW224636   1.231   3.769   5.790  0.5365  0.5070 -0.9432
 4392SOL     OW24637   2.412   4.366   4.551  0.0075  0.4884  0.1027
 4392SOL    HW124638   2.359   4.444   4.538 -0.6249 -0.3261 -2.0618
 4392SOL    HW224639   2.496   4.395   4.514 -0.9886  2.7144 -0.3923
 4393SOL     OW24640   4.230   1.370   3.317 -0.4613 -0.2057 -0.0508
 4393SOL    HW124641   4.181   1.305   3.266 -1.1780 -0.8641  1.4622
 4393SOL    HW224642   4.185   1.449   3.286 -1.4420 -0.1425  1.4898
 4394SOL     OW24643   1.853   3.255   4.716 -0.5157 -0.0920 -0.7943
 4394SOL    HW124644   1.949   3.264   4.715 -0.1554 -3.4506  1.1208
 4394SOL    HW224645   1.851   3.160   4.703 -1.5383 -0.0147 -1.1418
 4395SOL     OW24646   1.109   2.630   6.723 -0.2457 -0.3561  0.1984
 4395SOL    HW124647   1.201   2.607   6.723  0.3684  2.0511 -0.7071
 4395SOL    HW224648   1.087   2.592   6.808 -1.1992 -2.8773 -1.1696
 4396SOL     OW24649   0.773   3.138  16.848  0.2435  0.1398 -0.0514
 4396SOL    HW124650   0.729   3.220  16.872 -0.1820 -0.3005  0.7037
 4396SOL    HW224651   0.856   3.143  16.895  0.5361  0.5846 -0.6239
 4397SOL     OW24652   4.143   1.572   2.950 -0.0216 -0.2334  0.0798
 4397SOL    HW124653   4.068   1.630   2.937 -0.4014 -0.7306  0.0886
 4397SOL    HW224654   4.218   1.632   2.949  1.8838 -2.6222  0.7344
 4398SOL     OW24655   4.546   3.820   2.926  0.2722 -0.7024  0.0429
 4398SOL    HW124656   4.461   3.855   2.900  1.4364  2.1680  0.0986
 4398SOL    HW224657   4.604   3.895   2.911  1.8456 -2.4178 -2.3845
 4399SOL     OW24658   2.893   1.026   5.136  0.2579 -0.7915 -0.1568
 4399SOL    HW124659   2.931   1.031   5.049 -3.2591  3.1058 -1.4718
 4399SOL    HW224660   2.832   1.100   5.129  1.0466 -0.0541  0.6810
 4400SOL     OW24661   1.716   0.537   6.875 -0.2830 -0.9546 -0.2182
 4400SOL    HW124662   1.719   0.475   6.803  2.7513 -1.3370  0.2408
 4400SOL    HW224663   1.622   0.538   6.889 -0.2377 -1.7355  0.1224
 4401SOL     OW24664   4.495   4.045   6.751  0.0164 -0.0319  0.0410
 4401SOL    HW124665   4.519   3.981   6.818  0.4909 -1.3686 -1.4164
 4401SOL    HW224666   4.562   4.110   6.772 -0.0934  0.5109 -1.3274
 4402SOL     OW24667   2.894   2.861  15.655  0.3043  0.5803  0.0000
 4402SOL    HW124668   2.881   2.886  15.564 -0.2148  0.2569 -0.0169
 4402SOL    HW224669   2.926   2.771  15.646 -1.6778 -0.0840 -0.4020
 4403SOL     OW24670   2.330   1.903   7.256  0.0721 -0.3264  0.3237
 4403SOL    HW124671   2.394   1.951   7.203  0.1164 -0.1181  0.5664
 4403SOL    HW224672   2.258   1.966   7.260  1.0873  0.9137 -0.6227
 4404SOL     OW24673   2.363   1.477   3.957 -0.5450  0.5500  0.5081
 4404SOL    HW124674   2.328   1.516   4.037 -1.9255 -1.1463  0.7496
 4404SOL    HW224675   2.356   1.386   3.987 -0.6785  1.3956  3.0146
 4405SOL     OW24676   0.672   0.201  13.110 -0.0854  0.4071 -0.0802
 4405SOL    HW124677   0.625   0.254  13.046  1.6637 -0.1227 -1.8064
 4405SOL    HW224678   0.698   0.270  13.171 -3.6772  1.6619  0.0437
 4406SOL     OW24679   4.134   2.743   3.136  0.0750  0.1870 -0.3890
 4406SOL    HW124680   4.177   2.769   3.054  0.4877 -1.2301 -0.6204
 4406SOL    HW224681   4.079   2.671   3.104  0.6226 -0.9889  1.3495
 4407SOL     OW24682   1.419   0.039   0.238 -0.6226 -0.5275  0.2016
 4407SOL    HW124683   1.505   0.082   0.242 -1.5265  1.3465 -0.4643
 4407SOL    HW224684   1.422   4.695   0.174 -1.2964  0.0836 -0.5073
 4408SOL     OW24685   0.489   2.329   8.461 -0.1686  0.2808  0.4137
 4408SOL    HW124686   0.430   2.275   8.513 -0.2570  0.9303  0.9934
 4408SOL    HW224687   0.519   2.404   8.513  1.7441  0.2041 -0.5532
 4409SOL     OW24688   4.315   3.986   8.593 -0.0786  0.1444  0.2146
 4409SOL    HW124689   4.308   3.964   8.686 -0.6021 -0.4568  0.0343
 4409SOL    HW224690   4.405   3.967   8.566 -0.1031  0.8373 -0.3669
 4410SOL     OW24691   3.484   2.381  12.203  0.1159  0.4971  0.1231
 4410SOL    HW124692   3.432   2.461  12.193 -0.1035  0.3958  0.4245
 4410SOL    HW224693   3.499   2.395  12.297 -0.9266  0.7717  0.2493
 4411SOL     OW24694   0.238   0.526  17.655  0.1328 -0.2693 -0.2334
 4411SOL    HW124695   0.205   0.592   0.006  3.1325  0.2757  0.7589
 4411SOL    HW224696   0.180   0.452  17.673 -1.6747  0.3109 -3.6978
 4412SOL     OW24697   1.799   2.649   5.289 -0.0653 -0.3158  0.4594
 4412SOL    HW124698   1.733   2.709   5.254  1.4866  0.2536 -1.4930
 4412SOL    HW224699   1.821   2.604   5.207  0.1651 -0.6693  0.7174
 4413SOL     OW24700   4.596   0.563  14.002  0.0025  0.3206  0.6834
 4413SOL    HW124701   4.647   0.639  14.032 -0.5114  1.2348 -0.7464
 4413SOL    HW224702   4.572   0.515  14.082  0.9837 -2.0259 -0.4543
 4414SOL     OW24703   0.068   3.880   6.841 -0.1198 -0.4708  0.6902
 4414SOL    HW124704   0.121   3.891   6.762 -0.3051  0.0257  0.6361
 4414SOL    HW224705   0.004   3.815   6.813  0.0859 -0.3941  0.0406
 4415SOL     OW24706   3.149   0.990  11.534 -0.0425  0.1747 -0.0733
 4415SOL    HW124707   3.165   1.034  11.618 -2.2835  1.6822 -0.4293
 4415SOL    HW224708   3.209   0.917  11.548 -1.8896 -0.7352  3.0453
 4416SOL     OW24709   0.518   3.439   7.342 -0.1020  0.8569  0.1301
 4416SOL    HW124710   0.427   3.411   7.351 -0.4266  1.0611 -2.6709
 4416SOL    HW224711   0.568   3.357   7.348  0.2305  0.9380 -1.4776
 4417SOL     OW24712   1.188   0.485   5.402 -0.0055 -0.2630  0.0472
 4417SOL    HW124713   1.278   0.519   5.408 -1.0332  2.5510 -0.1934
 4417SOL    HW224714   1.172   0.490   5.307 -0.2709  0.8258  0.1508
 4418SOL     OW24715   1.408   3.045   8.121 -0.0575  0.2592 -0.3632
 4418SOL    HW124716   1.435   2.953   8.121  1.9027  0.8399 -0.5811
 4418SOL    HW224717   1.340   3.027   8.186  1.2070 -1.9951  0.3102
 4419SOL     OW24718   4.260   3.444   1.231 -0.2931 -0.3918 -0.0727
 4419SOL    HW124719   4.333   3.383   1.237 -1.6389 -1.7058  2.8813
 4419SOL    HW224720   4.224   3.427   1.144  0.4213 -1.3798 -0.1616
 4420SOL     OW24721   0.656   3.566   0.720  0.1503 -0.0891 -0.7271
 4420SOL    HW124722   0.562   3.551   0.716  0.2075 -0.5007 -0.5812
 4420SOL    HW224723   0.646   3.657   0.745  0.6786  0.0141 -0.8794
 4421SOL     OW24724   1.978   0.938   0.595  0.1389 -0.3163  0.0397
 4421SOL    HW124725   1.963   0.848   0.625  0.5581 -0.3950  0.0107
 4421SOL    HW224726   1.897   0.980   0.624  1.0256  0.3437  1.5508
 4422SOL     OW24727   3.657   4.595   8.374  0.2046 -0.0863  0.4014
 4422SOL    HW124728   3.670   4.643   8.456  2.4165  2.2773 -1.3423
 4422SOL    HW224729   3.719   4.523   8.387 -1.9072 -1.7713  1.2065
 4423SOL     OW24730   4.064   3.371   5.272 -0.2531  0.6216  0.1159
 4423SOL    HW124731   4.100   3.371   5.360 -1.1390 -0.6736  0.4887
 4423SOL    HW224732   4.012   3.449   5.254 -0.0503  0.1911 -2.4347
 4424SOL     OW24733   2.418   3.335   4.129  0.1487 -0.1405 -0.3660
 4424SOL    HW124734   2.474   3.265   4.161 -0.1666 -1.1791 -2.0391
 4424SOL    HW224735   2.330   3.323   4.164  0.7537 -0.9226  0.8656
 4425SOL     OW24736   2.821   0.441   7.797 -0.1209 -0.5441  0.2305
 4425SOL    HW124737   2.809   0.353   7.832  0.2284 -1.1265 -1.1302
 4425SOL    HW224738   2.735   0.456   7.757 -0.2725 -1.6273  0.1570
 4426SOL     OW24739   2.203   3.943   3.356  0.0032  0.1475 -0.6555
 4426SOL    HW124740   2.247   3.868   3.397  0.9468  1.0052 -0.0701
 4426SOL    HW224741   2.166   3.980   3.436  4.5295  2.5403  0.3601
 4427SOL     OW24742   1.076   0.324  12.669  0.0999  0.1433 -0.2758
 4427SOL    HW124743   1.166   0.352  12.685 -0.6292  3.1246 -1.5063
 4427SOL    HW224744   1.065   0.268  12.747 -0.6998 -0.2122 -0.6387
 4428SOL     OW24745   2.266   0.828   2.976  0.0888 -0.0392  0.0774
 4428SOL    HW124746   2.182   0.845   3.018 -0.2610 -1.7654  0.0863
 4428SOL    HW224747   2.333   0.818   3.043  1.7278  2.5114 -1.1672
 4429SOL     OW24748   4.254   4.488   2.691 -0.1808 -0.1611  0.1683
 4429SOL    HW124749   4.229   4.560   2.633 -1.1339 -0.2212  0.4997
 4429SOL    HW224750   4.221   4.510   2.778 -0.2294  0.9002 -0.1171
 4430SOL     OW24751   3.176   3.185   8.233 -0.3062 -0.1140  0.0014
 4430SOL    HW124752   3.168   3.229   8.148 -0.3895  0.4937  0.3243
 4430SOL    HW224753   3.088   3.154   8.249 -0.7997  1.1124 -0.2919
 4431SOL     OW24754   0.291   0.323   7.311  0.6092  0.4096 -0.5804
 4431SOL    HW124755   0.277   0.232   7.336  1.9946  0.1088 -0.8741
 4431SOL    HW224756   0.202   0.357   7.316  0.3854 -0.1563 -0.6707
 4432SOL     OW24757   4.344   4.119   5.720 -0.0261 -0.3411 -0.0305
 4432SOL    HW124758   4.435   4.101   5.699  0.2176 -1.1644  1.7575
 4432SOL    HW224759   4.337   4.069   5.801 -1.3564  1.1925  0.8161
 4433SOL     OW24760   0.107   3.419   9.215 -0.1565  0.5973 -0.4563
 4433SOL    HW124761   0.116   3.506   9.178 -1.1516  0.2256 -1.5721
 4433SOL    HW224762   0.039   3.381   9.159 -0.8126  1.2154 -0.0710
 4434SOL     OW24763   4.688   4.468   8.178  0.2601  0.3186  0.2600
 4434SOL    HW124764   0.010   4.549   8.161 -2.6718  2.1468  0.3904
 4434SOL    HW224765   4.681   4.462   8.274 -0.2863  0.3261  0.2222
 4435SOL     OW24766   2.687   2.193   1.962 -0.6327  0.1217 -0.2473
 4435SOL    HW124767   2.761   2.138   1.934 -0.0908  1.3133 -1.1323
 4435SOL    HW224768   2.721   2.281   1.978  2.9800 -1.0866 -1.1321
 4436SOL     OW24769   4.586   4.525   3.561  0.2016  0.4397  0.0862
 4436SOL    HW124770   4.496   4.537   3.530  0.3492 -1.7571 -1.1740
 4436SOL    HW224771   4.596   4.607   3.610  1.1966  0.5697 -0.3389
 4437SOL     OW24772   0.246   0.473   2.134 -0.2956  0.4343  0.4871
 4437SOL    HW124773   0.304   0.406   2.099 -2.0598  0.6645 -2.8181
 4437SOL    HW224774   0.212   0.527   2.063  0.8294  2.0969  1.2193
 4438SOL     OW24775   1.828   3.698   8.624  0.3537 -0.6618  0.3737
 4438SOL    HW124776   1.900   3.708   8.686  2.8324  0.4850 -2.6560
 4438SOL    HW224777   1.766   3.760   8.662 -0.6030 -0.3208 -1.7469
 4439SOL     OW24778   2.724   1.267   8.350  0.5163 -0.1919 -0.3073
 4439SOL    HW124779   2.775   1.188   8.365 -0.0439 -0.7108 -1.1197
 4439SOL    HW224780   2.762   1.333   8.408 -0.3111  0.6051 -0.6733
 4440SOL     OW24781   2.125   0.954   6.483  0.3763  0.6580 -0.3220
 4440SOL    HW124782   2.086   1.022   6.427 -1.5167 -0.7540 -0.7186
 4440SOL    HW224783   2.062   0.882   6.481  0.6971  0.3957 -0.8197
 4441SOL     OW24784   1.223   2.033   8.285 -0.8227 -0.0675 -0.2313
 4441SOL    HW124785   1.304   1.997   8.320  0.2463  1.6509 -0.9264
 4441SOL    HW224786   1.181   1.954   8.252 -0.7427  0.5381 -1.7888
 4442SOL     OW24787   1.249   1.639   5.952  0.3759  0.2031 -0.4766
 4442SOL    HW124788   1.223   1.566   6.007  0.3126  0.9588  0.4995
 4442SOL    HW224789   1.202   1.632   5.869  1.0475 -0.0359 -0.8395
 4443SOL     OW24790   3.834   1.400   3.678 -0.2803  0.1596 -0.1286
 4443SOL    HW124791   3.857   1.342   3.606  1.9181  1.4021 -0.4260
 4443SOL    HW224792   3.852   1.476   3.622  2.1393 -0.9032 -0.7962
 4444SOL     OW24793   0.989   1.606   5.037 -0.0251 -0.3259  0.4209
 4444SOL    HW124794   0.934   1.646   5.104 -0.9614 -2.5036  0.9523
 4444SOL    HW224795   1.078   1.630   5.064 -0.7259  1.5210  1.0553
 4445SOL     OW24796   3.148   2.294   6.677 -0.0460  0.1101  0.3913
 4445SOL    HW124797   3.202   2.368   6.706  1.3659 -1.1409  0.9207
 4445SOL    HW224798   3.159   2.308   6.582 -0.0381  0.0872  0.3889
 4446SOL     OW24799   3.644   1.828   6.969  0.3799 -0.1638 -0.0386
 4446SOL    HW124800   3.556   1.828   7.008  0.3971 -1.4537 -0.0090
 4446SOL    HW224801   3.628   1.789   6.883  1.7931  1.6714 -1.1290
 4447SOL     OW24802   1.214   3.168   3.434  0.6069 -0.5034  0.3088
 4447SOL    HW124803   1.290   3.116   3.460  0.9343 -1.1719 -1.9710
 4447SOL    HW224804   1.246   3.199   3.349  1.8148  0.2495  1.0343
 4448SOL     OW24805   2.976   2.767   2.499  0.8535 -0.0561  0.7122
 4448SOL    HW124806   2.939   2.854   2.517  2.2056  0.5079  0.7095
 4448SOL    HW224807   3.056   2.779   2.449  0.0097  1.1069 -0.3824
 4449SOL     OW24808   1.367   2.090  13.991 -0.1098  0.0394 -0.1379
 4449SOL    HW124809   1.323   2.121  14.071 -1.5151 -2.6606  0.1192
 4449SOL    HW224810   1.459   2.105  14.014  0.5979 -3.1221 -0.9645
 4450SOL     OW24811   0.208   3.219  11.688 -0.0762  0.4480 -1.0978
 4450SOL    HW124812   0.264   3.265  11.751 -1.8938  1.2909 -0.0974
 4450SOL    HW224813   0.133   3.195  11.742  1.2368 -0.5610  0.3032
 4451SOL     OW24814   3.753   4.012  17.421  0.1124  0.2639  0.2139
 4451SOL    HW124815   3.665   3.991  17.453  0.2264 -0.7878 -0.1543
 4451SOL    HW224816   3.768   3.933  17.370 -1.1940 -0.6147  1.1981
 4452SOL     OW24817   1.710   1.148   7.992  0.1511 -0.1585 -0.8769
 4452SOL    HW124818   1.619   1.172   7.978 -0.5571 -2.5686 -0.4971
 4452SOL    HW224819   1.732   1.078   7.930 -2.5554 -1.2383 -0.5861
 4453SOL     OW24820   0.951   2.498   8.903  0.4843 -0.5313  0.0388
 4453SOL    HW124821   1.046   2.503   8.913  0.3225 -0.1289  1.4364
 4453SOL    HW224822   0.932   2.578   8.951 -0.2316  0.4457 -1.8954
 4454SOL     OW24823   3.931   4.417  17.505  0.2759  0.1893 -0.0322
 4454SOL    HW124824   4.016   4.460  17.494  0.6180 -0.6846 -0.7676
 4454SOL    HW224825   3.870   4.482  17.469 -0.8189 -0.5278  0.5570
 4455SOL     OW24826   1.210   0.877   6.291 -0.1412 -0.2980  0.4181
 4455SOL    HW124827   1.212   0.860   6.385 -2.3102 -0.7944  0.3602
 4455SOL    HW224828   1.291   0.834   6.262  0.7508  1.0029  0.9421
 4456SOL     OW24829   4.352   3.667   4.713 -0.1098 -0.1729  0.0616
 4456SOL    HW124830   4.261   3.695   4.723 -0.2540 -0.3408 -0.7707
 4456SOL    HW224831   4.396   3.717   4.782 -2.1532  0.7202  0.6944
 4457SOL     OW24832   3.379   0.149   8.633  0.1646  0.3156  0.2438
 4457SOL    HW124833   3.418   0.074   8.679 -0.3259 -0.6832 -0.9875
 4457SOL    HW224834   3.334   0.096   8.567 -1.1353  0.1864  1.2348
 4458SOL     OW24835   2.747   0.833   3.821  0.6532 -0.5570 -0.5548
 4458SOL    HW124836   2.792   0.763   3.868  2.7451  0.6290 -0.7586
 4458SOL    HW224837   2.749   0.901   3.889 -1.3339 -0.5516 -0.4987
 4459SOL     OW24838   4.721   0.653   4.622  0.4944  0.2020 -0.5196
 4459SOL    HW124839   4.627   0.672   4.622  0.2961 -0.8013 -1.4905
 4459SOL    HW224840   0.017   0.746   4.618  0.2985  0.2968  0.5777
 4460SOL     OW24841   3.664   3.445   7.918  0.0199  0.2447 -0.6207
 4460SOL    HW124842   3.671   3.367   7.973 -0.1389  0.6528 -0.0154
 4460SOL    HW224843   3.636   3.413   7.833  1.4712 -0.4030 -0.8488
 4461SOL     OW24844   4.227   2.148   1.195  0.2234  0.3111  0.1772
 4461SOL    HW124845   4.158   2.105   1.245 -0.4492  1.1188 -0.0687
 4461SOL    HW224846   4.306   2.102   1.223  0.7805  0.7766 -0.6052
 4462SOL     OW24847   1.358   0.128   5.266  0.0254  0.0282 -0.4197
 4462SOL    HW124848   1.396   0.107   5.352 -0.5440  1.6918  0.2414
 4462SOL    HW224849   1.406   0.209   5.252  0.3257  0.1115  0.9981
 4463SOL     OW24850   1.849   4.490   9.009 -0.4197 -0.4332 -0.7055
 4463SOL    HW124851   1.806   4.469   9.092 -0.8718  2.4045 -0.2083
 4463SOL    HW224852   1.916   4.422   8.997 -0.0475 -0.0816 -0.6162
 4464SOL     OW24853   4.013   4.054  17.321  0.3112 -0.3582  0.1445
 4464SOL    HW124854   4.086   4.116  17.325  0.7613 -0.9592  1.2632
 4464SOL    HW224855   3.940   4.090  17.371 -0.4842 -0.1577 -1.1473
 4465SOL     OW24856   2.445   3.536  14.976 -0.8545 -0.1303 -0.2646
 4465SOL    HW124857   2.377   3.477  15.008 -0.6907  0.0372  0.3910
 4465SOL    HW224858   2.458   3.586  15.057  2.8231  1.0949 -1.5858
 4466SOL     OW24859   1.304   0.031  14.319  0.0640  0.2495  0.6659
 4466SOL    HW124860   1.365   0.012  14.247  0.0469 -1.3827  1.0794
 4466SOL    HW224861   1.220   0.025  14.272  0.2721  1.4170  0.1538
 4467SOL     OW24862   2.283   0.628   7.823 -0.1304  0.8345  0.2854
 4467SOL    HW124863   2.285   0.575   7.742  0.1553  1.1478  0.0886
 4467SOL    HW224864   2.340   0.575   7.878 -1.8196 -0.1011  1.1326
 4468SOL     OW24865   0.281   0.242   1.777  0.2017 -0.0225  0.3218
 4468SOL    HW124866   0.235   0.159   1.781  1.4578 -0.7937 -1.0107
 4468SOL    HW224867   0.202   0.293   1.795  1.6555  2.9224 -1.6154
 4469SOL     OW24868   0.010   4.163   6.804 -0.7509 -0.1976 -0.1708
 4469SOL    HW124869   0.026   4.096   6.871  2.7443  1.0080  0.1841
 4469SOL    HW224870   0.067   4.237   6.822 -2.2061  0.8144  0.2245
 4470SOL     OW24871   1.772   3.124   8.131 -0.0811  0.2684 -0.1834
 4470SOL    HW124872   1.788   3.218   8.122 -2.7032  0.8100  0.7970
 4470SOL    HW224873   1.864   3.103   8.115 -0.2933 -0.9020  0.1264
 4471SOL     OW24874   3.585   2.943   8.880  0.4042 -0.0347 -0.1915
 4471SOL    HW124875   3.556   2.906   8.797  3.7745 -2.1638 -0.4275
 4471SOL    HW224876   3.627   3.024   8.853  1.3419 -0.4285  0.0813
 4472SOL     OW24877   0.432   3.474  12.081 -0.2474 -0.6482 -0.0284
 4472SOL    HW124878   0.371   3.455  12.153  0.0018 -0.1145  0.3222
 4472SOL    HW224879   0.464   3.558  12.115 -2.0080  0.0450 -0.0843
 4473SOL     OW24880   1.065   4.391  11.459 -0.2784  0.3220 -0.8985
 4473SOL    HW124881   1.152   4.360  11.435 -0.9110 -1.8538 -0.3587
 4473SOL    HW224882   1.037   4.449  11.388  0.5533 -1.5387 -2.7380
 4474SOL     OW24883   1.201   1.376   0.352 -0.3475  0.1481  0.9977
 4474SOL    HW124884   1.260   1.447   0.326  0.9494 -0.8098  1.2708
 4474SOL    HW224885   1.265   1.305   0.357  0.8126  1.0424 -1.2193
 4475SOL     OW24886   3.311   1.114  14.703  0.2890  0.2156 -0.0172
 4475SOL    HW124887   3.274   1.071  14.626  0.4461  0.5569 -0.2827
 4475SOL    HW224888   3.404   1.108  14.680  0.3792  0.2024  0.3485
 4476SOL     OW24889   2.733   0.174  12.126  0.0148 -0.1129 -0.0925
 4476SOL    HW124890   2.692   0.194  12.041 -1.0054 -0.3594  0.3446
 4476SOL    HW224891   2.688   0.091  12.143  0.1352  0.2496  1.9640
 4477SOL     OW24892   4.643   3.331  14.632  0.0261  0.2578  0.3733
 4477SOL    HW124893   4.672   3.276  14.559 -1.5891 -0.3713  0.2119
 4477SOL    HW224894   4.717   3.332  14.692  0.3082  0.0217  0.0280
 4478SOL     OW24895   1.245   1.253   7.142  0.1242  0.4769 -0.2119
 4478SOL    HW124896   1.163   1.205   7.129 -0.6480  1.3066  1.6975
 4478SOL    HW224897   1.269   1.239   7.233 -1.6415 -1.9376 -0.1149
 4479SOL     OW24898   0.271   3.725  12.255 -0.0630  0.4890  0.1929
 4479SOL    HW124899   0.336   3.711  12.186 -0.6210  1.4831 -0.5412
 4479SOL    HW224900   0.297   3.812  12.284  1.0015 -0.2302  1.3877
 4480SOL     OW24901   1.862   3.500   1.732 -0.1011 -0.2067  0.9945
 4480SOL    HW124902   1.855   3.507   1.827  0.1311  1.1822  0.9052
 4480SOL    HW224903   1.788   3.552   1.701 -0.2109  0.0650  1.7162
 4481SOL     OW24904   3.288   1.676   4.808 -0.6515  0.0470  0.3421
 4481SOL    HW124905   3.362   1.711   4.758  0.4531 -4.2864 -1.1238
 4481SOL    HW224906   3.247   1.623   4.739 -1.0071  1.2420 -0.3578
 4482SOL     OW24907   2.922   1.727   0.875  0.2932 -0.4376  0.0117
 4482SOL    HW124908   2.996   1.674   0.903 -0.5593 -1.3608  0.5316
 4482SOL    HW224909   2.957   1.814   0.856 -1.6449  0.0554 -1.3056
 4483SOL     OW24910   0.260   3.067   4.825  0.0733  0.1316  0.6413
 4483SOL    HW124911   0.241   2.976   4.806  0.9376  0.3816 -1.4124
 4483SOL    HW224912   0.179   3.097   4.866 -0.4302  1.1743 -1.1041
 4484SOL     OW24913   3.872   3.789   7.637  0.0321 -0.0190  0.4029
 4484SOL    HW124914   3.881   3.878   7.671 -1.0673 -0.0469  0.7630
 4484SOL    HW224915   3.941   3.738   7.678  0.6651  1.2251  0.8988
 4485SOL     OW24916   2.284   2.951   6.708 -0.4204 -0.2793 -0.1279
 4485SOL    HW124917   2.368   2.995   6.700  0.3188 -1.4584  1.1969
 4485SOL    HW224918   2.288   2.932   6.802 -0.7618  0.5895  0.0599
 4486SOL     OW24919   2.296   1.508   5.412  0.3979  0.0887 -0.3752
 4486SOL    HW124920   2.368   1.454   5.444  0.6186  1.0811  0.8089
 4486SOL    HW224921   2.320   1.545   5.327  1.9746 -1.6622 -0.7052
 4487SOL     OW24922   2.055   3.826   7.553  0.0950 -0.1269  0.4257
 4487SOL    HW124923   1.999   3.772   7.608 -0.7603  0.0223 -0.3043
 4487SOL    HW224924   2.044   3.917   7.578 -1.3467 -0.1825  0.0006
 4488SOL     OW24925   1.979   1.444   2.202  0.0271  0.0635 -0.5066
 4488SOL    HW124926   2.061   1.402   2.226 -0.5003 -0.4933  0.3166
 4488SOL    HW224927   1.973   1.507   2.274 -0.2248 -0.0554 -0.4217
 4489SOL     OW24928   1.861   1.907   3.920  0.1485  0.0274  0.3777
 4489SOL    HW124929   1.884   1.884   4.010  0.4466 -1.9804 -0.2330
 4489SOL    HW224930   1.936   1.866   3.879  1.2208  1.2769  1.0713
 4490SOL     OW24931   3.984   1.170  13.573  0.0115  0.2793  0.2750
 4490SOL    HW124932   3.927   1.160  13.496 -0.0667  1.2527  0.2171
 4490SOL    HW224933   3.943   1.112  13.637  1.3246 -1.4574 -0.4405
 4491SOL     OW24934   0.722   3.471   6.535 -0.2381 -0.2317  0.0016
 4491SOL    HW124935   0.687   3.558   6.512  0.0787 -0.4253 -1.2192
 4491SOL    HW224936   0.793   3.466   6.471 -0.2046 -3.4140  0.3131
 4492SOL     OW24937   4.616   1.022   3.382  0.1361 -0.1131 -0.3631
 4492SOL    HW124938   4.530   1.005   3.344 -0.2951  1.0882  0.0472
 4492SOL    HW224939   4.596   1.105   3.427 -0.9494 -0.7423  0.3031
 4493SOL     OW24940   1.437   4.282   5.506  0.1115 -0.1146 -0.7552
 4493SOL    HW124941   1.515   4.230   5.488  0.7564 -0.1382  2.0607
 4493SOL    HW224942   1.370   4.235   5.456 -1.1317 -1.6346  2.3332
 4494SOL     OW24943   2.652   1.851   3.282  0.5574 -0.1644 -0.2705
 4494SOL    HW124944   2.594   1.781   3.312  1.0674  0.0906  1.3469
 4494SOL    HW224945   2.594   1.896   3.221 -1.1954  0.4694  1.8754
 4495SOL     OW24946   2.683   4.305   5.091  0.2152  0.0984 -0.0077
 4495SOL    HW124947   2.750   4.237   5.089 -0.3106 -0.3106 -2.6583
 4495SOL    HW224948   2.687   4.316   4.996  1.5420  0.5982  0.1044
 4496SOL     OW24949   0.547   2.922   2.889  0.5007  0.6480 -0.5994
 4496SOL    HW124950   0.641   2.938   2.903  1.0823 -3.1432 -0.0513
 4496SOL    HW224951   0.542   2.837   2.933 -0.7207  0.8374 -0.3889
 4497SOL     OW24952   4.596   1.199   5.744  0.3914  0.7804  0.3988
 4497SOL    HW124953   4.624   1.137   5.677  1.8033  1.1564  0.6492
 4497SOL    HW224954   4.557   1.269   5.691  0.1644  0.9418  0.7697
 4498SOL     OW24955   0.695   1.733   2.859  0.0904  0.0480  0.2680
 4498SOL    HW124956   0.709   1.803   2.795  0.4109 -0.0524  0.2295
 4498SOL    HW224957   0.606   1.706   2.836 -0.2106  1.5074 -0.2670
 4499SOL     OW24958   2.933   2.488   5.501  0.3662  0.3242 -0.1147
 4499SOL    HW124959   2.841   2.514   5.502  0.9901  2.5823 -1.1657
 4499SOL    HW224960   2.962   2.524   5.417 -1.6631  1.9471 -0.1031
 4500SOL     OW24961   2.926   2.071   1.847  0.3398  1.3465  0.1211
 4500SOL    HW124962   3.013   2.076   1.807  0.7075 -1.3938  0.6293
 4500SOL    HW224963   2.925   1.981   1.878 -0.1371  1.0873 -0.6480
 4501SOL     OW24964   1.886   3.139   5.144 -0.2592  0.0110  0.1103
 4501SOL    HW124965   1.967   3.088   5.151  0.6614  1.6430  1.2733
 4501SOL    HW224966   1.837   3.111   5.221 -0.7215  2.5169  0.7289
 4502SOL     OW24967   1.854   1.022   5.379  0.0854 -0.6976 -0.2995
 4502SOL    HW124968   1.811   0.994   5.297  0.4813  2.5399 -1.6051
 4502SOL    HW224969   1.848   0.944   5.434  4.0179 -0.4094  0.4989
 4503SOL     OW24970   3.290   1.460   7.737 -0.6062 -0.3246 -0.1232
 4503SOL    HW124971   3.225   1.459   7.667  0.7852 -0.4593 -1.4328
 4503SOL    HW224972   3.242   1.474   7.818 -1.0112  1.8527 -0.7352
 4504SOL     OW24973   2.580   2.302  17.452 -0.2175  0.1290  0.4843
 4504SOL    HW124974   2.557   2.245  17.526 -1.6688 -2.8527 -2.2678
 4504SOL    HW224975   2.579   2.390  17.489 -0.1119 -0.3246  1.5687
 4505SOL     OW24976   2.764   3.989   8.953  0.2015  0.1787  0.1975
 4505SOL    HW124977   2.698   3.920   8.956  1.0344 -0.6018  0.3519
 4505SOL    HW224978   2.706   4.063   8.975 -0.9053 -1.2795  2.2105
 4506SOL     OW24979   4.061   4.455   4.969  0.1579  0.2112  0.3749
 4506SOL    HW124980   4.063   4.363   4.943 -2.2091  0.3837 -0.3572
 4506SOL    HW224981   3.973   4.454   5.008 -1.0556  1.7699 -2.3695
 4507SOL     OW24982   4.177   1.168   4.651 -0.2322 -1.0632  0.7201
 4507SOL    HW124983   4.198   1.099   4.714  0.0849 -1.9494 -0.3652
 4507SOL    HW224984   4.235   1.235   4.688  2.8932 -3.1622 -0.3011
 4508SOL     OW24985   4.236   0.184   6.614  0.6653  0.8201  0.4206
 4508SOL    HW124986   4.303   0.243   6.646 -0.4321  0.9692  2.4300
 4508SOL    HW224987   4.208   0.237   6.539 -1.4023 -0.1379  0.5194
 4509SOL     OW24988   3.700   3.821   9.099 -0.4353  0.2822 -0.5700
 4509SOL    HW124989   3.747   3.904   9.090  0.3095 -0.1708 -0.8698
 4509SOL    HW224990   3.719   3.780   9.014 -1.7574 -0.7210 -0.3730
 4510SOL     OW24991   1.412   4.463  16.144 -0.5039 -0.6442  0.3215
 4510SOL    HW124992   1.364   4.546  16.147 -0.5436 -0.6686  0.3493
 4510SOL    HW224993   1.453   4.472  16.058 -0.6489 -0.8261  0.2332
 4511SOL     OW24994   3.275   3.784  11.246 -0.0132  0.5415  0.8224
 4511SOL    HW124995   3.277   3.697  11.205  2.2695  0.6279  0.7653
 4511SOL    HW224996   3.366   3.815  11.241  0.4053 -0.9353 -0.9937
 4512SOL     OW24997   3.804   0.684  13.795  0.0997  0.3428 -0.4785
 4512SOL    HW124998   3.723   0.703  13.844 -0.1618 -3.5632  0.5979
 4512SOL    HW224999   3.862   0.639  13.856 -0.4663 -2.2929 -1.8570
 4513SOL     OW25000   3.105   4.167  14.517  0.4522 -0.6759  0.2450
 4513SOL    HW125001   3.053   4.087  14.517 -0.5072 -0.0360  2.8016
 4513SOL    HW225002   3.174   4.144  14.454 -1.9731 -1.0462 -2.2732
 4514SOL     OW25003   4.637   0.730  13.351  0.6031  0.5943  0.7902
 4514SOL    HW125004   4.714   0.776  13.385 -0.5876  1.6362  2.0806
 4514SOL    HW225005   4.675   0.649  13.315  2.4666  0.7211  2.4648
 4515SOL     OW25006   1.162   4.006  10.843 -0.6121 -0.2263  0.1813
 4515SOL    HW125007   1.241   4.008  10.789 -0.2261 -1.3746  0.6899
 4515SOL    HW225008   1.100   4.070  10.809 -0.0653 -0.2526 -0.8484
 4516SOL     OW25009   3.331   3.657  11.699 -0.4134 -0.2168  0.3473
 4516SOL    HW125010   3.388   3.702  11.637 -1.6233 -0.8244 -1.1798
 4516SOL    HW225011   3.259   3.636  11.641 -1.1537 -2.2463  1.9797
 4517SOL     OW25012   3.836   0.667   1.264 -0.6965 -0.1701 -0.0091
 4517SOL    HW125013   3.803   0.757   1.262 -1.7355 -0.5319  0.9957
 4517SOL    HW225014   3.818   0.636   1.175 -0.8655  2.1085 -0.7894
 4518SOL     OW25015   3.551   3.802   5.412  0.1908  0.4936  0.0413
 4518SOL    HW125016   3.472   3.751   5.391 -0.4697  1.8927 -0.9048
 4518SOL    HW225017   3.609   3.778   5.340  2.9565  1.9332  1.8182
 4519SOL     OW25018   3.471   0.728  13.304  0.5740  0.4528  0.1598
 4519SOL    HW125019   3.454   0.633  13.302  0.1529  0.4954  1.5855
 4519SOL    HW225020   3.451   0.748  13.213 -0.0616 -0.2806  0.1297
 4520SOL     OW25021   3.444   1.378  16.048  0.0686 -0.1381  0.0484
 4520SOL    HW125022   3.463   1.292  16.009  0.3623 -0.9766  2.0284
 4520SOL    HW225023   3.505   1.382  16.121  0.9367  0.6952 -0.7278
 4521SOL     OW25024   3.462   3.451   2.032  0.6263 -0.5835  0.5712
 4521SOL    HW125025   3.525   3.509   2.077  1.4542  0.1517 -1.5516
 4521SOL    HW225026   3.385   3.508   2.026  0.7933 -0.5959 -1.6493
 4522SOL     OW25027   2.652   4.512   6.971  0.6407  0.0302 -0.2419
 4522SOL    HW125028   2.660   4.506   6.875  0.4980  0.0273 -0.2535
 4522SOL    HW225029   2.693   4.598   6.979 -0.0436  0.3444 -0.1147
 4523SOL     OW25030   3.567   1.651  11.548  0.4630  0.0626 -0.1929
 4523SOL    HW125031   3.472   1.647  11.555  0.5254 -0.5690  0.2418
 4523SOL    HW225032   3.606   1.713  11.609 -0.5079  0.9986 -0.5194
 4524SOL     OW25033   1.947   0.854   1.866  0.3494  0.0089 -0.3541
 4524SOL    HW125034   1.976   0.841   1.775  1.0891  0.2672 -0.1598
 4524SOL    HW225035   1.895   0.776   1.886 -0.8771  0.3778 -2.0499
 4525SOL     OW25036   3.707   1.778   1.942 -0.5583  0.1357 -0.2164
 4525SOL    HW125037   3.621   1.818   1.946 -0.4092  0.2052  2.3220
 4525SOL    HW225038   3.711   1.732   1.858  0.5887 -0.4256  0.1329
 4526SOL     OW25039   1.843   0.379   4.145  0.9412 -0.2963 -0.1125
 4526SOL    HW125040   1.908   0.331   4.093  0.5523  0.1138 -0.9764
 4526SOL    HW225041   1.839   0.316   4.216  0.4147  0.6037  0.6502
 4527SOL     OW25042   2.879   1.369   5.909 -0.2589 -0.0017 -0.2283
 4527SOL    HW125043   2.837   1.404   5.830 -0.4741  0.5813  0.1417
 4527SOL    HW225044   2.884   1.276   5.890  1.3901 -0.5331  2.7566
 4528SOL     OW25045   1.236   1.817  10.428  0.2644  0.3135  0.4388
 4528SOL    HW125046   1.167   1.859  10.478  0.1205  0.8337 -0.1934
 4528SOL    HW225047   1.290   1.894  10.409 -0.9923  0.9670 -0.4261
 4529SOL     OW25048   1.690   2.414  10.533 -0.1992 -0.8734 -0.1799
 4529SOL    HW125049   1.669   2.321  10.542  2.5361 -1.3969  0.9818
 4529SOL    HW225050   1.639   2.438  10.456  1.7121  0.9890 -0.8711
 4530SOL     OW25051   2.136   4.165   9.405  0.3566 -0.2645 -0.2018
 4530SOL    HW125052   2.152   4.093   9.466  0.3112 -0.8597 -0.8853
 4530SOL    HW225053   2.125   4.122   9.320  1.3537 -1.5333  0.3102
 4531SOL     OW25054   1.100   1.711  11.885 -0.3482 -0.1387  0.6096
 4531SOL    HW125055   1.170   1.774  11.900 -0.7142  0.0628  1.4738
 4531SOL    HW225056   1.110   1.684  11.794  0.4761  2.3773 -0.0389
 4532SOL     OW25057   2.139   0.291   6.690 -0.3156  0.1773 -0.0411
 4532SOL    HW125058   2.109   0.308   6.601  1.9951  1.3522 -0.5923
 4532SOL    HW225059   2.054   0.266   6.727  0.6505 -0.7210  1.5780
 4533SOL     OW25060   3.272   4.334   8.571  0.1034 -0.0716  0.1042
 4533SOL    HW125061   3.276   4.282   8.651 -0.8328  0.9962  0.8423
 4533SOL    HW225062   3.176   4.333   8.563  0.1175 -2.8249  0.3034
 4534SOL     OW25063   0.673   2.314   4.879  0.4894 -0.0477 -0.2990
 4534SOL    HW125064   0.624   2.249   4.830 -0.7467 -0.1471  1.0741
 4534SOL    HW225065   0.731   2.260   4.933 -1.3076 -1.4009  0.2656
 4535SOL     OW25066   0.749   2.111  12.762  0.7820 -0.1065  0.6327
 4535SOL    HW125067   0.721   2.060  12.838 -0.3776  0.3426  0.5191
 4535SOL    HW225068   0.833   2.150  12.786 -0.7158  1.1668  3.7497
 4536SOL     OW25069   3.375   0.004  12.058 -0.8465  0.3029 -0.5424
 4536SOL    HW125070   3.402   4.694  12.142 -0.5490 -2.1834 -1.7635
 4536SOL    HW225071   3.456   0.021  12.010  0.0961 -2.1029  0.2213
 4537SOL     OW25072   1.316   3.159   5.451 -0.0639 -0.1299 -0.1374
 4537SOL    HW125073   1.372   3.115   5.388  0.1019 -0.5889  0.3322
 4537SOL    HW225074   1.233   3.117   5.428  0.7412 -1.1483 -1.1164
 4538SOL     OW25075   3.718   2.580   5.470 -0.1550  0.0524 -0.7739
 4538SOL    HW125076   3.697   2.499   5.516 -0.7493 -1.5663 -3.8460
 4538SOL    HW225077   3.652   2.639   5.506 -0.4790 -0.8466  0.0875
 4539SOL     OW25078   4.412   0.935   2.098 -0.6512  0.3985 -0.0313
 4539SOL    HW125079   4.486   0.941   2.038 -1.0283  0.3808 -0.4943
 4539SOL    HW225080   4.412   0.847   2.136 -1.8633  0.4783  0.1569
 4540SOL     OW25081   0.020   3.486   1.241  0.4787 -0.5642  0.2562
 4540SOL    HW125082   0.003   3.536   1.161 -1.2072 -0.8837  0.4145
 4540SOL    HW225083   4.686   3.412   1.234  0.1055 -0.3228  1.0235
 4541SOL     OW25084   3.716   2.279   3.528  0.5782  0.0512 -1.2828
 4541SOL    HW125085   3.653   2.342   3.494 -1.6060 -1.7402 -0.5547
 4541SOL    HW225086   3.782   2.264   3.460 -0.2225 -1.9493 -1.6190
 4542SOL     OW25087   2.140   3.060   4.177 -0.5911 -0.6454  0.9856
 4542SOL    HW125088   2.181   2.975   4.161  1.5506  0.5113  0.2134
 4542SOL    HW225089   2.133   3.062   4.272 -2.4769  1.2264  0.7926
 4543SOL     OW25090   4.541   1.754   9.226 -0.6639 -0.2788  0.3303
 4543SOL    HW125091   4.584   1.671   9.206  1.7861  0.4822  2.5110
 4543SOL    HW225092   4.614   1.799   9.269  0.2955 -1.7572  0.2433
 4544SOL     OW25093   3.270   2.685   2.943  0.0747 -0.4605  0.1817
 4544SOL    HW125094   3.199   2.667   2.882  1.3950 -1.3625 -1.0770
 4544SOL    HW225095   3.344   2.708   2.886 -0.2826 -0.5342 -0.3115
 4545SOL     OW25096   4.196   1.220   6.855  0.2116 -0.3798 -0.4442
 4545SOL    HW125097   4.241   1.299   6.885  0.7633 -1.5601  1.7959
 4545SOL    HW225098   4.258   1.186   6.791 -1.1564 -0.6256 -1.6433
 4546SOL     OW25099   2.878   2.261  16.355  0.2967 -0.2350  0.0276
 4546SOL    HW125100   2.836   2.329  16.303  0.2130 -0.5832 -0.3617
 4546SOL    HW225101   2.817   2.188  16.342  0.8683 -0.6070 -0.5297
 4547SOL     OW25102   1.572   4.138   3.643  0.9796  0.5375 -0.3577
 4547SOL    HW125103   1.667   4.150   3.645  0.8684  1.7451 -2.1265
 4547SOL    HW225104   1.558   4.111   3.734 -1.9052  2.8301 -0.0965
 4548SOL     OW25105   0.839   3.947   9.048 -0.1336  0.5876 -0.1775
 4548SOL    HW125106   0.923   3.902   9.058 -0.8163 -0.4053  1.1532
 4548SOL    HW225107   0.790   3.905   9.119 -0.1953 -1.5336 -1.4835
 4549SOL     OW25108   3.149   1.832   8.209 -0.3356 -0.1154  0.1163
 4549SOL    HW125109   3.120   1.874   8.129 -2.6763  1.7435  1.9668
 4549SOL    HW225110   3.098   1.881   8.273  1.4305  0.4454  1.1096
 4550SOL     OW25111   3.707   0.312  17.434 -0.1408 -0.2828 -0.4263
 4550SOL    HW125112   3.688   0.222  17.459 -0.2668 -0.7577 -2.1991
 4550SOL    HW225113   3.616   0.342  17.429  0.0078  0.1288 -0.7260
 4551SOL     OW25114   3.669   4.470  15.512 -0.1145 -0.5455  0.4498
 4551SOL    HW125115   3.650   4.405  15.445  1.1297 -0.2796 -0.1724
 4551SOL    HW225116   3.757   4.492  15.482  0.5286  1.4308  3.7221
 4552SOL     OW25117   4.185   2.695   6.918  0.2043 -0.0896  0.1326
 4552SOL    HW125118   4.259   2.635   6.906 -1.3175 -2.2502  1.7937
 4552SOL    HW225119   4.212   2.742   6.997 -0.5065  0.7631 -0.1223
 4553SOL     OW25120   2.622   3.578   6.615 -0.2611 -0.1065 -0.3162
 4553SOL    HW125121   2.557   3.566   6.685  0.0788  3.2793  0.5624
 4553SOL    HW225122   2.608   3.504   6.556  0.6866 -0.4152 -0.1595
 4554SOL     OW25123   0.618   0.261  10.362 -0.3993  0.1851  0.0438
 4554SOL    HW125124   0.541   0.301  10.321 -3.1803  0.3014  5.3821
 4554SOL    HW225125   0.581   0.179  10.397  0.1076 -0.6902 -1.4616
 4555SOL     OW25126   0.387   1.147   8.523  0.3048  0.3271 -0.1303
 4555SOL    HW125127   0.403   1.177   8.612  1.8584 -2.8441  0.6657
 4555SOL    HW225128   0.358   1.058   8.540  0.9863  0.3751  1.2461
 4556SOL     OW25129   2.983   2.319  15.972 -0.1045  0.0240  0.2143
 4556SOL    HW125130   3.040   2.255  15.930 -1.3792 -0.8287 -0.2339
 4556SOL    HW225131   2.929   2.330  15.894 -1.0235 -0.3827  0.7934
 4557SOL     OW25132   0.487   1.743   6.779 -0.7689  0.0820 -0.4241
 4557SOL    HW125133   0.495   1.667   6.837 -0.9418  0.4366  0.0535
 4557SOL    HW225134   0.554   1.801   6.814 -0.3468  0.5281 -1.9492
 4558SOL     OW25135   4.515   1.635   8.832  0.3961  0.4217 -0.2272
 4558SOL    HW125136   4.526   1.541   8.847 -2.3392  0.3555  1.4932
 4558SOL    HW225137   4.604   1.667   8.821  0.7039 -0.7708 -1.1408
 4559SOL     OW25138   0.389   1.764   7.994 -0.3867 -0.1693  0.6904
 4559SOL    HW125139   0.360   1.805   7.912  0.0062  1.5343  1.4074
 4559SOL    HW225140   0.304   1.727   8.017 -0.9080  0.2707 -0.5640
 4560SOL     OW25141   1.765   3.745   6.570  0.2201 -0.1772 -0.5664
 4560SOL    HW125142   1.711   3.816   6.536  0.4380  0.1360 -0.2632
 4560SOL    HW225143   1.799   3.732   6.482  0.8844  0.1690 -0.3615
 4561SOL     OW25144   1.228   3.485   8.315  0.0065  0.6436 -0.3604
 4561SOL    HW125145   1.256   3.399   8.346  0.8100  0.6135 -1.1689
 4561SOL    HW225146   1.281   3.543   8.371  2.7619 -1.3112 -0.9221
 4562SOL     OW25147   2.347   0.620   8.742 -0.0838 -0.6091 -0.2321
 4562SOL    HW125148   2.380   0.700   8.701  1.0548 -0.5657  0.8054
 4562SOL    HW225149   2.301   0.565   8.678 -0.6901 -0.0904 -0.2359
 4563SOL     OW25150   1.222   0.795   7.746 -0.1075  0.1886 -0.4090
 4563SOL    HW125151   1.160   0.776   7.676 -0.3746 -0.6162  0.0406
 4563SOL    HW225152   1.175   0.767   7.825  2.8104 -3.0005  0.2448
 4564SOL     OW25153   4.196   1.350  17.518 -0.7506  0.0904  0.1180
 4564SOL    HW125154   4.101   1.363  17.524 -0.2708  3.8184  0.0078
 4564SOL    HW225155   4.235   1.389  17.597 -0.0279  0.5906 -0.4956
 4565SOL     OW25156   1.022   2.902   9.058  0.3991  0.2016 -0.3049
 4565SOL    HW125157   0.988   2.968   8.998 -1.6241 -2.0268 -1.6360
 4565SOL    HW225158   0.936   2.876   9.092  1.2625  0.2623  1.9119
 4566SOL     OW25159   3.388   2.378   7.882  0.2459 -0.1548 -0.2919
 4566SOL    HW125160   3.479   2.358   7.902  0.1219 -1.3095 -0.8885
 4566SOL    HW225161   3.384   2.346   7.792  2.3566 -1.4402  0.0898
 4567SOL     OW25162   3.454   4.548  10.101 -0.0894 -0.2500 -0.8589
 4567SOL    HW125163   3.435   4.599  10.022 -1.0226  0.9041  0.1178
 4567SOL    HW225164   3.453   4.457  10.073 -0.6169  0.0732 -1.9048
 4568SOL     OW25165   2.463   0.456   8.930 -0.2400 -0.3660  0.2111
 4568SOL    HW125166   2.407   0.509   8.874 -1.3674 -1.8876 -0.0788
 4568SOL    HW225167   2.426   0.459   9.019  0.0243  2.6003  0.2170
 4569SOL     OW25168   1.060   0.854   7.257  0.9435 -0.3614 -0.9745
 4569SOL    HW125169   1.088   0.782   7.313 -0.8737  1.2490  2.0751
 4569SOL    HW225170   1.010   0.900   7.325  1.3948 -0.2676 -0.7106
 4570SOL     OW25171   1.053   0.515   0.372  0.4569  0.1712  0.3399
 4570SOL    HW125172   1.019   0.600   0.345  0.3964 -0.5021 -1.7749
 4570SOL    HW225173   1.040   0.462   0.293 -0.2899  1.2586 -0.2648
 4571SOL     OW25174   3.183   0.477   9.064  0.2230  0.1435 -0.2699
 4571SOL    HW125175   3.273   0.445   9.054  0.6468  2.1400 -2.7116
 4571SOL    HW225176   3.149   0.443   9.147  1.1798  3.2689  1.4182
 4572SOL     OW25177   3.271   0.318  15.246  0.6657 -0.0150  0.1580
 4572SOL    HW125178   3.202   0.373  15.210 -0.0080 -1.7051 -1.1451
 4572SOL    HW225179   3.334   0.307  15.175 -0.0713  1.8617 -0.7727
 4573SOL     OW25180   0.305   0.781   7.448  0.0134 -0.1692  0.3032
 4573SOL    HW125181   0.399   0.768   7.439  0.0983  0.4493  0.3161
 4573SOL    HW225182   0.301   0.786   7.544 -1.4354  1.3721  0.1741
 4574SOL     OW25183   0.634   3.600   5.859 -0.6794 -0.4734  0.1506
 4574SOL    HW125184   0.576   3.611   5.783  1.4020 -3.2778 -1.8586
 4574SOL    HW225185   0.679   3.685   5.861 -1.9243  0.1690  0.6119
 4575SOL     OW25186   2.615   1.000   9.655 -0.1935 -0.3886  0.0839
 4575SOL    HW125187   2.581   0.940   9.721 -0.2863 -1.3566 -0.8462
 4575SOL    HW225188   2.568   1.076   9.688  0.4866 -0.3209  0.8871
 4576SOL     OW25189   1.309   2.618  12.797  0.1108 -0.1806 -0.1150
 4576SOL    HW125190   1.372   2.571  12.852  1.0791 -1.1699 -2.0416
 4576SOL    HW225191   1.313   2.557  12.723  0.0624 -0.9313  0.4953
 4577SOL     OW25192   1.403   2.724   9.701  1.2398 -0.2087  0.1838
 4577SOL    HW125193   1.403   2.818   9.681  0.2449 -0.0876  0.7387
 4577SOL    HW225194   1.409   2.697   9.609 -2.0230  0.2501 -0.1548
 4578SOL     OW25195   2.234   2.446   2.864  0.3810  0.5518 -0.3002
 4578SOL    HW125196   2.159   2.461   2.807  1.0424  0.1520 -1.2786
 4578SOL    HW225197   2.206   2.473   2.951 -0.1493 -2.0299  0.3528
 4579SOL     OW25198   1.289   2.643   4.412 -0.0175  0.2626 -0.2682
 4579SOL    HW125199   1.303   2.565   4.359  1.1033  0.9479 -0.9922
 4579SOL    HW225200   1.269   2.601   4.495 -0.2864  0.2910 -0.3176
 4580SOL     OW25201   0.855   2.856   7.999 -0.2114  0.1419 -0.9387
 4580SOL    HW125202   0.791   2.793   8.034 -0.6158  0.9503 -0.2235
 4580SOL    HW225203   0.799   2.929   7.971  1.1992  0.9043 -1.7443
 4581SOL     OW25204   3.331   0.640   7.281  0.5157 -0.4852 -0.0374
 4581SOL    HW125205   3.335   0.548   7.307  0.4800  0.0269  1.7844
 4581SOL    HW225206   3.244   0.635   7.242  1.0676  0.3283 -1.3810
 4582SOL     OW25207   0.225   2.168  16.131  0.4586 -0.0009 -0.0840
 4582SOL    HW125208   0.208   2.210  16.215  1.5666 -0.1053  0.1974
 4582SOL    HW225209   0.312   2.131  16.149  0.2493 -0.5825 -0.2614
 4583SOL     OW25210   3.218   0.330  12.807  0.2963  0.3050  0.8310
 4583SOL    HW125211   3.144   0.367  12.854 -0.0089  2.2843 -1.2323
 4583SOL    HW225212   3.288   0.385  12.841  0.1082 -0.2990  2.1969
 4584SOL     OW25213   1.278   0.318   4.764 -0.3967  0.2457  0.0784
 4584SOL    HW125214   1.297   0.284   4.851 -3.4913 -1.6507 -0.0023
 4584SOL    HW225215   1.344   0.388   4.762 -0.7720  0.5781 -0.8539
 4585SOL     OW25216   2.033   1.568   8.343 -0.0033  0.2966 -0.0572
 4585SOL    HW125217   1.960   1.604   8.392 -1.5577 -1.0325 -1.3974
 4585SOL    HW225218   2.096   1.640   8.332 -1.2287  1.0249 -2.3818
 4586SOL     OW25219   1.756   0.240   4.358 -0.9025  0.5618 -0.4218
 4586SOL    HW125220   1.729   0.149   4.366 -3.4442  1.1567 -2.3518
 4586SOL    HW225221   1.673   0.285   4.374 -1.4576 -0.8713  0.6454
 4587SOL     OW25222   3.647   2.510  17.226  0.6184 -0.6247  0.0330
 4587SOL    HW125223   3.599   2.492  17.307 -0.7999  0.8539 -0.4880
 4587SOL    HW225224   3.632   2.425  17.183 -0.8238 -0.8042  0.8994
 4588SOL     OW25225   2.078   4.002   8.164 -0.0627 -0.0948  0.1397
 4588SOL    HW125226   2.043   4.091   8.169  0.7726  0.2014  0.7793
 4588SOL    HW225227   2.013   3.955   8.217 -0.6408  1.2583  0.6280
 4589SOL     OW25228   0.188   4.532   7.640 -0.5576  0.5474  0.4384
 4589SOL    HW125229   0.097   4.518   7.612 -0.5350  0.3098  0.4785
 4589SOL    HW225230   0.216   4.441   7.652  0.6571  0.7371 -1.0547
 4590SOL     OW25231   1.371   0.571   0.796  0.3235  0.7576  0.2363
 4590SOL    HW125232   1.381   0.479   0.821  0.5745  1.4063  2.4799
 4590SOL    HW225233   1.460   0.579   0.763 -0.2113  0.0882 -1.3712
 4591SOL     OW25234   4.391   3.281   9.386  0.1056 -0.3684  0.7601
 4591SOL    HW125235   4.404   3.195   9.426  1.8333  0.5100  2.0530
 4591SOL    HW225236   4.347   3.326   9.458 -0.8818  0.3282 -0.2783
 4592SOL     OW25237   1.422   0.854   1.954  0.4681  0.0018  0.8120
 4592SOL    HW125238   1.455   0.804   2.029  2.3565 -0.0813 -0.0608
 4592SOL    HW225239   1.360   0.919   1.986  0.2803  0.6700 -0.9291
 4593SOL     OW25240   3.694   3.626   8.167 -0.4949  0.1787 -0.5460
 4593SOL    HW125241   3.641   3.697   8.202 -0.7385 -0.6884  0.8414
 4593SOL    HW225242   3.664   3.541   8.200  1.1262 -0.0613  0.3104
 4594SOL     OW25243   1.025   4.153   8.286  0.1106 -0.2182  0.5481
 4594SOL    HW125244   1.007   4.184   8.197  0.8647  0.0659  0.5010
 4594SOL    HW225245   1.067   4.069   8.267 -1.2693 -0.2815 -2.2326
 4595SOL     OW25246   2.245   3.688  10.646  0.0415 -0.5467 -0.9154
 4595SOL    HW125247   2.178   3.650  10.704  1.3807  0.2510  1.1548
 4595SOL    HW225248   2.274   3.765  10.695 -0.6164 -0.7783 -0.1615
 4596SOL     OW25249   1.105   3.376   3.559  0.4356 -0.3594  0.0187
 4596SOL    HW125250   1.173   3.328   3.511  0.9944  2.2223 -1.7876
 4596SOL    HW225251   1.129   3.351   3.648  0.9848 -0.4699 -0.1596
 4597SOL     OW25252   4.392   0.887   4.369  0.2842 -0.1826 -0.0862
 4597SOL    HW125253   4.404   0.872   4.463 -1.4803 -2.5327 -0.2497
 4597SOL    HW225254   4.479   0.892   4.329 -0.1255 -0.6212 -1.0307
 4598SOL     OW25255   3.902   0.123   2.783 -0.2350 -0.0721  0.3126
 4598SOL    HW125256   3.919   0.197   2.725 -0.3069 -0.3958 -0.1168
 4598SOL    HW225257   3.854   0.064   2.726  1.2649  0.4341 -1.4979
 4599SOL     OW25258   0.705   1.149   9.099  0.8776  0.2787 -1.2547
 4599SOL    HW125259   0.682   1.115   9.185  0.9428 -2.1195 -2.1910
 4599SOL    HW225260   0.788   1.108   9.073  0.0710 -1.0226 -1.7466
 4600SOL     OW25261   2.743   0.383  16.911  0.4945  0.4243  0.1369
 4600SOL    HW125262   2.805   0.383  16.838  0.9522  2.4825  0.5128
 4600SOL    HW225263   2.710   0.473  16.910 -1.7680 -0.3987  2.5626
 4601SOL     OW25264   4.229   2.463   6.590  0.4294  0.5206  0.0703
 4601SOL    HW125265   4.306   2.507   6.553 -0.5413  1.3735 -0.9475
 4601SOL    HW225266   4.189   2.422   6.513  2.0235  0.4859 -0.7290
 4602SOL     OW25267   4.572   1.800   4.996 -0.5230  0.0988 -0.1661
 4602SOL    HW125268   4.482   1.830   4.985 -0.6872 -0.8588 -1.4054
 4602SOL    HW225269   4.593   1.773   4.907  3.0134 -3.3055  1.6976
 4603SOL     OW25270   2.652   2.981   7.413 -0.0975  0.0186 -0.0584
 4603SOL    HW125271   2.610   3.066   7.405  0.9508  0.5015 -0.4404
 4603SOL    HW225272   2.661   2.995   7.507 -0.3487  0.2469 -0.0702
 4604SOL     OW25273   4.315   2.784   2.597 -0.0013  0.6425 -0.0527
 4604SOL    HW125274   4.334   2.876   2.579  2.2056  0.0902 -0.5207
 4604SOL    HW225275   4.267   2.756   2.519  0.1701  0.9653 -0.2773
 4605SOL     OW25276   4.424   4.040   8.985  0.4882  0.1050 -0.3606
 4605SOL    HW125277   4.455   4.022   9.073 -0.4622 -2.0505 -0.4830
 4605SOL    HW225278   4.399   4.132   8.996 -3.1028 -1.0830  1.3598
 4606SOL     OW25279   1.509   1.531   5.775  0.2496 -0.3940  0.1307
 4606SOL    HW125280   1.496   1.467   5.845  0.5358 -1.0455 -0.4107
 4606SOL    HW225281   1.419   1.537   5.741  0.0917 -1.0286  0.4374
 4607SOL     OW25282   2.316   0.844   5.720  0.1174  0.5279  0.0266
 4607SOL    HW125283   2.356   0.842   5.807  0.1926  3.5116  0.0571
 4607SOL    HW225284   2.352   0.928   5.690 -1.9814  2.5138  3.1116
 4608SOL     OW25285   2.117   1.957   5.216 -0.0310 -0.1321  0.2528
 4608SOL    HW125286   2.066   1.926   5.291  1.0091  0.3837  1.1766
 4608SOL    HW225287   2.187   1.990   5.272  1.2057 -1.4757 -0.4975
 4609SOL     OW25288   2.837   3.926   8.086 -0.2816 -0.1865 -0.2964
 4609SOL    HW125289   2.838   3.830   8.095 -0.3601 -0.1796 -0.2130
 4609SOL    HW225290   2.781   3.946   8.161  2.2331 -0.5884  1.6919
 4610SOL     OW25291   3.158   2.237   9.068  0.4124  0.1224 -0.0258
 4610SOL    HW125292   3.101   2.315   9.074 -1.2856 -1.3343  2.7031
 4610SOL    HW225293   3.168   2.207   9.158 -1.4266 -1.0429 -0.2092
 4611SOL     OW25294   3.614   3.322   6.885  0.3581  0.4548 -0.2997
 4611SOL    HW125295   3.655   3.404   6.911 -2.1645  2.3369 -2.2644
 4611SOL    HW225296   3.674   3.263   6.930 -1.8227 -0.4738  1.3646
 4612SOL     OW25297   4.332   4.136   7.118  0.0495  0.6520  0.5893
 4612SOL    HW125298   4.313   4.214   7.170  0.3405 -0.5521  2.5187
 4612SOL    HW225299   4.247   4.097   7.097  0.2598 -0.4447  1.7745
 4613SOL     OW25300   0.087   0.463   1.744  0.0184  0.2418  0.3841
 4613SOL    HW125301   4.726   0.430   1.733  0.5060 -0.5889 -1.0502
 4613SOL    HW225302   0.078   0.542   1.690  2.8876 -0.4982 -1.1934
 4614SOL     OW25303   3.570   0.838   7.045 -0.1078 -0.2018  0.6373
 4614SOL    HW125304   3.514   0.904   7.087  0.6019 -0.1843  1.5493
 4614SOL    HW225305   3.596   0.893   6.971  0.4139 -2.5243 -0.9020
 4615SOL     OW25306   0.149   2.135  12.754 -0.0620  0.4030 -0.2949
 4615SOL    HW125307   0.148   2.157  12.661 -2.4840 -0.6533 -0.5222
 4615SOL    HW225308   0.078   2.193  12.780  0.6853  1.4408 -0.6099
 4616SOL     OW25309   1.645   2.521   7.045 -0.2329 -0.4948 -0.1226
 4616SOL    HW125310   1.565   2.572   7.048  0.5005  0.6777 -0.5464
 4616SOL    HW225311   1.684   2.522   7.133  0.3888  0.7303 -0.4191
 4617SOL     OW25312   0.637   1.151  13.464  0.5223  0.3837 -0.0242
 4617SOL    HW125313   0.698   1.091  13.507 -1.3205 -1.9922 -0.6999
 4617SOL    HW225314   0.558   1.155  13.519  1.4352 -0.4421  1.3362
 4618SOL     OW25315   4.642   3.975  16.774 -0.5614  0.2628 -0.6192
 4618SOL    HW125316   4.706   4.036  16.735  0.5390 -0.0591  0.6817
 4618SOL    HW225317   4.616   4.011  16.858 -1.1762 -1.8007  0.0642
 4619SOL     OW25318   2.552   4.515   7.279 -0.2911  0.0659  0.7481
 4619SOL    HW125319   2.622   4.481   7.223 -1.1391 -0.5971  0.0992
 4619SOL    HW225320   2.484   4.449   7.267 -0.6442  0.4275  0.7474
 4620SOL     OW25321   4.707   1.349   7.765 -0.7643 -0.6438 -0.3771
 4620SOL    HW125322   4.720   1.255   7.754  0.7766 -0.6164  1.1733
 4620SOL    HW225323   0.050   1.362   7.829 -1.3173  2.4282 -0.3902
 4621SOL     OW25324   0.934   3.453   5.076 -0.1091 -0.1325 -0.1180
 4621SOL    HW125325   0.850   3.483   5.110 -0.6856 -2.5293  0.5394
 4621SOL    HW225326   0.974   3.540   5.084  0.1998 -0.4630  1.8003
 4622SOL     OW25327   2.002   3.466  10.306  0.5511  0.1584  0.4971
 4622SOL    HW125328   2.027   3.497  10.393 -0.3537  1.2204  0.3815
 4622SOL    HW225329   1.911   3.444  10.325  0.7389  1.5396  2.9921
 4623SOL     OW25330   0.452   0.882   3.379 -0.2298 -0.0685 -0.1827
 4623SOL    HW125331   0.386   0.820   3.409 -0.7726  1.6777  2.1719
 4623SOL    HW225332   0.523   0.821   3.358 -1.1946 -1.1587 -0.3208
 4624SOL     OW25333   1.648   4.109   5.445 -0.1424  0.2183  0.2107
 4624SOL    HW125334   1.616   4.044   5.381  0.3693  3.5085 -3.3658
 4624SOL    HW225335   1.694   4.059   5.512  0.3221 -0.2190 -0.4390
 4625SOL     OW25336   0.854   4.561   2.478  0.2327  0.1204 -0.3389
 4625SOL    HW125337   0.770   4.523   2.505  0.8057 -0.3193  0.8203
 4625SOL    HW225338   0.880   4.591   2.565  0.5224  1.0373 -0.7441
 4626SOL     OW25339   4.538   4.261   7.505 -0.3090  0.1234  0.6893
 4626SOL    HW125340   4.456   4.309   7.497 -0.2199  0.0921 -0.4468
 4626SOL    HW225341   4.502   4.175   7.525 -0.1598 -0.4601 -1.5048
 4627SOL     OW25342   1.713   2.765   6.064  0.4145  0.3736 -0.5619
 4627SOL    HW125343   1.777   2.706   6.023  1.6373 -0.7308  2.8767
 4627SOL    HW225344   1.635   2.733   6.019 -0.2920  2.7636 -1.0123
 4628SOL     OW25345   2.005   0.703   3.364  0.3803  0.7090  0.3007
 4628SOL    HW125346   1.997   0.695   3.269  0.7822 -1.3057  0.4542
 4628SOL    HW225347   2.026   0.614   3.390 -0.1166  0.4376 -0.2191
 4629SOL     OW25348   1.764   3.523   6.133  0.0379  0.1878  0.1926
 4629SOL    HW125349   1.709   3.566   6.067  0.0902 -0.2585 -0.1380
 4629SOL    HW225350   1.845   3.525   6.083  0.0678  0.6333  0.2518
 4630SOL     OW25351   0.698   3.371  11.982  0.0688  0.3405  0.5335
 4630SOL    HW125352   0.724   3.443  12.040  1.5224  2.3267 -2.5571
 4630SOL    HW225353   0.606   3.382  12.005  0.2983 -0.6427  1.9212
 4631SOL     OW25354   4.457   0.487   3.756  0.1007  0.5660 -0.2024
 4631SOL    HW125355   4.544   0.471   3.720 -1.1971 -1.8438 -2.2393
 4631SOL    HW225356   4.472   0.567   3.807  0.1776  0.4832 -0.0962
 4632SOL     OW25357   3.581   2.323   8.125 -0.5477 -0.7850  0.2509
 4632SOL    HW125358   3.672   2.297   8.109 -0.0032  1.3168 -0.0329
 4632SOL    HW225359   3.540   2.236   8.120  1.1886 -1.7313  2.3870
 4633SOL     OW25360   1.822   3.878   3.358 -0.4137 -0.0775  0.0047
 4633SOL    HW125361   1.841   3.970   3.342 -2.3044  0.5108  1.2487
 4633SOL    HW225362   1.730   3.870   3.333  0.5091 -0.9127 -3.1614
 4634SOL     OW25363   1.569   2.544   5.772  0.1764  0.5920  0.8355
 4634SOL    HW125364   1.554   2.529   5.865  1.6678 -0.3617  0.9229
 4634SOL    HW225365   1.655   2.502   5.759 -0.1778  0.1492 -0.0805
 4635SOL     OW25366   2.966   3.608   6.143  0.0732  0.3275  0.0541
 4635SOL    HW125367   3.009   3.622   6.227 -0.2321  0.7416  0.1412
 4635SOL    HW225368   3.022   3.664   6.089  0.6585 -1.6916 -1.4595
 4636SOL     OW25369   2.899   4.640   5.311 -0.0240  0.1862 -0.0517
 4636SOL    HW125370   2.811   4.606   5.295 -0.7348  2.0786 -0.1895
 4636SOL    HW225371   2.897   4.655   5.405  0.1210  1.9434 -0.3330
 4637SOL     OW25372   3.477   2.600   9.819  0.1867  0.2269  0.6424
 4637SOL    HW125373   3.437   2.654   9.751 -1.2641 -0.8490  0.6481
 4637SOL    HW225374   3.553   2.561   9.775  0.2716 -0.1282  1.1057
 4638SOL     OW25375   0.125   4.724   5.226  0.2506  0.1899 -0.2866
 4638SOL    HW125376   0.106   4.642   5.180  0.4565  0.2142 -0.4144
 4638SOL    HW225377   0.201   4.698   5.278 -0.1038 -1.5380 -0.6519
 4639SOL     OW25378   2.901   0.429   2.651 -0.0197 -0.2052 -0.5025
 4639SOL    HW125379   2.817   0.419   2.695 -1.1724  2.2417 -2.0944
 4639SOL    HW225380   2.956   0.466   2.720 -0.4543  1.6002 -1.1017
 4640SOL     OW25381   4.193   3.301  16.327  0.6318  0.1917 -0.1541
 4640SOL    HW125382   4.226   3.234  16.387  0.7323 -0.8766 -1.3968
 4640SOL    HW225383   4.219   3.267  16.241  0.8857 -0.9363  0.3666
 4641SOL     OW25384   2.340   3.271   8.856 -0.3267  0.1386  0.2205
 4641SOL    HW125385   2.394   3.234   8.927  1.2459 -0.6238 -1.3713
 4641SOL    HW225386   2.414   3.291   8.799 -0.7823  1.4222  0.0756
 4642SOL     OW25387   3.444   2.122  15.090 -0.4573 -0.1895  0.0307
 4642SOL    HW125388   3.450   2.132  15.185 -1.0649 -2.1570  0.2943
 4642SOL    HW225389   3.352   2.142  15.074 -0.4445  0.4471  0.7397
 4643SOL     OW25390   2.195   3.005   1.146 -0.3103  0.1567 -0.0724
 4643SOL    HW125391   2.182   3.011   1.240  2.3597  1.2258  0.2290
 4643SOL    HW225392   2.115   3.049   1.118 -0.9250 -0.8087  0.1640
 4644SOL     OW25393   1.544   3.038   6.650 -0.0834  0.0780 -0.1266
 4644SOL    HW125394   1.485   3.011   6.580  2.4136 -2.1639 -1.3692
 4644SOL    HW225395   1.527   3.132   6.651 -1.2765 -0.1254 -2.1039
 4645SOL     OW25396   2.127   0.107  14.733 -0.3280  0.1393 -0.1381
 4645SOL    HW125397   2.041   0.148  14.725  0.3111  1.2434 -1.3319
 4645SOL    HW225398   2.157   0.091  14.644  2.4534 -0.1934  0.8494
 4646SOL     OW25399   2.216   2.253   7.754 -0.1614  0.6330 -0.4208
 4646SOL    HW125400   2.284   2.306   7.713  0.2527  0.7318  0.3958
 4646SOL    HW225401   2.184   2.210   7.675  0.3127  0.5624 -0.5747
 4647SOL     OW25402   3.118   2.155  16.627  0.2048  0.7121 -0.3592
 4647SOL    HW125403   3.027   2.180  16.641 -0.2322 -2.6303  2.8541
 4647SOL    HW225404   3.158   2.241  16.621 -0.1116  0.7509 -1.7844
 4648SOL     OW25405   1.343   1.094   6.553  0.0799 -0.6119  0.0781
 4648SOL    HW125406   1.387   1.132   6.477  0.0670 -2.0472 -0.6496
 4648SOL    HW225407   1.254   1.123   6.532 -0.0233 -1.1780 -0.2495
 4649SOL     OW25408   1.685   4.689   5.676  0.1375  0.4414  0.2046
 4649SOL    HW125409   1.629   0.034   5.706  0.8613  0.8539  0.5460
 4649SOL    HW225410   1.618   4.630   5.642 -0.1669 -0.1925  1.9379
 4650SOL     OW25411   1.196   0.534  14.197  0.2670  0.0679  0.4097
 4650SOL    HW125412   1.112   0.574  14.219  0.4265  1.7463 -2.0259
 4650SOL    HW225413   1.184   0.461  14.257  2.1958 -0.0275  0.6812
 4651SOL     OW25414   4.017   3.428   9.639  0.4043  0.1106 -0.4115
 4651SOL    HW125415   3.938   3.390   9.679 -1.0802  0.7417 -2.7277
 4651SOL    HW225416   4.031   3.504   9.695  0.1826 -0.6995  0.7430
 4652SOL     OW25417   4.275   4.562   5.137  0.3301  0.2516 -0.1989
 4652SOL    HW125418   4.208   4.526   5.079 -1.6268  0.9882  1.6229
 4652SOL    HW225419   4.301   4.481   5.181  1.0299  0.2494 -0.6142
 4653SOL     OW25420   0.289   3.510  17.286  0.1710  0.0526 -0.1457
 4653SOL    HW125421   0.346   3.554  17.348 -0.2596  1.3038 -0.6357
 4653SOL    HW225422   0.203   3.504  17.327  1.5230 -0.1317  2.6304
 4654SOL     OW25423   1.226   3.073   3.104 -0.0135 -0.4442  0.3442
 4654SOL    HW125424   1.181   3.135   3.047  1.0138 -0.6505 -0.6910
 4654SOL    HW225425   1.165   3.004   3.128 -0.3310 -0.7272 -1.2926
 4655SOL     OW25426   0.961   0.638   1.668  0.5816 -0.1117  0.0892
 4655SOL    HW125427   0.993   0.703   1.731  2.1525 -0.3300 -0.4868
 4655SOL    HW225428   0.895   0.592   1.720 -1.3331  0.9792 -1.3699
 4656SOL     OW25429   1.082   0.077   8.718  0.3147  0.3380  0.3706
 4656SOL    HW125430   1.124   0.152   8.759  0.1492 -0.1984  1.5488
 4656SOL    HW225431   1.065   0.016   8.791  0.2321  0.9685  0.8802
 4657SOL     OW25432   2.689   2.512  12.672  0.3659  0.0386  0.1898
 4657SOL    HW125433   2.717   2.520  12.763 -0.8651  0.5602  0.5168
 4657SOL    HW225434   2.704   2.600  12.638 -0.1901 -0.0586 -0.3048
 4658SOL     OW25435   3.888   3.189   3.482  0.3491 -0.1123  0.0850
 4658SOL    HW125436   3.945   3.154   3.414 -0.1290 -2.7009  1.0455
 4658SOL    HW225437   3.920   3.279   3.478  0.8313 -0.2641  0.4742
 4659SOL     OW25438   2.392   1.412   6.364 -0.1737  0.0661 -0.2238
 4659SOL    HW125439   2.480   1.383   6.388  0.5904  3.1458  0.7524
 4659SOL    HW225440   2.371   1.479   6.430 -3.5639 -1.3651  0.1809
 4660SOL     OW25441   3.716   3.908   2.416 -0.1527 -0.1115  0.0465
 4660SOL    HW125442   3.635   3.863   2.393  0.2864 -0.8846  0.0159
 4660SOL    HW225443   3.768   3.898   2.336  0.1802 -0.7603  0.3419
 4661SOL     OW25444   0.873   0.706   0.568  0.0548 -0.5731 -0.2906
 4661SOL    HW125445   0.904   0.795   0.586 -1.7692  0.0400 -0.1666
 4661SOL    HW225446   0.879   0.710   0.472 -0.0910  0.5031 -0.2562
 4662SOL     OW25447   2.777   2.940   4.297 -0.0199  0.3501  0.1040
 4662SOL    HW125448   2.795   2.933   4.203 -1.5085 -0.9736 -0.0875
 4662SOL    HW225449   2.863   2.942   4.339 -0.1469 -0.2643  0.3908
 4663SOL     OW25450   1.968   1.002   5.044 -0.1342 -0.0199  0.0540
 4663SOL    HW125451   2.041   0.960   4.999  0.1042  0.4136  0.0448
 4663SOL    HW225452   1.889   0.950   5.027 -0.2416 -0.1498  0.9523
 4664SOL     OW25453   1.519   4.530  11.830  0.0048 -0.1223  0.6041
 4664SOL    HW125454   1.561   4.599  11.882 -0.2541  0.5160 -0.0349
 4664SOL    HW225455   1.513   4.570  11.743  0.1407 -2.1403 -0.3366
 4665SOL     OW25456   0.475   0.945   2.879 -0.6663  0.6964  0.3375
 4665SOL    HW125457   0.503   1.026   2.836 -0.3638  1.3416  1.7609
 4665SOL    HW225458   0.472   0.969   2.971  0.7390  1.0466  0.2878
 4666SOL     OW25459   0.626   3.386   7.016  0.3208 -0.8323 -0.1437
 4666SOL    HW125460   0.678   3.405   7.094 -1.9274 -1.1290  1.4164
 4666SOL    HW225461   0.610   3.476   6.989 -0.2077 -1.3358 -1.4903
 4667SOL     OW25462   1.327   4.358   6.944  0.5648  0.8955 -0.1230
 4667SOL    HW125463   1.260   4.349   7.012  0.6004 -2.8006 -0.5911
 4667SOL    HW225464   1.386   4.418   6.989  0.4552  0.2810  0.8436
 4668SOL     OW25465   2.047   0.069   7.579  0.6520 -0.5527  0.4620
 4668SOL    HW125466   2.050   0.096   7.487 -3.4787 -2.9577 -0.3699
 4668SOL    HW225467   2.018   0.151   7.619  0.3339 -1.1020  1.3555
 4669SOL     OW25468   2.676   2.655  10.094  0.3485  0.8824 -0.1406
 4669SOL    HW125469   2.632   2.662  10.009  0.4489 -0.3477 -0.2946
 4669SOL    HW225470   2.757   2.704  10.077  2.0960 -2.3740 -1.3445
 4670SOL     OW25471   3.199   2.615   1.738 -0.1987 -0.0386  0.1586
 4670SOL    HW125472   3.224   2.551   1.672  0.4325  0.4984 -0.1138
 4670SOL    HW225473   3.229   2.699   1.704 -0.2216  0.9691  2.6141
 4671SOL     OW25474   4.052   0.566   5.675  0.3965 -0.2917  0.4942
 4671SOL    HW125475   3.979   0.514   5.639 -0.6143  0.8138  0.9383
 4671SOL    HW225476   4.096   0.595   5.595  0.5357  0.6155  0.9065
 4672SOL     OW25477   1.538   4.159  16.573 -0.0173 -0.3210 -0.8578
 4672SOL    HW125478   1.514   4.237  16.522 -0.8151  1.4355  2.2083
 4672SOL    HW225479   1.468   4.096  16.560 -1.4589  1.2646 -0.7029
 4673SOL     OW25480   0.003   1.810   4.712 -0.2135 -0.2101  0.1501
 4673SOL    HW125481   0.029   1.728   4.753 -2.0578  0.1839  2.1139
 4673SOL    HW225482   0.006   1.785   4.620  2.5086 -0.0271  0.2075
 4674SOL     OW25483   3.155   1.782   2.626  0.6171  0.2350 -0.1917
 4674SOL    HW125484   3.184   1.783   2.535  1.8689 -0.5050  0.1962
 4674SOL    HW225485   3.081   1.842   2.626  0.9657  0.6725  0.8297
 4675SOL     OW25486   2.222   3.922   6.813  0.5769  0.4287 -0.0043
 4675SOL    HW125487   2.148   3.980   6.831 -0.5018 -0.3574 -1.8471
 4675SOL    HW225488   2.256   3.940   6.726  0.3137  0.2639 -0.1416
 4676SOL     OW25489   0.992   3.884   1.901  0.2101  0.1744 -0.8575
 4676SOL    HW125490   1.005   3.978   1.887  1.6013  0.2400  0.9369
 4676SOL    HW225491   0.914   3.870   1.847  2.0052  1.8868 -3.9346
 4677SOL     OW25492   2.826   2.261  15.775  0.2931 -0.1879  0.2475
 4677SOL    HW125493   2.764   2.193  15.801  1.8580 -1.3766  0.8510
 4677SOL    HW225494   2.806   2.265  15.682  0.0443  1.5846  0.3812
 4678SOL     OW25495   1.303   3.979  14.532  0.1591 -0.0918  0.2557
 4678SOL    HW125496   1.259   4.051  14.486  0.5697 -0.5423 -0.8378
 4678SOL    HW225497   1.253   3.907  14.493  1.0051 -0.6128  0.1321
 4679SOL     OW25498   2.748   1.972   8.619 -0.4910  0.4358  0.2340
 4679SOL    HW125499   2.781   2.043   8.564  2.2542 -0.8212  0.2248
 4679SOL    HW225500   2.685   2.013   8.678 -1.1108  0.9819 -0.8196
 4680SOL     OW25501   4.316   2.670   1.210 -1.1873 -0.1792 -0.8122
 4680SOL    HW125502   4.300   2.739   1.274 -1.0422 -1.9526  1.1448
 4680SOL    HW225503   4.411   2.674   1.201 -1.1766 -0.7285 -0.9553
 4681SOL     OW25504   1.158   2.404  17.066 -0.0173 -0.0277 -0.4205
 4681SOL    HW125505   1.124   2.380  16.980 -0.9380 -1.4096  0.3267
 4681SOL    HW225506   1.176   2.322  17.111 -2.9749 -0.1087  0.6245
 4682SOL     OW25507   2.636   4.245   3.376  0.2614  0.1321 -0.0187
 4682SOL    HW125508   2.583   4.232   3.297  0.4180  0.9573 -0.2683
 4682SOL    HW225509   2.688   4.322   3.353 -0.4439  1.5209  2.9533
 4683SOL     OW25510   3.281   3.289   6.448  0.3631  0.2457 -0.2626
 4683SOL    HW125511   3.360   3.321   6.403  1.9769 -0.6331  1.9053
 4683SOL    HW225512   3.313   3.259   6.533 -0.1561 -3.0238 -1.2176
 4684SOL     OW25513   3.424   1.380   7.240  0.2099 -0.1646  0.2898
 4684SOL    HW125514   3.387   1.391   7.153  0.9365 -1.1172 -0.1403
 4684SOL    HW225515   3.487   1.452   7.244 -0.0406  0.2259 -3.1754
 4685SOL     OW25516   2.273   0.112   4.062  0.8539  0.1100  0.6982
 4685SOL    HW125517   2.237   0.024   4.073 -3.4884  1.7906 -0.1386
 4685SOL    HW225518   2.197   0.154   4.023  0.9265 -0.6288 -0.2454
 4686SOL     OW25519   1.389   4.057  10.716  0.0673 -0.4390  0.1757
 4686SOL    HW125520   1.475   4.055  10.757  1.1153  1.7847 -1.8730
 4686SOL    HW225521   1.374   4.152  10.720 -1.6020 -0.5565 -2.9305
 4687SOL     OW25522   0.446   3.754   4.818 -0.2699 -0.2897 -0.3304
 4687SOL    HW125523   0.456   3.731   4.725  0.1046  2.1830 -0.8829
 4687SOL    HW225524   0.363   3.802   4.816 -1.5073 -2.3570  1.1890
 4688SOL     OW25525   0.237   2.377   1.131 -0.4985 -0.0502 -0.4948
 4688SOL    HW125526   0.230   2.366   1.036 -0.3591  0.8528 -0.6079
 4688SOL    HW225527   0.154   2.338   1.159  0.8425 -1.6152  1.2100
 4689SOL     OW25528   3.640   3.735   5.973  0.2210  0.4871  0.2192
 4689SOL    HW125529   3.660   3.656   6.023  0.8249  1.0351  0.8512
 4689SOL    HW225530   3.725   3.748   5.931  0.6350  0.8288  1.1487
 4690SOL     OW25531   4.341   4.367   5.298  0.0414  0.0654 -0.4233
 4690SOL    HW125532   4.417   4.392   5.350 -0.9202  1.7964  0.1419
 4690SOL    HW225533   4.297   4.305   5.355  0.3128 -0.9068 -1.2696
 4691SOL     OW25534   1.233   3.322   7.453  0.0559  0.3357  0.4164
 4691SOL    HW125535   1.327   3.326   7.432  0.5295  0.4226  2.6027
 4691SOL    HW225536   1.242   3.280   7.538  1.8487  0.8471  0.4859
 4692SOL     OW25537   1.201   4.092  16.576  0.5975 -0.3751  0.1350
 4692SOL    HW125538   1.236   4.014  16.620 -0.3741 -0.7870  0.1738
 4692SOL    HW225539   1.218   4.078  16.483 -1.8622  1.8424 -0.6580
 4693SOL     OW25540   3.489   3.524   8.931 -0.2034  0.4465  0.5877
 4693SOL    HW125541   3.485   3.517   8.836 -0.8799 -0.7648  0.7063
 4693SOL    HW225542   3.501   3.617   8.952 -0.8938  0.6099  0.2680
 4694SOL     OW25543   2.905   1.860   3.453  0.6780  0.2550  0.4270
 4694SOL    HW125544   2.845   1.845   3.526  1.3190 -2.3814  0.4041
 4694SOL    HW225545   2.841   1.856   3.382  1.7131 -2.1825 -0.3792
 4695SOL     OW25546   3.771   2.980   2.730 -0.5217  0.6061  0.3809
 4695SOL    HW125547   3.792   3.072   2.714  2.1541 -0.2592 -1.0947
 4695SOL    HW225548   3.827   2.970   2.807 -0.8121 -2.9171  0.1522
 4696SOL     OW25549   2.983   3.959   5.796  0.3139  0.1046  0.2261
 4696SOL    HW125550   3.003   3.971   5.888  0.8023  1.0703 -0.0149
 4696SOL    HW225551   2.903   4.011   5.794 -1.1818 -2.1772  0.0603
 4697SOL     OW25552   4.551   4.092   6.096 -0.7623  0.5015 -0.2139
 4697SOL    HW125553   4.513   4.169   6.055  0.2684  0.2407 -1.6736
 4697SOL    HW225554   4.601   4.136   6.165  0.5885 -0.7645 -0.3832
 4698SOL     OW25555   3.347   1.072   9.182 -0.3457  0.0075  0.2772
 4698SOL    HW125556   3.309   0.988   9.209 -4.6235  1.6177 -0.7001
 4698SOL    HW225557   3.281   1.100   9.119  0.6726  1.0089 -0.3479
 4699SOL     OW25558   3.637   3.038   3.069 -0.3438 -0.3961 -0.3214
 4699SOL    HW125559   3.577   3.072   3.135  1.1034 -0.4191  1.0176
 4699SOL    HW225560   3.628   3.103   3.000  0.6123 -1.2092 -1.2078
 4700SOL     OW25561   4.180   1.713   0.927 -0.4849  0.1827  0.1165
 4700SOL    HW125562   4.192   1.749   1.015  0.5981 -3.2675  1.3812
 4700SOL    HW225563   4.154   1.787   0.873 -0.1088  1.4347  1.6665
 4701SOL     OW25564   0.900   2.601   5.321  0.2879  0.2261 -0.5332
 4701SOL    HW125565   0.946   2.546   5.385  2.0791  0.1631 -1.8918
 4701SOL    HW225566   0.912   2.550   5.241  1.8015  0.2623 -0.3296
 4702SOL     OW25567   4.351   0.869   8.254  0.5876 -0.2167 -0.4279
 4702SOL    HW125568   4.390   0.808   8.191  1.0810 -0.5476  0.2106
 4702SOL    HW225569   4.275   0.903   8.206 -0.3200 -1.1472  0.3479
 4703SOL     OW25570   1.579   1.899   4.647  0.0187 -0.6484  0.2656
 4703SOL    HW125571   1.602   1.990   4.629  2.1457 -1.0394  1.0621
 4703SOL    HW225572   1.664   1.855   4.646  0.9940  1.3082 -0.3699
 4704SOL     OW25573   3.101   0.526   5.642 -0.2897 -0.2127  0.1214
 4704SOL    HW125574   3.074   0.451   5.589  2.2935  0.0309 -1.5712
 4704SOL    HW225575   3.192   0.499   5.657 -0.0509  0.3848 -0.2280
 4705SOL     OW25576   3.211   2.160  10.429 -0.0528 -0.0080  0.4174
 4705SOL    HW125577   3.256   2.243  10.415  1.0586 -0.6052  0.4806
 4705SOL    HW225578   3.230   2.138  10.520  2.1481  1.9887  0.4318
 4706SOL     OW25579   0.552   1.815  13.173  0.7293 -0.2206 -0.8505
 4706SOL    HW125580   0.553   1.719  13.170 -2.5228 -0.2636 -0.6639
 4706SOL    HW225581   0.485   1.834  13.239  0.5007  1.3064 -1.5242
 4707SOL     OW25582   0.314   2.258   6.469 -0.3307 -0.0139  0.1196
 4707SOL    HW125583   0.362   2.310   6.534  1.1160 -1.5433  0.2844
 4707SOL    HW225584   0.299   2.184   6.528  0.1463 -1.0034 -0.9738
 4708SOL     OW25585   0.065   4.043  11.483 -0.2023  0.2442  0.2003
 4708SOL    HW125586   4.713   4.062  11.432  0.3908  1.3315 -0.3206
 4708SOL    HW225587   0.045   3.956  11.516  2.4595  0.5645  2.6320
 4709SOL     OW25588   0.584   3.649  10.158  0.2436  0.1309  0.2023
 4709SOL    HW125589   0.602   3.739  10.131 -2.6147  0.9599  1.0389
 4709SOL    HW225590   0.505   3.635  10.106  1.5681 -0.0792 -1.7593
 4710SOL     OW25591   2.312   1.447   7.271  0.1992 -0.4763  0.3460
 4710SOL    HW125592   2.376   1.514   7.248  0.5755 -0.6138  0.9985
 4710SOL    HW225593   2.307   1.463   7.366  2.1767  0.4179  0.2877
 4711SOL     OW25594   2.103   4.711   4.564  0.3427  0.3509  0.4418
 4711SOL    HW125595   2.102   0.078   4.581 -1.1621  0.9464 -3.0437
 4711SOL    HW225596   2.025   4.680   4.609  0.4374  1.7786  1.6039
 4712SOL     OW25597   4.336   2.258  15.838  0.1783  0.1964  0.0260
 4712SOL    HW125598   4.396   2.224  15.905 -0.3410  1.1264  0.9728
 4712SOL    HW225599   4.387   2.328  15.799 -0.0857 -0.5047 -1.5556
 4713SOL     OW25600   2.672   1.587  15.210  0.6916  0.1165  0.2058
 4713SOL    HW125601   2.694   1.678  15.229  0.9914  0.6561 -2.6385
 4713SOL    HW225602   2.754   1.540  15.225  0.6209 -0.1389 -0.2100
 4714SOL     OW25603   3.468   0.386  10.741 -0.2311 -0.0864 -0.1911
 4714SOL    HW125604   3.401   0.454  10.734  0.4162  0.5257 -0.5323
 4714SOL    HW225605   3.470   0.368  10.835  1.4502 -2.8421 -0.7532
 4715SOL     OW25606   4.405   1.694   6.219  0.3922 -0.7850 -0.0289
 4715SOL    HW125607   4.435   1.728   6.135 -0.8626 -0.5254 -0.3741
 4715SOL    HW225608   4.371   1.777   6.252 -0.9536 -1.9180  1.4455
 4716SOL     OW25609   2.939   1.302   3.008 -0.0233 -0.0028 -0.5362
 4716SOL    HW125610   2.853   1.291   2.967 -0.7909  4.6858 -0.2279
 4716SOL    HW225611   2.920   1.271   3.097 -0.2208  0.1782 -0.5129
 4717SOL     OW25612   0.484   0.193   6.309  0.0404  0.0636 -0.5742
 4717SOL    HW125613   0.487   0.282   6.343  0.0301 -0.3785  0.5685
 4717SOL    HW225614   0.394   0.166   6.324  1.5511 -5.7930 -2.0267
 4718SOL     OW25615   3.914   2.910   1.056 -0.0635 -0.0007 -0.0517
 4718SOL    HW125616   3.831   2.870   1.028 -0.1233  0.1069 -0.0258
 4718SOL    HW225617   3.910   2.997   1.017  1.3111  0.6232  1.2002
 4719SOL     OW25618   0.283   2.776   3.894  0.2907 -0.5877  0.1319
 4719SOL    HW125619   0.301   2.783   3.801  2.2655 -1.1323  0.4893
 4719SOL    HW225620   0.366   2.813   3.924  0.0015 -0.7215  1.0920
 4720SOL     OW25621   1.880   3.125   9.674 -0.1568  0.7176 -0.0567
 4720SOL    HW125622   1.882   3.137   9.769 -4.1083  0.7595  0.0262
 4720SOL    HW225623   1.909   3.036   9.652 -0.3093  0.1046  2.2356
 4721SOL     OW25624   2.597   1.185   3.793  0.2036  0.3070  0.7361
 4721SOL    HW125625   2.613   1.241   3.869  0.0279  0.7730  0.4338
 4721SOL    HW225626   2.539   1.121   3.834  0.5691 -0.1951  0.4730
 4722SOL     OW25627   3.873   0.445   2.326  0.2744  0.0523 -0.2252
 4722SOL    HW125628   3.815   0.376   2.293  1.1906 -0.7265 -0.2062
 4722SOL    HW225629   3.936   0.417   2.259 -0.8883 -2.6375 -0.2049
 4723SOL     OW25630   0.458   2.547   8.248  0.1865 -0.2851 -0.2497
 4723SOL    HW125631   0.453   2.537   8.343  0.9754  3.0302  0.1341
 4723SOL    HW225632   0.369   2.578   8.228  0.8571  0.7902 -1.5655
 4724SOL     OW25633   0.649   3.982   6.058  0.1553 -0.4727  0.4820
 4724SOL    HW125634   0.585   3.916   6.087 -2.3868  1.5412 -0.6172
 4724SOL    HW225635   0.645   3.982   5.962 -0.5657 -0.3678  0.5099
 4725SOL     OW25636   2.073   2.367   2.170 -0.5258  0.0784  0.1855
 4725SOL    HW125637   2.129   2.395   2.241 -2.2599  1.7687  0.8890
 4725SOL    HW225638   2.121   2.286   2.150  0.0951  0.4802  0.0633
 4726SOL     OW25639   3.456   2.889   1.337 -0.3472 -0.2323 -0.4496
 4726SOL    HW125640   3.444   2.914   1.429 -0.6565  0.3748 -0.6569
 4726SOL    HW225641   3.440   2.974   1.297  1.2999 -0.8626 -2.4884
 4727SOL     OW25642   1.628   1.133   3.763 -0.5949 -0.0901 -0.2353
 4727SOL    HW125643   1.608   1.091   3.679  1.9807  1.6935 -1.7649
 4727SOL    HW225644   1.658   1.220   3.734  0.6968 -0.6842 -0.6845
 4728SOL     OW25645   0.042   4.399   7.211  0.6790 -0.5054 -0.4916
 4728SOL    HW125646   0.047   4.303   7.211 -0.1008 -0.5575  0.3621
 4728SOL    HW225647   4.690   4.410   7.158 -0.3200  1.7143  1.4445
 4729SOL     OW25648   2.502   1.053   5.201  0.1481 -0.3768 -0.3696
 4729SOL    HW125649   2.587   1.090   5.178 -0.2590  0.4660 -0.4936
 4729SOL    HW225650   2.501   1.074   5.294  0.6785  2.0572 -0.9115
 4730SOL     OW25651   3.950   1.366   9.624  0.3568  0.6810 -0.6135
 4730SOL    HW125652   4.045   1.355   9.623  0.1779 -0.9278  0.0786
 4730SOL    HW225653   3.930   1.305   9.695 -1.3150  0.0845 -1.5975
 4731SOL     OW25654   3.691   2.848  13.489  0.0137 -1.0202 -0.0487
 4731SOL    HW125655   3.783   2.838  13.511  0.1994 -0.6170 -0.6619
 4731SOL    HW225656   3.664   2.759  13.467 -0.5477 -1.1264  1.0392
 4732SOL     OW25657   1.870   0.585  14.617  0.2218  0.0615  0.5616
 4732SOL    HW125658   1.877   0.669  14.662 -0.6757  0.6565 -0.4045
 4732SOL    HW225659   1.953   0.541  14.636 -0.6188 -0.9509  1.9390
 4733SOL     OW25660   1.379   1.004   8.007 -0.1805 -0.5284  0.4950
 4733SOL    HW125661   1.457   0.959   8.038 -0.6362 -1.8339 -0.2678
 4733SOL    HW225662   1.402   1.000   7.915 -0.7907 -3.9135  0.4978
 4734SOL     OW25663   4.084   1.254   8.630  0.3876  1.4047 -0.1770
 4734SOL    HW125664   4.082   1.233   8.723  2.4675 -0.8891 -0.6354
 4734SOL    HW225665   4.000   1.297   8.615 -0.7573 -0.0775  2.0474
 4735SOL     OW25666   1.229   1.579  11.334  0.0089 -0.5149  0.2465
 4735SOL    HW125667   1.282   1.503  11.358  1.0169  0.4663  1.0976
 4735SOL    HW225668   1.289   1.653  11.325 -0.3325 -0.3320 -0.5445
 4736SOL     OW25669   1.167   4.636  12.419 -0.2229  0.3342 -0.2384
 4736SOL    HW125670   1.200   4.605  12.503 -1.0835  1.1807  0.4114
 4736SOL    HW225671   1.235   4.598  12.363 -0.4813  1.4447 -1.3039
 4737SOL     OW25672   4.669   2.110  11.655 -0.5033  0.5130  0.2284
 4737SOL    HW125673   4.702   2.188  11.611 -0.0690  0.3871  0.3292
 4737SOL    HW225674   4.686   2.041  11.591 -0.2358  2.2849 -1.6064
 4738SOL     OW25675   2.608   2.535   7.505 -0.7180 -0.1731 -0.5650
 4738SOL    HW125676   2.650   2.504   7.425  0.2105  0.4039 -0.3046
 4738SOL    HW225677   2.681   2.547   7.566 -1.8169 -1.6962  1.0626
 4739SOL     OW25678   1.008   0.967   2.364  0.4948  0.8370  0.4850
 4739SOL    HW125679   0.956   0.925   2.432  0.2278  0.0857 -0.1778
 4739SOL    HW225680   1.046   0.895   2.313 -0.2888  0.4744  0.4123
 4740SOL     OW25681   4.714   3.347   9.453 -0.2139  0.1205 -0.2530
 4740SOL    HW125682   4.631   3.306   9.428 -0.2729 -0.2096  0.5020
 4740SOL    HW225683   0.035   3.356   9.371 -0.0266 -0.5656 -0.2156
 4741SOL     OW25684   2.354   1.305   1.396  0.2022  0.2966 -0.3389
 4741SOL    HW125685   2.410   1.244   1.443  0.5987  1.3955  0.6246
 4741SOL    HW225686   2.398   1.386   1.421 -1.3161  0.4394  1.8672
 4742SOL     OW25687   4.443   1.846   8.107  0.3460 -0.0427  0.1575
 4742SOL    HW125688   4.455   1.938   8.081 -0.9091 -0.6080 -2.4428
 4742SOL    HW225689   4.370   1.826   8.049 -0.0637  0.3694  0.5311
 4743SOL     OW25690   3.004   4.400   8.597  0.0489  0.0321  0.3643
 4743SOL    HW125691   3.030   4.492   8.603 -1.2866  0.3557  1.1679
 4743SOL    HW225692   2.955   4.380   8.677  0.3883 -1.8952  0.0944
 4744SOL     OW25693   4.697   0.054  14.815  0.1359  0.6662 -0.7376
 4744SOL    HW125694   4.717   0.061  14.909 -0.5955  1.9587 -0.6702
 4744SOL    HW225695   4.624   4.720  14.822 -0.7832  1.6037 -2.0458
 4745SOL     OW25696   1.104   2.345   5.221  0.0126  0.2454 -0.0026
 4745SOL    HW125697   1.188   2.316   5.256 -0.7909 -0.0645  1.6358
 4745SOL    HW225698   1.142   2.382   5.140  0.1977  1.9649  0.8671
 4746SOL     OW25699   4.531   4.414   8.919 -0.0454 -0.3655 -0.2462
 4746SOL    HW125700   4.564   4.463   8.844 -0.6936 -0.1926 -0.4223
 4746SOL    HW225701   4.606   4.365   8.953 -0.3573  1.0204  2.4683
 4747SOL     OW25702   4.052   4.636   2.846  0.3657 -0.0734 -0.2627
 4747SOL    HW125703   4.028   4.725   2.819 -0.1652  0.0140  0.4766
 4747SOL    HW225704   3.963   4.602   2.836 -0.1201  0.8115  1.0036
 4748SOL     OW25705   3.790   1.587  13.143  0.4873 -0.4489 -0.2969
 4748SOL    HW125706   3.811   1.497  13.168 -0.2109 -0.4883  0.1452
 4748SOL    HW225707   3.880   1.610  13.121 -0.0223  0.4607 -1.4381
 4749SOL     OW25708   2.887   4.436   7.752 -0.2001  0.4443 -0.1357
 4749SOL    HW125709   2.961   4.483   7.716  0.7632 -0.8352  0.1843
 4749SOL    HW225710   2.922   4.347   7.758 -0.6453  0.3353  0.9669
 4750SOL     OW25711   0.911   4.139   8.036  0.0364  0.3183 -0.3153
 4750SOL    HW125712   0.906   4.063   7.979  1.4843  0.0524 -0.0681
 4750SOL    HW225713   0.816   4.146   8.046  0.1447  0.0866  0.8406
 4751SOL     OW25714   3.597   2.627  12.027 -0.5315  0.6498 -0.3678
 4751SOL    HW125715   3.653   2.691  12.071 -1.3886  1.0030  0.2083
 4751SOL    HW225716   3.523   2.619  12.087  1.1444 -1.7288  1.4037
 4752SOL     OW25717   0.142   4.180   3.968 -0.0827  0.2981  0.0840
 4752SOL    HW125718   0.183   4.235   3.901 -1.4341  0.1807 -0.8409
 4752SOL    HW225719   0.197   4.202   4.043 -0.8451 -1.1343  1.0551
 4753SOL     OW25720   4.496   2.215   2.451 -0.1440  0.2167  0.2518
 4753SOL    HW125721   4.504   2.256   2.365 -0.6031 -1.3655 -0.5420
 4753SOL    HW225722   4.579   2.168   2.461  0.2187  1.2800  2.2222
 4754SOL     OW25723   1.394   2.724  16.931  0.2008  0.5507 -0.4071
 4754SOL    HW125724   1.310   2.735  16.976  1.4144 -0.0990  1.9793
 4754SOL    HW225725   1.448   2.678  16.995 -0.6891 -0.0101 -0.0641
 4755SOL     OW25726   3.971   3.292   7.651  0.6812 -0.0351 -0.0468
 4755SOL    HW125727   3.968   3.360   7.583 -0.1799 -0.9080 -0.8724
 4755SOL    HW225728   4.021   3.226   7.602  0.7847  0.0535 -0.0602
 4756SOL     OW25729   0.732   4.574   2.891 -0.1478  0.0083  0.0978
 4756SOL    HW125730   0.800   4.563   2.958 -0.2083  2.5215  0.5905
 4756SOL    HW225731   0.671   4.635   2.934  0.5540  0.7850  0.0048
 4757SOL     OW25732   0.204   4.700   9.221 -0.3613  0.3097 -0.1368
 4757SOL    HW125733   0.147   4.645   9.168 -0.9988 -0.8203  1.7188
 4757SOL    HW225734   0.252   4.632   9.269  0.2867  2.0977  1.7356
 4758SOL     OW25735   2.821   3.346   2.610  0.3925  0.1103 -0.1990
 4758SOL    HW125736   2.819   3.283   2.538 -1.8590 -1.0434  0.8934
 4758SOL    HW225737   2.889   3.306   2.664  0.4726 -1.7420 -1.6505
 4759SOL     OW25738   2.520   2.537   7.960 -0.1714 -0.1902  0.5055
 4759SOL    HW125739   2.493   2.496   7.878 -1.0592 -4.1286  2.7689
 4759SOL    HW225740   2.446   2.511   8.015 -0.4083  1.4550  0.9657
 4760SOL     OW25741   1.250   4.347   6.664 -0.0112 -0.5780  0.0883
 4760SOL    HW125742   1.310   4.356   6.738  0.4507 -2.7931 -0.0281
 4760SOL    HW225743   1.169   4.325   6.709  0.2139  1.3781  1.4529
 4761SOL     OW25744   2.629   2.777   3.822  0.1595  0.1070  0.0921
 4761SOL    HW125745   2.693   2.767   3.752 -0.0472 -2.7498  0.3104
 4761SOL    HW225746   2.561   2.831   3.781  1.9640  1.6325 -0.9482
 4762SOL     OW25747   1.452   3.004  13.446 -0.3134  0.1374 -0.4487
 4762SOL    HW125748   1.426   2.918  13.414 -0.6460  0.0709 -0.0120
 4762SOL    HW225749   1.365   3.041  13.439 -1.0813 -1.2314  1.4917
 4763SOL     OW25750   3.712   1.368   5.281  0.2834  0.3583 -0.0593
 4763SOL    HW125751   3.656   1.363   5.359 -0.2915  0.4137 -0.4725
 4763SOL    HW225752   3.646   1.403   5.221 -2.0028 -0.8407  1.7166
 4764SOL     OW25753   3.924   2.559   8.813 -0.2515  0.2143 -0.0886
 4764SOL    HW125754   3.898   2.619   8.882 -2.1650 -1.3519  0.5510
 4764SOL    HW225755   4.018   2.547   8.829 -0.4519 -0.4620  0.5726
 4765SOL     OW25756   3.190   3.888   6.509  0.5415 -0.7500 -0.0240
 4765SOL    HW125757   3.244   3.963   6.531  2.0631 -1.8660  0.0583
 4765SOL    HW225758   3.253   3.821   6.535 -0.1987 -0.4623  2.4430
 4766SOL     OW25759   1.090   0.732  12.414  0.0145 -0.8216  0.5975
 4766SOL    HW125760   0.999   0.725  12.444 -0.4483 -0.8330 -0.8405
 4766SOL    HW225761   1.082   0.710  12.322 -0.2999 -0.4802  0.5402
 4767SOL     OW25762   3.836   0.067   6.035 -0.4376 -0.2489 -0.3636
 4767SOL    HW125763   3.902   0.085   6.103  0.2867 -1.1437 -0.8269
 4767SOL    HW225764   3.883   0.093   5.956  1.5438 -2.2195  0.1430
 4768SOL     OW25765   2.342   1.707   1.849  0.1425 -0.2403 -0.3700
 4768SOL    HW125766   2.357   1.615   1.828 -1.8217 -0.9282  1.1998
 4768SOL    HW225767   2.251   1.695   1.878 -0.3624  0.1132 -1.8184
 4769SOL     OW25768   1.226   0.740  15.089 -0.1320  0.4373  0.4625
 4769SOL    HW125769   1.249   0.649  15.071  0.9313  0.0613  3.6376
 4769SOL    HW225770   1.303   0.782  15.128  0.0456 -0.1302  0.7166
 4770SOL     OW25771   2.417   1.373  17.576 -0.4072  0.0258  0.9512
 4770SOL    HW125772   2.370   1.392  17.495  1.6991 -1.2726 -0.5705
 4770SOL    HW225773   2.483   1.442  17.571 -2.2116  1.6915  0.1081
 4771SOL     OW25774   2.038   3.902  15.704 -0.0528  0.6982  0.1364
 4771SOL    HW125775   2.002   3.990  15.694 -0.3517  0.6545  0.7979
 4771SOL    HW225776   2.127   3.927  15.680  0.1548 -0.2209 -0.0207
 4772SOL     OW25777   3.198   0.480   7.695  0.2749  0.1263 -0.4984
 4772SOL    HW125778   3.282   0.485   7.649  1.3339  1.2468  1.5624
 4772SOL    HW225779   3.225   0.511   7.782 -1.2004 -0.5786  0.1982
 4773SOL     OW25780   1.126   4.691   4.032 -0.1573  0.2841  0.2164
 4773SOL    HW125781   1.059   4.685   3.964 -1.5470 -0.7432  1.6655
 4773SOL    HW225782   1.101   0.040   4.084 -0.5824 -0.0472  0.4995
 4774SOL     OW25783   2.535   3.085   2.651 -0.3232  0.2814 -0.7238
 4774SOL    HW125784   2.441   3.070   2.642  0.1112 -2.5612 -0.7114
 4774SOL    HW225785   2.561   3.021   2.584  2.0415  0.5690 -0.0716
 4775SOL     OW25786   4.654   3.306  15.598 -0.6251  0.6763  0.1821
 4775SOL    HW125787   4.626   3.393  15.628 -2.3042 -0.8814  3.0343
 4775SOL    HW225788   4.666   3.317  15.504  2.9547 -0.9191  0.4843
 4776SOL     OW25789   2.425   1.848   1.365 -0.3891  0.0195 -0.1535
 4776SOL    HW125790   2.377   1.869   1.284 -1.2786 -0.7542  0.1691
 4776SOL    HW225791   2.396   1.917   1.424 -0.8926 -0.4194  0.1079
 4777SOL     OW25792   0.228   0.559   8.562 -0.2531  0.2235  0.5063
 4777SOL    HW125793   0.240   0.473   8.522 -0.7405  0.2837  0.2365
 4777SOL    HW225794   0.309   0.606   8.539 -1.0297  0.8887 -0.8729
 4778SOL     OW25795   3.234   1.941   5.176 -0.7091 -0.5535  0.1686
 4778SOL    HW125796   3.229   1.875   5.107  0.7562  0.8673 -1.3144
 4778SOL    HW225797   3.329   1.940   5.189 -0.4117  1.9218 -1.6945
 4779SOL     OW25798   2.941   2.839  11.027  0.2044 -0.2631 -0.1680
 4779SOL    HW125799   3.032   2.868  11.036  1.3337 -3.4178 -1.4434
 4779SOL    HW225800   2.956   2.750  11.060 -0.8912 -1.1667 -2.1486
 4780SOL     OW25801   4.552   0.594  15.457 -0.2577  0.3944 -0.0491
 4780SOL    HW125802   4.556   0.648  15.378  0.3601 -0.7842 -0.8234
 4780SOL    HW225803   4.550   0.505  15.422  1.0356  1.2388 -2.3011
 4781SOL     OW25804   0.746   1.802   6.288  0.3160 -0.1406  0.2137
 4781SOL    HW125805   0.681   1.849   6.341 -0.5143 -0.6742 -0.3394
 4781SOL    HW225806   0.695   1.778   6.211  1.8190 -0.8440 -0.5665
 4782SOL     OW25807   1.243   3.594   5.731  0.4090 -0.8870 -0.1455
 4782SOL    HW125808   1.152   3.576   5.710 -0.3284 -0.1188  2.3867
 4782SOL    HW225809   1.283   3.588   5.644  0.3191 -1.4535 -0.1418
 4783SOL     OW25810   4.074   1.799   5.556 -0.2261  0.2172  0.0231
 4783SOL    HW125811   4.154   1.851   5.567 -0.5734  1.2198 -2.0238
 4783SOL    HW225812   4.023   1.861   5.607 -0.3421 -0.9511  1.3236
 4784SOL     OW25813   1.075   4.190  10.515  0.1805 -0.2134  0.2932
 4784SOL    HW125814   1.103   4.118  10.459  3.1780  0.0995  1.4240
 4784SOL    HW225815   1.133   4.172  10.588  0.1752  0.3469  0.4413
 4785SOL     OW25816   1.098   4.454   9.702 -0.0499  0.3075 -0.0747
 4785SOL    HW125817   1.123   4.382   9.644 -0.5280  0.8834 -0.9951
 4785SOL    HW225818   1.019   4.415   9.740  1.8840 -1.6542  1.9508
 4786SOL     OW25819   2.423   1.215   8.546 -0.2440 -0.2761  0.2624
 4786SOL    HW125820   2.381   1.130   8.527 -0.6305  0.0581 -0.3764
 4786SOL    HW225821   2.365   1.275   8.500 -1.3086 -0.9350  0.7114
 4787SOL     OW25822   1.566   1.024   4.138 -0.5230 -0.6791 -0.7889
 4787SOL    HW125823   1.569   1.102   4.082  3.5957 -2.5673 -3.2555
 4787SOL    HW225824   1.612   0.958   4.085  1.8091  1.1855 -1.1058
 4788SOL     OW25825   2.866   2.982   8.395  0.2648  0.6498 -0.2402
 4788SOL    HW125826   2.780   2.994   8.355 -0.9846 -0.9965  1.9444
 4788SOL    HW225827   2.867   3.063   8.446 -0.3638  0.1066  0.6254
 4789SOL     OW25828   4.179   0.468   3.692 -0.1297 -0.1823  0.0425
 4789SOL    HW125829   4.140   0.492   3.776  0.4177 -0.2734  0.3255
 4789SOL    HW225830   4.273   0.483   3.706  0.5939 -2.7356 -2.2184
 4790SOL     OW25831   3.219   1.905  16.714 -0.0090 -0.1367  0.0606
 4790SOL    HW125832   3.197   1.989  16.674 -0.2643  0.1003  0.7073
 4790SOL    HW225833   3.312   1.894  16.698 -0.3385 -1.3136 -1.1181
 4791SOL     OW25834   0.843   2.218   7.539 -0.0355 -0.1972  0.0150
 4791SOL    HW125835   0.932   2.252   7.530 -0.3312 -0.0944 -2.5405
 4791SOL    HW225836   0.793   2.280   7.591  0.2950  0.6673 -0.7099
 4792SOL     OW25837   3.709   0.663   6.340  0.3796 -0.6745 -0.4663
 4792SOL    HW125838   3.623   0.690   6.306  0.8360 -1.2063 -2.0196
 4792SOL    HW225839   3.760   0.663   6.259 -0.9144  2.0209 -1.3088
 4793SOL     OW25840   2.645   4.632   9.332  0.1816 -0.0200  0.3737
 4793SOL    HW125841   2.716   4.651   9.271 -0.0273 -2.9452 -0.7500
 4793SOL    HW225842   2.568   4.624   9.276 -1.7981  0.6170  2.9828
 4794SOL     OW25843   4.502   1.500   7.927  0.3418  0.3457 -0.0732
 4794SOL    HW125844   4.451   1.549   7.863  0.1491  1.0775  0.6516
 4794SOL    HW225845   4.583   1.480   7.880 -0.2910  1.7107 -1.7304
 4795SOL     OW25846   2.671   3.119   0.292  0.0047  0.3380  0.2024
 4795SOL    HW125847   2.632   3.162   0.368 -1.0060 -0.3993  0.0924
 4795SOL    HW225848   2.607   3.134   0.223 -0.7919  1.6716  1.2239
 4796SOL     OW25849   1.494   3.042   7.633 -0.1924  0.0725  0.0717
 4796SOL    HW125850   1.433   2.989   7.685 -0.5725  1.3773  0.9333
 4796SOL    HW225851   1.469   3.128   7.666 -3.9482 -0.4439 -1.3840
 4797SOL     OW25852   4.160   2.773   8.805 -0.9545  0.1168 -0.6654
 4797SOL    HW125853   4.151   2.820   8.888  0.2972 -0.2847 -0.2992
 4797SOL    HW225854   4.142   2.843   8.742 -0.5359  1.3851  0.6233
 4798SOL     OW25855   1.068   1.097   3.075  0.2837 -0.6561 -0.4339
 4798SOL    HW125856   1.135   1.048   3.026  1.0441 -0.0665  0.0288
 4798SOL    HW225857   1.065   1.171   3.015 -2.4803  0.7763  1.5169
 4799SOL     OW25858   4.612   1.316  15.576 -0.7160 -0.0134  0.6044
 4799SOL    HW125859   4.673   1.253  15.612 -1.2729 -0.9030  0.0059
 4799SOL    HW225860   4.570   1.259  15.511 -1.0588  0.4050  0.4593
 4800SOL     OW25861   2.910   0.157  13.885 -0.8193 -0.9926  0.1615
 4800SOL    HW125862   2.862   0.231  13.924  0.8557  1.0512 -1.6028
 4800SOL    HW225863   2.918   0.191  13.796 -1.6588 -0.4558  0.2896
 4801SOL     OW25864   2.505   0.388   4.503 -0.2076 -0.3444  0.5890
 4801SOL    HW125865   2.551   0.435   4.433  0.4304 -1.0200  0.5528
 4801SOL    HW225866   2.585   0.362   4.549 -0.1915 -0.1875  0.6502
 4802SOL     OW25867   2.020   0.826   8.587  0.3873 -0.0319 -0.2507
 4802SOL    HW125868   1.928   0.850   8.593  0.2473 -0.3290 -1.2362
 4802SOL    HW225869   2.032   0.767   8.662 -1.8905  0.4090  0.4641
 4803SOL     OW25870   4.679   3.636   3.712 -0.2725 -0.0577  0.0943
 4803SOL    HW125871   0.009   3.705   3.680 -0.8117 -0.3208 -1.4264
 4803SOL    HW225872   0.008   3.584   3.770 -0.8244 -0.7010  0.0505
 4804SOL     OW25873   1.394   1.392   6.286 -0.1985  0.3028  0.1366
 4804SOL    HW125874   1.426   1.302   6.290 -1.6867 -0.1544  1.8785
 4804SOL    HW225875   1.371   1.407   6.378  1.9862 -0.0162  0.7152
 4805SOL     OW25876   4.213   1.890   7.910  0.4025 -0.0057  0.0454
 4805SOL    HW125877   4.129   1.892   7.957  0.4719  3.6658  0.0057
 4805SOL    HW225878   4.201   1.976   7.871  1.3159  0.0819 -0.0426
 4806SOL     OW25879   0.604   4.648  10.637 -0.3282 -0.1546 -0.0893
 4806SOL    HW125880   0.552   4.700  10.576  1.4478  1.6409 -0.0764
 4806SOL    HW225881   0.646   4.719  10.686 -1.9629 -1.3114  3.0090
 4807SOL     OW25882   0.827   0.335   8.845 -0.8309 -0.2101  0.2102
 4807SOL    HW125883   0.875   0.291   8.915  2.4344  1.9229 -0.6565
 4807SOL    HW225884   0.746   0.284   8.849 -0.8040 -0.3627 -1.0140
 4808SOL     OW25885   1.889   4.297   2.706  0.0256 -0.0310  0.0534
 4808SOL    HW125886   1.876   4.207   2.677  0.3281 -0.3324  0.8432
 4808SOL    HW225887   1.956   4.344   2.657 -0.6265  0.5531 -0.2793
 4809SOL     OW25888   1.594   2.513   4.416 -0.0815 -0.0965 -0.3366
 4809SOL    HW125889   1.615   2.551   4.501 -1.2571 -0.7695  0.2525
 4809SOL    HW225890   1.540   2.437   4.438 -0.2535  0.4708  1.1737
 4810SOL     OW25891   1.844   0.162   5.938 -0.1832 -0.0583 -0.3882
 4810SOL    HW125892   1.903   0.101   5.982 -2.4799 -1.1351  1.2471
 4810SOL    HW225893   1.902   0.215   5.883  1.5327 -1.9996 -0.4014
 4811SOL     OW25894   4.001   1.800   3.078 -0.3459  0.0565  0.2138
 4811SOL    HW125895   4.030   1.889   3.098 -0.3648  0.0384  0.3202
 4811SOL    HW225896   3.922   1.803   3.132 -0.1575  0.6302  0.4618
 4812SOL     OW25897   1.974   3.002  10.164 -0.7521 -0.0106  0.0519
 4812SOL    HW125898   1.922   3.074  10.130 -1.5316 -0.5998 -0.0087
 4812SOL    HW225899   1.970   2.937  10.093 -0.5259 -0.6160  0.5856
 4813SOL     OW25900   4.688   3.131   4.625 -0.5900 -0.0310 -0.2752
 4813SOL    HW125901   0.035   3.130   4.565  0.3903  3.5851  0.8543
 4813SOL    HW225902   4.708   3.192   4.696 -0.2017 -2.6177  1.8330
 4814SOL     OW25903   0.640   2.528   3.590  0.4722 -0.0519 -0.1549
 4814SOL    HW125904   0.662   2.595   3.655  0.8595 -1.0196  0.7032
 4814SOL    HW225905   0.549   2.551   3.571  0.3909  0.8722  1.3107
 4815SOL     OW25906   4.693   1.035   6.988 -0.4249 -0.7409  0.5520
 4815SOL    HW125907   4.717   1.104   7.050  0.6661 -0.3383 -0.3042
 4815SOL    HW225908   4.654   1.093   6.923 -0.2911 -0.6730  0.5317
 4816SOL     OW25909   0.373   2.900   8.520  0.0927  0.2516  0.2795
 4816SOL    HW125910   0.417   2.832   8.571 -0.1638 -0.0623  0.0846
 4816SOL    HW225911   0.308   2.851   8.470  0.5554 -0.3459  0.2608
 4817SOL     OW25912   4.724   3.170   3.892  0.2633 -0.0918  0.4794
 4817SOL    HW125913   0.045   3.249   3.916  1.1388 -1.3269  2.8276
 4817SOL    HW225914   0.042   3.140   3.813 -1.0899  0.8496 -0.6448
 4818SOL     OW25915   3.269   4.170   6.772 -0.1388 -0.1771  0.0836
 4818SOL    HW125916   3.294   4.078   6.779  0.5870  0.0728  0.7214
 4818SOL    HW225917   3.344   4.207   6.725 -1.6081  0.0665 -2.0817
 4819SOL     OW25918   0.859   3.243   0.919  0.1062 -0.2858 -0.1465
 4819SOL    HW125919   0.861   3.334   0.891  0.3498  0.0352  0.9215
 4819SOL    HW225920   0.953   3.230   0.932  0.4672  0.5320 -1.9946
 4820SOL     OW25921   0.355   2.506   3.810 -0.3421 -0.1445  0.0043
 4820SOL    HW125922   0.260   2.507   3.800 -0.3004  1.6212 -0.0953
 4820SOL    HW225923   0.367   2.601   3.813 -0.8146 -0.1245  1.0737
 4821SOL     OW25924   2.134   3.197  15.867 -0.3892 -0.6616 -0.0111
 4821SOL    HW125925   2.116   3.139  15.941  3.3073 -2.8826 -0.8526
 4821SOL    HW225926   2.045   3.205  15.833 -0.4211  0.0812  0.2569
 4822SOL     OW25927   0.157   4.217   5.817 -0.2913  0.0255  0.4151
 4822SOL    HW125928   0.151   4.312   5.817  0.2764  0.0677  1.8452
 4822SOL    HW225929   0.120   4.201   5.904  2.3260  0.0225  1.5267
 4823SOL     OW25930   1.826   3.012   4.538  0.1951  0.4709  0.1183
 4823SOL    HW125931   1.905   3.019   4.485  0.5116  0.8517  0.6404
 4823SOL    HW225932   1.778   2.937   4.501 -1.4135  0.3401  2.4445
 4824SOL     OW25933   2.279   3.529  11.942  0.7546 -1.1477 -0.4388
 4824SOL    HW125934   2.220   3.522  12.017  0.6218  0.3365 -0.4038
 4824SOL    HW225935   2.210   3.533  11.876  0.7743  1.7909 -0.2817
 4825SOL     OW25936   3.079   0.556   6.878 -0.4929 -0.2266  0.1101
 4825SOL    HW125937   3.086   0.568   6.784 -1.9457  1.3878  0.2172
 4825SOL    HW225938   3.162   0.591   6.912 -0.9077  1.0272 -0.1767
 4826SOL     OW25939   0.283   2.083   6.723 -0.5120  0.2766 -0.1783
 4826SOL    HW125940   0.188   2.089   6.712 -0.6581 -0.6606  0.5766
 4826SOL    HW225941   0.290   2.101   6.816 -2.0172  3.2412 -0.6546
 4827SOL     OW25942   0.469   1.938   9.146  0.4157  0.1463  0.2832
 4827SOL    HW125943   0.487   2.031   9.138 -0.5231  0.2870 -0.1570
 4827SOL    HW225944   0.555   1.913   9.180 -0.0048 -0.1914  1.0998
 4828SOL     OW25945   0.809   3.568  11.576  0.5221  0.2348 -0.5374
 4828SOL    HW125946   0.821   3.475  11.595  0.5790  0.2589 -0.4564
 4828SOL    HW225947   0.899   3.591  11.554  0.2649 -0.8737 -2.7791
 4829SOL     OW25948   4.233   2.662   2.360 -0.0076  0.1769  0.5911
 4829SOL    HW125949   4.241   2.699   2.272  1.7041 -1.9547 -0.1666
 4829SOL    HW225950   4.221   2.570   2.333 -0.6990  0.1422  1.0216
 4830SOL     OW25951   2.739   2.194   6.353  0.1585 -0.2424  0.0448
 4830SOL    HW125952   2.802   2.196   6.426  0.7603  0.6670 -0.5023
 4830SOL    HW225953   2.779   2.130   6.294 -1.2304 -0.0177 -1.1277
 4831SOL     OW25954   3.133   3.158   8.536  0.1249  0.0216  0.6607
 4831SOL    HW125955   3.165   3.072   8.510  1.9880  0.6559  0.8752
 4831SOL    HW225956   3.191   3.221   8.494  2.3493 -0.8461  2.4350
 4832SOL     OW25957   4.260   1.354   4.816 -0.3032  0.6895 -0.2204
 4832SOL    HW125958   4.217   1.423   4.865  0.5488  0.1119  1.3367
 4832SOL    HW225959   4.347   1.361   4.854 -0.5195 -1.0991  0.6090
 4833SOL     OW25960   1.931   3.150   6.700 -0.2703  0.0451 -1.0825
 4833SOL    HW125961   2.021   3.181   6.711 -0.8767  0.6436  2.0729
 4833SOL    HW225962   1.930   3.076   6.761  1.1579  1.4704  0.6545
 4834SOL     OW25963   2.084   4.143   1.706  0.0790  0.0663  0.5692
 4834SOL    HW125964   2.103   4.235   1.724  3.9686 -0.3306 -1.4676
 4834SOL    HW225965   2.166   4.100   1.732 -0.2353 -1.2750 -0.6629
 4835SOL     OW25966   3.777   2.587   7.349 -0.0769  0.1150 -0.8148
 4835SOL    HW125967   3.859   2.635   7.338  0.0538  0.0690 -0.0954
 4835SOL    HW225968   3.721   2.615   7.277 -1.2272  0.4431  0.2117
 4836SOL     OW25969   3.533   2.570   0.679 -0.2729 -0.4412  0.1019
 4836SOL    HW125970   3.446   2.553   0.716 -0.4828  0.5011  0.0412
 4836SOL    HW225971   3.590   2.529   0.744  0.4364  1.5830  0.7676
 4837SOL     OW25972   1.387   2.211  14.779  0.4339  0.3713  0.7028
 4837SOL    HW125973   1.383   2.280  14.713 -0.8662 -0.9160 -0.5797
 4837SOL    HW225974   1.467   2.165  14.757  0.7613  0.9681  0.6531
 4838SOL     OW25975   0.578   1.662   9.256  0.1054  0.7964 -0.2862
 4838SOL    HW125976   0.627   1.738   9.286  2.7542 -0.1579 -2.1550
 4838SOL    HW225977   0.652   1.601   9.264 -1.0981 -0.5572  0.5680
 4839SOL     OW25978   3.256   2.202   5.669 -0.2574  0.2425 -0.4003
 4839SOL    HW125979   3.240   2.284   5.624  0.0913  1.1914  1.2018
 4839SOL    HW225980   3.350   2.186   5.661 -0.5207 -2.1304  1.0377
 4840SOL     OW25981   1.498   3.749   3.884 -0.4508  0.0822  0.7014
 4840SOL    HW125982   1.464   3.758   3.795 -2.0323 -0.3757  1.2456
 4840SOL    HW225983   1.432   3.691   3.922 -0.8149 -0.8157 -1.3117
 4841SOL     OW25984   2.130   1.725   4.469  0.3502  0.5917  0.0923
 4841SOL    HW125985   2.134   1.746   4.562 -0.4154 -0.5918  0.3927
 4841SOL    HW225986   2.042   1.688   4.464  0.1492  1.3160 -1.5632
 4842SOL     OW25987   3.027   2.243   6.964 -0.0907 -0.3175  0.1759
 4842SOL    HW125988   3.006   2.186   6.890 -0.7898  1.7792 -1.2526
 4842SOL    HW225989   3.110   2.210   6.998  0.2144  1.8691  1.5451
 4843SOL     OW25990   0.077   0.428   9.317 -0.0207  0.7262  0.0220
 4843SOL    HW125991   0.069   0.339   9.352  1.1255  1.2586  1.6672
 4843SOL    HW225992   0.172   0.437   9.309 -0.2070  2.0659 -0.7512
 4844SOL     OW25993   0.809   4.706  16.482 -0.6298 -0.0605 -0.9437
 4844SOL    HW125994   0.801   0.062  16.436  0.4823 -0.2818 -1.5425
 4844SOL    HW225995   0.825   4.644  16.411  1.6803 -0.0654 -0.4234
 4845SOL     OW25996   2.021   0.384   7.656  0.2811  0.2709 -0.2502
 4845SOL    HW125997   2.092   0.432   7.615  0.4432 -1.1592 -1.6714
 4845SOL    HW225998   1.949   0.412   7.599 -0.5084  2.5241  1.8632
 4846SOL     OW25999   3.855   2.020   6.052  0.2131  0.0313 -0.2050
 4846SOL    HW126000   3.928   2.042   5.994  1.2800 -0.5781  0.9140
 4846SOL    HW226001   3.797   2.079   6.004 -0.6085  0.5282  1.4289
 4847SOL     OW26002   3.237   2.733   5.831  0.5165  0.0489  0.2615
 4847SOL    HW126003   3.167   2.668   5.834  0.1895  0.4166  0.6457
 4847SOL    HW226004   3.205   2.812   5.875 -1.3413 -0.2808 -0.4755
 4848SOL     OW26005   3.941   3.287   6.156  0.0381  0.2582  0.2282
 4848SOL    HW126006   4.022   3.245   6.129  0.9667  0.7875  2.1860
 4848SOL    HW226007   3.949   3.294   6.251  0.8819  0.2534  0.1548
 4849SOL     OW26008   1.182   3.163   2.192 -0.2514 -0.3166  0.7784
 4849SOL    HW126009   1.116   3.232   2.182  1.3847  1.0106 -0.9280
 4849SOL    HW226010   1.236   3.197   2.263  0.2993 -1.6806  1.0030
 4850SOL     OW26011   4.353   2.403   8.118 -0.2171  0.2930 -0.5446
 4850SOL    HW126012   4.353   2.461   8.195  1.6787 -2.0499  1.2256
 4850SOL    HW226013   4.447   2.391   8.105 -0.1597 -2.3748  2.4923
 4851SOL     OW26014   4.097   0.855   1.676  0.6588  0.6019  0.3262
 4851SOL    HW126015   4.183   0.814   1.673 -0.5312 -1.6751 -2.3597
 4851SOL    HW226016   4.066   0.837   1.587  2.3581  0.7657 -0.2936
 4852SOL     OW26017   1.001   3.974   5.502 -0.1699 -0.5570 -0.3990
 4852SOL    HW126018   1.063   3.909   5.470 -0.3426 -1.0082  0.1756
 4852SOL    HW226019   0.947   3.986   5.424  2.7123 -0.3074 -2.3225
 4853SOL     OW26020   1.719   2.580   7.782 -0.7031  0.2524 -1.0219
 4853SOL    HW126021   1.711   2.675   7.771 -0.5997  0.2107 -1.4201
 4853SOL    HW226022   1.761   2.567   7.698  2.1148 -0.1310  0.4328
 4854SOL     OW26023   1.372   1.500   7.144  0.2676 -0.4192  0.1516
 4854SOL    HW126024   1.348   1.407   7.145 -1.3130  0.0036  1.3202
 4854SOL    HW226025   1.324   1.535   7.069 -1.0726 -1.0105  0.7475
 4855SOL     OW26026   1.694   1.077   0.606 -0.3263 -0.3154  0.5991
 4855SOL    HW126027   1.664   1.111   0.522 -0.4625 -0.1735  0.7041
 4855SOL    HW226028   1.775   1.128   0.616 -0.7978  0.4481  0.5371
 4856SOL     OW26029   1.934   2.185   4.875 -0.1067  0.0035  0.0406
 4856SOL    HW126030   2.026   2.207   4.892 -0.2186  0.6822 -0.2295
 4856SOL    HW226031   1.919   2.152   4.964 -0.6720 -2.7299 -1.1048
 4857SOL     OW26032   4.219   3.794   5.107 -0.1241 -0.7610  0.9521
 4857SOL    HW126033   4.196   3.861   5.171 -1.3299 -1.1995  0.9709
 4857SOL    HW226034   4.214   3.717   5.164 -0.6990 -2.3194 -1.1939
 4858SOL     OW26035   2.025   0.213  14.092  0.1140  0.0798 -0.0779
 4858SOL    HW126036   2.044   0.307  14.091 -0.3948  0.1779 -0.3555
 4858SOL    HW226037   1.980   0.209  14.008  1.0010  1.3081 -0.6184
 4859SOL     OW26038   0.330   2.865   2.333  0.0594  0.0944  0.2815
 4859SOL    HW126039   0.324   2.836   2.242 -1.3834  2.2227 -0.3058
 4859SOL    HW226040   0.354   2.791   2.388  1.2321 -0.3142 -0.7963
 4860SOL     OW26041   0.894   2.817  16.957 -0.3246  0.5762  0.0829
 4860SOL    HW126042   0.867   2.864  17.036 -1.3130  0.8536 -0.4221
 4860SOL    HW226043   0.867   2.727  16.973 -2.1653  1.4693  1.9800
 4861SOL     OW26044   3.564   1.487   6.855 -0.2363  0.3058  0.1631
 4861SOL    HW126045   3.469   1.485   6.843 -0.1740 -0.1238 -0.2883
 4861SOL    HW226046   3.594   1.571   6.820  0.1083  0.9413  1.9880
 4862SOL     OW26047   0.818   3.678  11.825  0.1860 -0.5012  0.4741
 4862SOL    HW126048   0.773   3.761  11.813  0.7151 -0.2549  0.2137
 4862SOL    HW226049   0.809   3.647  11.734 -1.3520  2.2173 -0.2846
 4863SOL     OW26050   3.879   0.952  13.664  0.4308 -0.5088 -0.6762
 4863SOL    HW126051   3.885   0.858  13.676  0.4623 -0.1231  2.3241
 4863SOL    HW226052   3.787   0.971  13.680  0.1868 -1.0321 -1.5079
 4864SOL     OW26053   0.310   1.725  12.774  0.2941  0.1671 -0.9543
 4864SOL    HW126054   0.377   1.748  12.709  0.2155 -0.0644 -1.1149
 4864SOL    HW226055   0.319   1.794  12.840 -1.0827  1.0343 -1.6752
 4865SOL     OW26056   0.430   4.302   6.998 -1.0207 -0.2976  0.2567
 4865SOL    HW126057   0.480   4.382   6.987 -1.9468  0.2233 -0.1512
 4865SOL    HW226058   0.478   4.272   7.075 -1.9816 -2.4375  0.0374
 4866SOL     OW26059   4.046   2.496   2.028 -0.1583  0.1485  0.1625
 4866SOL    HW126060   4.106   2.426   2.000 -0.0252  0.1679  0.4026
 4866SOL    HW226061   4.046   2.490   2.123 -1.0240  0.1360  0.1632
 4867SOL     OW26062   1.982   2.034  11.735  0.1045  0.1125  0.4617
 4867SOL    HW126063   2.050   1.971  11.711 -1.7239 -1.8636  0.3967
 4867SOL    HW226064   2.022   2.116  11.764  0.3243 -0.3010  1.3172
 4868SOL     OW26065   1.790   0.397   3.489 -0.0704 -0.0741  0.1365
 4868SOL    HW126066   1.731   0.459   3.446  2.3576  0.9076 -1.8357
 4868SOL    HW226067   1.792   0.326   3.425 -1.4094  1.3813 -1.5318
 4869SOL     OW26068   2.357   2.322  13.063  0.3226 -0.2066 -0.2762
 4869SOL    HW126069   2.442   2.326  13.019 -1.2529  0.7776 -3.2353
 4869SOL    HW226070   2.348   2.411  13.097 -0.5052  0.2540 -1.6915
 4870SOL     OW26071   0.888   4.355  11.101  0.2599 -0.2396  0.0303
 4870SOL    HW126072   0.934   4.417  11.157 -0.8645 -1.5339  2.4044
 4870SOL    HW226073   0.859   4.277  11.148  0.0737 -1.4996 -2.2184
 4871SOL     OW26074   0.989   1.272   6.933 -0.0250  0.3053  0.3585
 4871SOL    HW126075   0.929   1.337   6.898  1.3485  1.5630  0.3523
 4871SOL    HW226076   0.938   1.248   7.010 -1.4882 -0.3954 -0.8276
 4872SOL     OW26077   4.240   1.996   6.076  0.0957  0.1988  0.0052
 4872SOL    HW126078   4.204   1.915   6.037  0.9368  0.4885 -1.3592
 4872SOL    HW226079   4.301   1.957   6.138 -2.3444 -1.1582  1.5962
 4873SOL     OW26080   0.305   1.380   2.442 -0.1615  0.1386  0.4970
 4873SOL    HW126081   0.388   1.375   2.491  1.1391  2.3559 -1.4619
 4873SOL    HW226082   0.346   1.390   2.356  1.2102  0.0404  1.1398
 4874SOL     OW26083   1.579   3.003   5.832  0.2812 -0.1052  0.4352
 4874SOL    HW126084   1.556   2.920   5.874  1.7043  0.1139  1.6311
 4874SOL    HW226085   1.654   3.028   5.886  0.3563  2.7953 -1.0282
 4875SOL     OW26086   3.016   1.869   2.897  0.0229 -0.0662 -0.0522
 4875SOL    HW126087   3.101   1.881   2.939 -0.0580 -0.4558  0.2312
 4875SOL    HW226088   3.039   1.811   2.824 -1.7513 -1.5338  0.5358
 4876SOL     OW26089   2.064   1.801   8.020 -0.2251  0.4768  0.6317
 4876SOL    HW126090   1.993   1.750   8.057  0.2206  1.0803  2.2965
 4876SOL    HW226091   2.080   1.747   7.942 -0.6465 -0.5421  1.2584
 4877SOL     OW26092   3.853   0.306  12.418  0.6148  0.2012 -0.2538
 4877SOL    HW126093   3.828   0.214  12.430 -0.7563  0.9817  2.6218
 4877SOL    HW226094   3.771   0.354  12.411  0.4530 -0.0273  0.1285
 4878SOL     OW26095   0.123   0.300   3.423 -0.5076  0.1751 -0.1252
 4878SOL    HW126096   0.039   0.288   3.465 -0.6439  0.3889 -0.3321
 4878SOL    HW226097   0.121   0.235   3.352 -1.4159 -1.8241  1.7384
 4879SOL     OW26098   2.896   4.115   5.107 -0.2068 -1.0048  0.2165
 4879SOL    HW126099   2.886   4.048   5.040 -0.0540  0.9859 -1.8058
 4879SOL    HW226100   2.989   4.135   5.116 -0.3312  0.0522 -0.8255
 4880SOL     OW26101   2.278   2.775   3.656  0.0609  0.0687 -0.1119
 4880SOL    HW126102   2.318   2.770   3.743 -1.0026  1.7403  0.4723
 4880SOL    HW226103   2.346   2.830   3.617 -1.0692  0.3210 -1.7588
 4881SOL     OW26104   4.679   2.027   5.964  0.4935  0.2267 -0.5610
 4881SOL    HW126105   4.696   1.992   5.877  0.2053 -0.5475 -0.3074
 4881SOL    HW226106   0.034   2.069   5.990  0.4183 -0.3776  0.6768
 4882SOL     OW26107   2.115   4.342   0.282  0.3506 -0.1236 -0.3758
 4882SOL    HW126108   2.120   4.319   0.374 -0.0804  1.9515  0.1677
 4882SOL    HW226109   2.209   4.342   0.266  1.0339 -0.2779  3.6447
 4883SOL     OW26110   3.374   0.420  14.688 -0.1533 -0.1131 -0.2146
 4883SOL    HW126111   3.347   0.474  14.614 -0.9206  1.4872  1.2506
 4883SOL    HW226112   3.425   0.481  14.740  0.0155 -0.6416  0.2437
 4884SOL     OW26113   2.357   2.909   6.992  0.3164  0.4121 -0.2563
 4884SOL    HW126114   2.264   2.902   7.010  0.2811  0.0350 -0.5899
 4884SOL    HW226115   2.393   2.821   7.002  1.2591  0.7647 -0.5475
 4885SOL     OW26116   2.447   1.263   4.638 -0.3289 -0.2298 -0.0058
 4885SOL    HW126117   2.437   1.305   4.553  0.5012  0.7255  0.3797
 4885SOL    HW226118   2.355   1.243   4.658  0.2445 -1.2111  1.6736
 4886SOL     OW26119   4.314   2.725  12.473  0.6674 -0.1999  0.3208
 4886SOL    HW126120   4.267   2.671  12.536  2.6259 -3.0956 -0.6972
 4886SOL    HW226121   4.274   2.688  12.394 -1.8061 -2.6956  2.7721
 4887SOL     OW26122   4.322   0.746   5.230 -0.4384  0.5169 -0.2088
 4887SOL    HW126123   4.402   0.760   5.281  0.0563  1.4898 -1.2397
 4887SOL    HW226124   4.335   0.667   5.178 -0.4678  0.4414 -0.1007
 4888SOL     OW26125   0.355   0.697   0.533  0.4781 -0.0540 -0.2387
 4888SOL    HW126126   0.295   0.627   0.560  1.6436 -1.1416 -0.4345
 4888SOL    HW226127   0.302   0.775   0.547 -1.0062 -1.1128  0.0991
 4889SOL     OW26128   3.454   3.039   5.547 -0.1650  0.0375 -0.6061
 4889SOL    HW126129   3.428   3.132   5.541 -0.4575  0.0014  0.1054
 4889SOL    HW226130   3.460   3.042   5.643  1.0935  1.9883 -0.7516
 4890SOL     OW26131   3.513   2.464   3.182  0.2167  0.0715  0.5997
 4890SOL    HW126132   3.486   2.374   3.198  0.5031 -0.3841 -1.4717
 4890SOL    HW226133   3.571   2.458   3.106  0.1940  1.9320  0.4304
 4891SOL     OW26134   2.978   0.559   7.543  0.4364 -0.0484 -0.1175
 4891SOL    HW126135   2.908   0.499   7.569  1.0682 -0.4993  0.5954
 4891SOL    HW226136   3.050   0.522   7.595 -2.2775 -1.3774  2.7116
 4892SOL     OW26137   2.531   3.890   1.539 -0.0841 -0.0508  0.0714
 4892SOL    HW126138   2.592   3.918   1.606 -0.7654  3.1517 -0.6547
 4892SOL    HW226139   2.495   3.974   1.512  0.5179  0.2907  0.3489
 4893SOL     OW26140   2.743   4.042  17.203  0.4417 -0.9965  0.0784
 4893SOL    HW126141   2.791   4.018  17.123  0.7445  2.1341 -0.6536
 4893SOL    HW226142   2.651   4.047  17.174  0.0844 -1.1957  1.1885
 4894SOL     OW26143   0.334   0.880   6.027 -0.1258 -0.1226 -0.0131
 4894SOL    HW126144   0.285   0.962   6.021 -0.2545 -0.1028  1.4090
 4894SOL    HW226145   0.266   0.819   6.053 -1.2474  1.5321  0.9261
 4895SOL     OW26146   4.524   1.916   3.222  0.7531  0.3442 -0.3724
 4895SOL    HW126147   4.597   1.912   3.284 -1.4293  0.5469  2.1827
 4895SOL    HW226148   4.483   1.829   3.230 -0.9165  1.1091 -0.5551
 4896SOL     OW26149   2.152   2.494   2.454 -0.6587  0.1405  0.0185
 4896SOL    HW126150   2.120   2.483   2.544 -1.5718  3.0881  0.0575
 4896SOL    HW226151   2.222   2.557   2.466 -1.0763  0.3790  1.1984
 4897SOL     OW26152   3.299   2.749   7.351  0.1019  0.0777  0.8416
 4897SOL    HW126153   3.207   2.729   7.332  0.2159 -0.5766  0.9827
 4897SOL    HW226154   3.328   2.812   7.285 -0.7625 -2.0343 -1.5570
 4898SOL     OW26155   2.486   0.813   2.804 -0.3621  0.1334 -0.0268
 4898SOL    HW126156   2.526   0.842   2.886 -2.8090  0.1228  1.1676
 4898SOL    HW226157   2.536   0.732   2.794  0.1261  0.5704 -1.1987
 4899SOL     OW26158   4.397   3.401   9.135 -0.5303 -0.7852 -0.1088
 4899SOL    HW126159   4.307   3.433   9.128  1.0861  3.2828 -2.4554
 4899SOL    HW226160   4.400   3.367   9.225 -0.5805  2.2973  1.0884
 4900SOL     OW26161   0.698   0.599   8.253  0.4393  0.0639  0.0594
 4900SOL    HW126162   0.741   0.684   8.260 -0.1883  0.1393  2.7278
 4900SOL    HW226163   0.764   0.554   8.199 -2.2229 -3.2804 -0.3834
 4901SOL     OW26164   1.520   1.467   6.845 -0.1038  0.3189  0.5946
 4901SOL    HW126165   1.434   1.429   6.828 -0.2863  0.7334  0.5924
 4901SOL    HW226166   1.565   1.412   6.909  2.5319  0.4599 -1.1241
 4902SOL     OW26167   0.849   0.602  10.962  0.3352  0.2505 -0.1761
 4902SOL    HW126168   0.806   0.650  10.891 -0.0664  2.1387  1.3107
 4902SOL    HW226169   0.936   0.597  10.924  1.2765 -0.2524  2.0142
 4903SOL     OW26170   4.004   4.167   4.591 -0.0818  0.3910  0.3900
 4903SOL    HW126171   3.979   4.241   4.535  1.2131  0.4626 -0.0916
 4903SOL    HW226172   3.957   4.097   4.547 -1.2581 -0.1323  2.4850
 4904SOL     OW26173   1.483   2.035   7.543 -0.0889 -0.0569  0.4666
 4904SOL    HW126174   1.543   2.019   7.615  1.4564  0.6188 -0.6646
 4904SOL    HW226175   1.455   2.124   7.565 -0.9081 -0.0399 -0.6408
 4905SOL     OW26176   1.730   0.029   8.276  0.3982  0.5275 -0.0961
 4905SOL    HW126177   1.809   0.027   8.330  0.3735 -0.4124 -0.0991
 4905SOL    HW226178   1.728   4.661   8.273 -0.9484  0.5398  0.2108
 4906SOL     OW26179   0.648   3.942  13.035  0.7988  0.5283 -0.1909
 4906SOL    HW126180   0.707   3.963  12.962  0.6063  0.8481 -0.2577
 4906SOL    HW226181   0.702   3.932  13.113  0.2924  2.2152  0.3853
 4907SOL     OW26182   2.159   2.934   2.450 -0.3186 -0.3986  0.0388
 4907SOL    HW126183   2.121   2.892   2.373  1.1932 -0.4767 -0.6680
 4907SOL    HW226184   2.231   2.975   2.401 -0.4642  2.3849  2.1675
 4908SOL     OW26185   3.640   1.195   7.833  0.0011  0.1254 -0.0802
 4908SOL    HW126186   3.556   1.161   7.802 -1.7267  2.8590  1.5222
 4908SOL    HW226187   3.606   1.247   7.907 -1.6468 -0.1006 -0.6927
 4909SOL     OW26188   2.358   4.103   6.593  0.0697  0.3038  0.3320
 4909SOL    HW126189   2.319   4.093   6.506  1.8964  0.8503 -0.5570
 4909SOL    HW226190   2.292   4.153   6.640  0.5033  1.5153 -0.3471
 4910SOL     OW26191   3.064   2.025   5.925  0.1618  0.5106 -0.1555
 4910SOL    HW126192   3.092   1.942   5.964  1.1130  1.2079  0.6653
 4910SOL    HW226193   3.145   2.074   5.943  0.3000  0.3242 -0.2742
 4911SOL     OW26194   4.240   2.054  12.172  0.4687  0.5153 -0.4064
 4911SOL    HW126195   4.193   2.031  12.253  1.8435 -2.6090 -0.4928
 4911SOL    HW226196   4.329   2.051  12.207 -0.1116 -2.2558  0.8597
 4912SOL     OW26197   4.487   1.973  15.818 -0.3919  0.0571 -0.3896
 4912SOL    HW126198   4.455   1.975  15.728  2.6351  1.0915 -1.4574
 4912SOL    HW226199   4.561   2.034  15.809 -0.2997  0.0218  0.1255
 4913SOL     OW26200   1.691   1.814   6.137 -0.5004 -0.3266 -0.2307
 4913SOL    HW126201   1.659   1.743   6.193 -0.6676  0.8817  1.2013
 4913SOL    HW226202   1.639   1.802   6.057 -1.3052  1.7659 -0.0028
 4914SOL     OW26203   0.226   0.756  12.989 -0.0290  0.2030  0.2537
 4914SOL    HW126204   0.222   0.747  12.894 -1.2177  1.4979  0.1864
 4914SOL    HW226205   0.143   0.795  13.014 -0.7763 -2.0159  1.2289
 4915SOL     OW26206   0.293   0.093   5.690 -0.1100 -0.1325 -0.8013
 4915SOL    HW126207   0.343   0.087   5.609  1.6824 -0.8992  0.3434
 4915SOL    HW226208   0.226   0.154   5.660  0.5224  1.0063  0.0696
 4916SOL     OW26209   3.567   2.276   4.081 -0.3295 -0.0010  0.1558
 4916SOL    HW126210   3.535   2.319   4.002 -0.1394  1.8151  1.0705
 4916SOL    HW226211   3.594   2.351   4.133 -0.8605 -0.6212  1.3163
 4917SOL     OW26212   2.107   1.662  14.211 -0.1239  0.2986  0.0578
 4917SOL    HW126213   2.182   1.665  14.271 -0.3046 -2.6822  0.4392
 4917SOL    HW226214   2.068   1.584  14.250  1.2824  0.6457  2.1814
 4918SOL     OW26215   1.723   0.178   4.865 -0.3076  0.1797 -0.2527
 4918SOL    HW126216   1.693   0.104   4.811 -0.0610  1.3448 -1.9662
 4918SOL    HW226217   1.816   0.158   4.874 -0.3099  0.5308  0.5229
 4919SOL     OW26218   1.404   1.630   0.812  0.2038  0.1007 -0.4219
 4919SOL    HW126219   1.353   1.571   0.757 -1.4503  2.1464 -1.0541
 4919SOL    HW226220   1.450   1.564   0.865  1.2151  2.8342  2.1234
 4920SOL     OW26221   2.416   2.912   4.952  0.1549 -0.1500  0.1586
 4920SOL    HW126222   2.344   2.850   4.939  1.8958 -1.9576 -0.7063
 4920SOL    HW226223   2.476   2.862   5.008  0.0111  0.5942  0.9754
 4921SOL     OW26224   2.384   3.775   4.381  0.9126 -0.2651  0.1422
 4921SOL    HW126225   2.435   3.798   4.459  0.3532 -1.6080  0.9062
 4921SOL    HW226226   2.336   3.695   4.401  0.3312 -0.3490 -1.6366
 4922SOL     OW26227   2.131   0.358   7.177 -0.5345 -0.3466  0.1075
 4922SOL    HW126228   2.197   0.413   7.220 -0.8708  1.0319 -1.1334
 4922SOL    HW226229   2.115   0.408   7.097  1.1985 -0.9026 -0.5875
 4923SOL     OW26230   4.019   2.761  12.054 -0.0704  0.3494 -0.4114
 4923SOL    HW126231   3.931   2.772  12.092  0.8018  0.0963  1.6729
 4923SOL    HW226232   4.046   2.853  12.061  1.0294 -0.0324  0.2230
 4924SOL     OW26233   2.215   4.301   0.555 -0.3806 -0.4867  0.5470
 4924SOL    HW126234   2.274   4.250   0.611 -0.1127 -0.8825 -0.0964
 4924SOL    HW226235   2.262   4.383   0.542 -3.8012  1.2857 -0.6014
 4925SOL     OW26236   0.759   2.092  15.699  0.9701  0.2896  0.1256
 4925SOL    HW126237   0.848   2.121  15.722  0.6502  1.9734 -0.8228
 4925SOL    HW226238   0.750   2.011  15.749  0.8660 -0.5185 -1.2225
 4926SOL     OW26239   0.900   0.507   2.383  0.2622 -0.0796  0.4008
 4926SOL    HW126240   0.939   0.429   2.344 -0.9782 -0.9880  0.9683
 4926SOL    HW226241   0.808   0.489   2.363 -0.1782  1.3185  1.1606
 4927SOL     OW26242   2.503   2.038  14.859  0.2068  0.1081  0.1681
 4927SOL    HW126243   2.472   2.068  14.944 -1.6571 -2.6584  0.4874
 4927SOL    HW226244   2.488   2.112  14.800  1.3259  2.0424  2.2927
 4928SOL     OW26245   0.033   4.654   7.155 -0.5708  0.3759 -0.3199
 4928SOL    HW126246   0.058   4.566   7.181 -2.2332 -1.3332 -4.4231
 4928SOL    HW226247   4.668   4.631   7.144  0.2181 -3.5762  1.4777
 4929SOL     OW26248   2.473   1.764   8.032 -0.2861 -0.1116 -0.1558
 4929SOL    HW126249   2.454   1.834   7.969 -0.7643 -1.1230 -1.1348
 4929SOL    HW226250   2.455   1.682   7.986 -1.8438  0.3216 -0.3127
 4930SOL     OW26251   2.011   1.901   6.912 -0.3053  0.9586 -0.2694
 4930SOL    HW126252   2.029   1.985   6.869  0.0314  1.0827  0.1127
 4930SOL    HW226253   1.926   1.915   6.953 -1.1209 -1.8896 -0.9885
 4931SOL     OW26254   4.521   2.966   9.698  0.1107 -0.7747  0.3417
 4931SOL    HW126255   4.544   2.920   9.779 -0.2600 -2.0720 -0.2806
 4931SOL    HW226256   4.569   3.049   9.702 -0.2319 -0.5912  0.5832
 4932SOL     OW26257   2.698   3.444   9.419 -0.0323 -0.1208 -0.0171
 4932SOL    HW126258   2.689   3.411   9.508  0.5200 -0.5583 -0.1204
 4932SOL    HW226259   2.769   3.388   9.387 -0.4358  0.2114 -1.4953
 4933SOL     OW26260   3.926   1.485   2.297 -0.1202 -0.6690  0.2441
 4933SOL    HW126261   3.865   1.481   2.224  0.4457  0.7214 -0.3019
 4933SOL    HW226262   3.948   1.395   2.323 -0.2865 -0.1971  1.9640
 4934SOL     OW26263   4.295   0.354   7.380  0.1125  0.1298  0.5777
 4934SOL    HW126264   4.291   0.445   7.348  3.5576  0.3045  0.5635
 4934SOL    HW226265   4.261   0.364   7.469 -1.0695  0.7218  0.0554
 4935SOL     OW26266   1.683   3.695   5.076 -0.5275  0.3483 -0.2967
 4935SOL    HW126267   1.708   3.705   4.984 -0.7037 -1.7998 -0.5846
 4935SOL    HW226268   1.744   3.756   5.117 -2.6718  2.3833 -0.1395
 4936SOL     OW26269   4.216   3.629   2.959 -0.4231 -1.1377 -0.5798
 4936SOL    HW126270   4.261   3.566   2.903  3.8646  0.5257  0.9903
 4936SOL    HW226271   4.153   3.671   2.900  2.7813  0.9833 -2.5356
 4937SOL     OW26272   2.309   4.460   3.882 -0.4937 -0.1259  0.8673
 4937SOL    HW126273   2.370   4.480   3.812 -1.0384 -0.3153  0.3375
 4937SOL    HW226274   2.224   4.501   3.864 -0.7666 -0.1291  2.1157
 4938SOL     OW26275   0.407   3.494   0.782 -0.0999 -0.0221 -0.1055
 4938SOL    HW126276   0.448   3.467   0.864  1.4583  0.5150 -0.7101
 4938SOL    HW226277   0.327   3.444   0.798  0.2647  0.2492  2.5717
 4939SOL     OW26278   1.908   2.928   3.412  0.6338  0.3433 -0.7634
 4939SOL    HW126279   1.858   2.991   3.464  2.4673  0.7407  0.5158
 4939SOL    HW226280   1.867   2.843   3.425  0.1169  1.0872  2.4953
 4940SOL     OW26281   4.646   3.171   0.633 -0.4772  0.0359  0.3629
 4940SOL    HW126282   4.599   3.090   0.612 -1.3988  0.2014  1.8106
 4940SOL    HW226283   4.576   3.230   0.660 -1.4718 -0.9633 -0.0288
 4941SOL     OW26284   2.981   1.983   2.580 -0.1843  0.3567  0.1175
 4941SOL    HW126285   2.887   2.001   2.584 -0.0709  0.9194  0.2496
 4941SOL    HW226286   3.018   2.071   2.583  0.1385  0.2941 -2.1708
 4942SOL     OW26287   1.651   0.680   6.256 -0.0393  0.4959 -0.3359
 4942SOL    HW126288   1.713   0.612   6.231 -0.9855 -0.8391  0.9816
 4942SOL    HW226289   1.697   0.755   6.218  1.1253  0.7007  1.4973
 4943SOL     OW26290   2.034   1.696  11.018 -0.6872  0.7762 -0.2224
 4943SOL    HW126291   2.071   1.631  10.957 -2.3777  0.9536 -1.4240
 4943SOL    HW226292   2.026   1.777  10.967  3.0204  0.9556 -0.5703
 4944SOL     OW26293   2.469   3.238   8.308  0.7650 -0.2247  0.5046
 4944SOL    HW126294   2.396   3.210   8.364  0.6529 -0.8686  0.0296
 4944SOL    HW226295   2.473   3.333   8.319 -0.7238 -0.0761 -0.2045
 4945SOL     OW26296   3.855   4.331   7.468 -0.2734  0.3045 -0.2767
 4945SOL    HW126297   3.924   4.388   7.434 -0.6342 -0.9503 -3.1509
 4945SOL    HW226298   3.872   4.347   7.561  0.3377 -3.4134  0.2379
 4946SOL     OW26299   0.242   0.028   6.998  0.1928  0.0038 -0.1814
 4946SOL    HW126300   0.229   4.713   6.913 -0.0770  1.2561 -0.7586
 4946SOL    HW226301   0.172   4.717   7.051 -1.0606  0.6270 -1.3625
 4947SOL     OW26302   2.242   3.821  14.460  0.2364 -0.0378  0.0439
 4947SOL    HW126303   2.279   3.906  14.484 -0.2328  0.6318 -1.5717
 4947SOL    HW226304   2.152   3.852  14.447  0.1477 -0.5725 -0.6071
 4948SOL     OW26305   1.179   1.026   8.759  0.4118  0.0074 -0.5246
 4948SOL    HW126306   1.111   0.980   8.709  1.8386 -1.9669 -0.6576
 4948SOL    HW226307   1.200   0.950   8.813 -0.7609 -1.7529 -2.5398
 4949SOL     OW26308   2.950   0.351   6.985  0.4990  0.5681 -0.0157
 4949SOL    HW126309   2.993   0.427   6.946  0.4572  1.0145  0.8236
 4949SOL    HW226310   2.954   0.284   6.916  1.2706 -0.6533  1.2043
 4950SOL     OW26311   2.485   3.202   9.502 -0.1411  0.2578  0.1235
 4950SOL    HW126312   2.512   3.244   9.420 -3.2493 -0.9084 -1.4927
 4950SOL    HW226313   2.522   3.262   9.566 -1.0886  1.0040 -0.0333
 4951SOL     OW26314   4.186   0.769   4.589 -0.1167  0.0587 -0.2643
 4951SOL    HW126315   4.207   0.807   4.675  0.4595  0.2940 -0.5084
 4951SOL    HW226316   4.127   0.839   4.564  1.1079  0.8556 -0.9248
 4952SOL     OW26317   4.356   1.447   2.831  0.8709 -0.3226  0.3103
 4952SOL    HW126318   4.321   1.498   2.758  1.5721 -0.5767 -0.2099
 4952SOL    HW226319   4.307   1.486   2.903  1.1787 -0.5299  0.6364
 4953SOL     OW26320   0.529   1.640   3.308  0.4340  0.3852 -0.3595
 4953SOL    HW126321   0.611   1.589   3.310  0.2667  0.0992 -0.7298
 4953SOL    HW226322   0.466   1.578   3.345 -1.9867  2.9803 -0.1527
 4954SOL     OW26323   2.908   2.256  16.740 -0.6367  0.7616 -0.0233
 4954SOL    HW126324   2.819   2.286  16.725 -0.5779  0.8869 -0.1181
 4954SOL    HW226325   2.910   2.233  16.833  0.3251  0.9196 -0.0037
 4955SOL     OW26326   3.386   3.479  14.664 -0.1089 -0.1590  0.4937
 4955SOL    HW126327   3.355   3.394  14.632 -0.7873  1.1552 -2.2920
 4955SOL    HW226328   3.331   3.543  14.619  0.2978 -0.5906 -0.6028
 4956SOL     OW26329   1.736   4.191   0.742  0.0772  0.1902  0.3017
 4956SOL    HW126330   1.718   4.282   0.766 -3.4321 -0.5214  0.3087
 4956SOL    HW226331   1.779   4.201   0.657  1.9078 -2.9719  0.8603
 4957SOL     OW26332   3.013   1.669   1.272 -0.9204  0.4189  0.5858
 4957SOL    HW126333   2.942   1.724   1.239  0.7181  1.8043 -0.6226
 4957SOL    HW226334   2.978   1.580   1.261  0.9919 -0.1869 -0.5150
 4958SOL     OW26335   0.084   2.501  12.820  0.6312  0.9250 -0.2667
 4958SOL    HW126336   0.143   2.533  12.751 -2.1304  0.2471 -2.9149
 4958SOL    HW226337   0.024   2.448  12.768  0.3888  0.0974  0.8429
 4959SOL     OW26338   0.724   0.876  16.250 -0.6314 -0.0051 -0.0774
 4959SOL    HW126339   0.671   0.869  16.329 -0.1365  3.6746  0.6040
 4959SOL    HW226340   0.656   0.877  16.183 -1.6517 -3.3918  0.9453
 4960SOL     OW26341   1.660   3.352   5.543 -0.5171  0.3881 -0.5027
 4960SOL    HW126342   1.638   3.334   5.634 -0.5129 -1.1490 -0.8139
 4960SOL    HW226343   1.575   3.393   5.526 -0.4695  0.4404 -0.6202
 4961SOL     OW26344   1.143   1.901   3.104  0.4045  0.1301 -0.0397
 4961SOL    HW126345   1.167   1.808   3.112 -0.3864 -0.2116 -1.7559
 4961SOL    HW226346   1.077   1.911   3.035 -0.3817  0.4056  0.7500
 4962SOL     OW26347   3.319   3.004   8.399 -0.4883 -0.0502  0.4794
 4962SOL    HW126348   3.271   3.041   8.325 -0.2824  1.2410  0.9982
 4962SOL    HW226349   3.333   2.917   8.360 -1.0776  0.1047 -0.0721
 4963SOL     OW26350   2.753   1.575  11.514 -0.0519 -0.5293 -0.0868
 4963SOL    HW126351   2.749   1.552  11.607 -1.5170 -1.6231 -0.4070
 4963SOL    HW226352   2.663   1.554  11.489  0.2487  0.2187 -1.7725
 4964SOL     OW26353   0.360   4.514   6.713 -0.4530 -0.0552 -0.2714
 4964SOL    HW126354   0.353   4.493   6.620  2.4229 -0.7191 -0.3528
 4964SOL    HW226355   0.386   4.607   6.710  0.5283 -0.3128  0.5219
 4965SOL     OW26356   2.802   2.003   8.019 -0.4092 -0.1895  0.0215
 4965SOL    HW126357   2.779   2.077   7.963  0.2812 -0.1038 -0.1502
 4965SOL    HW226358   2.724   1.992   8.073  0.0648  1.5885  1.0576
 4966SOL     OW26359   4.076   3.509   4.303  0.2178 -0.0760 -0.1631
 4966SOL    HW126360   4.046   3.584   4.355 -1.9899 -0.5545 -0.7762
 4966SOL    HW226361   4.158   3.483   4.346 -1.1973  1.3918  3.4409
 4967SOL     OW26362   0.070   2.883   5.326  0.0192  0.0195  0.3209
 4967SOL    HW126363   0.045   2.869   5.417 -0.0352  0.5842  0.3929
 4967SOL    HW226364   0.073   2.978   5.321 -3.9300  0.1388  0.6549
 4968SOL     OW26365   1.667   3.320   6.310 -0.0722 -0.6600  0.3428
 4968SOL    HW126366   1.707   3.389   6.258 -0.4061 -0.6201  0.1429
 4968SOL    HW226367   1.739   3.299   6.371  1.2946 -0.1336 -1.0868
 4969SOL     OW26368   3.549   1.572   7.729  0.4760  0.1512  0.6657
 4969SOL    HW126369   3.501   1.654   7.716  0.6181  0.1358  0.0324
 4969SOL    HW226370   3.482   1.505   7.717  0.0896  1.6837 -6.1287
 4970SOL     OW26371   0.496   3.674   0.145  0.3456  0.2909 -1.1590
 4970SOL    HW126372   0.504   3.724   0.226  0.6822 -1.0139 -0.3767
 4970SOL    HW226373   0.561   3.604   0.157 -0.8326  0.0391  3.8071
 4971SOL     OW26374   3.680   1.233   0.205  0.2269  0.6583  0.1023
 4971SOL    HW126375   3.627   1.308   0.231 -1.5255  0.4427 -2.8188
 4971SOL    HW226376   3.752   1.249   0.265 -0.1607  2.7861 -0.0163
 4972SOL     OW26377   2.007   0.469   7.917  0.2004  0.3126  0.2413
 4972SOL    HW126378   2.021   0.423   7.835  1.1799  1.4297 -0.2120
 4972SOL    HW226379   1.939   0.532   7.893 -0.9187 -0.5531  1.1217
 4973SOL     OW26380   1.088   4.667   2.059 -0.2884 -0.0854  0.6264
 4973SOL    HW126381   1.005   4.619   2.054 -0.6953  0.6437  0.2817
 4973SOL    HW226382   1.067   0.027   2.026 -0.7022  0.2813  1.8703
 4974SOL     OW26383   0.281   3.198  15.412  0.0428  0.0878 -0.3468
 4974SOL    HW126384   0.191   3.178  15.390  0.6912 -2.0174 -1.0622
 4974SOL    HW226385   0.283   3.218  15.505 -0.5579  0.4539 -0.4148
 4975SOL     OW26386   1.188   4.531  14.414 -0.2365 -0.5253 -0.5958
 4975SOL    HW126387   1.228   4.612  14.382  0.4073 -0.9539 -0.8858
 4975SOL    HW226388   1.237   4.525  14.496  0.4557 -1.5039 -1.0760
 4976SOL     OW26389   4.674   3.481   6.906 -0.2986 -0.1590 -0.0962
 4976SOL    HW126390   0.035   3.515   6.916 -0.2955  0.6428 -2.8632
 4976SOL    HW226391   4.680   3.423   6.982 -1.9278 -0.4038 -0.1591
 4977SOL     OW26392   4.105   3.163   5.718 -0.2936 -0.4091  0.4520
 4977SOL    HW126393   4.141   3.186   5.632  0.3602 -0.9386  0.5877
 4977SOL    HW226394   4.184   3.126   5.758  1.3477  0.9486 -1.5337
 4978SOL     OW26395   3.758   3.718  10.166 -0.0422 -0.3201  0.1507
 4978SOL    HW126396   3.667   3.723  10.196 -0.4170 -1.3857 -0.8044
 4978SOL    HW226397   3.796   3.658  10.230  0.4845  0.2133  0.3460
 4979SOL     OW26398   4.082   1.262   9.172 -0.0313 -0.4533 -0.2524
 4979SOL    HW126399   4.019   1.308   9.116  0.5885  0.5474 -0.1189
 4979SOL    HW226400   4.023   1.224   9.236 -0.5049  1.3425  0.3860
 4980SOL     OW26401   2.338   3.249  10.683  0.1260  0.3511  0.1178
 4980SOL    HW126402   2.284   3.188  10.733  0.2875  0.9501  1.0281
 4980SOL    HW226403   2.409   3.271  10.743  1.8787  0.7059 -2.0703
 4981SOL     OW26404   4.118   0.867  10.818  0.5055 -0.3738  0.3382
 4981SOL    HW126405   4.204   0.854  10.777  0.4720  2.3475 -0.5746
 4981SOL    HW226406   4.125   0.962  10.829  0.0534 -0.3005 -0.0243
 4982SOL     OW26407   0.075   1.495   4.174  0.0444 -0.3883 -0.3061
 4982SOL    HW126408   0.084   1.586   4.145  0.7392 -0.6564 -0.9166
 4982SOL    HW226409   4.714   1.505   4.211  0.8345  0.1149  1.4345
 4983SOL     OW26410   3.788   4.244   4.164 -0.2120  0.3013  0.4353
 4983SOL    HW126411   3.876   4.240   4.203  1.9797  0.0969 -4.5527
 4983SOL    HW226412   3.740   4.299   4.226  2.5799 -0.4921  3.2911
 4984SOL     OW26413   2.784   3.617   1.907 -0.0216 -0.4564  0.8611
 4984SOL    HW126414   2.868   3.656   1.883 -1.3796  1.0532 -1.4485
 4984SOL    HW226415   2.745   3.610   1.820 -0.2678  0.2378  0.9165
 4985SOL     OW26416   4.096   1.586   8.888 -0.2037 -0.9755 -0.2728
 4985SOL    HW126417   4.088   1.559   8.797  1.8244 -1.0653 -0.4148
 4985SOL    HW226418   4.024   1.538   8.930 -1.9053  0.8515 -1.0909
 4986SOL     OW26419   2.092   3.750   9.078  0.1474  0.5127  0.3009
 4986SOL    HW126420   2.072   3.701   9.157  0.8565 -0.6183 -0.2293
 4986SOL    HW226421   2.120   3.686   9.013  0.0050  1.5674 -0.8108
 4987SOL     OW26422   1.529   4.050  13.338 -0.0935  0.7480  0.3525
 4987SOL    HW126423   1.515   4.046  13.432  1.2896 -1.4563  0.4669
 4987SOL    HW226424   1.525   3.958  13.311 -0.0708  1.5671 -2.5051
 4988SOL     OW26425   3.739   4.369   6.009  0.1732  0.4393  0.7705
 4988SOL    HW126426   3.715   4.430   5.939  1.6819 -2.2677 -2.1179
 4988SOL    HW226427   3.829   4.354   5.980  0.4914 -1.9018  3.0053
 4989SOL     OW26428   0.793   0.681   1.420  0.0524  0.4196  0.6479
 4989SOL    HW126429   0.744   0.598   1.422 -0.2421  0.5245 -2.4318
 4989SOL    HW226430   0.837   0.688   1.505  2.1380  0.1673 -0.4155
 4990SOL     OW26431   4.684   2.594   2.156  0.2771 -0.5736 -0.9756
 4990SOL    HW126432   4.665   2.509   2.197 -0.0494  0.1879  0.4544
 4990SOL    HW226433   0.036   2.570   2.107  0.0449 -0.3514 -1.4533
 4991SOL     OW26434   3.955   4.082   5.911  0.3714  0.7456 -0.8336
 4991SOL    HW126435   3.985   4.162   5.954 -2.4926  0.9471  0.7719
 4991SOL    HW226436   3.861   4.097   5.900  0.2760  1.2726  0.6569
 4992SOL     OW26437   1.407   3.261   6.666 -0.3101 -0.2988 -0.0989
 4992SOL    HW126438   1.441   3.337   6.713 -0.5573  0.1038 -0.5669
 4992SOL    HW226439   1.389   3.304   6.582  0.9506 -0.3932 -0.4085
 4993SOL     OW26440   3.828   1.789  13.446 -0.7864  0.6190  0.4033
 4993SOL    HW126441   3.772   1.857  13.483 -2.1675  0.2535 -1.0092
 4993SOL    HW226442   3.882   1.842  13.388 -2.3108  2.1735  0.3840
 4994SOL     OW26443   2.931   4.194   2.649  0.1397  0.4569  0.3325
 4994SOL    HW126444   2.970   4.245   2.720  2.4197 -1.1938  0.2614
 4994SOL    HW226445   2.863   4.259   2.628 -0.9067 -0.2394  1.5620
 4995SOL     OW26446   4.286   1.057   2.953 -0.2047 -0.2628 -0.3940
 4995SOL    HW126447   4.203   1.104   2.954  0.7257  1.4164 -1.3727
 4995SOL    HW226448   4.343   1.126   2.989 -0.6619  0.9789 -2.0748
 4996SOL     OW26449   0.664   0.479   6.651  0.2190  0.6699  0.9072
 4996SOL    HW126450   0.756   0.457   6.641 -0.2839 -1.7517  1.7152
 4996SOL    HW226451   0.665   0.530   6.732  0.5649  0.7891  0.8251
 4997SOL     OW26452   1.418   1.568   0.340  0.7298  0.5777 -0.3320
 4997SOL    HW126453   1.508   1.557   0.373  0.1539 -0.6569  0.8346
 4997SOL    HW226454   1.390   1.644   0.392  1.0225  2.2423 -2.6368
 4998SOL     OW26455   0.271   0.066  13.846  0.6909  0.3039 -0.1485
 4998SOL    HW126456   0.318   0.007  13.905  2.2070  3.9773  2.3110
 4998SOL    HW226457   0.217   0.116  13.907  1.7206 -0.9317  1.7876
 4999SOL     OW26458   3.693   3.157   1.374  0.3234  0.2857  0.1722
 4999SOL    HW126459   3.777   3.173   1.417  0.5454  0.0329 -0.1644
 4999SOL    HW226460   3.678   3.243   1.336  0.2414  0.1726 -0.0533
 5000SOL     OW26461   0.044   3.299  10.430 -0.1173 -0.2986  0.5435
 5000SOL    HW126462   4.714   3.362  10.472 -2.2947 -3.3833  2.2438
 5000SOL    HW226463   0.047   3.230  10.497  0.5983 -1.3158 -0.5373
 5001SOL     OW26464   3.867   1.417   8.683 -0.4592  0.0164 -0.0372
 5001SOL    HW126465   3.797   1.405   8.619 -1.0306 -1.3351  0.8290
 5001SOL    HW226466   3.875   1.512   8.678 -1.0951  0.1019  0.5191
 5002SOL     OW26467   1.671   4.129   8.035 -0.5965 -0.2093  0.0872
 5002SOL    HW126468   1.736   4.162   8.097 -1.5052 -0.5965  1.2369
 5002SOL    HW226469   1.598   4.191   8.040 -0.4372  0.0639 -1.0673
 5003SOL     OW26470   2.509   3.136  10.439  0.2619 -1.0406  0.0447
 5003SOL    HW126471   2.521   3.047  10.472 -0.8589 -1.4780 -0.7243
 5003SOL    HW226472   2.447   3.175  10.501 -0.8899 -2.0249 -0.4844
 5004SOL     OW26473   4.141   1.078  12.707 -0.5745 -0.1599 -0.2148
 5004SOL    HW126474   4.178   0.989  12.707 -0.0203  0.0725 -0.0698
 5004SOL    HW226475   4.190   1.121  12.777  1.6466 -1.8212 -0.7543
 5005SOL     OW26476   3.218   0.594  14.171  0.7070  0.0664  0.7856
 5005SOL    HW126477   3.203   0.524  14.108  0.8400 -0.5413  1.4207
 5005SOL    HW226478   3.283   0.555  14.230 -0.5963 -1.6715  1.1049
 5006SOL     OW26479   0.946   1.493   3.092 -0.1070 -0.2750 -0.0143
 5006SOL    HW126480   0.933   1.448   3.008  1.7754 -1.4725  0.3402
 5006SOL    HW226481   1.027   1.541   3.072  0.3987 -0.8784  0.5816
 5007SOL     OW26482   3.190   4.371  10.334 -0.4140 -0.0017 -0.5550
 5007SOL    HW126483   3.259   4.389  10.269 -0.0968 -1.6214 -0.6564
 5007SOL    HW226484   3.218   4.393  10.423 -2.0006 -2.4408  0.5290
 5008SOL     OW26485   3.206   1.450   7.008  0.1780  0.1503 -0.4761
 5008SOL    HW126486   3.131   1.430   6.953  1.3111  1.6085 -2.5295
 5008SOL    HW226487   3.167   1.476   7.091  1.1355 -0.7911  0.2797
 5009SOL     OW26488   0.064   0.671   1.533 -0.1355 -0.3167  0.7549
 5009SOL    HW126489   0.063   0.592   1.480 -2.3045 -0.1484  0.5124
 5009SOL    HW226490   0.136   0.727   1.506  0.7398 -0.9258  1.8494
 5010SOL     OW26491   0.534   1.067   9.895 -0.2832  0.3600  0.0876
 5010SOL    HW126492   0.547   0.980   9.856  0.1665  0.6021 -0.2950
 5010SOL    HW226493   0.507   1.047   9.985 -0.6304 -0.9106 -0.2886
 5011SOL     OW26494   3.181   4.209  17.231  0.0951  0.6133  0.2363
 5011SOL    HW126495   3.249   4.268  17.198 -1.0020  1.1229 -1.1158
 5011SOL    HW226496   3.124   4.201  17.155  0.7661 -0.3634 -0.1785
 5012SOL     OW26497   4.252   0.913   4.800  0.4547  0.8349 -0.3532
 5012SOL    HW126498   4.177   0.938   4.854  0.6489  0.7261 -0.0322
 5012SOL    HW226499   4.324   0.929   4.860 -1.1829  0.5790  1.6798
 5013SOL     OW26500   1.910   3.884   3.646  0.0848  0.2706 -0.0403
 5013SOL    HW126501   1.844   3.830   3.690 -2.0532  2.2623 -0.7391
 5013SOL    HW226502   1.957   3.823   3.589 -1.1061 -0.3172 -0.3912
 5014SOL     OW26503   1.854   2.708   4.073 -0.3031  0.3793  0.1138
 5014SOL    HW126504   1.865   2.697   3.979 -1.8704 -2.2609  0.2390
 5014SOL    HW226505   1.878   2.800   4.081  2.9092 -0.1968 -2.8588
 5015SOL     OW26506   1.710   0.713   5.933  0.1874 -0.1504 -0.0001
 5015SOL    HW126507   1.670   0.775   5.871 -1.2854 -3.0556 -1.9956
 5015SOL    HW226508   1.757   0.768   5.995 -2.4870  0.4787  1.4768
 5016SOL     OW26509   4.469   3.300   1.598 -0.2692 -0.6503  0.0340
 5016SOL    HW126510   4.378   3.293   1.626 -0.2179  4.9258  1.5047
 5016SOL    HW226511   4.504   3.334   1.680 -1.0994 -2.2530  1.0641
 5017SOL     OW26512   2.873   3.126   5.836 -0.2462  0.2340  0.2717
 5017SOL    HW126513   2.880   3.149   5.928 -0.9874  1.0751  0.1236
 5017SOL    HW226514   2.889   3.215   5.803 -1.5400 -0.0213 -1.0814
 5018SOL     OW26515   1.740   4.069   4.685  0.6581  0.2369  0.0422
 5018SOL    HW126516   1.817   4.012   4.699  0.1662 -0.2597  0.7057
 5018SOL    HW226517   1.706   4.037   4.601  1.5536  1.0945 -0.6526
 5019SOL     OW26518   0.938   1.465   8.173 -0.4772 -0.3718  0.0298
 5019SOL    HW126519   0.953   1.410   8.096 -3.0129 -0.0376 -0.6776
 5019SOL    HW226520   1.001   1.533   8.148  0.8226 -2.0974 -1.4674
 5020SOL     OW26521   2.918   3.454  15.920  0.0534 -0.8484  0.2401
 5020SOL    HW126522   2.846   3.489  15.868 -0.5723 -0.4685  1.3571
 5020SOL    HW226523   2.929   3.517  15.991 -0.6123  0.8935 -1.2180
 5021SOL     OW26524   0.820   4.272   3.263 -0.1159  0.4242 -0.4152
 5021SOL    HW126525   0.844   4.185   3.230  2.3472  1.5446 -1.6076
 5021SOL    HW226526   0.837   4.259   3.357 -3.7474  0.9502  0.2849
 5022SOL     OW26527   2.960   0.791  10.413 -0.1474 -0.0290  0.0964
 5022SOL    HW126528   2.985   0.702  10.436  0.6013  0.3427  0.7293
 5022SOL    HW226529   2.942   0.770  10.322  0.7799 -0.9420  0.1308
 5023SOL     OW26530   2.506   0.786   8.598  0.1233  0.0715  0.1945
 5023SOL    HW126531   2.540   0.721   8.536 -0.4432 -0.1219  0.0858
 5023SOL    HW226532   2.575   0.852   8.592  0.7877 -0.7746 -1.7024
 5024SOL     OW26533   2.311   3.663  15.678  0.5937  0.5680 -1.0595
 5024SOL    HW126534   2.324   3.568  15.678 -0.7822  0.3909  0.2756
 5024SOL    HW226535   2.294   3.674  15.772 -1.5079 -0.2180 -1.3641
 5025SOL     OW26536   4.003   1.349   5.215  0.1886 -0.3214  0.0996
 5025SOL    HW126537   3.916   1.352   5.256  1.1546  0.0980  2.1144
 5025SOL    HW226538   4.004   1.294   5.137  1.8839 -0.1933  0.0375
 5026SOL     OW26539   1.504   2.030   8.354 -0.0420 -0.0392  0.3129
 5026SOL    HW126540   1.566   2.053   8.285  1.3787 -3.0085  0.6099
 5026SOL    HW226541   1.550   1.971   8.413 -0.6728 -0.5749  0.2787
 5027SOL     OW26542   1.850   2.273  17.265  0.3995  0.5343 -0.5022
 5027SOL    HW126543   1.880   2.207  17.203 -0.3164 -0.7760  0.5706
 5027SOL    HW226544   1.838   2.229  17.348 -1.2645  0.2961 -0.8672
 5028SOL     OW26545   2.057   0.322  17.285 -0.3146  0.1220 -0.2227
 5028SOL    HW126546   1.992   0.281  17.342  0.0651 -0.4418 -0.1927
 5028SOL    HW226547   2.134   0.293  17.334 -0.7181 -1.3894 -0.4808
 5029SOL     OW26548   1.604   0.843   8.101 -0.2425 -0.0910  0.0604
 5029SOL    HW126549   1.614   0.896   8.181 -1.5013  0.5791 -0.2224
 5029SOL    HW226550   1.678   0.784   8.114 -2.4020 -2.4530  1.8955
 5030SOL     OW26551   2.959   2.200  10.718 -0.6217 -0.4754 -0.0368
 5030SOL    HW126552   2.946   2.147  10.640  0.0245 -0.2103 -0.3164
 5030SOL    HW226553   2.922   2.138  10.781  0.3471 -1.2632 -0.2479
 5031SOL     OW26554   4.093   3.587   8.190  0.3863  0.3926  0.3379
 5031SOL    HW126555   4.167   3.576   8.130 -0.3305  2.8881 -1.0154
 5031SOL    HW226556   4.047   3.504   8.173  0.0133  0.6516  0.0804
 5032SOL     OW26557   3.855   3.857   5.147  0.3271 -0.4778 -0.4349
 5032SOL    HW126558   3.822   3.920   5.210 -0.1284 -1.2598  0.1117
 5032SOL    HW226559   3.786   3.790   5.145 -0.4657  0.3326 -0.4549
 5033SOL     OW26560   3.610   3.485   7.296  0.0827  0.5862  0.1723
 5033SOL    HW126561   3.592   3.517   7.207  0.1916  1.0273  0.3082
 5033SOL    HW226562   3.676   3.551   7.317 -1.3271  1.6555  1.2427
 5034SOL     OW26563   0.751   1.267   5.250 -0.0838  0.1336  0.3071
 5034SOL    HW126564   0.732   1.191   5.306 -3.3592  1.5150  1.0975
 5034SOL    HW226565   0.749   1.225   5.164 -1.4807  0.5043  0.1585
 5035SOL     OW26566   0.704   1.417  11.426  0.5899 -0.3546 -0.7573
 5035SOL    HW126567   0.609   1.431  11.417 -0.0651 -3.0242  2.0105
 5035SOL    HW226568   0.704   1.332  11.469  0.2171 -0.6124 -1.2550
 5036SOL     OW26569   2.842   1.749   3.102 -0.0137 -0.3349 -0.3121
 5036SOL    HW126570   2.805   1.714   3.020  0.7776  2.7974 -2.0215
 5036SOL    HW226571   2.768   1.760   3.161  0.9745  0.5940  0.7398
 5037SOL     OW26572   1.398   2.215   3.417  0.2112 -0.2248  0.1637
 5037SOL    HW126573   1.368   2.145   3.476 -1.6325  0.2365 -0.2366
 5037SOL    HW226574   1.482   2.180   3.388  0.3161 -1.8377  2.3714
 5038SOL     OW26575   2.266   3.111   3.429  0.1275 -0.2956 -0.3490
 5038SOL    HW126576   2.336   3.050   3.405 -0.3284 -0.0945 -2.2084
 5038SOL    HW226577   2.207   3.098   3.354  0.5014 -1.3180 -0.4681
 5039SOL     OW26578   1.871   1.420  11.726 -0.3079 -0.0204 -0.2278
 5039SOL    HW126579   1.812   1.484  11.686 -1.3163 -1.1542 -0.5697
 5039SOL    HW226580   1.952   1.470  11.718 -0.3706  0.3843  1.6577
 5040SOL     OW26581   1.677   4.011   6.500  0.1181  0.3946  0.3196
 5040SOL    HW126582   1.592   4.044   6.529  0.9079  2.5599  0.1439
 5040SOL    HW226583   1.681   4.050   6.412  0.8171 -0.2215  0.0799
 5041SOL     OW26584   4.109   4.323  13.643 -0.4468 -0.3916  0.3412
 5041SOL    HW126585   4.088   4.353  13.731  0.5403  1.0235  0.0914
 5041SOL    HW226586   4.044   4.375  13.596 -0.5736 -2.3308 -1.6402
 5042SOL     OW26587   2.950   2.570   8.134 -0.3693 -0.1856 -0.4746
 5042SOL    HW126588   2.873   2.564   8.190  0.1626  1.3244  0.4145
 5042SOL    HW226589   2.924   2.515   8.060  0.6379 -0.6932 -0.4632
 5043SOL     OW26590   1.330   0.023   3.684  0.2838 -0.3029 -0.2293
 5043SOL    HW126591   1.335   0.105   3.734 -0.7140  0.0466 -0.6948
 5043SOL    HW226592   1.401   4.695   3.716 -0.9142 -1.1740  0.9800
 5044SOL     OW26593   3.401   0.410   8.663  0.2701 -0.4374 -0.6640
 5044SOL    HW126594   3.383   0.321   8.634 -1.6286 -0.0595 -0.6583
 5044SOL    HW226595   3.488   0.419   8.623 -0.2233  0.5064 -1.5373
 5045SOL     OW26596   3.668   4.465  10.976  0.4863  0.4978  0.0473
 5045SOL    HW126597   3.642   4.542  10.926  1.7335  1.5255  0.9935
 5045SOL    HW226598   3.586   4.416  10.984  0.5734  0.6782  2.0179
 5046SOL     OW26599   4.172   4.551  17.383  0.2841 -0.0010  0.1053
 5046SOL    HW126600   4.186   4.641  17.412 -1.1089  0.4453 -0.5962
 5046SOL    HW226601   4.263   4.538  17.357  0.4356 -0.1978  0.7378
 5047SOL     OW26602   2.661   2.305  14.442  0.6976 -0.0561 -0.6867
 5047SOL    HW126603   2.636   2.269  14.357 -0.1555  1.5104 -1.1077
 5047SOL    HW226604   2.625   2.392  14.423  1.6861  0.9006  1.8266
 5048SOL     OW26605   4.454   1.730  11.514 -0.0608  0.2377 -0.0995
 5048SOL    HW126606   4.543   1.704  11.490  0.4417  1.0739  0.8599
 5048SOL    HW226607   4.451   1.821  11.485  2.1299  0.3897  0.1516
 5049SOL     OW26608   0.267   0.664   9.075 -0.0683 -0.2384 -0.2971
 5049SOL    HW126609   0.264   0.591   9.137  0.5273  0.6260  0.7667
 5049SOL    HW226610   0.268   0.622   8.989 -0.5612 -2.1979  0.6623
 5050SOL     OW26611   4.006   1.559   0.065  0.3579 -0.0420 -0.7413
 5050SOL    HW126612   4.035   1.640   0.108  0.2104  0.2573 -1.2089
 5050SOL    HW226613   3.952   1.518   0.133 -0.1199  0.3098 -0.9068
 5051SOL     OW26614   0.894   2.173   2.829 -0.5189 -0.3891 -0.0577
 5051SOL    HW126615   0.924   2.255   2.868 -1.7362 -1.4255  3.0139
 5051SOL    HW226616   0.956   2.162   2.757  0.9975 -0.5368  1.2679
 5052SOL     OW26617   1.744   0.964   3.202  0.0005  0.0254 -0.0570
 5052SOL    HW126618   1.745   0.940   3.109 -1.7026 -0.7350  0.1308
 5052SOL    HW226619   1.728   1.058   3.203 -0.8643 -0.1464  1.1345
 5053SOL     OW26620   4.544   0.496   6.122 -0.2898 -0.2496 -0.2917
 5053SOL    HW126621   4.523   0.403   6.109  0.4268 -0.6693  1.5865
 5053SOL    HW226622   4.500   0.520   6.203  0.4878  0.8704 -0.1958
 5054SOL     OW26623   1.013   0.537   6.471 -0.5876 -0.2174  0.4230
 5054SOL    HW126624   1.099   0.545   6.430 -0.2950 -3.2155  0.4390
 5054SOL    HW226625   0.950   0.535   6.399  1.3533  0.5645 -1.3072
 5055SOL     OW26626   3.907   3.693   6.519 -0.0417  0.0331  0.0237
 5055SOL    HW126627   3.970   3.622   6.512  1.5979  1.6128 -1.2598
 5055SOL    HW226628   3.957   3.767   6.553 -1.8653  0.6565  1.3406
 5056SOL     OW26629   3.927   4.570  13.384 -0.1958  0.0081 -0.7902
 5056SOL    HW126630   3.858   4.561  13.318 -2.1379  0.2227  1.2190
 5056SOL    HW226631   3.996   4.603  13.327  0.6115  0.1447  0.2554
 5057SOL     OW26632   3.191   4.492   4.212  0.6424  0.7894  0.5855
 5057SOL    HW126633   3.106   4.532   4.191 -1.4471 -3.6212  0.4621
 5057SOL    HW226634   3.167   4.400   4.198 -1.2118  1.1636  1.3045
 5058SOL     OW26635   2.553   2.656  17.244  0.1654  0.2610 -0.0942
 5058SOL    HW126636   2.530   2.745  17.272  2.4851  1.4820 -2.0640
 5058SOL    HW226637   2.623   2.670  17.181 -1.4670 -1.5243 -2.2769
 5059SOL     OW26638   4.124   3.088   4.281  0.5455  0.2180 -0.5647
 5059SOL    HW126639   4.069   3.160   4.250 -1.7018 -1.4638 -0.4533
 5059SOL    HW226640   4.064   3.020   4.310  0.6901  0.4737  0.3442
 5060SOL     OW26641   0.239   4.617   6.186 -0.0065 -0.4699 -0.3158
 5060SOL    HW126642   0.252   4.603   6.092 -1.0422 -0.5121 -0.4496
 5060SOL    HW226643   0.185   4.695   6.198  0.3544  0.1437 -2.7558
 5061SOL     OW26644   2.496   3.102   6.319 -0.5838  0.3119 -0.3319
 5061SOL    HW126645   2.412   3.124   6.280 -0.6469  0.3007 -0.2025
 5061SOL    HW226646   2.549   3.163   6.267 -1.2940  2.1816  1.0961
 5062SOL     OW26647   4.197   3.153   2.140  0.4055  0.1044  0.3248
 5062SOL    HW126648   4.238   3.230   2.180 -0.6442  1.9325 -2.1427
 5062SOL    HW226649   4.163   3.115   2.221  1.3713 -0.0304  0.6745
 5063SOL     OW26650   1.265   2.387   2.607 -0.0563  0.0432 -0.0506
 5063SOL    HW126651   1.211   2.312   2.634 -1.7680  1.3044 -0.0013
 5063SOL    HW226652   1.209   2.425   2.540  2.5074  0.2712 -2.0607
 5064SOL     OW26653   0.551   0.907  11.565 -0.0584  0.0249 -0.2506
 5064SOL    HW126654   0.593   0.992  11.551 -2.6404  1.1768 -0.9710
 5064SOL    HW226655   0.532   0.897  11.471 -1.1891  0.8255 -0.1031
 5065SOL     OW26656   4.112   2.979  10.898 -0.3306 -0.5326 -0.0665
 5065SOL    HW126657   4.140   2.900  10.852 -0.6805 -1.3520  1.1262
 5065SOL    HW226658   4.023   2.992  10.864 -0.3568  1.1340  0.6802
 5066SOL     OW26659   2.168   2.894   7.365  0.1473  0.0055 -0.1703
 5066SOL    HW126660   2.180   2.984   7.397  0.5736  0.2122 -0.9199
 5066SOL    HW226661   2.257   2.860   7.351  0.2818 -0.3583  1.4970
 5067SOL     OW26662   4.477   2.952   8.066 -0.4465 -0.0138 -0.0572
 5067SOL    HW126663   4.563   2.992   8.050 -0.2596 -0.5274 -0.3139
 5067SOL    HW226664   4.490   2.861   8.092 -0.6941 -0.2904 -0.9033
 5068SOL     OW26665   3.585   0.624   8.835  0.1530 -0.6141 -0.5153
 5068SOL    HW126666   3.527   0.699   8.821  1.9160  1.0107  0.7869
 5068SOL    HW226667   3.661   0.660   8.789  0.1439 -2.1598 -1.7222
 5069SOL     OW26668   0.001   3.932   7.521 -0.3210 -0.0238 -0.2403
 5069SOL    HW126669   0.021   3.871   7.450 -1.8967 -0.3253 -0.4267
 5069SOL    HW226670   0.023   4.013   7.475  2.1335 -0.5663 -0.0047
 5070SOL     OW26671   1.652   4.199   0.449  0.6935  0.0225  0.0453
 5070SOL    HW126672   1.696   4.269   0.498  0.8478  1.2893 -1.9238
 5070SOL    HW226673   1.653   4.242   0.364  2.8925 -0.6284 -0.2523
 5071SOL     OW26674   1.936   1.546   1.844  0.4548 -0.0203  0.5673
 5071SOL    HW126675   2.023   1.573   1.873 -0.8518  2.3149  2.2476
 5071SOL    HW226676   1.907   1.625   1.798  1.5552 -0.2541 -0.5258
 5072SOL     OW26677   3.786   3.494   8.669  0.1814  0.4190  0.1120
 5072SOL    HW126678   3.834   3.467   8.591  0.3469  0.4727  0.1971
 5072SOL    HW226679   3.844   3.564   8.699  0.9665  0.1442 -0.7552
 5073SOL     OW26680   4.545   3.763   2.010 -0.3983 -0.0205  0.5377
 5073SOL    HW126681   4.585   3.720   2.085  0.3391  0.9785  0.7120
 5073SOL    HW226682   4.626   3.788   1.966  0.0493  1.0000  1.9723
 5074SOL     OW26683   4.454   1.214   3.630  0.8613 -0.3728 -0.2056
 5074SOL    HW126684   4.457   1.134   3.682  0.5411  0.2380  0.7510
 5074SOL    HW226685   4.361   1.229   3.614  0.9728 -0.0289 -0.5207
 5075SOL     OW26686   2.453   1.340   2.421 -0.5818  0.0411 -0.3228
 5075SOL    HW126687   2.482   1.401   2.489  0.4060  0.1351 -0.8312
 5075SOL    HW226688   2.386   1.288   2.466  1.0492 -1.4093  0.4387
 5076SOL     OW26689   4.412   1.881   0.491 -0.2803  0.0921  0.0586
 5076SOL    HW126690   4.365   1.814   0.442 -0.9444 -0.4944  1.5074
 5076SOL    HW226691   4.452   1.927   0.417 -0.2972  4.3975  2.7076
 5077SOL     OW26692   2.708   2.890   3.144  0.3348  0.5257 -0.0991
 5077SOL    HW126693   2.749   2.913   3.061  0.6088  2.0074  0.4501
 5077SOL    HW226694   2.784   2.851   3.188 -1.1994 -0.0748  2.0341
 5078SOL     OW26695   0.209   1.413   2.738  0.1048  0.1379  0.0358
 5078SOL    HW126696   0.223   1.423   2.644 -1.3419  0.0373 -0.1831
 5078SOL    HW226697   0.146   1.341   2.745 -1.0183  1.2414  1.3325
 5079SOL     OW26698   1.801   2.178   8.952 -0.0441 -0.5265 -0.7502
 5079SOL    HW126699   1.841   2.214   8.873  0.1342  0.5487 -0.1669
 5079SOL    HW226700   1.722   2.231   8.958 -0.4954 -1.2009 -0.7192
 5080SOL     OW26701   0.777   2.076   3.322  0.1769 -0.1076  0.3496
 5080SOL    HW126702   0.745   2.002   3.270 -0.0881 -0.5157  1.1010
 5080SOL    HW226703   0.719   2.150   3.303  2.1241  0.9652 -1.3547
 5081SOL     OW26704   2.723   0.471   2.425 -0.2679  0.0056  0.3147
 5081SOL    HW126705   2.716   0.445   2.516  0.5116  0.0314  0.3824
 5081SOL    HW226706   2.674   0.399   2.386  2.2844 -2.1841  1.1810
 5082SOL     OW26707   0.213   3.932   4.860 -0.0545  0.7179  0.2709
 5082SOL    HW126708   0.129   3.963   4.894 -0.0336  3.1510 -1.8524
 5082SOL    HW226709   0.250   4.007   4.814  0.2917 -0.2967 -1.0957
 5083SOL     OW26710   1.022   0.845   1.873  0.0130 -0.0557  0.0716
 5083SOL    HW126711   1.043   0.762   1.915  2.5943  0.6308  0.1083
 5083SOL    HW226712   1.076   0.914   1.911  2.5107 -3.2678  2.3408
 5084SOL     OW26713   1.739   0.871   5.035  0.1931 -0.9769  0.1598
 5084SOL    HW126714   1.644   0.869   5.023  0.1363  1.8296  0.2326
 5084SOL    HW226715   1.749   0.776   5.024  2.3428 -0.7591  0.1242
 5085SOL     OW26716   0.438   0.107   6.660  0.9763  0.5683 -0.1688
 5085SOL    HW126717   0.455   0.174   6.727  0.5879  0.4894  0.0069
 5085SOL    HW226718   0.350   0.134   6.633 -0.1303 -2.0202  0.8825
 5086SOL     OW26719   0.337   3.710   9.782  0.2159  0.4919 -0.1180
 5086SOL    HW126720   0.371   3.677   9.866 -0.1873  2.7187  0.9164
 5086SOL    HW226721   0.287   3.784   9.815 -0.8832 -0.5162  0.4691
 5087SOL     OW26722   0.320   2.828   3.136  0.3167  0.3901  0.7586
 5087SOL    HW126723   0.311   2.755   3.198 -0.5754 -1.0760 -1.0959
 5087SOL    HW226724   0.363   2.781   3.064 -0.5042 -0.9338  1.1341
 5088SOL     OW26725   2.486   2.987   9.292  0.0962 -0.0145 -0.8414
 5088SOL    HW126726   2.437   3.027   9.363 -2.8091 -1.5909 -1.9748
 5088SOL    HW226727   2.512   2.901   9.325 -3.0596 -0.9853 -0.9098
 5089SOL     OW26728   2.376   0.293  16.733  0.3315 -0.0178  0.5056
 5089SOL    HW126729   2.319   0.329  16.801  2.2423  1.0255  1.5276
 5089SOL    HW226730   2.423   0.219  16.772 -0.6250 -0.6921  0.4116
 5090SOL     OW26731   2.627   4.102   2.887  0.5324  0.0345  0.2067
 5090SOL    HW126732   2.564   4.089   2.816  0.6703 -2.1913  0.5021
 5090SOL    HW226733   2.674   4.183   2.867  0.2238  0.2750  0.4559
 5091SOL     OW26734   1.665   4.077  13.010  0.0742 -0.2966 -0.4208
 5091SOL    HW126735   1.676   3.995  13.058 -0.8953  0.2193  0.6711
 5091SOL    HW226736   1.711   4.054  12.929 -1.6471 -1.2035 -1.1311
 5092SOL     OW26737   2.167   1.674   2.659  0.1128 -0.7116  0.7523
 5092SOL    HW126738   2.143   1.755   2.613  1.9746 -1.6089 -1.7700
 5092SOL    HW226739   2.079   1.668   2.697 -0.3315 -1.9332 -0.4855
 5093SOL     OW26740   1.808   0.194   6.897 -0.5155 -0.1702  0.4496
 5093SOL    HW126741   1.730   0.224   6.943 -0.6499  1.3771 -0.7644
 5093SOL    HW226742   1.780   0.205   6.806  1.4160  2.3160  0.1419
 5094SOL     OW26743   3.048   4.618  16.641 -0.4771  0.0979 -0.1299
 5094SOL    HW126744   3.122   4.591  16.585 -0.4566 -0.5483  0.2036
 5094SOL    HW226745   2.994   4.539  16.641 -0.6420  0.2049  1.1663
 5095SOL     OW26746   4.406   3.031   7.274 -0.5318 -0.3874  0.1659
 5095SOL    HW126747   4.494   2.999   7.291  0.8993  3.2260 -0.4598
 5095SOL    HW226748   4.381   3.074   7.356  2.3471  0.5929  0.5088
 5096SOL     OW26749   0.831   0.570   5.015 -0.4033 -0.1895 -0.0059
 5096SOL    HW126750   0.758   0.558   5.077 -1.8164 -1.2495 -1.8705
 5096SOL    HW226751   0.891   0.515   5.065 -0.0241 -0.1036 -0.3750
 5097SOL     OW26752   4.575   1.139   2.542  0.2426 -0.5707  1.0916
 5097SOL    HW126753   4.502   1.169   2.595 -0.6457 -0.0383 -0.4487
 5097SOL    HW226754   4.525   1.139   2.461 -1.6425 -1.1298  2.2747
 5098SOL     OW26755   1.035   1.278   8.831 -0.1044  0.4171 -0.1236
 5098SOL    HW126756   0.940   1.268   8.828 -0.2398  1.4515  0.4096
 5098SOL    HW226757   1.075   1.194   8.853 -0.3254  0.3811  0.1401
 5099SOL     OW26758   2.617   1.149  14.734  0.1464  0.0362 -0.0263
 5099SOL    HW126759   2.669   1.129  14.655 -0.2274  1.0314 -0.5256
 5099SOL    HW226760   2.531   1.179  14.705 -0.7206 -3.0085 -0.6384
 5100SOL     OW26761   3.511   1.762  14.520 -0.3865  0.1994 -0.3885
 5100SOL    HW126762   3.538   1.800  14.437  2.5875 -0.8878  0.0855
 5100SOL    HW226763   3.521   1.671  14.492 -0.7189 -0.3288  1.2037
 5101SOL     OW26764   2.332   3.433  10.486  0.1633  0.2652  0.1512
 5101SOL    HW126765   2.307   3.515  10.528  1.0324  2.8497 -4.3739
 5101SOL    HW226766   2.370   3.381  10.557  0.8392 -0.1492 -0.5131
 5102SOL     OW26767   3.730   1.251   4.396 -0.3807  0.5586  0.7857
 5102SOL    HW126768   3.789   1.260   4.470  0.2345  3.2138 -0.0345
 5102SOL    HW226769   3.795   1.239   4.327  1.5429 -1.1708  2.8980
 5103SOL     OW26770   0.868   3.247  11.807 -0.1463 -0.1740 -0.4503
 5103SOL    HW126771   0.819   3.302  11.869  0.9426  0.0486  0.1996
 5103SOL    HW226772   0.906   3.181  11.865 -1.1990  1.3242  1.9514
 5104SOL     OW26773   0.350   4.523   5.505  0.5348  0.3811 -0.0576
 5104SOL    HW126774   0.375   4.581   5.434  3.4117  1.7884  2.0947
 5104SOL    HW226775   0.308   4.446   5.467  0.5856 -0.9718  2.5907
 5105SOL     OW26776   1.255   1.271   2.367 -0.0710  0.3415 -0.0645
 5105SOL    HW126777   1.322   1.209   2.339 -1.5864 -1.8711  1.2227
 5105SOL    HW226778   1.184   1.252   2.306  1.3445  1.8089 -2.1995
 5106SOL     OW26779   4.556   2.493   8.850 -0.2867  0.7341 -0.1551
 5106SOL    HW126780   4.574   2.486   8.944 -0.3412 -4.0547 -0.4656
 5106SOL    HW226781   4.621   2.437   8.808 -0.6736 -0.7806  1.2605
 5107SOL     OW26782   2.141   0.480   3.448  0.3958  0.0623 -0.2212
 5107SOL    HW126783   2.194   0.439   3.517  1.7555  0.7545 -0.8766
 5107SOL    HW226784   2.135   0.405   3.388  0.4791 -0.6675  0.6716
 5108SOL     OW26785   3.849   0.404   7.545 -0.3485 -0.5152  0.3299
 5108SOL    HW126786   3.893   0.424   7.628  1.0092  0.1340 -0.5537
 5108SOL    HW226787   3.817   0.489   7.516 -0.2144  0.5596  3.3280
 5109SOL     OW26788   2.965   1.621   0.344 -0.3911 -0.7906 -0.0687
 5109SOL    HW126789   2.943   1.528   0.347  0.3327 -1.0329 -1.8132
 5109SOL    HW226790   2.882   1.664   0.362  0.2787  0.4492  0.0756
 5110SOL     OW26791   4.427   4.068  11.675 -0.4022 -0.2733  0.2727
 5110SOL    HW126792   4.494   4.114  11.724 -0.7777  1.5128 -0.9075
 5110SOL    HW226793   4.468   4.067  11.588 -0.1258  0.2559  0.4029
 5111SOL     OW26794   0.747   3.305  16.278  0.0588 -1.2975 -0.2037
 5111SOL    HW126795   0.821   3.266  16.324 -0.0337  1.6603  2.4347
 5111SOL    HW226796   0.712   3.349  16.355  3.1998 -0.7084  0.8840
 5112SOL     OW26797   2.103   0.070   8.130  0.0269 -0.2286 -0.7561
 5112SOL    HW126798   2.125   0.116   8.049  0.1767 -1.5859 -1.4837
 5112SOL    HW226799   2.048   0.135   8.174 -0.8231 -0.5420 -1.3566
 5113SOL     OW26800   2.049   0.910   3.142 -0.0783  0.4851 -0.3850
 5113SOL    HW126801   2.010   0.995   3.124 -1.7921 -0.3346 -0.4891
 5113SOL    HW226802   1.976   0.855   3.115 -0.0650  0.5886 -0.6291
 5114SOL     OW26803   0.709   3.071   5.651  0.3879 -0.2826  0.1527
 5114SOL    HW126804   0.654   3.141   5.615  1.3258  0.9369  1.0646
 5114SOL    HW226805   0.699   3.083   5.745 -1.5576  1.7272 -0.3070
 5115SOL     OW26806   3.782   0.273  13.589  0.8507 -0.5049  0.7479
 5115SOL    HW126807   3.793   0.180  13.570  0.0178  0.0640 -2.4586
 5115SOL    HW226808   3.861   0.318  13.561  0.9162 -0.9348  0.2358
 5116SOL     OW26809   2.388   2.981  15.952 -0.1917  0.0192  0.1997
 5116SOL    HW126810   2.317   2.982  16.017 -1.6557 -3.2413 -1.3603
 5116SOL    HW226811   2.437   3.056  15.986 -0.5306 -0.0430  0.8316
 5117SOL     OW26812   2.627   2.314  16.687 -0.0899  0.1519 -0.1738
 5117SOL    HW126813   2.549   2.351  16.729 -1.5833 -1.6633 -1.3616
 5117SOL    HW226814   2.582   2.297  16.605 -1.1266 -1.8166  0.8148
 5118SOL     OW26815   0.025   0.128   3.232  0.7719 -0.6461  0.1219
 5118SOL    HW126816   4.706   0.045   3.221  1.2066 -0.9464  0.5884
 5118SOL    HW226817   4.700   0.190   3.181 -0.0568 -0.7142  0.8814
 5119SOL     OW26818   2.550   3.165   8.995  0.0524  0.3596  0.5655
 5119SOL    HW126819   2.617   3.103   8.966 -0.6178  0.3472 -0.9904
 5119SOL    HW226820   2.597   3.246   8.977 -2.5477  1.6908 -0.2955
 5120SOL     OW26821   0.947   4.680   2.716  0.0748  0.7083 -0.4712
 5120SOL    HW126822   0.893   4.699   2.793 -0.8587  1.2532 -1.2531
 5120SOL    HW226823   1.035   4.686   2.753 -0.3338 -1.9049  0.9044
 5121SOL     OW26824   2.341   0.274   8.214  0.5921 -0.6137 -0.1301
 5121SOL    HW126825   2.321   0.260   8.121  1.3525 -0.7566 -0.2771
 5121SOL    HW226826   2.386   0.359   8.208 -0.8136  0.0438 -1.2239
 5122SOL     OW26827   1.520   2.385   2.736 -1.0172  0.2878  0.0081
 5122SOL    HW126828   1.581   2.390   2.663  1.0670 -1.9791  1.6066
 5122SOL    HW226829   1.438   2.400   2.687 -0.3003  0.8115 -1.0384
 5123SOL     OW26830   3.600   0.194   6.029  0.5668 -0.8691 -0.5455
 5123SOL    HW126831   3.688   0.157   6.022  1.2068  0.5377 -0.0656
 5123SOL    HW226832   3.605   0.252   6.105 -0.0964 -0.6517 -0.6663
 5124SOL     OW26833   0.975   3.802  15.415 -0.2546  0.0617  0.5332
 5124SOL    HW126834   1.032   3.856  15.469  0.0587 -0.4626  0.7272
 5124SOL    HW226835   0.899   3.860  15.412 -0.4979 -0.2958 -0.2722
 5125SOL     OW26836   1.660   2.037   5.518  0.1326  0.3748  0.0053
 5125SOL    HW126837   1.660   1.990   5.601  0.5032  2.0957  0.9628
 5125SOL    HW226838   1.658   2.124   5.558 -0.0373  0.3966 -0.0496
 5126SOL     OW26839   1.487   3.915   7.811  0.0347  0.0836 -0.0574
 5126SOL    HW126840   1.519   3.976   7.876  2.0622  0.8844 -1.8118
 5126SOL    HW226841   1.403   3.892   7.850  0.5400 -3.7305 -1.2002
 5127SOL     OW26842   1.445   0.236   2.409  0.1726 -0.6115  0.3675
 5127SOL    HW126843   1.454   0.168   2.476 -1.2541 -0.9982  0.1743
 5127SOL    HW226844   1.461   0.185   2.330 -1.9268 -0.2970 -0.2791
 5128SOL     OW26845   0.244   2.709  16.590  0.4229  0.3888  0.6019
 5128SOL    HW126846   0.287   2.656  16.522 -3.7994  0.3465 -2.0501
 5128SOL    HW226847   0.314   2.770  16.615 -1.4272  1.5723  2.8583
 5129SOL     OW26848   1.498   2.020   4.304 -0.0434 -0.2742 -0.2443
 5129SOL    HW126849   1.563   2.044   4.238  1.3742  0.0785  1.2926
 5129SOL    HW226850   1.533   1.938   4.337 -2.2008 -0.2560  2.0683
 5130SOL     OW26851   4.139   4.103   4.154 -0.1727  0.1079  0.4536
 5130SOL    HW126852   4.226   4.092   4.193 -0.7657 -2.0319  1.1877
 5130SOL    HW226853   4.146   4.033   4.090 -3.4261  0.5885 -0.4293
 5131SOL     OW26854   2.238   3.788  12.219  0.2547 -0.3946 -0.1164
 5131SOL    HW126855   2.188   3.747  12.290 -0.7604 -1.0126 -1.1857
 5131SOL    HW226856   2.324   3.764  12.254  1.0312 -0.9060 -2.4316
 5132SOL     OW26857   2.034   1.193   6.338  0.2217 -0.2328 -0.2635
 5132SOL    HW126858   1.953   1.244   6.345  0.0603 -0.5427  0.1372
 5132SOL    HW226859   2.093   1.260   6.373  0.2224  0.0693 -0.8444
 5133SOL     OW26860   4.718   1.217   2.753  0.1917 -0.0807 -0.5514
 5133SOL    HW126861   4.661   1.202   2.678  0.9295  1.7623 -1.4813
 5133SOL    HW226862   4.724   1.132   2.798 -2.0405  0.4337  0.7210
 5134SOL     OW26863   3.450   3.370   4.004 -0.1443 -0.3064  0.2448
 5134SOL    HW126864   3.531   3.320   3.991  1.2118  2.4258 -1.7020
 5134SOL    HW226865   3.443   3.375   4.100 -0.7764 -1.8559  0.2858
 5135SOL     OW26866   0.046   0.237   4.350  0.6245  0.3541  0.1024
 5135SOL    HW126867   0.071   0.299   4.418  0.6683  1.0499 -0.5532
 5135SOL    HW226868   4.681   0.237   4.374 -0.0239  0.0253 -2.3519
 5136SOL     OW26869   1.418   4.508  13.483 -0.1739 -0.4241 -0.4848
 5136SOL    HW126870   1.391   4.429  13.436 -1.7286 -0.2921  0.1556
 5136SOL    HW226871   1.505   4.511  13.444  0.4207  1.0374  0.9703
 5137SOL     OW26872   3.203   4.252   2.226 -0.1655 -0.3827 -0.2024
 5137SOL    HW126873   3.297   4.232   2.224  0.3421  1.8630  1.0965
 5137SOL    HW226874   3.171   4.218   2.309 -1.1135 -1.4956 -1.0282
 5138SOL     OW26875   1.040   1.220   6.184  0.0426 -0.0361  0.1015
 5138SOL    HW126876   0.997   1.141   6.150 -2.2683  1.3981 -0.3613
 5138SOL    HW226877   1.055   1.198   6.275  2.0074 -0.6196 -0.3615
 5139SOL     OW26878   2.902   0.413   4.456 -0.2539  0.0158  0.4022
 5139SOL    HW126879   2.986   0.383   4.491 -0.0571  1.3907  1.1064
 5139SOL    HW226880   2.871   0.340   4.401 -2.2514  1.2370 -0.1051
 5140SOL     OW26881   2.201   3.808  13.610  0.1139 -0.0747  0.3234
 5140SOL    HW126882   2.285   3.832  13.649 -0.0214  2.6679 -1.0704
 5140SOL    HW226883   2.137   3.829  13.677 -1.9393  0.1551 -1.7050
 5141SOL     OW26884   4.462   2.383   3.434 -0.1562 -0.5637 -0.1901
 5141SOL    HW126885   4.385   2.397   3.489  1.8118 -0.4283  2.4920
 5141SOL    HW226886   4.439   2.304   3.384 -3.1234 -0.1477  0.5134
 5142SOL     OW26887   4.208   3.405   8.543  0.2627  0.5052 -0.3049
 5142SOL    HW126888   4.226   3.455   8.623 -0.6306 -0.0642  0.2380
 5142SOL    HW226889   4.275   3.337   8.556  0.0601  0.7968  2.0974
 5143SOL     OW26890   2.456   1.391   4.398 -0.3323  0.2933  0.2228
 5143SOL    HW126891   2.423   1.353   4.317  0.1078  0.3906 -0.0012
 5143SOL    HW226892   2.542   1.423   4.370 -0.1931 -1.6712 -1.5971
 5144SOL     OW26893   3.991   3.390   3.212 -0.1709  0.0241 -0.2683
 5144SOL    HW126894   3.983   3.474   3.168  1.7421  0.5937  0.4842
 5144SOL    HW226895   4.065   3.396   3.272  2.5241 -0.0636 -3.5381
 5145SOL     OW26896   1.218   2.100  17.124  0.1834  0.4951  0.4346
 5145SOL    HW126897   1.260   2.098  17.038  1.8008 -1.0622  1.2699
 5145SOL    HW226898   1.172   2.016  17.116 -1.8348  1.5894  0.6159
 5146SOL     OW26899   2.643   2.750  16.114 -0.0811 -0.1821  0.5057
 5146SOL    HW126900   2.663   2.795  16.032  0.6086  0.0873  0.8208
 5146SOL    HW226901   2.553   2.776  16.135  0.3308  1.8716 -0.2433
 5147SOL     OW26902   0.238   4.088   9.606  0.3472  0.4720 -0.0529
 5147SOL    HW126903   0.204   4.165   9.652 -0.6466  1.0167 -1.6978
 5147SOL    HW226904   0.327   4.102   9.639  0.6864 -0.1353 -0.7100
 5148SOL     OW26905   2.565   0.749   4.659  0.0550  0.0561 -0.4569
 5148SOL    HW126906   2.609   0.754   4.744 -0.8166  1.3298 -0.0835
 5148SOL    HW226907   2.640   0.716   4.609 -0.5577 -3.1588  0.7760
 5149SOL     OW26908   1.935   3.257  11.972 -0.3511  0.1819  0.5489
 5149SOL    HW126909   2.028   3.237  11.964 -0.6513 -0.3646 -1.4983
 5149SOL    HW226910   1.915   3.218  12.057 -0.4813 -0.3588  0.2697
 5150SOL     OW26911   4.587   0.793   7.250  0.0250 -0.0447 -0.0146
 5150SOL    HW126912   4.578   0.883   7.217 -1.9232  0.3255  1.5168
 5150SOL    HW226913   4.677   0.802   7.280 -0.0120  0.3538 -0.0188
 5151SOL     OW26914   4.374   4.341   7.860  0.1073  0.2425 -0.2485
 5151SOL    HW126915   4.412   4.418   7.904 -1.1828  0.4041  0.5978
 5151SOL    HW226916   4.392   4.363   7.769 -1.3825  1.4588 -0.2531
 5152SOL     OW26917   0.542   3.638   2.588 -0.5567  0.2039  0.4567
 5152SOL    HW126918   0.455   3.637   2.548  0.2325 -1.0485 -1.2080
 5152SOL    HW226919   0.533   3.706   2.654 -0.5710  1.6267 -1.0171
 5153SOL     OW26920   4.499   1.615   6.947  0.1386  0.3129 -0.3686
 5153SOL    HW126921   4.435   1.627   6.876 -0.9567  1.2868  0.7784
 5153SOL    HW226922   4.504   1.520   6.955 -2.3590  0.1926 -0.1385
 5154SOL     OW26923   1.814   3.709   8.081  0.1244 -0.0866 -0.1253
 5154SOL    HW126924   1.842   3.755   8.160 -1.6215  1.6367 -0.5082
 5154SOL    HW226925   1.881   3.737   8.018  0.8026 -0.7773  0.2873
 5155SOL     OW26926   2.568   3.780   3.273  0.0174  0.1379 -0.2148
 5155SOL    HW126927   2.616   3.846   3.224 -0.7138 -0.6550 -1.9778
 5155SOL    HW226928   2.517   3.739   3.203  0.8418 -0.4861 -0.4506
 5156SOL     OW26929   0.095   0.066   2.964  0.1070  0.7084  0.3807
 5156SOL    HW126930   0.129   0.153   2.943 -1.2891  1.0710 -0.3910
 5156SOL    HW226931   0.004   0.087   2.944  0.5473  0.8592 -1.5228
 5157SOL     OW26932   4.316   2.827  14.242  0.3679 -0.4251 -0.3094
 5157SOL    HW126933   4.409   2.805  14.231  0.7913  0.5342  1.4600
 5157SOL    HW226934   4.296   2.758  14.305 -2.0655  0.1217 -0.4945
 5158SOL     OW26935   1.179   3.295   8.034 -0.5260 -0.2204 -0.2294
 5158SOL    HW126936   1.106   3.278   8.094  0.2262 -1.8768  0.2153
 5158SOL    HW226937   1.245   3.241   8.076 -1.1699 -2.1654 -1.6732
 5159SOL     OW26938   4.508   4.544   7.984  0.1934  0.5855  0.0803
 5159SOL    HW126939   4.581   4.577   7.931  1.1471  0.1650  1.1183
 5159SOL    HW226940   4.555   4.500   8.056  0.0291  0.1430 -0.0818
 5160SOL     OW26941   1.682   1.773   8.088  0.1787  0.6227 -0.4464
 5160SOL    HW126942   1.767   1.731   8.078  0.3992  1.0316 -0.2670
 5160SOL    HW226943   1.627   1.702   8.053  2.6962 -1.5103 -0.0808
 5161SOL     OW26944   0.828   4.462  10.708  0.1908  0.1747  0.0670
 5161SOL    HW126945   0.786   4.466  10.794 -2.2366  0.2466 -1.1181
 5161SOL    HW226946   0.785   4.538  10.670  2.5897  0.8550 -1.2709
 5162SOL     OW26947   4.711   2.976  11.926  0.3949 -0.2912  0.4546
 5162SOL    HW126948   4.656   2.984  12.004 -1.6770 -0.2491 -0.9880
 5162SOL    HW226949   4.689   3.058  11.880  2.1081  0.6025  1.2365
 5163SOL     OW26950   0.316   2.963  16.362 -0.4875  0.1569 -0.3877
 5163SOL    HW126951   0.364   3.033  16.406 -2.1501  0.5483  0.8346
 5163SOL    HW226952   0.224   2.983  16.381 -0.5599 -0.7044  0.1184
 5164SOL     OW26953   3.939   3.482   9.380 -0.2292 -0.2189  0.1807
 5164SOL    HW126954   3.965   3.492   9.471 -0.9098  0.7745  0.2614
 5164SOL    HW226955   4.021   3.504   9.334 -1.5253  1.1079 -1.5212
 5165SOL     OW26956   0.861   1.719   6.824  0.3292  0.5667  0.0788
 5165SOL    HW126957   0.924   1.788   6.847  1.5918 -0.8152  0.7614
 5165SOL    HW226958   0.882   1.721   6.731 -0.0353  1.9859  0.0262
 5166SOL     OW26959   2.366   1.911   5.812  0.0229  0.9282  0.2321
 5166SOL    HW126960   2.332   1.971   5.878 -0.5671  1.2456 -0.3620
 5166SOL    HW226961   2.435   1.961   5.768 -0.8853 -0.8130 -3.2072
 5167SOL     OW26962   0.582   4.264   7.225  0.0686  0.1041 -0.3628
 5167SOL    HW126963   0.675   4.244   7.235  0.2422  0.1772 -1.8507
 5167SOL    HW226964   0.566   4.293   7.315 -0.5870 -1.2959 -0.0196
 5168SOL     OW26965   1.576   0.571  15.946  0.2709 -0.5073 -0.7606
 5168SOL    HW126966   1.580   0.621  15.865  2.0861 -2.1884 -1.7144
 5168SOL    HW226967   1.493   0.609  15.974 -0.0769 -0.9332 -1.2187
 5169SOL     OW26968   1.040   2.038   7.765 -0.1465  0.0730 -0.2754
 5169SOL    HW126969   0.958   2.010   7.805  0.8164  0.3112  1.8624
 5169SOL    HW226970   1.037   1.983   7.686  1.2782 -0.3657 -0.0269
 5170SOL     OW26971   4.062   1.489   4.930  0.4638  0.2466  0.5460
 5170SOL    HW126972   4.009   1.515   5.005  0.4579 -0.7837  0.9011
 5170SOL    HW226973   4.108   1.570   4.909 -0.7642  0.4335 -1.4065
 5171SOL     OW26974   0.413   3.258  11.875  0.4303  0.1744  0.2001
 5171SOL    HW126975   0.408   3.183  11.934 -1.3761  1.1271  1.2519
 5171SOL    HW226976   0.375   3.317  11.940 -1.1061 -0.7023  0.0938
 5172SOL     OW26977   4.699   0.080   1.789 -0.1934 -0.0793 -0.1478
 5172SOL    HW126978   0.013   0.075   1.875 -2.1364 -0.4939  0.7742
 5172SOL    HW226979   0.031   0.021   1.742 -1.1904 -1.0373 -0.2034
 5173SOL     OW26980   0.149   4.685  10.240  0.1101 -0.4561  0.4276
 5173SOL    HW126981   0.161   4.633  10.320 -2.2744 -1.1593  0.3225
 5173SOL    HW226982   0.165   0.046  10.272 -0.7735 -0.0389 -0.3030
 5174SOL     OW26983   2.090   2.649   7.194 -0.6462 -0.1760  0.0073
 5174SOL    HW126984   2.182   2.630   7.212  0.5316  2.0155 -3.7195
 5174SOL    HW226985   2.065   2.664   7.285 -0.7653 -2.0525  0.2859
 5175SOL     OW26986   0.595   4.513   5.612 -1.2233 -0.0433  0.3926
 5175SOL    HW126987   0.589   4.481   5.702 -1.1253  0.0703  0.4386
 5175SOL    HW226988   0.504   4.507   5.581 -1.8836  0.6884  2.1867
 5176SOL     OW26989   2.071   3.955   7.265  0.3369  0.2483  1.0190
 5176SOL    HW126990   2.086   3.953   7.360 -0.3416  1.3414  1.1381
 5176SOL    HW226991   2.150   3.906   7.240 -0.0366 -0.1454  0.6148
 5177SOL     OW26992   1.020   4.310  10.249 -0.3146 -0.2344 -0.4872
 5177SOL    HW126993   1.039   4.292  10.341  2.2683  0.0179 -0.9742
 5177SOL    HW226994   0.995   4.402  10.260 -2.6920 -1.1987  2.1229
 5178SOL     OW26995   1.862   4.143   3.254  0.1175 -0.0256 -0.7618
 5178SOL    HW126996   1.901   4.208   3.313 -1.0380 -0.0037 -0.0313
 5178SOL    HW226997   1.885   4.176   3.167 -0.3343  0.9179 -0.5177
 5179SOL     OW26998   3.368   0.360   8.078  0.0163  0.3003  0.5532
 5179SOL    HW126999   3.440   0.419   8.060 -1.3964  1.9746  0.3796
 5179SOL    HW227000   3.291   0.403   8.040  0.4723  1.5473  1.0636
 5180SOL     OW27001   3.207   2.375   2.309  0.0616 -0.3766 -0.3134
 5180SOL    HW127002   3.262   2.449   2.284  0.8518 -1.1032 -0.7071
 5180SOL    HW227003   3.184   2.333   2.226 -1.7551 -1.2051  0.6025
 5181SOL     OW27004   4.620   2.014   2.966  1.0861  0.2984  0.4066
 5181SOL    HW127005   4.583   1.995   3.052  0.7852  2.2383  0.7051
 5181SOL    HW227006   4.554   1.982   2.905  1.0700 -0.5580  0.8800
 5182SOL     OW27007   2.595   2.048   5.057  1.2027  0.0767 -0.1595
 5182SOL    HW127008   2.548   1.964   5.054  0.4558  0.5045 -0.3467
 5182SOL    HW227009   2.686   2.023   5.072  1.2004 -0.8140 -1.6148
 5183SOL     OW27010   3.322   0.893   8.282 -0.4208 -0.2170  0.3585
 5183SOL    HW127011   3.269   0.818   8.309 -1.4397 -0.1453 -1.4030
 5183SOL    HW227012   3.360   0.931   8.361 -0.3051  1.4811 -0.5092
 5184SOL     OW27013   2.941   1.096   6.516 -0.4313  0.0884  0.1302
 5184SOL    HW127014   2.995   1.029   6.558  0.1104  0.9545  0.8141
 5184SOL    HW227015   2.989   1.173   6.546 -0.2603 -0.0673  0.2487
 5185SOL     OW27016   2.333   4.628  10.719 -0.1868 -0.2078  0.4419
 5185SOL    HW127017   2.278   4.557  10.750 -0.8038 -0.2960 -0.8436
 5185SOL    HW227018   2.417   4.592  10.750  1.4113  3.1591 -0.0070
 5186SOL     OW27019   4.129   1.886   3.736  0.6680  0.4293 -0.2112
 5186SOL    HW127020   4.038   1.862   3.752  0.4873  1.2351 -0.0575
 5186SOL    HW227021   4.142   1.831   3.658  0.9013 -1.7666  1.3683
 5187SOL     OW27022   2.574   0.139   5.885 -0.6977  0.3309  0.1127
 5187SOL    HW127023   2.579   0.044   5.892  0.5421  0.4694  1.0982
 5187SOL    HW227024   2.584   0.158   5.792 -0.4528 -1.6994 -0.2687
 5188SOL     OW27025   2.412   4.363   2.055  0.5175 -0.0602  0.1752
 5188SOL    HW127026   2.469   4.381   1.980  3.0441  0.7583  2.3061
 5188SOL    HW227027   2.326   4.372   2.013 -0.9267  0.1633  3.1942
 5189SOL     OW27028   2.394   0.669   6.107  0.0856 -0.0233  0.4837
 5189SOL    HW127029   2.341   0.602   6.151  0.8178 -1.0959 -0.2504
 5189SOL    HW227030   2.432   0.720   6.179 -1.5214  1.9010 -0.0560
 5190SOL     OW27031   0.879   4.107  17.072  0.2686 -0.5242  0.3833
 5190SOL    HW127032   0.847   4.083  16.985 -0.0972  0.6379  0.1999
 5190SOL    HW227033   0.935   4.033  17.094  0.6274 -0.2123  0.5230
 5191SOL     OW27034   2.969   0.034  11.984  0.3498  0.0084 -0.4133
 5191SOL    HW127035   2.909   4.706  11.934 -0.2914 -0.7892  1.2565
 5191SOL    HW227036   2.905   0.059  12.050 -0.3044 -2.4820 -0.1379
 5192SOL     OW27037   1.541   3.691   8.022 -0.5467  0.1088  0.2387
 5192SOL    HW127038   1.630   3.708   8.055  0.6995 -3.9981 -0.9083
 5192SOL    HW227039   1.496   3.771   8.049 -1.3114  0.1702 -1.2485
 5193SOL     OW27040   3.960   0.394   0.220 -0.4287  0.1307 -0.0780
 5193SOL    HW127041   4.003   0.468   0.263 -0.2016  1.2008 -2.1633
 5193SOL    HW227042   4.009   0.382   0.139  0.6208  2.3298  0.2379
 5194SOL     OW27043   2.332   3.020   7.868 -0.0350  0.2596  0.4305
 5194SOL    HW127044   2.333   2.957   7.941 -0.2431 -1.5077 -1.0835
 5194SOL    HW227045   2.313   2.962   7.794 -0.3646  0.6350  0.2235
 5195SOL     OW27046   4.490   0.225  17.221  0.0043 -0.0096  0.3831
 5195SOL    HW127047   4.452   0.278  17.151 -0.1018 -3.1122 -1.9102
 5195SOL    HW227048   4.526   0.294  17.277 -2.1473  1.6776 -0.3415
 5196SOL     OW27049   2.216   1.723   6.365 -0.4239 -0.1376 -0.2451
 5196SOL    HW127050   2.205   1.816   6.381  1.8884  0.3295 -1.3709
 5196SOL    HW227051   2.271   1.731   6.287  2.1758  1.9081  1.8394
 5197SOL     OW27052   3.678   0.568   9.598 -0.4820 -0.1616 -0.3713
 5197SOL    HW127053   3.600   0.515   9.585 -0.9173  0.0510  1.4228
 5197SOL    HW227054   3.724   0.527   9.671  1.0341  0.5902 -0.8988
 5198SOL     OW27055   2.978   1.865   6.900 -0.3101 -0.7719  0.1976
 5198SOL    HW127056   2.959   1.907   6.816  2.7111  0.8108  0.3415
 5198SOL    HW227057   3.068   1.837   6.886 -0.6352 -2.4064  1.3928
 5199SOL     OW27058   3.068   2.545   8.631 -0.4541  0.6933  0.2368
 5199SOL    HW127059   3.139   2.549   8.567 -1.3855  0.4248 -0.8034
 5199SOL    HW227060   3.007   2.605   8.589 -0.4452 -0.6836 -1.7520
 5200SOL     OW27061   4.390   3.691   4.206  0.1679 -0.2198 -0.3296
 5200SOL    HW127062   4.414   3.603   4.235 -1.6248 -0.0507  1.6366
 5200SOL    HW227063   4.313   3.663   4.157 -0.1245  0.2694 -0.1465
 5201SOL     OW27064   2.744   1.486  16.079 -0.1112  0.1196  0.2798
 5201SOL    HW127065   2.696   1.543  16.020 -0.5139 -0.6268 -0.1091
 5201SOL    HW227066   2.835   1.492  16.049 -0.1771 -0.2204  0.0176
 5202SOL     OW27067   1.489   0.807  11.540 -0.4532  0.3780 -0.3152
 5202SOL    HW127068   1.507   0.854  11.458 -1.8395 -0.3485 -1.0369
 5202SOL    HW227069   1.500   0.717  11.509  0.4767  0.5489 -0.4605
 5203SOL     OW27070   4.066   4.279   2.888  0.3031  0.8210 -0.3859
 5203SOL    HW127071   4.031   4.359   2.927  1.3403  0.1625  1.8875
 5203SOL    HW227072   4.116   4.241   2.960  0.1769  1.8646  0.2522
 5204SOL     OW27073   0.090   2.674  15.795  0.4845  0.2622 -0.6561
 5204SOL    HW127074   0.002   2.638  15.803 -0.9555  3.8421 -0.6948
 5204SOL    HW227075   0.089   2.693  15.701 -1.9511  1.8765 -0.2859
 5205SOL     OW27076   4.127   3.537   9.184 -0.1119  0.0895  0.0763
 5205SOL    HW127077   4.142   3.623   9.145  0.5215  0.0987  0.3428
 5205SOL    HW227078   4.071   3.491   9.121  0.9791 -0.8070 -0.2533
 5206SOL     OW27079   2.219   1.056   4.118  0.2357 -0.1213  0.5469
 5206SOL    HW127080   2.125   1.076   4.116 -0.0076 -1.1995  1.3407
 5206SOL    HW227081   2.214   0.961   4.123 -0.0949 -0.1395 -0.0632
 5207SOL     OW27082   0.605   2.930   9.880  0.2029  0.2067 -0.8757
 5207SOL    HW127083   0.659   2.856   9.853  0.2507  0.4879 -1.5654
 5207SOL    HW227084   0.578   2.956   9.792  2.5642 -0.5542 -1.8227
 5208SOL     OW27085   3.627   2.614   7.611 -0.5284 -0.0418  0.2874
 5208SOL    HW127086   3.646   2.523   7.632 -3.2936 -1.0703 -1.7111
 5208SOL    HW227087   3.696   2.639   7.549 -0.0646  0.0439  0.8386
 5209SOL     OW27088   4.291   2.994   5.523 -0.2107  0.1018  0.2187
 5209SOL    HW127089   4.341   2.947   5.590 -1.6226 -2.4568 -0.5293
 5209SOL    HW227090   4.366   3.043   5.489 -0.2108  1.0336  1.5369
 5210SOL     OW27091   2.745   4.378  14.116 -0.1577 -0.0216 -0.3216
 5210SOL    HW127092   2.829   4.372  14.161 -0.4852 -2.6463 -0.0932
 5210SOL    HW227093   2.745   4.295  14.068 -0.9265 -0.5880  0.6591
 5211SOL     OW27094   4.025   4.070  13.461  0.1146  0.4149 -0.0569
 5211SOL    HW127095   3.935   4.102  13.457 -0.2769 -0.7772 -0.7421
 5211SOL    HW227096   4.059   4.130  13.527 -1.2516  0.5901  0.4866
 5212SOL     OW27097   1.986   4.554   3.610  0.0696  0.2896 -0.3247
 5212SOL    HW127098   2.029   4.488   3.555  0.1002 -0.6806  0.8356
 5212SOL    HW227099   2.030   4.535   3.693  1.4640  1.1797 -0.8647
 5213SOL     OW27100   4.263   2.443   3.016  1.0544  0.1892 -0.2684
 5213SOL    HW127101   4.317   2.398   2.952  1.0392 -3.9028  2.6043
 5213SOL    HW227102   4.238   2.523   2.970  1.2175  0.3590 -0.0630
 5214SOL     OW27103   2.927   2.477  15.549  0.5148  0.6582  0.1021
 5214SOL    HW127104   2.950   2.515  15.464  0.5515  1.1544  0.3346
 5214SOL    HW227105   2.877   2.399  15.526 -0.2427  1.3680 -0.6664
 5215SOL     OW27106   4.162   3.844   2.357  0.1493  0.0002 -0.1213
 5215SOL    HW127107   4.202   3.788   2.290 -2.4905 -0.5895 -1.2242
 5215SOL    HW227108   4.146   3.927   2.313 -0.3994 -0.3887 -0.6543
 5216SOL     OW27109   4.312   0.182   1.126  0.0662 -0.2563  0.2209
 5216SOL    HW127110   4.281   0.142   1.045  1.3688 -0.5437 -0.1276
 5216SOL    HW227111   4.404   0.177   1.103 -0.1743 -0.0974 -0.7859
 5217SOL     OW27112   0.448   3.928   1.680 -0.4706  1.2718 -0.0559
 5217SOL    HW127113   0.375   3.966   1.631 -1.6935 -0.8168  0.1450
 5217SOL    HW227114   0.455   3.839   1.647 -1.7011  0.3979  2.0122
 5218SOL     OW27115   0.350   2.334   5.251 -0.0426 -0.3784 -0.0349
 5218SOL    HW127116   0.432   2.385   5.254 -1.1658  1.5042 -0.9759
 5218SOL    HW227117   0.351   2.319   5.156  2.5596  2.6508 -0.5096
 5219SOL     OW27118   3.753   3.209  12.141  0.7128  0.1250  0.1799
 5219SOL    HW127119   3.693   3.163  12.082  0.3200 -1.6530  1.9448
 5219SOL    HW227120   3.839   3.178  12.113  1.0756  1.2381  0.0742
 5220SOL     OW27121   1.936   3.394  16.067  0.5810  0.1018 -0.0068
 5220SOL    HW127122   1.939   3.310  16.111 -0.2905  0.5374  0.9061
 5220SOL    HW227123   1.843   3.417  16.059  1.1563  2.6371  0.5833
 5221SOL     OW27124   0.823   0.399   6.018 -0.0173 -0.6202  0.0158
 5221SOL    HW127125   0.749   0.440   5.973  0.2293  0.8727  0.9876
 5221SOL    HW227126   0.784   0.313   6.030 -1.3336 -0.3350 -2.1589
 5222SOL     OW27127   1.568   2.510   4.992 -0.1031  0.4173 -0.4408
 5222SOL    HW127128   1.504   2.563   5.040 -2.3635 -1.1222 -1.7257
 5222SOL    HW227129   1.648   2.561   4.994  1.9150 -2.8159  0.4234
 5223SOL     OW27130   1.468   4.596   8.212 -0.5612  0.3672 -0.3053
 5223SOL    HW127131   1.381   4.569   8.241 -1.0073 -0.1037 -2.0232
 5223SOL    HW227132   1.481   4.672   8.268  1.2682  0.4762 -0.8923
 5224SOL     OW27133   0.682   3.611   7.196  0.3669  0.3141 -0.1448
 5224SOL    HW127134   0.658   3.697   7.160  0.8895  1.6007  2.5481
 5224SOL    HW227135   0.608   3.588   7.251  0.1410  2.6638  0.5709
 5225SOL     OW27136   4.385   0.380   5.076  0.2397  0.2380  0.1421
 5225SOL    HW127137   4.466   0.387   5.126  0.6986 -1.1407 -0.4108
 5225SOL    HW227138   4.421   0.347   4.993 -2.2709 -0.0391 -0.8463
 5226SOL     OW27139   0.185   1.494  14.428  0.3709 -0.4761  0.1087
 5226SOL    HW127140   0.110   1.522  14.376  0.3097 -1.6466 -0.4304
 5226SOL    HW227141   0.255   1.509  14.365  1.2506  1.5195  1.5672
 5227SOL     OW27142   0.165   2.546   0.881  0.1131  0.4690  0.4539
 5227SOL    HW127143   0.142   2.592   0.962  2.5842  1.1795  0.7725
 5227SOL    HW227144   0.215   2.614   0.835  1.7853  0.1576  1.7685
 5228SOL     OW27145   4.590   4.375   4.855 -0.0628 -0.3671  0.3642
 5228SOL    HW127146   4.671   4.332   4.880 -0.6679 -1.5726  0.2740
 5228SOL    HW227147   4.617   4.437   4.788 -0.9632  0.0538  0.3911
 5229SOL     OW27148   0.608   1.001  13.234  0.0855 -0.4759  0.1831
 5229SOL    HW127149   0.572   1.042  13.312  3.6195 -1.2075  2.2174
 5229SOL    HW227150   0.690   0.974  13.277  1.4487  3.9824  0.3706
 5230SOL     OW27151   1.484   3.517   2.998 -0.3616 -0.2318  0.0252
 5230SOL    HW127152   1.514   3.514   2.908  1.6953  2.4306  0.6276
 5230SOL    HW227153   1.475   3.422   3.012  0.0003 -0.4124 -0.9608
 5231SOL     OW27154   0.403   2.290   4.997 -0.2108 -0.3861 -0.2285
 5231SOL    HW127155   0.472   2.324   4.940  0.5513  0.7726  1.4095
 5231SOL    HW227156   0.366   2.223   4.938 -0.1606 -2.0700  1.6573
 5232SOL     OW27157   2.982   3.844   6.908 -0.2560  0.0732  0.2137
 5232SOL    HW127158   2.896   3.856   6.949  0.1031 -1.9368  1.5896
 5232SOL    HW227159   3.035   3.888   6.974  0.2725 -1.0327  0.5312
 5233SOL     OW27160   1.572   0.295   7.022  0.2235  0.1152  0.2834
 5233SOL    HW127161   1.517   0.223   6.990  0.4896 -0.2223  0.5856
 5233SOL    HW227162   1.514   0.327   7.091 -1.2041  0.9661 -1.3448
 5234SOL     OW27163   3.795   0.287   9.149 -0.0178 -0.7050 -0.7061
 5234SOL    HW127164   3.803   0.378   9.120  1.1802 -1.0964 -1.5808
 5234SOL    HW227165   3.745   0.296   9.230  0.4847 -1.5673 -0.3100
 5235SOL     OW27166   3.674   4.399   6.952  0.3374  0.2408  0.2062
 5235SOL    HW127167   3.697   4.445   7.032 -2.5968 -1.1203  1.8351
 5235SOL    HW227168   3.589   4.365   6.978 -0.0586  0.4256 -0.8556
 5236SOL     OW27169   0.590   4.252   2.903  0.3433  0.1993 -0.1123
 5236SOL    HW127170   0.531   4.220   2.835  0.2442  0.3968 -0.1210
 5236SOL    HW227171   0.604   4.342   2.873  5.2203 -0.1197  1.1668
 5237SOL     OW27172   4.285   0.464  10.901 -0.0327  0.1669  0.2803
 5237SOL    HW127173   4.201   0.476  10.856  0.1825 -0.3620 -0.2534
 5237SOL    HW227174   4.274   0.375  10.935  0.7120 -0.2337 -0.5434
 5238SOL     OW27175   4.187   1.463   7.364  0.1501  0.6472 -0.0998
 5238SOL    HW127176   4.096   1.439   7.349 -0.1427  1.5026  0.3177
 5238SOL    HW227177   4.166   1.548   7.404  1.3471 -0.1983  2.3550
 5239SOL     OW27178   2.656   2.266   4.490  0.2375 -0.5822  0.3730
 5239SOL    HW127179   2.724   2.326   4.460 -0.5802  0.0472 -0.2247
 5239SOL    HW227180   2.676   2.258   4.584 -0.9709 -1.4801  0.5552
 5240SOL     OW27181   1.380   1.907  13.804  0.1118  0.6316  0.5523
 5240SOL    HW127182   1.411   1.819  13.827  1.4086  1.0453  0.3722
 5240SOL    HW227183   1.372   1.952  13.888 -2.1122 -1.0969  1.2786
 5241SOL     OW27184   4.534   1.024   3.819  0.1196 -0.3957 -0.1109
 5241SOL    HW127185   4.616   0.988   3.784  0.1684 -0.1354 -0.2587
 5241SOL    HW227186   4.533   1.003   3.913 -0.4610  0.5111  0.0796
 5242SOL     OW27187   1.191   4.191  11.084 -0.0227 -0.4861 -0.3720
 5242SOL    HW127188   1.123   4.257  11.090  0.3792 -0.0782 -0.3115
 5242SOL    HW227189   1.204   4.178  10.990 -2.1175  0.8149 -0.8550
 5243SOL     OW27190   1.880   1.720   3.523 -0.3097 -0.1134  0.1921
 5243SOL    HW127191   1.906   1.812   3.536  0.9239 -0.4254 -0.0828
 5243SOL    HW227192   1.810   1.707   3.587  0.4345 -1.8762  0.6556
 5244SOL     OW27193   4.401   2.881   3.487 -0.2278  0.3066  0.3760
 5244SOL    HW127194   4.351   2.803   3.508 -0.4719 -0.0950 -1.6581
 5244SOL    HW227195   4.353   2.961   3.510 -0.3646  1.0074 -2.3287
 5245SOL     OW27196   4.329   1.158   8.617 -0.6595  0.1741  0.0980
 5245SOL    HW127197   4.250   1.210   8.629 -0.6577  0.2282 -0.1278
 5245SOL    HW227198   4.357   1.127   8.703 -2.8988  1.3186  1.2200
 5246SOL     OW27199   2.027   1.657   5.263 -0.3120  0.2374  0.3271
 5246SOL    HW127200   1.936   1.650   5.292 -0.8077  0.4548 -1.1602
 5246SOL    HW227201   2.068   1.699   5.339  0.6561  2.8111 -1.5946
 5247SOL     OW27202   2.021   0.156   4.903 -0.3074  0.0519 -0.4801
 5247SOL    HW127203   1.983   0.079   4.946 -0.8827  0.9609  0.6346
 5247SOL    HW227204   2.114   0.138   4.919 -1.4872 -2.7931  3.2856
 5248SOL     OW27205   2.603   1.157   6.631  0.7296 -0.3497 -0.4054
 5248SOL    HW127206   2.595   1.063   6.650  0.5290 -0.0100  1.2048
 5248SOL    HW227207   2.573   1.205   6.708 -0.3035 -0.4571 -0.7358
 5249SOL     OW27208   2.579   2.713   0.360 -0.5359 -0.1597 -0.0192
 5249SOL    HW127209   2.618   2.728   0.274 -0.0375  3.8213  0.8930
 5249SOL    HW227210   2.494   2.755   0.351 -1.3367 -1.4585  1.4379
 5250SOL     OW27211   2.490   2.948   2.406  0.1880 -0.7866  0.1848
 5250SOL    HW127212   2.459   3.030   2.367  2.2695 -0.1155 -0.0313
 5250SOL    HW227213   2.520   2.913   2.322  2.1459 -0.9098  0.9436
 5251SOL     OW27214   3.337   4.087   0.685 -0.5524 -0.2412  0.5553
 5251SOL    HW127215   3.326   4.074   0.591 -2.9306 -0.6398  0.8688
 5251SOL    HW227216   3.353   4.181   0.680 -0.5477 -0.3637 -1.4282
 5252SOL     OW27217   0.439   3.397   1.633 -0.1732 -0.4497  0.4026
 5252SOL    HW127218   0.359   3.377   1.681 -0.5552  0.2151  0.0392
 5252SOL    HW227219   0.505   3.354   1.687  0.2250  1.1151  1.1891
 5253SOL     OW27220   2.225   3.403  14.774 -0.0027 -0.0939  0.1154
 5253SOL    HW127221   2.232   3.495  14.745  0.1463 -0.2584 -0.3760
 5253SOL    HW227222   2.227   3.410  14.869 -3.9729 -1.2792  0.2764
 5254SOL     OW27223   3.871   3.470   9.998  0.2727  0.5702  0.1790
 5254SOL    HW127224   3.818   3.470  10.078  2.2134 -3.1006  1.4393
 5254SOL    HW227225   3.953   3.500  10.038 -0.7574 -0.2880  2.9276
 5255SOL     OW27226   1.510   1.743   5.960 -0.1842  0.0349  0.2156
 5255SOL    HW127227   1.530   1.668   5.903  1.4240  0.3369  0.3794
 5255SOL    HW227228   1.415   1.740   5.968 -0.3147  0.9567 -1.0405
 5256SOL     OW27229   2.013   0.622   7.484 -0.3621  1.3819 -0.6195
 5256SOL    HW127230   1.960   0.552   7.444  1.5927 -0.0619 -0.7129
 5256SOL    HW227231   1.954   0.684   7.526  0.6802  1.1882  1.1160
 5257SOL     OW27232   3.261   4.004   7.761  0.0746 -0.5614 -0.7321
 5257SOL    HW127233   3.330   4.012   7.696  0.2362  1.0328 -0.3504
 5257SOL    HW227234   3.302   4.000   7.847 -0.8734 -0.1251 -0.2580
 5258SOL     OW27235   1.192   1.654   5.483 -0.3510  0.1013 -0.6740
 5258SOL    HW127236   1.232   1.581   5.435  0.9447  0.1569  0.3126
 5258SOL    HW227237   1.224   1.639   5.572 -0.4409  1.1024 -0.4725
 5259SOL     OW27238   0.181   0.127   7.695 -0.2727  0.5477  0.3205
 5259SOL    HW127239   0.182   0.142   7.600  0.5022 -1.0619  0.0830
 5259SOL    HW227240   0.208   0.036   7.703 -2.2054 -0.2292 -1.9565
 5260SOL     OW27241   4.340   4.425   7.549 -0.2215 -0.1504 -0.0770
 5260SOL    HW127242   4.246   4.430   7.566 -0.7121 -0.9335 -2.6263
 5260SOL    HW227243   4.350   4.483   7.473  1.4255 -0.8347 -0.3737
 5261SOL     OW27244   3.757   2.475   1.181 -0.0116 -0.4017  0.9113
 5261SOL    HW127245   3.680   2.419   1.191  2.2840 -3.5573  0.8343
 5261SOL    HW227246   3.829   2.428   1.224  0.0835 -1.7207 -0.7081
 5262SOL     OW27247   0.234   4.644  15.196 -0.6624  0.2650 -0.1172
 5262SOL    HW127248   0.322   4.644  15.233 -0.7618  0.8076  0.1137
 5262SOL    HW227249   0.235   4.563  15.145 -0.1500 -0.3878  0.9362
 5263SOL     OW27250   4.607   3.713  11.266  0.0441 -0.4229  0.4191
 5263SOL    HW127251   4.606   3.760  11.182 -0.7083 -0.6405  0.3019
 5263SOL    HW227252   4.694   3.744  11.289 -0.9451  1.4011  1.6732
 5264SOL     OW27253   3.034   4.663   6.497  0.1406 -0.7538  0.2435
 5264SOL    HW127254   3.016   4.646   6.589 -1.4982  0.5914  0.1685
 5264SOL    HW227255   3.129   4.672   6.501  0.1609 -0.7585 -0.2685
 5265SOL     OW27256   1.383   0.939   3.070  0.3297 -0.2029  0.4780
 5265SOL    HW127257   1.334   0.985   3.002 -1.2409  0.5598  2.0937
 5265SOL    HW227258   1.419   0.860   3.032  1.0045  0.8739 -1.1281
 5266SOL     OW27259   2.495   3.730   5.095  0.0477  0.1176 -0.2872
 5266SOL    HW127260   2.565   3.680   5.136 -0.3140 -1.4512 -1.5901
 5266SOL    HW227261   2.504   3.815   5.139 -0.6339 -0.3910  0.8259
 5267SOL     OW27262   2.736   4.217   2.388 -0.3523 -0.8625 -0.3207
 5267SOL    HW127263   2.743   4.279   2.315 -0.0661 -1.2937 -0.6533
 5267SOL    HW227264   2.743   4.281   2.459  0.2230 -0.7236 -0.4944
 5268SOL     OW27265   0.726   0.258   4.108 -0.1811  0.1145  0.6934
 5268SOL    HW127266   0.721   0.315   4.184  0.2103  0.4433  0.4698
 5268SOL    HW227267   0.633   0.253   4.085  0.5591 -1.8762 -1.8860
 5269SOL     OW27268   0.972   0.971   5.141  0.6086 -0.3080 -0.2890
 5269SOL    HW127269   0.923   0.927   5.210 -1.2497  2.8595  0.3940
 5269SOL    HW227270   0.902   1.026   5.107 -0.8400 -1.0867  1.4650
 5270SOL     OW27271   3.258   0.642   6.659  0.4699  0.4375 -0.3949
 5270SOL    HW127272   3.352   0.660   6.664  0.0212  2.5832  0.1808
 5270SOL    HW227273   3.259   0.576   6.589  1.6600 -0.7790  0.7764
 5271SOL     OW27274   1.919   2.164   1.247  0.3343 -0.3337 -0.0760
 5271SOL    HW127275   1.944   2.249   1.283 -0.1870  0.7761 -2.3504
 5271SOL    HW227276   1.947   2.101   1.313  0.9837 -0.5600 -0.5596
 5272SOL     OW27277   4.565   4.480   3.167  0.0371  0.0788 -0.0738
 5272SOL    HW127278   4.599   4.477   3.078 -1.5035  1.5751 -0.7243
 5272SOL    HW227279   4.513   4.402   3.147 -1.4700  0.6231  1.6475
 5273SOL     OW27280   1.331   0.625   1.805  0.3542  0.3649  0.0201
 5273SOL    HW127281   1.368   0.560   1.865 -1.1853 -0.5365 -0.0106
 5273SOL    HW227282   1.355   0.711   1.840  1.2197  0.5751 -1.0630
 5274SOL     OW27283   0.746   1.362  13.324 -0.1012 -0.8052  0.3511
 5274SOL    HW127284   0.815   1.302  13.294 -1.1324 -2.1300  0.6201
 5274SOL    HW227285   0.695   1.302  13.379 -1.0970  0.9004  1.2583
 5275SOL     OW27286   1.753   3.260   7.353 -0.7156 -0.3641  0.7853
 5275SOL    HW127287   1.766   3.349   7.320 -1.7981 -0.4030  0.2378
 5275SOL    HW227288   1.741   3.279   7.446 -2.1487 -0.8076  0.6943
 5276SOL     OW27289   3.709   2.539   3.373  0.2701 -0.1702 -0.0930
 5276SOL    HW127290   3.638   2.597   3.401 -2.8863 -3.8226 -0.6341
 5276SOL    HW227291   3.672   2.521   3.286  0.0799  0.8241 -0.2234
 5277SOL     OW27292   2.121   2.134   3.699  0.4359 -0.2387  0.5958
 5277SOL    HW127293   2.158   2.193   3.765  0.4465  0.4928 -0.0637
 5277SOL    HW227294   2.173   2.150   3.620 -1.9601  0.5495 -0.8342
 5278SOL     OW27295   2.275   1.588   1.286  0.0222 -0.1145  0.5707
 5278SOL    HW127296   2.362   1.600   1.324 -0.5194  1.9126  1.2047
 5278SOL    HW227297   2.268   1.651   1.214  3.6546 -0.7591 -0.3305
 5279SOL     OW27298   0.007   0.968   2.845  0.4597  0.0921 -0.4170
 5279SOL    HW127299   0.080   0.917   2.810  0.6485 -0.0349  0.1699
 5279SOL    HW227300   4.655   0.914   2.839 -0.3095  1.3501 -1.6167
 5280SOL     OW27301   1.848   1.208   8.201  0.0888 -0.6043  0.1017
 5280SOL    HW127302   1.836   1.127   8.250  1.1609 -1.6190 -1.3231
 5280SOL    HW227303   1.803   1.188   8.119  0.5093  0.2995 -0.3576
 5281SOL     OW27304   4.524   0.032   6.495 -0.0339 -0.2190 -0.5358
 5281SOL    HW127305   4.548   0.001   6.408 -1.4983 -2.7343 -0.0296
 5281SOL    HW227306   4.434   4.727   6.496 -1.0228  2.4370 -1.1299
 5282SOL     OW27307   0.469   0.580   2.535  0.0297 -0.1569 -0.2323
 5282SOL    HW127308   0.524   0.634   2.478 -0.8877 -0.5992 -1.5184
 5282SOL    HW227309   0.405   0.643   2.567 -0.6641  0.3864 -2.7109
 5283SOL     OW27310   1.552   2.497  10.309  0.6928  0.1277  0.3614
 5283SOL    HW127311   1.477   2.552  10.288 -0.1045 -0.6119  1.2976
 5283SOL    HW227312   1.629   2.544  10.276 -0.0334  0.7502 -0.4507
 5284SOL     OW27313   3.726   2.467   4.681  0.3740 -0.1533 -0.1269
 5284SOL    HW127314   3.768   2.394   4.635 -0.4617 -0.5839 -0.2132
 5284SOL    HW227315   3.800   2.527   4.681 -1.4309  2.0720  0.4366
 5285SOL     OW27316   2.879   3.973   3.871  0.3302  0.0870  0.1279
 5285SOL    HW127317   2.807   3.952   3.811 -0.8431 -2.0004  2.2670
 5285SOL    HW227318   2.954   3.975   3.812 -0.4312  0.8111 -0.8221
 5286SOL     OW27319   2.589   0.780   0.277  0.1210  0.1606  0.1223
 5286SOL    HW127320   2.597   0.847   0.209 -1.2027  0.4348  0.2300
 5286SOL    HW227321   2.657   0.806   0.338  0.1251  0.4534 -0.0073
 5287SOL     OW27322   3.324   3.069   6.967  0.2228 -0.1621  0.3114
 5287SOL    HW127323   3.239   3.026   6.970 -0.7532  1.7291 -0.5543
 5287SOL    HW227324   3.300   3.155   7.000 -0.7923 -1.0219  1.8289
 5288SOL     OW27325   0.059   1.958   7.122  0.1299 -0.8719  0.6876
 5288SOL    HW127326   0.097   1.871   7.126  1.5280 -0.2880  0.0863
 5288SOL    HW227327   0.040   1.970   7.215 -1.4230  1.8230  0.0384
 5289SOL     OW27328   1.450   2.047   9.245 -0.3031 -0.0186 -0.2871
 5289SOL    HW127329   1.399   2.129   9.249  0.7864  0.6305  0.1446
 5289SOL    HW227330   1.377   1.988   9.266 -0.5790 -0.7548 -3.2372
 5290SOL     OW27331   3.030   0.074   4.136  0.2777  0.2135 -0.1325
 5290SOL    HW127332   3.007   0.166   4.123  2.1325  0.4275 -1.9211
 5290SOL    HW227333   3.028   0.046   4.044  0.0871 -0.8541  0.1991
 5291SOL     OW27334   3.375   4.542   4.014 -0.0178  0.2342 -0.4990
 5291SOL    HW127335   3.462   4.558   4.051 -0.7075  1.5986  0.5565
 5291SOL    HW227336   3.328   4.511   4.091  1.4825 -2.0161 -0.5026
 5292SOL     OW27337   2.828   1.741   7.842  0.4415  0.3551 -0.1836
 5292SOL    HW127338   2.791   1.678   7.903  1.7372  1.4860  1.7415
 5292SOL    HW227339   2.837   1.822   7.893 -1.3786  0.9292 -0.7813
 5293SOL     OW27340   2.720   1.415   4.316  0.1679  0.2715 -0.0253
 5293SOL    HW127341   2.735   1.479   4.247  0.5323 -0.4832 -0.6602
 5293SOL    HW227342   2.789   1.435   4.379  1.3655 -1.4042 -0.7919
 5294SOL     OW27343   2.202   4.421   5.418 -0.1975  0.1081 -0.4397
 5294SOL    HW127344   2.279   4.475   5.436 -0.4616  1.0673 -2.1459
 5294SOL    HW227345   2.129   4.483   5.418  0.2239  0.6073  0.7586
 5295SOL     OW27346   4.329   4.283  16.091  0.3391 -0.0925 -0.0738
 5295SOL    HW127347   4.383   4.361  16.105  2.2421 -0.7555 -3.5291
 5295SOL    HW227348   4.372   4.244  16.014 -1.4229  1.2649 -1.7280
 5296SOL     OW27349   3.638   4.502  13.839  0.4042 -0.0897  0.3821
 5296SOL    HW127350   3.558   4.548  13.864  0.1518 -0.4035  0.1476
 5296SOL    HW227351   3.631   4.413  13.874  3.9711 -1.1988 -1.8210
 5297SOL     OW27352   1.302   1.161   9.469  0.1972  0.4065 -0.0383
 5297SOL    HW127353   1.236   1.210   9.518 -0.2855 -0.2527 -0.0305
 5297SOL    HW227354   1.261   1.137   9.386 -1.2312  2.4802  0.0704
 5298SOL     OW27355   0.609   3.218   1.775 -0.0664 -0.5834 -0.2260
 5298SOL    HW127356   0.636   3.210   1.867  0.5514 -0.1770 -0.3737
 5298SOL    HW227357   0.675   3.159   1.738  0.3969 -0.6953  0.7843
 5299SOL     OW27358   0.275   2.627  11.074  0.2879  0.0731  0.1971
 5299SOL    HW127359   0.316   2.558  11.022  1.0190  0.6714 -0.0362
 5299SOL    HW227360   0.271   2.693  11.005 -0.7190 -1.4415 -1.2006
 5300SOL     OW27361   0.159   1.274   7.968  0.2786 -0.2358  0.1429
 5300SOL    HW127362   0.110   1.280   8.051  0.4572  1.3930  0.1394
 5300SOL    HW227363   0.229   1.339   7.973  0.2693 -0.0444 -2.3529
 5301SOL     OW27364   2.181   2.059   0.766 -0.4034  0.0456 -0.1551
 5301SOL    HW127365   2.169   2.047   0.860 -1.9764  0.4779 -0.2982
 5301SOL    HW227366   2.194   1.974   0.725  1.7489  1.3147 -2.1111
 5302SOL     OW27367   2.900   0.131   4.805 -0.1172 -0.8628  0.0839
 5302SOL    HW127368   2.844   0.125   4.883 -0.1040 -1.6679  0.0353
 5302SOL    HW227369   2.976   0.175   4.843 -0.4420  2.0777 -2.6951
 5303SOL     OW27370   1.722   1.147   5.111 -0.1148 -0.5854  0.2994
 5303SOL    HW127371   1.752   1.060   5.083  0.1188  0.9143 -3.9821
 5303SOL    HW227372   1.786   1.176   5.176  0.8964 -2.1431  0.0188
 5304SOL     OW27373   4.352   1.441   5.300  0.2649  0.1420  0.2989
 5304SOL    HW127374   4.299   1.449   5.380 -0.3777  1.0428 -0.2157
 5304SOL    HW227375   4.320   1.361   5.258 -2.7319  1.1479  0.6801
 5305SOL     OW27376   2.968   0.765   7.854 -0.1281 -0.7479 -0.0754
 5305SOL    HW127377   2.959   0.675   7.824 -1.1442  0.0917 -2.3238
 5305SOL    HW227378   3.059   0.793   7.853 -0.4931  0.4575  0.1549
 5306SOL     OW27379   0.211   3.065   3.191 -0.3435 -0.3589 -0.2181
 5306SOL    HW127380   0.300   3.101   3.179 -0.2112 -0.8472 -0.7117
 5306SOL    HW227381   0.225   2.973   3.168 -1.0961 -0.9884  1.8790
 5307SOL     OW27382   3.943   3.464  16.651 -0.0631  0.2259  0.0566
 5307SOL    HW127383   3.934   3.556  16.679 -2.1788 -0.6061  2.1232
 5307SOL    HW227384   3.900   3.433  16.731  0.7964 -0.3278  0.2974
 5308SOL     OW27385   4.487   3.759   8.390  0.1066 -0.4227  1.3100
 5308SOL    HW127386   4.395   3.735   8.398 -0.2755  0.3530 -0.7230
 5308SOL    HW227387   4.503   3.783   8.298  0.1940 -1.0276  1.1669
 5309SOL     OW27388   4.162   0.009   3.672  0.4790  0.1453 -0.3152
 5309SOL    HW127389   4.079   4.697   3.697  0.2233  1.5799  1.1142
 5309SOL    HW227390   4.152   0.030   3.579 -0.6963  1.9843  0.2361
 5310SOL     OW27391   1.359   0.582   4.982 -0.6629  0.3874  0.1631
 5310SOL    HW127392   1.317   0.642   4.920 -0.5246  0.0511 -0.2543
 5310SOL    HW227393   1.438   0.550   4.937 -0.0603  1.4666  0.4417
 5311SOL     OW27394   0.490   3.232   2.485 -0.1918  0.5687 -0.5636
 5311SOL    HW127395   0.459   3.149   2.522  3.7976 -1.4876 -1.8089
 5311SOL    HW227396   0.469   3.207   2.395 -0.4848 -0.1308 -0.3020
 5312SOL     OW27397   0.224   1.670   2.021 -0.1497 -0.1651  0.1867
 5312SOL    HW127398   0.151   1.609   2.018  2.2985 -3.1553  1.5353
 5312SOL    HW227399   0.182   1.756   2.019  0.1243 -0.0469 -0.6650
 5313SOL     OW27400   1.480   3.303   7.347  0.7824  0.3129  0.3290
 5313SOL    HW127401   1.439   3.343   7.270  0.0932 -3.6269 -1.3578
 5313SOL    HW227402   1.572   3.321   7.332  0.8607 -0.2325  0.1709
 5314SOL     OW27403   4.688   1.632   3.626  0.2766 -0.0447 -0.6003
 5314SOL    HW127404   4.701   1.618   3.532  0.5847 -1.4302 -0.3562
 5314SOL    HW227405   0.032   1.691   3.649 -0.3210  0.8275 -1.0262
 5315SOL     OW27406   2.049   3.997   5.656 -0.1311  0.1888 -0.5326
 5315SOL    HW127407   2.005   4.078   5.629  0.3617 -0.1232 -2.2535
 5315SOL    HW227408   2.031   3.998   5.750 -0.4354  0.9277 -0.6007
 5316SOL     OW27409   2.205   4.472   3.318 -0.0500  0.0819  0.2624
 5316SOL    HW127410   2.186   4.548   3.262  2.2662  0.6138  0.2185
 5316SOL    HW227411   2.182   4.396   3.265 -0.2973 -0.0718  0.5876
 5317SOL     OW27412   2.481   3.656   5.427  0.3209  0.4570  0.0403
 5317SOL    HW127413   2.419   3.589   5.401 -0.6580  0.0518  3.4258
 5317SOL    HW227414   2.426   3.730   5.453 -0.4397  0.2242 -0.9498
 5318SOL     OW27415   4.153   2.452   9.314  0.0589 -0.3799  0.9014
 5318SOL    HW127416   4.153   2.435   9.220  1.2069 -0.0883  0.8507
 5318SOL    HW227417   4.162   2.362   9.344 -0.6962 -0.6549  0.2901
 5319SOL     OW27418   4.240   3.727   3.634  0.2868  0.8026 -0.0438
 5319SOL    HW127419   4.277   3.784   3.702 -0.0076  2.0906 -0.9609
 5319SOL    HW227420   4.312   3.716   3.571 -0.2774  0.5625 -0.6416
 5320SOL     OW27421   0.319   2.196   0.607 -0.0113 -0.2687  0.9951
 5320SOL    HW127422   0.294   2.142   0.532  0.4870  0.9284 -0.0552
 5320SOL    HW227423   0.330   2.138   0.682  0.0319 -0.4833  0.8237
 5321SOL     OW27424   1.036   2.382   6.115  0.2720  0.0567 -0.2426
 5321SOL    HW127425   0.966   2.323   6.143 -1.2284  1.6717 -0.5922
 5321SOL    HW227426   1.095   2.317   6.078  0.8974  0.0367  0.7863
 5322SOL     OW27427   2.964   2.650   3.995  0.0238 -0.2281  0.2393
 5322SOL    HW127428   2.993   2.634   3.905 -0.2529 -0.4553  0.1920
 5322SOL    HW227429   2.881   2.605   3.983 -0.9012  1.2595  1.1726
 5323SOL     OW27430   2.917   1.233   3.774 -0.1760 -0.3520  0.3973
 5323SOL    HW127431   2.857   1.301   3.744  0.7488  0.4733  0.4255
 5323SOL    HW227432   2.886   1.150   3.739 -1.9599  0.1493  0.7763
 5324SOL     OW27433   0.088   1.132   4.280 -0.6532 -0.2975  0.4909
 5324SOL    HW127434   0.152   1.202   4.267 -0.0912 -0.4549  2.4583
 5324SOL    HW227435   0.010   1.176   4.246 -0.3592 -0.2182 -0.0811
 5325SOL     OW27436   4.331   2.187   7.188 -0.0036  0.4820  0.4619
 5325SOL    HW127437   4.385   2.243   7.133 -1.0613  0.8709 -0.1854
 5325SOL    HW227438   4.396   2.122   7.216 -0.1253 -0.2084 -0.8765
 5326SOL     OW27439   1.661   3.976   9.910 -0.0478  0.1041  0.0297
 5326SOL    HW127440   1.749   3.955   9.880  0.7481 -0.3084  2.6699
 5326SOL    HW227441   1.612   3.909   9.862  1.1545 -0.5590 -0.2742
 5327SOL     OW27442   2.581   3.278  17.570 -0.2742 -0.8025 -0.1257
 5327SOL    HW127443   2.588   3.233  17.485 -2.6915 -0.7634 -0.3484
 5327SOL    HW227444   2.636   3.356  17.562 -2.4046  0.6813 -0.2660
 5328SOL     OW27445   2.905   4.125   4.076  0.3035  0.2917  0.2869
 5328SOL    HW127446   2.821   4.171   4.078  0.6788  0.9462  1.2297
 5328SOL    HW227447   2.900   4.066   4.002  1.9904 -0.2446  0.6009
 5329SOL     OW27448   2.241   1.467  14.502 -0.6814  0.7294  0.1871
 5329SOL    HW127449   2.260   1.549  14.456 -0.0026  1.2380  1.3903
 5329SOL    HW227450   2.321   1.416  14.490 -0.6682  0.6913  0.4419
 5330SOL     OW27451   4.472   4.610   2.492 -0.1937  0.1347 -0.9948
 5330SOL    HW127452   4.494   4.535   2.436  0.9791  0.5404 -1.0627
 5330SOL    HW227453   4.383   4.585   2.519  0.6320 -2.5127 -0.6544
 5331SOL     OW27454   1.898   1.790  17.664  0.4280  0.1249 -0.7848
 5331SOL    HW127455   1.912   1.696  17.671  1.2604  0.5001  2.4561
 5331SOL    HW227456   1.810   1.800  17.627  0.0508  1.5194  0.4977
 5332SOL     OW27457   3.194   3.038  12.514  0.1685  0.4382  0.0301
 5332SOL    HW127458   3.252   2.984  12.459 -0.4142 -0.2036  0.0475
 5332SOL    HW227459   3.248   3.112  12.544  0.5689 -0.8672  2.5120
 5333SOL     OW27460   0.122   2.884   9.560  0.3071 -0.0855  0.3091
 5333SOL    HW127461   0.207   2.926   9.543 -0.3589  0.8277 -0.7239
 5333SOL    HW227462   0.071   2.964   9.575  0.4930  0.5783 -2.6165
 5334SOL     OW27463   4.302   0.735   0.601  0.5449  0.4870 -0.0545
 5334SOL    HW127464   4.324   0.658   0.653 -1.3532  0.7659  1.1485
 5334SOL    HW227465   4.387   0.770   0.573  0.7293 -1.0018 -1.3998
 5335SOL     OW27466   4.132   2.701   7.228 -0.5267  0.6883  0.1732
 5335SOL    HW127467   4.122   2.617   7.183  0.7096  0.4287  0.4067
 5335SOL    HW227468   4.174   2.670   7.309 -0.0917  0.5340 -0.1138
 5336SOL     OW27469   3.629   0.613  16.649 -0.0615  0.5007 -0.0355
 5336SOL    HW127470   3.644   0.677  16.579  2.3627 -1.0877 -0.9594
 5336SOL    HW227471   3.609   0.535  16.597 -2.3883 -0.9952  3.1355
 5337SOL     OW27472   0.095   3.347   8.416 -0.2838  0.1561  0.0634
 5337SOL    HW127473   0.174   3.330   8.467  1.5511 -1.5677 -3.3423
 5337SOL    HW227474   0.046   3.412   8.467  0.2615  2.0913 -1.8598
 5338SOL     OW27475   0.115   1.394   9.273  0.3914 -0.3717  0.5091
 5338SOL    HW127476   0.176   1.453   9.318  3.5122 -1.7325 -2.0181
 5338SOL    HW227477   0.164   1.314   9.291  1.2906  0.3281  1.1937
 5339SOL     OW27478   1.561   3.161   4.539  0.7051  0.1738  0.2337
 5339SOL    HW127479   1.644   3.175   4.586 -0.1660  3.0312  0.9530
 5339SOL    HW227480   1.560   3.069   4.512  0.5249 -0.0766  1.0966
 5340SOL     OW27481   3.393   1.811   7.074 -0.0344 -0.4395 -0.0679
 5340SOL    HW127482   3.349   1.785   6.993 -2.0855 -1.6756  1.4424
 5340SOL    HW227483   3.319   1.796   7.133  0.9325 -2.7880  0.5258
 5341SOL     OW27484   4.493   2.077   8.011 -0.0305 -0.2310 -0.5016
 5341SOL    HW127485   4.441   2.156   8.021  0.1226 -0.0769 -0.9385
 5341SOL    HW227486   4.561   2.098   8.075 -1.0888  1.0632  0.2095
 5342SOL     OW27487   2.157   1.108   0.229  0.3766 -0.2670  0.1194
 5342SOL    HW127488   2.158   1.121   0.134  0.4077 -1.3490 -0.0297
 5342SOL    HW227489   2.250   1.092   0.246  0.2022 -1.0565  0.3555
 5343SOL     OW27490   1.632   1.528   1.214 -0.0356 -0.0004 -0.1993
 5343SOL    HW127491   1.544   1.530   1.252  0.7340  1.6461  1.5159
 5343SOL    HW227492   1.673   1.460   1.268  3.1591  0.5357 -1.9404
 5344SOL     OW27493   3.717   2.006   3.690 -0.0026 -0.1456  0.6614
 5344SOL    HW127494   3.733   2.074   3.625 -0.9672  1.9497  2.6177
 5344SOL    HW227495   3.632   2.037   3.721 -0.0784 -1.2222  1.5487
 5345SOL     OW27496   1.451   0.823   0.156 -0.0709 -0.1354  0.5317
 5345SOL    HW127497   1.388   0.769   0.109  0.6400 -0.2711 -0.2678
 5345SOL    HW227498   1.437   0.907   0.113  1.5544  0.1511  0.5631
 5346SOL     OW27499   4.402   3.868   3.829  0.3277 -0.5223 -0.3803
 5346SOL    HW127500   4.455   3.798   3.869 -0.7142 -1.6183 -0.9131
 5346SOL    HW227501   4.464   3.939   3.811  0.0456  0.0959  1.0680
 5347SOL     OW27502   1.614   0.663   9.131 -0.0652 -0.0408 -0.2762
 5347SOL    HW127503   1.698   0.622   9.115  0.4093 -0.0776  2.2846
 5347SOL    HW227504   1.585   0.630   9.216 -0.6519 -0.1714 -0.5201
 5348SOL     OW27505   0.120   1.873   7.401  0.4650  0.4610 -0.1814
 5348SOL    HW127506   0.194   1.823   7.366 -0.2640  0.0753 -1.1779
 5348SOL    HW227507   0.101   1.825   7.482 -0.0648  0.1158 -0.5104
 5349SOL     OW27508   2.525   4.603   5.980  0.5620  0.0347  0.9751
 5349SOL    HW127509   2.473   4.534   6.022  0.4253 -1.3528 -1.4484
 5349SOL    HW227510   2.589   4.616   6.050  1.8017 -0.6955 -0.0022
 5350SOL     OW27511   1.078   3.509   6.771  0.1940 -0.2135 -0.8061
 5350SOL    HW127512   0.999   3.471   6.809 -0.0224  2.0783  1.0229
 5350SOL    HW227513   1.066   3.503   6.676  1.6020 -3.0423 -0.8068
 5351SOL     OW27514   3.134   3.822  16.706 -0.2365  0.5106  0.2838
 5351SOL    HW127515   3.174   3.883  16.644 -0.4606 -1.0124 -1.3477
 5351SOL    HW227516   3.144   3.861  16.793  1.0539 -1.9096  1.2363
 5352SOL     OW27517   3.650   0.829   9.489 -0.3942  0.4722 -0.6859
 5352SOL    HW127518   3.666   0.881   9.568 -1.2861  2.0973 -1.5914
 5352SOL    HW227519   3.673   0.743   9.525 -1.9149 -0.4609 -1.9349
 5353SOL     OW27520   2.737   3.408   2.093  0.0326 -0.1594  0.1318
 5353SOL    HW127521   2.773   3.469   2.029 -1.2942 -0.3925 -0.8479
 5353SOL    HW227522   2.792   3.433   2.167  0.3186  0.9853 -0.4768
 5354SOL     OW27523   3.957   1.284   4.580 -0.4666 -0.5785  0.4817
 5354SOL    HW127524   3.985   1.367   4.542  1.7631 -0.3587  2.5443
 5354SOL    HW227525   4.037   1.235   4.600 -1.1077 -1.6486  0.4183
 5355SOL     OW27526   4.263   1.614  16.143  0.4349  0.3091  0.2063
 5355SOL    HW127527   4.256   1.703  16.108  0.9241 -0.6377 -2.3242
 5355SOL    HW227528   4.187   1.617  16.201  1.5488 -1.1629  1.7205
 5356SOL     OW27529   2.273   3.504   6.343 -0.5708 -0.6674  0.1995
 5356SOL    HW127530   2.351   3.553   6.317 -1.5521  0.9932  0.3639
 5356SOL    HW227531   2.316   3.422   6.366  0.7338  0.0182  0.1684
 5357SOL     OW27532   1.195   1.686  17.298 -0.0386 -0.1480  0.2066
 5357SOL    HW127533   1.128   1.628  17.335  0.1977 -0.2362  0.4928
 5357SOL    HW227534   1.149   1.734  17.229  0.0856 -1.0749 -0.5224
 5358SOL     OW27535   3.140   4.691   6.134 -0.2507  0.6444 -0.0282
 5358SOL    HW127536   3.228   4.682   6.098 -0.0094  1.1131  0.4480
 5358SOL    HW227537   3.152   0.013   6.216 -0.3636  1.2335 -0.3687
 5359SOL     OW27538   4.288   4.636   6.454 -0.0659 -0.0015 -0.5891
 5359SOL    HW127539   4.225   4.668   6.519  0.3542  1.1859 -0.7646
 5359SOL    HW227540   4.257   4.547   6.440 -0.2813  0.0199 -0.2582
 5360SOL     OW27541   2.924   2.815   7.745 -0.3307  0.0905 -0.0494
 5360SOL    HW127542   2.960   2.816   7.834  2.3071 -1.5957 -1.1018
 5360SOL    HW227543   3.003   2.847   7.701 -0.5938  0.4427 -0.2674
 5361SOL     OW27544   4.331   3.133   7.893 -0.2561 -0.1259 -0.2027
 5361SOL    HW127545   4.292   3.108   7.809 -0.3224  1.0325 -0.5220
 5361SOL    HW227546   4.392   3.061   7.909 -0.4731 -0.5773 -1.4177
 5362SOL     OW27547   2.530   4.501   8.351  0.5191  0.2485 -0.5229
 5362SOL    HW127548   2.466   4.572   8.339  0.0127  0.0083  0.7562
 5362SOL    HW227549   2.603   4.556   8.322  1.0025  0.3667  0.9175
 5363SOL     OW27550   3.724   3.180   7.983 -0.4863  0.1816  0.3095
 5363SOL    HW127551   3.642   3.133   7.999 -0.1656 -1.2630 -2.3008
 5363SOL    HW227552   3.731   3.194   7.889  0.4602 -0.1376  0.3306
 5364SOL     OW27553   2.734   4.716   8.336  0.0251  0.5732  1.0276
 5364SOL    HW127554   2.735   0.083   8.322  0.7069  0.0549 -2.2997
 5364SOL    HW227555   2.809   4.681   8.287 -1.5576 -0.3370 -0.7274
 5365SOL     OW27556   2.572   0.083   4.793  0.0169 -0.1420 -0.3206
 5365SOL    HW127557   2.582   0.023   4.867 -0.1543  2.1874  1.5736
 5365SOL    HW227558   2.491   0.123   4.823  0.9094  0.2991  1.5018
 5366SOL     OW27559   1.642   1.610   8.659 -0.2548 -0.5531 -0.5043
 5366SOL    HW127560   1.562   1.603   8.606  1.5932 -1.3624 -3.1966
 5366SOL    HW227561   1.602   1.606   8.745  0.5808  0.8462 -0.0661
 5367SOL     OW27562   1.351   2.726  10.359  0.4303  0.1003  0.0053
 5367SOL    HW127563   1.302   2.689  10.433 -1.6200  0.3349 -1.2514
 5367SOL    HW227564   1.287   2.772  10.305 -2.0010  1.3448  3.9039
 5368SOL     OW27565   0.494   1.356   7.150 -0.0971  0.2171  0.3445
 5368SOL    HW127566   0.543   1.285   7.107 -1.2367 -0.7705  0.6799
 5368SOL    HW227567   0.572   1.403   7.179  0.1431  0.3620 -0.5291
 5369SOL     OW27568   2.923   0.849   2.990  0.0210  0.1336  0.1688
 5369SOL    HW127569   2.970   0.932   2.985 -0.4619  0.2778 -1.9452
 5369SOL    HW227570   2.943   0.837   3.083  3.1462 -1.8694 -0.7413
 5370SOL     OW27571   3.109   3.694   8.099 -0.0948  0.4101  0.3703
 5370SOL    HW127572   3.111   3.679   8.005 -2.6695  1.2472  0.1828
 5370SOL    HW227573   3.014   3.692   8.111  0.1235  1.4378  2.3661
 5371SOL     OW27574   0.898   2.179  11.898 -0.5001 -0.1803 -0.2634
 5371SOL    HW127575   0.940   2.259  11.928 -0.4240 -0.1889 -0.3492
 5371SOL    HW227576   0.851   2.203  11.819 -1.4527  0.2522  0.4392
 5372SOL     OW27577   2.732   2.097   2.582 -0.2405  0.0697  0.1622
 5372SOL    HW127578   2.665   2.033   2.605 -0.3912 -0.3131 -1.3759
 5372SOL    HW227579   2.706   2.165   2.644 -4.5330 -0.7749 -0.7636
 5373SOL     OW27580   4.435   3.262   7.014 -0.2257 -0.2318 -0.0428
 5373SOL    HW127581   4.474   3.258   6.926  2.2670  0.8193  1.0080
 5373SOL    HW227582   4.454   3.175   7.049  1.7381 -0.6299 -2.1198
 5374SOL     OW27583   2.327   0.660  17.424  0.0102  0.0269 -0.6416
 5374SOL    HW127584   2.349   0.692  17.511  1.4154 -2.1494 -0.2094
 5374SOL    HW227585   2.248   0.607  17.429  0.8728 -1.3500 -1.5795
 5375SOL     OW27586   0.585   0.010   4.331  0.3442 -0.0826  0.9381
 5375SOL    HW127587   0.509   0.042   4.380 -0.5030 -0.5978 -0.0396
 5375SOL    HW227588   0.546   0.000   4.245 -0.1803 -1.0140  1.2831
 5376SOL     OW27589   1.383   0.489   3.017  0.4194  0.0043 -0.6514
 5376SOL    HW127590   1.386   0.395   3.034  1.0360  0.2038  0.3507
 5376SOL    HW227591   1.380   0.521   3.107 -2.5300  3.0471 -1.8072
 5377SOL     OW27592   3.676   3.854   3.527 -0.3123 -0.1473 -0.3536
 5377SOL    HW127593   3.701   3.788   3.592  1.7716  2.0111  1.0714
 5377SOL    HW227594   3.596   3.822   3.486  0.1685 -0.3117 -1.1762
 5378SOL     OW27595   0.059   0.140   9.410 -0.1517 -0.0679 -0.3505
 5378SOL    HW127596   0.083   0.089   9.333  1.2382  0.6220 -0.3825
 5378SOL    HW227597   4.721   0.096   9.464 -0.3549  1.5234  0.7139
 5379SOL     OW27598   2.492   2.360  11.465 -0.1372 -0.4617 -0.2141
 5379SOL    HW127599   2.455   2.273  11.479 -2.0136  0.8967  3.3661
 5379SOL    HW227600   2.434   2.413  11.411  0.4767  0.6831  0.2373
 5380SOL     OW27601   1.483   4.400   2.942 -0.2173  0.0588 -0.8142
 5380SOL    HW127602   1.552   4.434   2.884 -1.5958  2.6620 -0.9070
 5380SOL    HW227603   1.490   4.305   2.926 -0.6361 -0.2606  0.9050
 5381SOL     OW27604   3.657   4.510   7.755 -0.3518 -0.1145  0.2754
 5381SOL    HW127605   3.710   4.556   7.821  0.6724  0.1828 -0.7640
 5381SOL    HW227606   3.573   4.557   7.753  0.1587  0.7628 -0.3755
 5382SOL     OW27607   3.221   0.541  14.999  0.1118 -0.2749 -0.0565
 5382SOL    HW127608   3.169   0.465  15.024 -0.9026 -0.3542 -2.3723
 5382SOL    HW227609   3.310   0.520  15.028 -0.9323 -1.9526  1.9426
 5383SOL     OW27610   0.773   4.433   6.807 -0.6144  0.1887  0.3535
 5383SOL    HW127611   0.709   4.373   6.769  0.8059 -1.0067 -0.1427
 5383SOL    HW227612   0.763   4.517   6.762  1.0933  0.5143  0.5866
 5384SOL     OW27613   3.067   4.262  16.969 -0.7156  0.3138 -0.1325
 5384SOL    HW127614   2.973   4.263  16.950 -1.0781 -0.5498  1.6436
 5384SOL    HW227615   3.103   4.254  16.881  0.1272  0.2645  0.2195
 5385SOL     OW27616   1.124   2.421   4.268  0.0837 -0.2602  0.0608
 5385SOL    HW127617   1.107   2.360   4.196 -2.2913  1.1429 -0.5506
 5385SOL    HW227618   1.058   2.394   4.332  2.1157 -3.3211  0.8518
 5386SOL     OW27619   1.261   1.012   9.121 -0.6681 -1.0303  0.5501
 5386SOL    HW127620   1.338   1.054   9.083 -2.4581  1.9945  0.2744
 5386SOL    HW227621   1.295   0.941   9.176 -0.5394 -1.4274 -0.0429
 5387SOL     OW27622   1.099   1.257   7.724 -0.3221 -0.4090 -0.3116
 5387SOL    HW127623   1.106   1.186   7.788  1.2666  0.4107  0.4190
 5387SOL    HW227624   1.155   1.319   7.771 -1.1007 -0.9492  1.3459
 5388SOL     OW27625   2.212   2.406  10.451  0.2935 -0.6646  0.4427
 5388SOL    HW127626   2.260   2.441  10.526  0.2490  1.2105 -0.3973
 5388SOL    HW227627   2.278   2.399  10.382  0.6191  0.7087  0.6128
 5389SOL     OW27628   1.615   0.606   0.665 -0.3549 -0.1538 -0.6031
 5389SOL    HW127629   1.673   0.547   0.618  0.0667  0.3954 -0.7758
 5389SOL    HW227630   1.630   0.679   0.605  0.1348  1.9169  2.0240
 5390SOL     OW27631   0.529   0.217   1.889 -0.1349 -0.5644 -0.2308
 5390SOL    HW127632   0.448   0.243   1.845 -0.0294 -2.6261 -1.6602
 5390SOL    HW227633   0.602   0.212   1.827 -0.9410 -1.1499 -1.1307
 5391SOL     OW27634   0.768   4.075   5.397  0.6815 -0.1753 -0.3369
 5391SOL    HW127635   0.789   4.158   5.439  1.5387 -1.3792  1.6483
 5391SOL    HW227636   0.745   4.097   5.307 -1.1823  0.4715  0.3035
 5392SOL     OW27637   0.674   3.417   2.597  0.2097 -0.1944  0.3306
 5392SOL    HW127638   0.610   3.355   2.562  0.0091 -0.3598  0.9816
 5392SOL    HW227639   0.630   3.501   2.580 -1.4222 -0.4605  3.1034
 5393SOL     OW27640   1.541   4.535   4.902  0.5912  0.3454 -0.5964
 5393SOL    HW127641   1.602   4.598   4.864  1.6293  1.3423  2.7587
 5393SOL    HW227642   1.577   4.455   4.863 -1.0139 -0.9369  0.5863
 5394SOL     OW27643   2.486   4.242   5.236  0.2448  0.2578 -0.0052
 5394SOL    HW127644   2.560   4.265   5.180  1.5805 -0.7373  1.3745
 5394SOL    HW227645   2.414   4.280   5.186 -0.9938 -1.6642  0.3213
 5395SOL     OW27646   1.786   0.499   7.126 -0.1865 -0.6141  0.6171
 5395SOL    HW127647   1.730   0.497   7.048  1.1959  0.2317 -0.3954
 5395SOL    HW227648   1.876   0.503   7.095  0.1533 -2.1222  1.4095
 5396SOL     OW27649   3.258   1.412   9.786  0.0689 -0.3941 -1.2364
 5396SOL    HW127650   3.269   1.424   9.692 -2.8524  1.0873 -1.3844
 5396SOL    HW227651   3.169   1.378   9.797  0.3195 -0.7627 -0.3698
 5397SOL     OW27652   2.737   4.133   7.934 -0.3913  0.0616  0.0515
 5397SOL    HW127653   2.777   4.056   7.975 -1.0410 -0.7781 -0.8722
 5397SOL    HW227654   2.757   4.119   7.841 -0.4618 -1.7903  0.3016
 5398SOL     OW27655   3.632   1.174   3.458 -0.1067 -0.4788 -0.2150
 5398SOL    HW127656   3.610   1.240   3.392  0.4953  0.6906  0.7587
 5398SOL    HW227657   3.541   1.158   3.486 -0.6375 -0.2360 -1.8208
 5399SOL     OW27658   0.051   1.316   7.031  0.3571 -0.0254 -0.4563
 5399SOL    HW127659   0.096   1.379   6.976 -1.0759  1.6949  0.3437
 5399SOL    HW227660   0.091   1.322   7.117  1.1163  1.0034 -0.8809
 5400SOL     OW27661   0.135   3.775   4.311  0.1099 -0.0094 -0.3424
 5400SOL    HW127662   0.098   3.810   4.392  0.2927 -0.5139 -0.0393
 5400SOL    HW227663   0.117   3.682   4.323  1.6988 -0.0540  1.6765
 5401SOL     OW27664   0.552   2.498  11.065 -0.5032 -0.0455 -0.2026
 5401SOL    HW127665   0.608   2.573  11.045 -3.4160  2.5038  1.3339
 5401SOL    HW227666   0.497   2.489  10.987 -0.0233  0.0860 -0.5552
 5402SOL     OW27667   0.069   2.005  15.529 -0.0030  0.4784  0.0450
 5402SOL    HW127668   0.030   2.077  15.478 -0.2603 -0.8261 -1.5996
 5402SOL    HW227669   0.110   2.051  15.602  0.8814 -0.8359  0.3819
 5403SOL     OW27670   1.022   3.897  11.961 -0.1532 -0.6846 -0.1197
 5403SOL    HW127671   1.060   3.915  11.875 -1.7291 -0.3936 -0.7545
 5403SOL    HW227672   1.080   3.928  12.030 -1.8137  1.1012  0.4622
 5404SOL     OW27673   2.833   1.852  11.115 -0.2327  0.0750  0.2871
 5404SOL    HW127674   2.816   1.836  11.207  0.8832  2.9787  0.9950
 5404SOL    HW227675   2.813   1.763  11.086 -1.7255  1.2092 -2.1836
 5405SOL     OW27676   4.619   2.712   0.785 -0.2982  0.3722  0.1099
 5405SOL    HW127677   4.648   2.719   0.695 -0.7125 -3.6922 -0.3279
 5405SOL    HW227678   4.704   2.692   0.825 -0.1730 -0.4269 -0.5558
 5406SOL     OW27679   0.477   1.086   8.015 -0.2583  0.3807  0.0224
 5406SOL    HW127680   0.467   1.159   8.077 -0.1565 -0.1442  0.6586
 5406SOL    HW227681   0.437   1.019   8.070  1.1639  0.5323  1.2272
 5407SOL     OW27682   1.783   1.137  13.286  0.1171  0.0916 -0.4906
 5407SOL    HW127683   1.815   1.047  13.280 -1.1493 -0.3701 -0.3723
 5407SOL    HW227684   1.844   1.184  13.343 -1.8706  2.5131 -0.3445
 5408SOL     OW27685   0.452   0.004   5.328 -0.2148  0.6801  0.0983
 5408SOL    HW127686   0.466   0.005   5.234 -0.4262 -0.9614  0.0447
 5408SOL    HW227687   0.524   0.056   5.364 -1.2158  1.3451  1.1236
 5409SOL     OW27688   2.378   0.168   4.350 -0.6456 -0.8203 -0.3606
 5409SOL    HW127689   2.364   0.175   4.255  0.4542  0.6903 -0.3991
 5409SOL    HW227690   2.369   0.257   4.382  1.0345 -1.0293  0.6654
 5410SOL     OW27691   0.684   2.586   6.336  0.3242  0.2868 -0.0073
 5410SOL    HW127692   0.766   2.628   6.361  0.6057 -0.2961  0.0498
 5410SOL    HW227693   0.696   2.565   6.243 -0.2414  0.1108 -0.0385
 5411SOL     OW27694   2.750   3.323   8.205 -0.6049  0.1495 -0.3427
 5411SOL    HW127695   2.775   3.365   8.287 -1.6653 -0.6446  0.4005
 5411SOL    HW227696   2.667   3.369   8.197  0.2564  1.9175  0.9640
 5412SOL     OW27697   0.160   0.213   6.339 -0.2982  0.0784  0.3534
 5412SOL    HW127698   0.148   0.181   6.250 -2.1061  1.6676  0.0239
 5412SOL    HW227699   0.160   0.308   6.328  0.3262  0.0565  0.1826
 5413SOL     OW27700   1.743   4.173   1.845 -0.3614 -0.0628  0.0616
 5413SOL    HW127701   1.767   4.132   1.762 -1.3432 -0.7863  0.1342
 5413SOL    HW227702   1.656   4.209   1.830 -0.3341  0.2363  0.6206
 5414SOL     OW27703   1.835   1.679  12.763 -0.0008 -0.0128 -0.0611
 5414SOL    HW127704   1.834   1.725  12.680 -2.0268 -0.6867 -0.4034
 5414SOL    HW227705   1.755   1.628  12.754  1.1208 -2.1789  2.1872
 5415SOL     OW27706   0.412   0.748   1.736 -0.2104  0.3013 -0.0170
 5415SOL    HW127707   0.412   0.819   1.671 -0.2319  1.1291  0.8811
 5415SOL    HW227708   0.482   0.707   1.685 -0.6997 -0.3351 -0.1653
 5416SOL     OW27709   4.009   4.086   2.477  0.2218  0.1933 -0.3774
 5416SOL    HW127710   4.066   4.141   2.529  0.5987  0.9471 -1.5944
 5416SOL    HW227711   4.058   4.085   2.395  1.5817  4.2537  0.3923
 5417SOL     OW27712   4.502   2.442   4.990  0.2145  0.7845 -0.3658
 5417SOL    HW127713   4.578   2.497   5.007  0.6976 -0.9232  3.1213
 5417SOL    HW227714   4.537   2.353   5.001  0.3667  0.9279  0.3027
 5418SOL     OW27715   1.038   0.572   4.265 -1.0056 -0.1414  0.5178
 5418SOL    HW127716   1.071   0.656   4.297  0.8250 -0.3138 -0.9718
 5418SOL    HW227717   1.094   0.565   4.188 -1.3696  1.7678  0.0828
 5419SOL     OW27718   3.841   2.196   8.860  0.0110 -0.2217  0.1553
 5419SOL    HW127719   3.804   2.158   8.940 -0.9015 -1.1387 -0.7146
 5419SOL    HW227720   3.935   2.186   8.874 -0.2062  0.5842  2.2677
 5420SOL     OW27721   4.696   3.617   8.008 -0.6145 -0.2905  0.2395
 5420SOL    HW127722   4.679   3.709   7.990  2.5976  0.4297  0.8684
 5420SOL    HW227723   4.672   3.584   7.921  0.5572 -2.4756  0.7360
 5421SOL     OW27724   2.763   2.624   2.383 -0.0826  0.1779  0.3269
 5421SOL    HW127725   2.809   2.559   2.330  0.2706 -1.8311  3.1104
 5421SOL    HW227726   2.831   2.685   2.411  1.3379 -0.8325 -0.9248
 5422SOL     OW27727   1.679   2.546  17.018 -0.2178  0.1766 -0.1685
 5422SOL    HW127728   1.704   2.617  16.959 -2.2256  1.3111  0.3446
 5422SOL    HW227729   1.702   2.472  16.962 -1.4075  1.0993 -1.8587
 5423SOL     OW27730   4.115   2.729   0.261  0.5406 -0.0983  0.5180
 5423SOL    HW127731   4.145   2.818   0.281 -1.4905  0.3440  1.6298
 5423SOL    HW227732   4.184   2.700   0.202 -1.4418 -1.2817 -1.2261
 5424SOL     OW27733   2.202   4.700   6.960 -0.2248 -0.2276  0.4543
 5424SOL    HW127734   2.143   0.039   6.995  0.6238  0.6894  0.1384
 5424SOL    HW227735   2.227   0.016   6.879 -1.2369 -4.1752 -2.0091
 5425SOL     OW27736   3.451   2.779   8.259  0.1332  0.0556 -0.8156
 5425SOL    HW127737   3.503   2.700   8.273 -0.5532 -0.0655  1.0171
 5425SOL    HW227738   3.411   2.757   8.175  0.2627 -1.0155 -0.5960
 5426SOL     OW27739   3.106   3.981   9.348  0.7262  0.3421  0.2985
 5426SOL    HW127740   3.158   3.907   9.379  2.2106 -0.0445 -3.1957
 5426SOL    HW227741   3.049   3.945   9.280  1.0811 -1.0574  0.7563
 5427SOL     OW27742   0.050   4.354  11.431 -0.0326 -0.0552  0.2427
 5427SOL    HW127743   4.718   4.280  11.428  1.0690 -0.8693 -1.2991
 5427SOL    HW227744   4.714   4.425  11.443  1.0183  0.9275  0.0302
 5428SOL     OW27745   0.103   0.076  16.691 -0.2946 -0.5212  0.4013
 5428SOL    HW127746   0.137   0.099  16.777  0.2080 -2.8407  0.8439
 5428SOL    HW227747   0.161   0.132  16.640 -0.6065 -0.7382 -0.1991
 5429SOL     OW27748   1.563   3.999  15.229 -0.2538  0.2097  0.0080
 5429SOL    HW127749   1.603   3.964  15.149 -3.3334  4.4791 -3.3640
 5429SOL    HW227750   1.648   4.022  15.265  0.9487 -2.0672 -1.3510
 5430SOL     OW27751   2.425   2.907   1.746  0.3319 -0.6114  1.0625
 5430SOL    HW127752   2.487   2.866   1.686 -0.1088 -0.3358  0.4149
 5430SOL    HW227753   2.350   2.927   1.689  0.4299  0.3811  1.2913
 5431SOL     OW27754   0.973   3.632  11.366  0.1895  0.2512  0.0740
 5431SOL    HW127755   1.050   3.671  11.325  0.2107 -0.3112 -0.4221
 5431SOL    HW227756   0.918   3.610  11.291  0.4721  2.7714 -0.8778
 5432SOL     OW27757   4.003   2.902  17.229 -0.0120  0.2792  0.4857
 5432SOL    HW127758   4.044   2.936  17.149 -1.6073  2.0158  0.4004
 5432SOL    HW227759   3.949   2.827  17.205  0.4630 -0.3558  1.4009
 5433SOL     OW27760   1.640   4.690   6.080  0.3015  0.1524  0.7607
 5433SOL    HW127761   1.565   4.681   6.139 -1.3580  0.0120 -1.3654
 5433SOL    HW227762   1.641   0.058   6.068  1.5088  0.3184  2.3098
 5434SOL     OW27763   2.904   2.500   3.022 -0.3779  0.3236  0.3677
 5434SOL    HW127764   2.861   2.520   2.938 -0.7099 -0.2661  0.3987
 5434SOL    HW227765   2.841   2.524   3.090 -1.6419 -0.0950 -0.6402
 5435SOL     OW27766   0.408   3.245   9.069  0.5899  0.4362  0.1927
 5435SOL    HW127767   0.407   3.338   9.046 -2.7002  0.3273 -0.1618
 5435SOL    HW227768   0.400   3.247   9.164 -1.2464  1.1157  0.0330
 5436SOL     OW27769   4.571   4.024   5.412 -0.0170 -0.1123  0.6618
 5436SOL    HW127770   4.477   4.007   5.422 -0.1726  0.5789  0.3400
 5436SOL    HW227771   4.614   3.951   5.456 -0.0015  0.6022  1.8244
 5437SOL     OW27772   1.509   2.567  16.675 -0.0324  0.1323 -0.0341
 5437SOL    HW127773   1.502   2.618  16.594 -1.4640 -0.0406 -0.0353
 5437SOL    HW227774   1.424   2.577  16.717  0.2446 -2.6639  1.2241
 5438SOL     OW27775   4.361   4.565  16.108 -0.1324 -0.0599 -0.1374
 5438SOL    HW127776   4.312   4.614  16.043  0.1059 -0.0773 -0.3307
 5438SOL    HW227777   4.335   4.614  16.185  2.2257 -0.5718  1.0104
 5439SOL     OW27778   2.970   1.138   7.951 -0.4875 -0.3057 -0.2333
 5439SOL    HW127779   3.030   1.079   7.905 -0.7955  0.9772 -2.2465
 5439SOL    HW227780   2.895   1.123   7.892 -1.3127 -1.2952  1.0630
 5440SOL     OW27781   3.564   2.294  15.745 -0.1497  0.0903 -0.0008
 5440SOL    HW127782   3.650   2.323  15.774  0.0010 -0.4223  0.0803
 5440SOL    HW227783   3.513   2.329  15.818 -0.7747 -0.0167 -0.3791
 5441SOL     OW27784   2.188   0.695  12.272  0.7887 -0.0027 -0.0143
 5441SOL    HW127785   2.262   0.751  12.246 -0.5544  1.5032 -0.6209
 5441SOL    HW227786   2.202   0.619  12.216 -0.1250 -0.5208  0.4587
 5442SOL     OW27787   2.013   0.599   8.401  0.1738 -0.4740  0.0565
 5442SOL    HW127788   1.979   0.684   8.427  0.0765 -0.3297 -0.5498
 5442SOL    HW227789   2.051   0.615   8.315 -1.5217  1.2272 -0.3773
 5443SOL     OW27790   0.054   4.108   2.611  0.2588 -0.0941 -0.7832
 5443SOL    HW127791   0.080   4.187   2.659 -0.1192 -1.9076  2.3665
 5443SOL    HW227792   4.708   4.143   2.560 -0.1472 -1.3278 -1.0390
 5444SOL     OW27793   3.758   4.014  13.372  0.2300  0.2686  0.1216
 5444SOL    HW127794   3.681   4.020  13.314  1.1933 -0.5610 -1.2472
 5444SOL    HW227795   3.812   4.070  13.317 -0.5853 -0.7070 -1.7159
 5445SOL     OW27796   2.558   2.303   5.059 -0.0362  0.4858  0.5633
 5445SOL    HW127797   2.634   2.324   5.113 -0.5456  0.3934  1.3124
 5445SOL    HW227798   2.573   2.209   5.053  0.6088  0.7252 -1.7276
 5446SOL     OW27799   0.278   0.722   3.536  0.4235 -0.2009 -0.0988
 5446SOL    HW127800   0.311   0.777   3.606 -0.8462  0.6174 -0.1347
 5446SOL    HW227801   0.190   0.758   3.524  0.5304 -0.0879 -0.5476
 5447SOL     OW27802   1.619   0.830   0.517 -0.2944  0.1941 -0.2472
 5447SOL    HW127803   1.618   0.864   0.428  1.1028  1.9408  0.3826
 5447SOL    HW227804   1.671   0.891   0.570 -0.1959  0.9093 -1.1758
 5448SOL     OW27805   1.020   4.238   3.520  1.0514 -0.3213  0.5234
 5448SOL    HW127806   0.938   4.278   3.547 -0.6845 -1.2529 -3.3627
 5448SOL    HW227807   1.074   4.300   3.471 -1.3729 -0.3241 -2.1126
 5449SOL     OW27808   3.768   2.453  16.925 -0.8037 -0.0796  0.6652
 5449SOL    HW127809   3.860   2.432  16.910 -0.3494  0.4234  2.6297
 5449SOL    HW227810   3.731   2.383  16.872 -2.4235  2.3304 -1.4069
 5450SOL     OW27811   1.715   1.200   4.778  0.6598  0.2272  0.3984
 5450SOL    HW127812   1.711   1.171   4.870  0.8759 -1.6153 -0.1835
 5450SOL    HW227813   1.688   1.117   4.738 -0.1177 -0.3410  2.0824
 5451SOL     OW27814   1.342   1.207   5.705 -0.0042 -0.2340 -0.0610
 5451SOL    HW127815   1.333   1.116   5.679  0.9030 -0.2619 -0.2791
 5451SOL    HW227816   1.358   1.195   5.799  0.0957  0.5822  0.0265
 5452SOL     OW27817   0.046   3.205   8.701  0.6290 -0.5156  0.3653
 5452SOL    HW127818   4.717   3.129   8.697  0.7336 -0.5260 -1.1914
 5452SOL    HW227819   0.085   3.204   8.788  0.3991 -0.5190  0.4673
 5453SOL     OW27820   1.613   3.124   0.494  0.0659  0.3707 -0.1622
 5453SOL    HW127821   1.600   3.218   0.484  0.4261  0.3147 -1.1784
 5453SOL    HW227822   1.523   3.096   0.509  0.4417 -0.4468  0.5341
 5454SOL     OW27823   3.052   1.858  17.172 -0.4761  0.4487  0.5072
 5454SOL    HW127824   3.053   1.893  17.083  1.0619  0.9408  0.7192
 5454SOL    HW227825   3.000   1.924  17.219  0.8452  0.2964  2.1823
 5455SOL     OW27826   2.155   4.090   2.164 -0.2948 -0.6204 -0.2489
 5455SOL    HW127827   2.101   4.147   2.110  0.3669  0.9365  0.7392
 5455SOL    HW227828   2.099   4.020   2.199 -2.2144 -1.3194 -4.7681
 5456SOL     OW27829   4.554   4.429  17.573  0.4511  0.2928  0.1837
 5456SOL    HW127830   4.478   4.448  17.628 -1.0536  2.5699 -2.6554
 5456SOL    HW227831   4.621   4.428  17.642  1.1727 -0.2947 -0.5206
 5457SOL     OW27832   3.911   1.812   6.608  0.1105  0.6633  0.3101
 5457SOL    HW127833   3.996   1.810   6.563 -0.1824 -0.6480 -0.1766
 5457SOL    HW227834   3.949   1.780   6.690  0.8255  1.0861  0.1491
 5458SOL     OW27835   1.134   1.374  13.358 -0.3714 -0.3199  0.7310
 5458SOL    HW127836   1.193   1.359  13.432  0.3598  2.3657  0.6992
 5458SOL    HW227837   1.054   1.336  13.393 -1.8765  0.3227 -2.0401
 5459SOL     OW27838   0.406   4.707   3.419  0.2666  0.5466  0.5014
 5459SOL    HW127839   0.369   4.718   3.506 -2.0329 -0.7606 -0.3319
 5459SOL    HW227840   0.407   4.615   3.394 -0.6958  1.3393 -2.5275
 5460SOL     OW27841   0.979   2.449   7.259  0.1827  0.7396 -0.4031
 5460SOL    HW127842   0.999   2.525   7.313  0.0825  1.3249 -1.1873
 5460SOL    HW227843   0.910   2.480   7.200 -1.0371 -0.3000  0.4755
 5461SOL     OW27844   2.969   2.653  16.022  0.3205 -0.1021  0.3274
 5461SOL    HW127845   2.940   2.618  15.938 -0.4907 -0.7106  0.8663
 5461SOL    HW227846   3.060   2.680  16.012  0.3602 -0.3645 -0.0008
 5462SOL     OW27847   0.031   3.967   8.252 -1.2516 -0.7250  0.0198
 5462SOL    HW127848   0.117   4.006   8.233 -0.3654 -1.0922  3.1441
 5462SOL    HW227849   0.006   3.996   8.340  1.9300 -1.2656  1.1131
 5463SOL     OW27850   1.995   1.086   3.616  0.6450 -0.1432  0.0310
 5463SOL    HW127851   1.935   1.023   3.576  1.6606 -1.3951  0.4965
 5463SOL    HW227852   1.987   1.144   3.540 -0.1547 -0.5535 -0.1951
 5464SOL     OW27853   1.191   1.941  10.908 -0.3654 -0.2679  0.5191
 5464SOL    HW127854   1.199   2.033  10.882 -3.3851 -0.1528  0.0875
 5464SOL    HW227855   1.285   1.919  10.907 -0.5953 -1.4286  3.2308
 5465SOL     OW27856   4.544   4.212   2.532  0.1707 -0.2396 -0.0669
 5465SOL    HW127857   4.460   4.188   2.493  0.1534  0.9574 -0.7589
 5465SOL    HW227858   4.515   4.246   2.616 -0.6253 -0.3941 -0.2763
 5466SOL     OW27859   1.273   1.413  12.617 -0.6331 -0.0146 -0.1163
 5466SOL    HW127860   1.231   1.449  12.539 -0.0712 -0.8607 -0.8011
 5466SOL    HW227861   1.261   1.319  12.601 -0.2883 -0.1162  0.2239
 5467SOL     OW27862   4.546   3.690   0.395 -0.7696 -0.2793 -0.7492
 5467SOL    HW127863   4.482   3.696   0.324 -1.3729 -0.0626 -0.1822
 5467SOL    HW227864   4.519   3.753   0.461  1.2546 -1.1474  0.9020
 5468SOL     OW27865   3.167   1.642   6.293 -0.2407 -0.0246 -0.1515
 5468SOL    HW127866   3.238   1.591   6.253  0.6539  0.9115  0.2464
 5468SOL    HW227867   3.096   1.581   6.274 -1.9822  1.3169  2.1044
 5469SOL     OW27868   3.493   0.620   5.088 -0.6983 -0.5849 -0.3831
 5469SOL    HW127869   3.424   0.623   5.154 -2.1030  1.1690 -1.9279
 5469SOL    HW227870   3.521   0.710   5.100  1.1557 -0.8478 -2.6648
 5470SOL     OW27871   0.371   0.371   5.848  0.1532  0.0778 -0.3224
 5470SOL    HW127872   0.368   0.412   5.935 -3.2622 -0.6110 -0.1206
 5470SOL    HW227873   0.377   0.280   5.878  1.0089  0.5105  0.8062
 5471SOL     OW27874   2.795   1.805  11.381  0.2230 -0.3249  0.0657
 5471SOL    HW127875   2.785   1.729  11.439  1.9064 -2.0321 -1.8376
 5471SOL    HW227876   2.733   1.867  11.418 -2.5213 -1.6178 -2.3656
 5472SOL     OW27877   1.238   2.538  10.126  0.4755  0.5549 -0.4589
 5472SOL    HW127878   1.182   2.477  10.175  0.5238  0.5113 -0.4582
 5472SOL    HW227879   1.171   2.591  10.082 -1.9140 -1.3588  0.8856
 5473SOL     OW27880   2.453   2.177  16.513  0.1256 -0.4113 -0.2686
 5473SOL    HW127881   2.411   2.208  16.594 -0.4902 -3.1963  0.4715
 5473SOL    HW227882   2.386   2.189  16.445 -0.2435  1.2643  0.3793
 5474SOL     OW27883   2.402   1.791   9.600  0.3435  0.3191 -0.1632
 5474SOL    HW127884   2.460   1.784   9.675 -1.7495 -0.6677  1.3882
 5474SOL    HW227885   2.435   1.725   9.538  0.3341  1.1944 -1.1004
 5475SOL     OW27886   3.372   2.652  12.178  0.5588  0.2509 -0.4738
 5475SOL    HW127887   3.282   2.657  12.211  1.9380  0.4089  3.2543
 5475SOL    HW227888   3.398   2.734  12.221 -0.5986 -0.2543  1.1975
 5476SOL     OW27889   0.786   2.077  10.587  0.3535  0.6808 -0.0511
 5476SOL    HW127890   0.786   2.054  10.679 -2.3462  1.3788  0.1332
 5476SOL    HW227891   0.709   2.135  10.583  1.3451  2.0245  0.5075
 5477SOL     OW27892   1.107   3.517   8.645  0.1103  0.6020  0.1152
 5477SOL    HW127893   1.094   3.434   8.599  0.0834  2.1490 -2.6763
 5477SOL    HW227894   1.202   3.524   8.633  0.1226 -0.7604 -0.5463
 5478SOL     OW27895   2.293   1.870   6.840  0.1760 -0.3540 -0.4037
 5478SOL    HW127896   2.204   1.904   6.834 -0.1236 -1.1928 -0.7195
 5478SOL    HW227897   2.281   1.794   6.898 -1.7245  0.4021  0.1707
 5479SOL     OW27898   4.013   3.960  11.233 -0.5561 -0.1235 -0.3905
 5479SOL    HW127899   3.972   4.003  11.308 -0.8152 -1.8385  0.4527
 5479SOL    HW227900   4.101   3.932  11.259 -0.9026 -2.9534 -2.2097
 5480SOL     OW27901   2.177   1.777   7.726  0.3083 -0.1260  0.0191
 5480SOL    HW127902   2.193   1.760   7.634  1.1412 -2.4057  0.5755
 5480SOL    HW227903   2.094   1.731   7.738 -0.1605  0.4470 -1.1774
 5481SOL     OW27904   0.653   4.111  10.604 -0.4267  0.0608 -0.0669
 5481SOL    HW127905   0.734   4.074  10.639  0.7604  1.0663 -1.7347
 5481SOL    HW227906   0.604   4.118  10.686 -0.0717 -0.7440  0.2166
 5482SOL     OW27907   3.332   1.195   3.126  0.2537 -0.2689  0.1358
 5482SOL    HW127908   3.281   1.115   3.117 -0.2009  0.0104  0.1868
 5482SOL    HW227909   3.306   1.231   3.211 -0.2767 -0.3853  0.0243
 5483SOL     OW27910   2.451   2.089   6.430  0.5729  0.1349 -0.2198
 5483SOL    HW127911   2.540   2.121   6.417  0.2466  1.5812  1.1022
 5483SOL    HW227912   2.407   2.173   6.419 -0.3457 -0.6238 -2.2725
 5484SOL     OW27913   2.801   2.253   0.243  0.2127 -0.7738 -0.0876
 5484SOL    HW127914   2.808   2.345   0.218 -1.4366 -0.0000  2.2385
 5484SOL    HW227915   2.867   2.209   0.189  0.4453 -1.1656  0.5082
 5485SOL     OW27916   0.545   1.514   4.144  0.4655 -0.0504 -0.0231
 5485SOL    HW127917   0.515   1.599   4.110  1.0960 -1.0633 -3.1072
 5485SOL    HW227918   0.538   1.528   4.238  0.4947 -0.1343 -0.0088
 5486SOL     OW27919   4.586   3.791  15.761 -0.7949  0.0623  0.6000
 5486SOL    HW127920   4.625   3.798  15.848  1.0095 -2.5398 -0.0008
 5486SOL    HW227921   4.496   3.787  15.792 -0.3222  0.6007  2.0567
 5487SOL     OW27922   2.072   0.250   9.130 -0.4068  0.0965 -0.1019
 5487SOL    HW127923   2.077   0.303   9.210 -1.2397  1.1272 -0.7358
 5487SOL    HW227924   2.005   0.182   9.144  0.1398 -0.7927 -1.8139
 5488SOL     OW27925   4.165   0.088   7.366  0.3644 -0.2582  0.3989
 5488SOL    HW127926   4.084   0.115   7.409 -0.8559 -1.7596 -0.9461
 5488SOL    HW227927   4.202   0.170   7.334  1.4214 -1.5204 -1.6047
 5489SOL     OW27928   4.315   4.203   8.286  0.3573 -0.2416  0.2575
 5489SOL    HW127929   4.410   4.197   8.275  0.1383  1.5844 -2.7397
 5489SOL    HW227930   4.302   4.120   8.240  1.0259  0.1487 -0.6390
 5490SOL     OW27931   2.219   4.049   2.513 -0.6804  0.0307 -0.2226
 5490SOL    HW127932   2.294   4.030   2.570 -0.0570  0.6077 -0.8359
 5490SOL    HW227933   2.238   4.121   2.453  1.3774 -0.1401  0.2041
 5491SOL     OW27934   3.901   0.767   6.948 -0.5364  0.1437  0.1971
 5491SOL    HW127935   3.840   0.811   6.889 -0.3374 -0.9536 -0.8261
 5491SOL    HW227936   3.922   0.837   7.009 -1.2642 -0.4070  1.0786
 5492SOL     OW27937   3.914   0.754   5.814 -0.6405  0.1423  0.3436
 5492SOL    HW127938   3.846   0.717   5.759 -2.5558  1.4152  1.8382
 5492SOL    HW227939   3.995   0.715   5.782 -0.1254 -0.2398  2.0724
 5493SOL     OW27940   3.430   0.429   3.671  0.0024 -0.0991 -0.3882
 5493SOL    HW127941   3.421   0.365   3.742 -0.5741 -0.9217 -1.2101
 5493SOL    HW227942   3.479   0.373   3.610  0.4733  1.5477 -1.5088
 5494SOL     OW27943   3.180   1.020   2.217  0.7345 -0.0194 -0.6025
 5494SOL    HW127944   3.207   0.932   2.190  2.4590  0.3258 -0.0161
 5494SOL    HW227945   3.157   1.003   2.308  3.1875 -0.7058 -0.1058
 5495SOL     OW27946   0.695   0.556   9.627  0.5611  0.1955  0.0681
 5495SOL    HW127947   0.626   0.564   9.560  0.6584 -0.3428 -0.0978
 5495SOL    HW227948   0.694   0.645   9.661 -2.6945 -0.5382  1.9603
 5496SOL     OW27949   3.586   1.345  16.283 -0.0991 -0.4868  0.3149
 5496SOL    HW127950   3.562   1.368  16.373 -1.6983  0.9715 -0.4876
 5496SOL    HW227951   3.679   1.324  16.290  0.5792  2.2385 -0.5020
 5497SOL     OW27952   2.221   1.138   2.206 -0.3795 -0.6840  0.3108
 5497SOL    HW127953   2.298   1.115   2.153  0.0483  0.1536  0.5729
 5497SOL    HW227954   2.159   1.165   2.140  1.5095 -1.1134 -1.6384
 5498SOL     OW27955   0.130   4.689   2.440 -0.5966  0.0472 -0.1921
 5498SOL    HW127956   0.149   4.611   2.388 -1.7597  0.5022 -1.3217
 5498SOL    HW227957   0.218   4.715   2.467 -0.1806 -0.8859 -0.6344
 5499SOL     OW27958   0.063   0.612   2.444  0.3315  0.0583 -0.0088
 5499SOL    HW127959   0.142   0.662   2.466 -0.4718  0.8310  1.1907
 5499SOL    HW227960   4.719   0.673   2.426  0.1950 -0.0766  0.0759
 5500SOL     OW27961   0.140   2.138   3.796 -0.0650  0.7837  0.0651
 5500SOL    HW127962   0.054   2.142   3.840 -0.9412  2.6500 -1.8294
 5500SOL    HW227963   0.192   2.154   3.875  0.3890  1.6896 -0.4169
 5501SOL     OW27964   2.174   0.690  14.226 -0.5440 -0.0957 -0.2028
 5501SOL    HW127965   2.240   0.731  14.281 -0.7659  0.8396 -0.6370
 5501SOL    HW227966   2.101   0.683  14.288  1.0926 -1.5726  1.5537
 5502SOL     OW27967   4.683   4.244   8.026  1.0395  0.7675  0.5659
 5502SOL    HW127968   0.051   4.236   8.020  0.7805 -1.4220 -0.7020
 5502SOL    HW227969   4.683   4.313   8.092  4.1906  0.6129  0.7103
 5503SOL     OW27970   4.675   1.270   8.194 -0.1000 -0.1676 -0.3770
 5503SOL    HW127971   4.623   1.230   8.263  0.3252  0.6112  0.4012
 5503SOL    HW227972   4.636   1.358   8.198 -0.6511 -0.4509  0.2853
 5504SOL     OW27973   3.982   2.897   7.132  0.2797 -0.5141 -0.5748
 5504SOL    HW127974   4.037   2.819   7.138 -1.0353 -1.5234 -1.7701
 5504SOL    HW227975   4.015   2.952   7.203 -3.6708  2.2852 -0.8854
 5505SOL     OW27976   3.590   0.865   5.241 -0.6099  0.1113 -0.5284
 5505SOL    HW127977   3.634   0.949   5.256 -1.4378  0.6901 -1.3863
 5505SOL    HW227978   3.536   0.887   5.166 -0.2044 -0.2172 -0.9151
 5506SOL     OW27979   3.690   2.788   1.779  0.2462  0.1874  0.0410
 5506SOL    HW127980   3.700   2.718   1.843 -1.3313  0.1576  0.2686
 5506SOL    HW227981   3.678   2.739   1.697  1.0392  0.9291 -0.5131
 5507SOL     OW27982   2.942   3.917   6.634  0.3250 -0.6945 -0.8090
 5507SOL    HW127983   3.009   3.899   6.569  0.0075 -2.2073 -0.7152
 5507SOL    HW227984   2.990   3.942   6.713 -0.9779 -0.7965  0.0253
 5508SOL     OW27985   2.560   2.452   4.235 -0.2173 -0.0223  0.4433
 5508SOL    HW127986   2.654   2.449   4.250 -0.0093  3.5792 -0.2177
 5508SOL    HW227987   2.542   2.358   4.238  0.5524 -0.2264 -0.9538
 5509SOL     OW27988   1.722   2.696  16.799 -0.0789 -0.5409  0.3178
 5509SOL    HW127989   1.637   2.656  16.776 -2.0006  4.1477 -0.6998
 5509SOL    HW227990   1.737   2.714  16.706  0.8177  1.0603  0.7950
 5510SOL     OW27991   3.098   3.982   8.771  0.1233 -0.0946 -0.4344
 5510SOL    HW127992   3.145   4.046   8.825 -0.1829  0.2371 -0.5625
 5510SOL    HW227993   3.171   3.941   8.724  0.1986 -1.7911  1.1721
 5511SOL     OW27994   4.242   3.137   9.167  0.3321  0.2214 -0.1649
 5511SOL    HW127995   4.306   3.163   9.233  0.3923  0.7668 -0.4399
 5511SOL    HW227996   4.161   3.144   9.218  0.3293 -0.1860 -0.1142
 5512SOL     OW27997   3.409   1.316   2.868  0.0074 -0.5451  0.0991
 5512SOL    HW127998   3.499   1.339   2.889  0.0492  0.1096 -0.7791
 5512SOL    HW227999   3.389   1.271   2.950  2.0765 -0.5690  0.5864
 5513SOL     OW28000   4.496   1.051  12.641 -0.1505 -0.0108 -0.2711
 5513SOL    HW128001   4.450   1.086  12.717 -2.3579 -1.5964 -0.9076
 5513SOL    HW228002   4.586   1.070  12.670 -0.2175 -1.2075  0.7184
 5514SOL     OW28003   3.866   1.634   2.838 -0.1523  0.2853  0.3952
 5514SOL    HW128004   3.847   1.724   2.865 -1.2353 -0.1322  1.0203
 5514SOL    HW228005   3.881   1.647   2.744  2.0627  0.9425  0.8214
 5515SOL     OW28006   4.186   1.983  12.438  0.1802  0.2509 -0.0819
 5515SOL    HW128007   4.262   1.985  12.496  0.9780  1.1111 -1.1354
 5515SOL    HW228008   4.127   1.937  12.497  1.1800  1.6606  2.0033
 5516SOL     OW28009   0.817   3.727   8.286 -0.1922  0.0518 -0.3398
 5516SOL    HW128010   0.834   3.793   8.353 -1.6556  1.2816 -1.1912
 5516SOL    HW228011   0.865   3.651   8.318  0.8165  2.4416  3.7683
 5517SOL     OW28012   0.461   2.651   2.972 -0.4430 -0.0322 -0.2855
 5517SOL    HW128013   0.500   2.575   3.015 -0.9986 -0.6378 -0.8382
 5517SOL    HW228014   0.410   2.600   2.908  0.9850  2.1919 -3.1612
 5518SOL     OW28015   2.628   3.302  16.693 -0.8236  0.1506 -0.4587
 5518SOL    HW128016   2.601   3.358  16.620 -0.2513  0.4630 -0.4238
 5518SOL    HW228017   2.564   3.329  16.758 -0.7124 -1.1343  0.1950
 5519SOL     OW28018   1.697   4.223  16.056  0.3334  0.0616 -0.3540
 5519SOL    HW128019   1.757   4.292  16.086  0.5524  0.0141 -0.6877
 5519SOL    HW228020   1.719   4.168  16.131 -1.2675 -0.7377 -0.4593
 5520SOL     OW28021   0.844   2.885   5.809 -0.0566  0.3026 -0.1160
 5520SOL    HW128022   0.816   2.956   5.752  1.7427  0.6822 -0.5183
 5520SOL    HW228023   0.829   2.821   5.739 -0.0691 -0.6343  0.7299
 5521SOL     OW28024   2.318   2.435   8.368  0.1491 -0.2035 -0.4810
 5521SOL    HW128025   2.395   2.391   8.403  0.5252  1.5914  0.9223
 5521SOL    HW228026   2.281   2.481   8.443 -0.4812 -0.0863 -0.8633
 5522SOL     OW28027   0.896   1.537   7.481  0.2918  0.3480 -0.2341
 5522SOL    HW128028   0.917   1.446   7.500 -1.0381  0.0091 -0.3417
 5522SOL    HW228029   0.831   1.556   7.549 -0.5669 -0.8424 -0.7241
 5523SOL     OW28030   3.279   1.856   0.568  0.0276  0.1444 -0.9803
 5523SOL    HW128031   3.234   1.773   0.553  1.9747 -1.2262  0.7672
 5523SOL    HW228032   3.366   1.849   0.529 -0.1135 -1.2183 -1.0551
 5524SOL     OW28033   1.603   2.556   2.144  0.1086 -0.5223 -0.5592
 5524SOL    HW128034   1.606   2.585   2.053 -1.8999  0.2854 -0.3687
 5524SOL    HW228035   1.535   2.489   2.139 -1.7855  1.4450 -0.9371
 5525SOL     OW28036   0.654   0.265   4.825  0.2329  0.1596  0.5185
 5525SOL    HW128037   0.656   0.359   4.843  0.1994  0.2708 -0.0829
 5525SOL    HW228038   0.712   0.244   4.898  1.5911 -0.4641 -0.7403
 5526SOL     OW28039   2.880   1.429   4.041 -0.1054  0.2280 -0.3043
 5526SOL    HW128040   2.940   1.358   4.018  2.4413  2.6992 -1.2209
 5526SOL    HW228041   2.792   1.401   4.015 -0.2161 -0.1967  0.5114
 5527SOL     OW28042   3.692   3.633   2.621  0.5392  0.0942  0.6627
 5527SOL    HW128043   3.683   3.727   2.635 -2.5775 -0.0898 -0.0002
 5527SOL    HW228044   3.757   3.642   2.551 -0.0662 -0.8466 -0.0231
 5528SOL     OW28045   2.645   1.797  14.919  0.6907  0.4671 -0.0685
 5528SOL    HW128046   2.590   1.761  14.988  0.5136  1.0973  0.1176
 5528SOL    HW228047   2.602   1.881  14.904 -1.5559 -0.5542  0.6142
 5529SOL     OW28048   1.209   1.000   7.013  0.3431  0.0305  0.4462
 5529SOL    HW128049   1.200   0.949   7.093  2.2006 -0.6243  0.2332
 5529SOL    HW228050   1.216   0.929   6.949 -0.6874  0.7268 -0.4392
 5530SOL     OW28051   3.240   3.145   4.199  0.2184  0.0372  0.0345
 5530SOL    HW128052   3.213   3.104   4.117 -0.5393  0.2663  0.1668
 5530SOL    HW228053   3.307   3.207   4.172  0.1731 -0.6361 -1.6540
 5531SOL     OW28054   2.651   1.533  17.546  0.3993 -0.0395  0.3531
 5531SOL    HW128055   2.697   1.563  17.624 -0.3200  0.2965  0.6515
 5531SOL    HW228056   2.708   1.472  17.499 -1.2124 -1.0761 -0.2819
 5532SOL     OW28057   2.955   2.009   0.967 -0.1204 -0.0830 -0.3622
 5532SOL    HW128058   3.038   2.036   1.006  0.5120 -2.1632 -0.2748
 5532SOL    HW228059   2.988   2.002   0.878 -2.1342 -3.8967 -0.8294
 5533SOL     OW28060   1.899   1.584   8.092 -0.1404  0.2990  0.3011
 5533SOL    HW128061   1.905   1.496   8.054  0.9999  0.5386 -0.0782
 5533SOL    HW228062   1.937   1.571   8.179  1.1047  0.4127 -0.2225
 5534SOL     OW28063   2.047   1.370   7.237 -0.2771  0.4380 -0.2949
 5534SOL    HW128064   2.140   1.390   7.238 -0.1964  0.0295  0.2510
 5534SOL    HW228065   2.023   1.398   7.325  0.2189  0.3860 -0.1417
 5535SOL     OW28066   2.324   3.961   5.848 -0.4356  0.4750  0.1017
 5535SOL    HW128067   2.271   3.908   5.789 -1.9898 -0.7955  2.6569
 5535SOL    HW228068   2.410   3.950   5.806 -0.3986 -0.1153  0.3284
 5536SOL     OW28069   4.361   0.815  10.714 -0.3425 -0.2090  0.6177
 5536SOL    HW128070   4.441   0.831  10.764 -0.5577 -2.0716  1.5153
 5536SOL    HW228071   4.398   0.794  10.628 -0.7700  0.4096  0.2812
 5537SOL     OW28072   0.705   1.144  11.550  0.4148  0.3071 -0.5865
 5537SOL    HW128073   0.741   1.100  11.474 -0.0310 -2.9315  1.0816
 5537SOL    HW228074   0.781   1.148  11.608 -1.5510  0.5656  1.9648
 5538SOL     OW28075   4.324   3.220   1.013  0.1551 -0.0296 -0.5509
 5538SOL    HW128076   4.365   3.135   1.032 -5.1004 -2.5353 -0.4640
 5538SOL    HW228077   4.235   3.194   0.990 -0.6402  0.4176  2.0778
 5539SOL     OW28078   0.826   3.375  13.793  0.1690  0.0803  0.1406
 5539SOL    HW128079   0.903   3.341  13.839 -1.7064 -2.1248  1.6876
 5539SOL    HW228080   0.870   3.428  13.727 -0.3892 -1.1993 -1.2747
 5540SOL     OW28081   4.345   2.047   4.695 -0.7032 -0.3991  0.6296
 5540SOL    HW128082   4.440   2.039   4.681 -0.7981  4.0348 -2.7665
 5540SOL    HW228083   4.315   2.082   4.611 -1.0292  2.7985  2.0628
 5541SOL     OW28084   4.509   3.706   7.448  0.6085  0.4953  0.3851
 5541SOL    HW128085   4.490   3.712   7.542  4.3778 -4.1261  1.4240
 5541SOL    HW228086   4.458   3.778   7.411 -0.9842 -2.0867 -2.4433
 5542SOL     OW28087   3.782   3.282   4.515 -0.7628  0.2602 -0.0711
 5542SOL    HW128088   3.770   3.371   4.550  1.0863  0.3902  0.2506
 5542SOL    HW228089   3.819   3.236   4.590  0.2203 -0.2420 -0.8686
 5543SOL     OW28090   3.464   1.891   8.609  0.1660 -0.3413  0.4715
 5543SOL    HW128091   3.437   1.854   8.525 -1.3886 -0.8812  1.2016
 5543SOL    HW228092   3.555   1.861   8.608  0.5889  0.9406  0.2491
 5544SOL     OW28093   1.615   4.294   4.809 -0.3767 -0.3086  0.1803
 5544SOL    HW128094   1.651   4.220   4.759  3.2683  0.5359  1.5440
 5544SOL    HW228095   1.531   4.312   4.767  1.0998 -0.3696 -2.7999
 5545SOL     OW28096   3.427   1.431   8.339 -0.2638 -0.0400  0.3301
 5545SOL    HW128097   3.332   1.425   8.347 -0.6500  2.1471 -2.6413
 5545SOL    HW228098   3.418   1.473   8.253 -0.3452 -2.3563 -0.7784
 5546SOL     OW28099   3.681   2.255  17.310  0.3279 -0.1375  0.0244
 5546SOL    HW128100   3.774   2.231  17.311 -0.1349 -1.9062  1.0830
 5546SOL    HW228101   3.659   2.207  17.390 -1.9312 -0.7782 -0.9969
 5547SOL     OW28102   2.575   0.416   4.215  0.2636  0.0608  0.0633
 5547SOL    HW128103   2.628   0.494   4.200  2.4190 -1.8020 -2.0583
 5547SOL    HW228104   2.489   0.451   4.191 -0.1610  0.9745  2.8989
 5548SOL     OW28105   0.683   0.896   0.114  0.2266 -0.0547 -0.8137
 5548SOL    HW128106   0.604   0.850   0.085 -0.7110  1.1260 -0.1577
 5548SOL    HW228107   0.718   0.904   0.025 -0.3549 -1.1385 -1.1389
 5549SOL     OW28108   0.354   0.194   4.033  0.0296 -0.1186  0.6016
 5549SOL    HW128109   0.334   0.181   3.940  1.7174 -1.5690  0.4468
 5549SOL    HW228110   0.313   0.276   4.060  0.6733  0.5450 -0.4557
 5550SOL     OW28111   3.422   2.459   3.844  0.1313  0.4340  0.2605
 5550SOL    HW128112   3.394   2.524   3.779 -1.7971  0.4856  1.1499
 5550SOL    HW228113   3.341   2.409   3.851  0.5648  0.0230  2.3670
 5551SOL     OW28114   0.675   1.626   7.590  0.7531  0.7668  0.2060
 5551SOL    HW128115   0.657   1.699   7.531 -0.7456 -0.9918 -1.5232
 5551SOL    HW228116   0.587   1.594   7.608  1.6258 -1.7471 -0.0768
 5552SOL     OW28117   2.657   0.391   6.949  0.2596  0.1628  0.3557
 5552SOL    HW128118   2.751   0.393   6.965  0.5745  1.9607 -1.7055
 5552SOL    HW228119   2.659   0.417   6.857  0.1461 -0.0797  0.2851
 5553SOL     OW28120   2.828   1.563  14.073  0.1728  0.1872 -0.5503
 5553SOL    HW128121   2.916   1.598  14.081 -0.2375  0.9632  0.6434
 5553SOL    HW228122   2.803   1.586  13.984 -1.0342 -0.1459 -0.3009
 5554SOL     OW28123   4.350   1.104   7.758 -0.1845 -0.6601  0.1762
 5554SOL    HW128124   4.307   1.160   7.693  1.1445  1.7064  1.3377
 5554SOL    HW228125   4.430   1.088   7.707  1.8152  1.1918  2.7568
 5555SOL     OW28126   0.338   2.585   7.481 -0.1171 -0.6149  0.2551
 5555SOL    HW128127   0.323   2.506   7.429  2.1356  0.5204 -2.1344
 5555SOL    HW228128   0.361   2.650   7.415 -0.4419 -0.8151 -0.0560
 5556SOL     OW28129   0.558   0.570   6.257 -0.1153  0.5614 -0.3387
 5556SOL    HW128130   0.532   0.519   6.334  1.4259  1.1864  0.6086
 5556SOL    HW228131   0.553   0.658   6.296  3.6076  1.2887 -1.4682
 5557SOL     OW28132   1.636   0.437   2.338 -0.5477 -0.7853  0.2086
 5557SOL    HW128133   1.687   0.397   2.267 -1.1154  0.0244 -0.6730
 5557SOL    HW228134   1.554   0.388   2.345 -1.0553  0.0253  0.0015
 5558SOL     OW28135   3.290   1.412   3.850  0.0931  0.2078 -0.4070
 5558SOL    HW128136   3.349   1.485   3.868  0.9112 -0.1992 -1.4617
 5558SOL    HW228137   3.355   1.344   3.829  0.3985 -0.3108  2.1881
 5559SOL     OW28138   2.923   1.119   0.040  0.3889 -0.6346  0.3965
 5559SOL    HW128139   2.882   1.054   0.097 -0.2441  1.0487  1.8430
 5559SOL    HW228140   3.009   1.078   0.034  1.2243  1.2556 -0.5136
 5560SOL     OW28141   0.084   2.141   4.512  0.0797  0.0778  0.7095
 5560SOL    HW128142   0.085   2.212   4.576 -1.0968  0.0087  0.7924
 5560SOL    HW228143   0.174   2.145   4.480 -1.1035  0.0524 -2.6608
 5561SOL     OW28144   4.322   0.081   3.162 -0.3641 -0.8724 -0.0407
 5561SOL    HW128145   4.351   0.038   3.243 -0.2696  2.8863  1.9046
 5561SOL    HW228146   4.319   0.175   3.175 -2.4976 -0.6984 -1.8359
 5562SOL     OW28147   4.448   0.666   2.217 -0.3780 -0.0324  0.1151
 5562SOL    HW128148   4.434   0.578   2.251 -0.5106  0.4341  1.2918
 5562SOL    HW228149   4.420   0.653   2.127  0.6277  0.4723 -0.2619
 5563SOL     OW28150   3.931   2.416   2.805 -0.4742 -0.5329 -0.4629
 5563SOL    HW128151   3.952   2.487   2.865  2.2876  0.1252 -2.2104
 5563SOL    HW228152   3.943   2.452   2.717 -2.1006  2.6582  0.6363
 5564SOL     OW28153   2.062   2.395   6.252  0.1389  0.2096  0.0786
 5564SOL    HW128154   2.039   2.396   6.345  1.7747 -2.2680  0.5442
 5564SOL    HW228155   2.122   2.469   6.248  0.2562  0.0659 -0.7251
 5565SOL     OW28156   2.909   3.748  16.543  0.3316 -0.5773  0.5267
 5565SOL    HW128157   2.951   3.786  16.466 -3.7767  2.2050 -0.3709
 5565SOL    HW228158   2.984   3.743  16.603  1.0285  0.0918 -0.2882
 5566SOL     OW28159   2.559   1.265   6.984 -0.7752  0.0232  0.0977
 5566SOL    HW128160   2.476   1.287   7.026 -0.9113  1.0730 -0.7063
 5566SOL    HW228161   2.532   1.268   6.892  0.1176  0.5532 -0.1472
 5567SOL     OW28162   2.142   3.332   5.041  0.2917  0.3595  0.9314
 5567SOL    HW128163   2.101   3.326   5.128  2.0196  0.7168  1.7768
 5567SOL    HW228164   2.200   3.256   5.041 -0.0552  0.0962 -0.3594
 5568SOL     OW28165   3.543   2.201   6.921  0.0371 -0.1703  0.2799
 5568SOL    HW128166   3.485   2.140   6.875  0.8025 -1.5091  1.0878
 5568SOL    HW228167   3.585   2.244   6.848  0.1262  1.1108  1.0863
 5569SOL     OW28168   1.564   3.545   2.009 -0.5104  0.1171  0.2992
 5569SOL    HW128169   1.555   3.462   1.961  1.7927 -0.5413  0.9568
 5569SOL    HW228170   1.548   3.613   1.944  2.0372  1.1155  0.6985
 5570SOL     OW28171   4.123   1.846   4.368  0.4234  0.4388  0.5879
 5570SOL    HW128172   4.103   1.780   4.434 -0.0416 -0.6419 -0.6428
 5570SOL    HW228173   4.218   1.855   4.364  0.5950 -1.9823 -0.6154
 5571SOL     OW28174   1.427   0.916   1.164  0.1496  0.0099  0.1896
 5571SOL    HW128175   1.332   0.919   1.151  0.1846 -0.8372 -0.2829
 5571SOL    HW228176   1.449   0.823   1.177  0.1470 -0.0274 -0.0780
 5572SOL     OW28177   3.814   1.208  17.666 -0.3257 -0.6393  0.5835
 5572SOL    HW128178   3.841   1.296  17.643  0.2691 -1.3436 -1.4082
 5572SOL    HW228179   3.769   1.219   0.039  0.6078 -0.8300  1.1111
 5573SOL     OW28180   3.991   1.746  11.910  0.0861 -0.1590  0.4716
 5573SOL    HW128181   4.051   1.820  11.918 -0.0969 -0.0899  1.1714
 5573SOL    HW228182   4.054   1.675  11.896 -1.7404 -1.4824 -1.0163
 5574SOL     OW28183   1.572   4.196  11.597 -0.7061 -0.1453 -0.3571
 5574SOL    HW128184   1.596   4.249  11.521 -1.4330 -0.9509 -1.1510
 5574SOL    HW228185   1.612   4.109  11.589 -0.3460 -0.1937  1.8902
 5575SOL     OW28186   0.177   1.507  10.997  0.7129 -0.1469  0.1021
 5575SOL    HW128187   0.089   1.516  11.034  1.7136 -0.6317  2.5577
 5575SOL    HW228188   0.195   1.598  10.973 -0.4859 -0.0593 -0.4653
 5576SOL     OW28189   2.152   2.558  15.174  0.2330 -0.2860  0.3075
 5576SOL    HW128190   2.126   2.469  15.200 -0.3218  0.2814  1.7044
 5576SOL    HW228191   2.225   2.574  15.235 -1.3062  1.6364  1.6291
 5577SOL     OW28192   0.376   0.810   3.767 -0.1083 -0.0147  0.1679
 5577SOL    HW128193   0.404   0.864   3.841  0.7410 -2.0335  1.3469
 5577SOL    HW228194   0.375   0.724   3.811 -2.0575 -1.3959 -2.5824
 5578SOL     OW28195   2.000   3.502   4.831 -0.5507  0.2703  0.5332
 5578SOL    HW128196   2.008   3.418   4.876 -1.4932 -1.9176 -3.3845
 5578SOL    HW228197   2.065   3.559   4.873 -0.0342  0.0555  0.0302
 5579SOL     OW28198   1.145   1.640   8.455  0.2581  0.3142  0.1932
 5579SOL    HW128199   1.089   1.698   8.506 -0.7102 -0.8656  0.4789
 5579SOL    HW228200   1.129   1.660   8.363 -0.5948  0.5543  0.3869
 5580SOL     OW28201   2.256   3.550   3.441  0.2425 -0.4420  0.1788
 5580SOL    HW128202   2.271   3.460   3.467  1.5828  0.4996  2.6084
 5580SOL    HW228203   2.252   3.542   3.345 -0.0799  0.3622  0.1176
 5581SOL     OW28204   2.205   0.629   0.203 -0.7686  0.4794 -0.1685
 5581SOL    HW128205   2.285   0.593   0.240 -0.4023  0.8392 -0.6026
 5581SOL    HW228206   2.185   0.700   0.264 -0.8603 -0.4458  0.8744
 5582SOL     OW28207   1.450   0.819   8.991 -0.0216  0.1235 -0.5143
 5582SOL    HW128208   1.494   0.756   9.049 -0.4616  0.0650 -0.2429
 5582SOL    HW228209   1.469   0.906   9.025 -1.9346  0.8661 -1.3661
 5583SOL     OW28210   1.516   1.563  11.248 -0.0260  0.2324  0.0378
 5583SOL    HW128211   1.449   1.583  11.182  1.8561  1.4871 -1.5086
 5583SOL    HW228212   1.586   1.518  11.201 -0.0421  0.1560  0.0862
 5584SOL     OW28213   3.657   3.571   6.528  0.1414 -0.1882 -0.1009
 5584SOL    HW128214   3.734   3.627   6.530 -0.5505  0.7843 -1.1685
 5584SOL    HW228215   3.698   3.492   6.565  1.9867  1.6235  1.7067
 5585SOL     OW28216   2.392   1.926   3.774  0.0050 -0.1487  0.8440
 5585SOL    HW128217   2.472   1.890   3.815  1.3649 -0.3283 -1.9964
 5585SOL    HW228218   2.373   2.002   3.829 -1.2755 -2.0574  3.0733
 5586SOL     OW28219   0.981   1.725   5.865  0.8728 -0.5112 -0.0289
 5586SOL    HW128220   0.903   1.672   5.880  0.9203 -0.4016  0.5899
 5586SOL    HW228221   1.017   1.735   5.953 -3.8601 -0.1008  1.8071
 5587SOL     OW28222   4.450   4.468   4.332 -0.1308 -0.4012 -0.2976
 5587SOL    HW128223   4.390   4.528   4.376  0.2484 -1.1518  1.2077
 5587SOL    HW228224   4.438   4.487   4.239 -1.7900 -0.4841 -0.0889
 5588SOL     OW28225   1.136   1.597  13.218 -0.3759  0.1049  0.0852
 5588SOL    HW128226   1.211   1.634  13.264  1.4783 -2.0115 -1.1998
 5588SOL    HW228227   1.127   1.515  13.265 -3.3806  0.8561  0.7797
 5589SOL     OW28228   0.453   1.310   9.512  0.1272 -0.5562  0.1921
 5589SOL    HW128229   0.416   1.257   9.583 -0.2877  1.0038  1.1332
 5589SOL    HW228230   0.538   1.279   9.480  1.9215  5.2326 -0.6770
 5590SOL     OW28231   2.289   0.800  14.438  0.0005  0.2882 -0.6431
 5590SOL    HW128232   2.265   0.849  14.516 -0.1111 -0.2300 -0.3495
 5590SOL    HW228233   2.385   0.800  14.443 -0.0293  0.8340 -0.1476
 5591SOL     OW28234   4.183   4.167   7.929 -0.1314  0.0107  0.6958
 5591SOL    HW128235   4.247   4.233   7.904 -0.0120 -0.4546 -0.2090
 5591SOL    HW228236   4.216   4.131   8.011 -0.3719 -2.0534 -0.1207
 5592SOL     OW28237   0.231   0.098  17.315  0.1499  0.2224  0.2197
 5592SOL    HW128238   0.164   0.152  17.275 -1.0775  0.8070  3.0829
 5592SOL    HW228239   0.219   0.132  17.403  2.7033  0.0100  0.6639
 5593SOL     OW28240   1.335   4.608  11.536 -0.5647  0.0907  0.1116
 5593SOL    HW128241   1.391   4.566  11.471 -1.9117 -0.7442 -0.4960
 5593SOL    HW228242   1.385   4.690  11.540 -1.7190  0.7735  0.5881
 5594SOL     OW28243   4.468   3.143   3.968  0.5351 -0.4649 -0.1222
 5594SOL    HW128244   4.560   3.163   3.950  0.2317 -1.4225 -2.6387
 5594SOL    HW228245   4.430   3.185   3.891  1.8251  1.1978  0.1545
 5595SOL     OW28246   0.128   1.636   7.644 -0.1599  0.0498  0.0828
 5595SOL    HW128247   0.069   1.570   7.607  0.1275 -0.1727  0.0279
 5595SOL    HW228248   0.079   1.662   7.722 -0.2397  2.1428 -0.6565
 5596SOL     OW28249   4.231   2.634  11.315 -0.4727 -0.1739 -0.0505
 5596SOL    HW128250   4.152   2.666  11.359  1.3807  3.3343  0.6763
 5596SOL    HW228251   4.302   2.645  11.378 -1.4923  1.2511  0.8645
 5597SOL     OW28252   3.268   0.669   7.915  0.5442  0.2355 -0.4091
 5597SOL    HW128253   3.209   0.617   7.970  0.6239  0.1159 -0.4371
 5597SOL    HW228254   3.319   0.725   7.973  0.5223  0.5693 -0.7155
 5598SOL     OW28255   3.568   1.940  16.577 -0.5529  0.4949  0.0463
 5598SOL    HW128256   3.644   1.975  16.530 -0.2239 -2.2127 -1.4985
 5598SOL    HW228257   3.501   1.961  16.512 -0.0748 -2.8564 -1.5506
 5599SOL     OW28258   3.092   0.493  13.228 -0.0605  0.1893 -0.2463
 5599SOL    HW128259   3.084   0.566  13.167 -0.6201  0.1063 -0.2795
 5599SOL    HW228260   3.045   0.427  13.177  3.9522 -0.8851 -2.5514
 5600SOL     OW28261   0.928   3.175   6.645  0.2237  0.6045  0.3655
 5600SOL    HW128262   0.968   3.169   6.732  0.1577  0.4980  0.3877
 5600SOL    HW228263   0.906   3.268   6.650 -2.7423 -0.1041  0.5352
 5601SOL     OW28264   2.126   0.748   7.244  0.2689  0.2253 -0.1020
 5601SOL    HW128265   2.113   0.707   7.329  2.1540  1.8304  0.9746
 5601SOL    HW228266   2.092   0.837   7.252  0.3717  0.2974 -0.4605
 5602SOL     OW28267   0.659   3.875   4.998  0.4396 -0.2424  0.1144
 5602SOL    HW128268   0.597   3.839   4.936 -2.3212  2.0257  1.5144
 5602SOL    HW228269   0.735   3.887   4.942  0.2265 -3.6878 -0.9101
 5603SOL     OW28270   0.065   1.820   2.305  0.5649 -0.0130 -0.4930
 5603SOL    HW128271   0.066   1.854   2.216  0.8800  2.2670  0.3761
 5603SOL    HW228272   0.048   1.896   2.359 -3.1100 -1.1586 -0.0735
 5604SOL     OW28273   3.995   3.796   3.491 -0.1300 -0.2916 -0.1572
 5604SOL    HW128274   4.055   3.749   3.548 -1.8270 -0.9473  1.0658
 5604SOL    HW228275   3.953   3.725   3.441 -2.4728  1.4942 -0.7302
 5605SOL     OW28276   2.186   4.306   8.259  0.2720  0.2049 -0.7404
 5605SOL    HW128277   2.114   4.298   8.323  1.2470  1.7338  0.5677
 5605SOL    HW228278   2.201   4.401   8.257  1.8005 -0.0284 -0.4974
 5606SOL     OW28279   2.255   3.469   3.174  0.0801 -0.0721 -0.7332
 5606SOL    HW128280   2.182   3.440   3.119 -0.9428  1.8738 -0.3894
 5606SOL    HW228281   2.331   3.457   3.117 -0.0431 -0.1119 -0.8890
 5607SOL     OW28282   0.882   4.461   9.047 -0.2062  0.1879  0.1762
 5607SOL    HW128283   0.884   4.366   9.040  1.2211  0.2172  0.0277
 5607SOL    HW228284   0.800   4.483   9.091 -1.0639 -0.2483 -1.1906
 5608SOL     OW28285   0.384   2.138   1.850  0.0287  0.3043 -0.5643
 5608SOL    HW128286   0.473   2.140   1.885 -0.0984 -0.1058 -0.2202
 5608SOL    HW228287   0.402   2.141   1.756 -2.5405  2.5261 -0.9812
 5609SOL     OW28288   0.961   1.461  11.501 -0.6490 -0.2847  0.6835
 5609SOL    HW128289   0.939   1.398  11.569 -1.6735 -0.0691  0.5593
 5609SOL    HW228290   0.875   1.472  11.461  0.1557  0.4817 -0.8578
 5610SOL     OW28291   0.734   3.472   4.218  0.0032 -0.1247 -0.4019
 5610SOL    HW128292   0.740   3.561   4.252 -0.5626  0.0555 -0.7829
 5610SOL    HW228293   0.641   3.465   4.193 -0.6635  2.6546  1.2608
 5611SOL     OW28294   3.706   0.175   0.367  0.3442  0.0954 -0.1844
 5611SOL    HW128295   3.685   0.093   0.411 -1.1850  0.4518 -0.2490
 5611SOL    HW228296   3.686   0.235   0.438 -1.6195  1.2754 -1.7209
 5612SOL     OW28297   2.213   2.200   7.014 -0.3867 -0.3036 -0.1455
 5612SOL    HW128298   2.271   2.275   6.997 -0.8898  0.4712  1.5478
 5612SOL    HW228299   2.164   2.172   6.937  0.6240  1.4293 -1.4420
 5613SOL     OW28300   2.111   1.052   1.580 -0.2600  0.1602  0.0748
 5613SOL    HW128301   2.138   1.134   1.621  1.5813 -0.7317  0.6684
 5613SOL    HW228302   2.017   1.069   1.584  0.2642  2.9487  0.8007
 5614SOL     OW28303   0.558   2.480   5.268  0.3440 -0.0163  0.2819
 5614SOL    HW128304   0.618   2.484   5.343  1.0507 -0.0230 -0.2839
 5614SOL    HW228305   0.603   2.540   5.208  0.6952 -0.4768  0.0843
 5615SOL     OW28306   1.296   3.608   4.008  0.1644 -0.3148 -0.2077
 5615SOL    HW128307   1.203   3.594   4.024  0.3020  0.9682  1.7209
 5615SOL    HW228308   1.333   3.551   4.075 -0.2799 -2.7076 -2.0151
 5616SOL     OW28309   4.050   0.223  16.880 -0.2000 -0.0192 -0.0541
 5616SOL    HW128310   4.018   0.256  16.964 -0.2630  1.6992 -0.7640
 5616SOL    HW228311   4.069   0.302  16.830  0.2766 -1.2158 -1.7325
 5617SOL     OW28312   0.006   4.053  14.244 -0.5695 -0.2944 -0.1711
 5617SOL    HW128313   0.068   4.032  14.313 -0.6345 -0.9515 -0.3130
 5617SOL    HW228314   4.690   3.968  14.236  0.4506 -0.7587 -0.7672
 5618SOL     OW28315   3.913   0.998   0.734 -0.8153  0.2732 -0.0038
 5618SOL    HW128316   3.911   1.092   0.756 -3.1387 -0.0176  1.0713
 5618SOL    HW228317   3.971   0.999   0.658 -1.7448  0.3118 -0.7147
 5619SOL     OW28318   1.520   0.305   6.355  0.2425 -0.0203 -0.7547
 5619SOL    HW128319   1.559   0.327   6.271  1.6628 -0.4824 -0.2202
 5619SOL    HW228320   1.563   0.224   6.383 -1.1952 -0.3109  0.6388
 5620SOL     OW28321   0.550   4.400   8.668  0.3090 -0.0931 -0.1887
 5620SOL    HW128322   0.609   4.344   8.718 -0.1084  0.7580  1.2638
 5620SOL    HW228323   0.604   4.479   8.654  1.2108 -1.1038 -2.4706
 5621SOL     OW28324   0.603   0.792   6.034 -0.2440  0.0652 -0.1588
 5621SOL    HW128325   0.631   0.805   6.124  0.5307  2.7671 -0.8101
 5621SOL    HW228326   0.511   0.815   6.037 -0.2354  0.3211 -1.5486
 5622SOL     OW28327   2.424   1.963   7.847 -0.2655 -0.6245  0.1876
 5622SOL    HW128328   2.418   2.035   7.911  2.2316 -0.1366 -0.1417
 5622SOL    HW228329   2.334   1.931   7.845 -0.4688 -0.2170  2.2378
 5623SOL     OW28330   2.584   2.377  10.520 -0.3401 -0.0323 -0.2352
 5623SOL    HW128331   2.594   2.444  10.452  0.3054  0.8413  0.7288
 5623SOL    HW228332   2.546   2.427  10.592 -0.7488  0.7382 -0.9871
 5624SOL     OW28333   1.385   3.949   6.406 -0.1979  0.1021 -0.5875
 5624SOL    HW128334   1.396   3.959   6.501 -1.7624 -2.3462 -0.1685
 5624SOL    HW228335   1.339   4.033   6.399 -0.8781 -0.1291  1.2224
 5625SOL     OW28336   0.509   4.052   4.380  0.1200  0.7291  0.0350
 5625SOL    HW128337   0.503   4.144   4.356  0.6389  0.5656 -0.7447
 5625SOL    HW228338   0.567   4.013   4.314  1.6738  0.8335  1.3488
 5626SOL     OW28339   3.923   0.736   4.927 -0.2323  0.6800  0.1525
 5626SOL    HW128340   3.977   0.677   4.874 -2.4757 -2.3562  1.2238
 5626SOL    HW228341   3.948   0.727   5.019  2.5967  1.9948 -0.4969
 5627SOL     OW28342   3.294   2.165   7.645 -0.2877  0.4138  0.0899
 5627SOL    HW128343   3.228   2.107   7.682 -0.7723  1.3715  0.7327
 5627SOL    HW228344   3.241   2.225   7.593  0.2060 -0.6405 -1.6332
 5628SOL     OW28345   0.647   1.463   3.722 -0.5305 -0.0817 -0.1778
 5628SOL    HW128346   0.560   1.491   3.695 -0.6562 -0.7239 -0.4222
 5628SOL    HW228347   0.667   1.547   3.764  0.6702 -1.7472  2.5618
 5629SOL     OW28348   0.514   4.539   3.876  0.1398 -0.1479  0.0609
 5629SOL    HW128349   0.546   4.541   3.966  0.5999  0.0549 -0.1037
 5629SOL    HW228350   0.593   4.579   3.839  0.8985 -3.2947 -1.7952
 5630SOL     OW28351   0.362   1.238  11.584 -0.1935  0.6062 -0.4389
 5630SOL    HW128352   0.384   1.177  11.514  2.4477  0.4583  0.5153
 5630SOL    HW228353   0.404   1.321  11.564 -1.5415  1.8403  1.7898
 5631SOL     OW28354   0.533   0.471  10.158 -0.4896 -0.0217  0.2522
 5631SOL    HW128355   0.608   0.489  10.101 -0.0661  1.1949  1.1865
 5631SOL    HW228356   0.532   0.558  10.200  1.7890 -0.4276  1.1589
 5632SOL     OW28357   2.188   1.219   3.748  0.3294  0.2060  0.3984
 5632SOL    HW128358   2.267   1.169   3.769 -0.1485 -0.8776 -0.3536
 5632SOL    HW228359   2.125   1.158   3.711  2.6704 -2.5018  0.8485
 5633SOL     OW28360   1.659   1.247   6.961 -0.0183  0.6488 -0.7129
 5633SOL    HW128361   1.698   1.173   6.916 -2.0504  0.2225 -1.7790
 5633SOL    HW228362   1.741   1.283   6.994  0.3200 -0.9766  0.2022
 5634SOL     OW28363   1.488   0.015  13.587 -0.4965  0.2939 -0.0017
 5634SOL    HW128364   1.567   4.709  13.544  0.6453  1.6264  1.0456
 5634SOL    HW228365   1.421   4.678  13.565 -1.0602  0.6832  0.6018
 5635SOL     OW28366   4.409   3.118   6.065  0.1340 -0.4732 -0.3462
 5635SOL    HW128367   4.446   3.197   6.102 -0.1075 -0.3681 -0.3284
 5635SOL    HW228368   4.469   3.114   5.991  1.0434 -0.5538  0.4035
 5636SOL     OW28369   2.965   3.956   5.390  0.5093 -0.6794  0.0258
 5636SOL    HW128370   2.970   4.051   5.398  1.3831 -0.3972 -3.6022
 5636SOL    HW228371   2.871   3.956   5.370 -0.0173  1.4013  2.5247
 5637SOL     OW28372   2.073   0.626   8.982  0.4862 -0.3222  0.4821
 5637SOL    HW128373   2.141   0.570   9.018 -0.3564 -0.6534  1.5569
 5637SOL    HW228374   2.111   0.712   8.996 -0.4316 -0.0778  1.4649
 5638SOL     OW28375   2.358   2.045   2.348 -0.5307  0.3712 -0.1997
 5638SOL    HW128376   2.417   2.081   2.282  0.7641 -0.4018  0.5500
 5638SOL    HW228377   2.342   2.125   2.399  1.3594  1.8770 -1.9755
 5639SOL     OW28378   3.214   0.372  11.586  0.2175  0.4085  0.4547
 5639SOL    HW128379   3.180   0.431  11.519 -0.5355 -1.0959 -0.4972
 5639SOL    HW228380   3.151   0.380  11.657 -0.0455 -2.7644  0.5875
 5640SOL     OW28381   1.816   3.405   8.103  0.1427  0.0639  0.0154
 5640SOL    HW128382   1.907   3.409   8.073 -0.4239  0.6982 -1.6053
 5640SOL    HW228383   1.796   3.496   8.126  1.0085  0.2830 -0.0999
 5641SOL     OW28384   2.857   2.609   6.873 -0.0628  0.2012  0.0541
 5641SOL    HW128385   2.830   2.682   6.817 -2.2987 -0.7585 -0.1186
 5641SOL    HW228386   2.819   2.535   6.826  0.6383 -0.8738  1.1587
 5642SOL     OW28387   3.410   0.439  15.810  0.2611 -0.2643 -0.3105
 5642SOL    HW128388   3.361   0.356  15.814 -1.4215  0.7832  0.8158
 5642SOL    HW228389   3.483   0.429  15.749  1.0184  0.5191  0.4864
 5643SOL     OW28390   1.710   4.539   2.004  0.5132 -0.2571  0.4083
 5643SOL    HW128391   1.710   4.591   2.085  1.0103  1.0667 -0.4439
 5643SOL    HW228392   1.645   4.474   2.030  0.4397 -0.4941 -0.3677
 5644SOL     OW28393   0.515   4.324   4.300  0.9520 -0.2201 -0.1759
 5644SOL    HW128394   0.579   4.382   4.342 -0.4782  0.7960  0.5871
 5644SOL    HW228395   0.438   4.379   4.287  0.4087 -0.4629  2.1240
 5645SOL     OW28396   1.526   2.512   6.040 -0.3468  0.3091  0.5574
 5645SOL    HW128397   1.482   2.437   6.080 -0.3232 -1.0111 -1.8934
 5645SOL    HW228398   1.604   2.510   6.095 -0.3918  1.1049  0.6506
 5646SOL     OW28399   1.403   2.358   0.585  0.1760 -0.4682  0.1709
 5646SOL    HW128400   1.324   2.400   0.620  1.7466  1.1932  1.6987
 5646SOL    HW228401   1.463   2.429   0.562 -0.2655  0.0194  0.5117
 5647SOL     OW28402   4.727   0.449   7.689  0.5048  0.3998 -0.2199
 5647SOL    HW128403   0.026   0.415   7.604  0.4406 -1.0958  0.3546
 5647SOL    HW228404   4.632   0.434   7.683  0.4685  0.6383 -0.2444
 5648SOL     OW28405   2.274   1.329   7.757  0.0275  0.6566 -0.2393
 5648SOL    HW128406   2.285   1.250   7.811  0.2699 -2.0237 -4.1882
 5648SOL    HW228407   2.210   1.389   7.794  2.0580  0.9412  2.7533
 5649SOL     OW28408   0.348   3.827   5.088 -0.8474 -0.1900 -0.0474
 5649SOL    HW128409   0.373   3.919   5.101  0.0587 -0.5940  0.9901
 5649SOL    HW228410   0.318   3.809   4.999 -0.5054  1.8611 -0.5900
 5650SOL     OW28411   1.859   2.405   0.515  0.6097  0.4222  0.2330
 5650SOL    HW128412   1.850   2.379   0.607 -0.2699 -1.5313 -0.4009
 5650SOL    HW228413   1.803   2.337   0.479  0.2108  1.0481 -0.3387
 5651SOL     OW28414   0.204   4.357   6.860  0.3251 -0.3739 -0.1675
 5651SOL    HW128415   0.247   4.419   6.801  0.7467  1.1143  1.7095
 5651SOL    HW228416   0.278   4.349   6.921  1.1055  0.4119 -1.0137
 5652SOL     OW28417   4.409   3.544   5.028  0.1462 -0.6238  0.8040
 5652SOL    HW128418   4.406   3.457   4.989  0.4513 -0.4693  0.4407
 5652SOL    HW228419   4.344   3.594   4.979  2.1807  0.6658 -0.5673
 5653SOL     OW28420   3.491   1.170   0.726  0.4182  0.4599 -0.2779
 5653SOL    HW128421   3.443   1.206   0.651  0.3516 -1.1003 -0.9824
 5653SOL    HW228422   3.424   1.119   0.772  0.6843 -0.6394 -1.0953
 5654SOL     OW28423   2.955   0.444  15.984  0.0367  0.0216  0.0806
 5654SOL    HW128424   3.012   0.516  16.011 -0.5914  0.3417  0.5474
 5654SOL    HW228425   3.003   0.433  15.902 -1.6682 -1.2484 -0.7241
 5655SOL     OW28426   4.654   2.901  14.085 -0.5963  0.1956 -0.1474
 5655SOL    HW128427   4.713   2.920  14.158 -0.7199  0.1644 -0.0367
 5655SOL    HW228428   4.648   2.985  14.039 -0.3363 -0.1281 -0.7654
 5656SOL     OW28429   1.843   0.790   5.517 -0.4056  0.4853  0.5800
 5656SOL    HW128430   1.816   0.703   5.486  0.9781  0.5501 -0.8312
 5656SOL    HW228431   1.937   0.780   5.533  0.1089  0.5962 -2.2593
 5657SOL     OW28432   0.701   4.674   6.692  0.3156 -0.4548 -0.2209
 5657SOL    HW128433   0.659   4.720   6.764 -1.5342 -1.5565 -0.5813
 5657SOL    HW228434   0.633   4.679   6.625 -1.9402 -1.1235  2.0505
 5658SOL     OW28435   0.483   0.576   3.904 -0.7423  0.1462  0.3474
 5658SOL    HW128436   0.406   0.519   3.900 -0.1430 -0.5378 -1.3091
 5658SOL    HW228437   0.505   0.557   3.995  1.3505  1.7669  0.1857
 5659SOL     OW28438   1.629   3.096   2.979  0.0291 -0.3751  0.0460
 5659SOL    HW128439   1.559   3.142   3.026 -0.5722 -0.0529 -1.1559
 5659SOL    HW228440   1.699   3.157   3.000  1.9328 -1.9293 -1.8701
 5660SOL     OW28441   3.968   4.451   3.108 -0.2988 -0.3215  0.4340
 5660SOL    HW128442   4.052   4.475   3.147 -0.4252 -0.2415  0.6566
 5660SOL    HW228443   3.913   4.514   3.155 -1.1352 -0.0701 -0.8648
 5661SOL     OW28444   4.071   0.643   1.385 -0.1474  0.6856  0.2560
 5661SOL    HW128445   3.987   0.650   1.340 -0.9477 -0.0738  1.6378
 5661SOL    HW228446   4.070   0.551   1.411  4.0242  0.0105 -1.9348
 5662SOL     OW28447   0.267   3.313   7.362  0.7768 -0.7025  0.1906
 5662SOL    HW128448   0.282   3.332   7.455 -1.4241  0.0888  0.3922
 5662SOL    HW228449   0.174   3.293   7.349  0.8336 -0.3520 -0.7675
 5663SOL     OW28450   0.913   2.485   9.286 -0.4475  0.0645 -0.4138
 5663SOL    HW128451   0.856   2.463   9.360  0.1910  1.0915  0.3883
 5663SOL    HW228452   0.856   2.547   9.240  1.8015 -0.7606 -4.2926
 5664SOL     OW28453   3.761   3.416   3.831  0.0690  0.3591 -0.4651
 5664SOL    HW128454   3.744   3.322   3.827 -2.4227  0.8790 -1.5756
 5664SOL    HW228455   3.850   3.418   3.868  0.0670 -0.5525 -0.4034
 5665SOL     OW28456   0.022   1.274   5.147 -0.3860 -0.3793 -0.0361
 5665SOL    HW128457   0.050   1.200   5.200 -0.8242 -1.8280 -1.8280
 5665SOL    HW228458   0.048   1.266   5.055  0.2473 -0.8604  0.1799
 5666SOL     OW28459   3.948   2.156   0.719 -0.1173 -0.4765 -0.2646
 5666SOL    HW128460   3.893   2.080   0.734  0.2480 -0.8462 -0.8028
 5666SOL    HW228461   3.970   2.183   0.809  0.3900 -1.5385 -0.0742
 5667SOL     OW28462   4.038   0.014   6.788  0.0191  0.4168 -0.0901
 5667SOL    HW128463   4.080   0.077   6.729 -0.3813 -0.1997 -1.0277
 5667SOL    HW228464   4.065   0.052   6.872  0.5404  2.3333 -1.1214
 5668SOL     OW28465   1.494   1.859   3.231  0.1162  0.3121  0.5264
 5668SOL    HW128466   1.577   1.814   3.247 -1.3945 -2.8039 -0.4104
 5668SOL    HW228467   1.431   1.789   3.251  0.1001  0.0053 -0.5736
 5669SOL     OW28468   3.518   3.010   8.016 -0.1931 -0.4893  0.0328
 5669SOL    HW128469   3.485   3.006   7.926 -1.4927 -2.1828  0.5871
 5669SOL    HW228470   3.435   2.983   8.054 -0.2709 -0.9690 -0.4820
 5670SOL     OW28471   0.493   2.070   4.168  0.4012 -0.0661 -0.0626
 5670SOL    HW128472   0.464   2.128   4.097 -0.2365 -2.5877 -1.8653
 5670SOL    HW228473   0.500   1.992   4.112  2.0759  1.0432 -1.4231
 5671SOL     OW28474   2.838   2.443   7.922 -0.4997  0.4412 -0.3836
 5671SOL    HW128475   2.760   2.388   7.911 -0.6827  0.5088  0.6078
 5671SOL    HW228476   2.888   2.412   7.846  0.0910  2.8104 -0.9410
 5672SOL     OW28477   1.664   4.266  11.344  0.3463  0.1609 -0.0992
 5672SOL    HW128478   1.755   4.236  11.340  0.1699 -0.4023  0.1988
 5672SOL    HW228479   1.610   4.210  11.289  0.9087 -0.8392  0.3719
 5673SOL     OW28480   3.673   2.281   7.176  0.2051  0.4423 -0.6177
 5673SOL    HW128481   3.758   2.269   7.220 -0.4948  1.2246  0.9251
 5673SOL    HW228482   3.679   2.221   7.101 -1.6255 -1.7055  0.9822
 5674SOL     OW28483   2.245   4.579  11.786 -0.1034  0.0097 -0.2035
 5674SOL    HW128484   2.267   4.514  11.852 -0.3019 -0.1708 -0.3154
 5674SOL    HW228485   2.163   4.547  11.748 -1.4068  3.0838  0.0053
 5675SOL     OW28486   1.098   0.028   3.128  0.3097 -0.3323 -0.9016
 5675SOL    HW128487   1.151   4.676   3.126  2.7526  1.2123  1.8557
 5675SOL    HW228488   1.110   0.059   3.218 -0.3102 -0.2313 -0.8505
 5676SOL     OW28489   4.444   1.423   3.891  0.2840  0.0100  0.2509
 5676SOL    HW128490   4.425   1.346   3.837 -0.2783  1.6256 -1.8492
 5676SOL    HW228491   4.537   1.444   3.880  0.7026 -2.3232 -0.6606
 5677SOL     OW28492   0.163   2.803   1.360  0.2048 -0.6580 -0.1859
 5677SOL    HW128493   0.089   2.809   1.421  0.6685 -0.6668  0.3786
 5677SOL    HW228494   0.208   2.884   1.383 -0.8733 -0.7733  2.2828
 5678SOL     OW28495   0.164   1.694  14.701 -0.0307 -0.1146 -0.6813
 5678SOL    HW128496   0.237   1.668  14.758 -0.2972  0.0467 -0.2641
 5678SOL    HW228497   0.173   1.634  14.627 -3.8171 -0.9735 -0.4528
 5679SOL     OW28498   1.644   2.613  17.579 -0.1226 -0.0683  0.4292
 5679SOL    HW128499   1.566   2.667  17.580 -0.0153  0.1295 -1.1633
 5679SOL    HW228500   1.644   2.595  17.485 -2.3343 -0.4880  0.5052
 5680SOL     OW28501   3.768   1.537   2.086 -0.3770 -0.2633  0.1262
 5680SOL    HW128502   3.737   1.498   2.005 -0.4338  1.1323 -0.5222
 5680SOL    HW228503   3.747   1.628   2.065 -2.2613 -0.4436  1.2769
 5681SOL     OW28504   2.018   3.967   4.713  0.4593  0.0174  0.1367
 5681SOL    HW128505   2.075   4.022   4.659 -1.0361  1.9360  0.5010
 5681SOL    HW228506   2.047   3.881   4.683  0.9076  0.1904  0.0803
 5682SOL     OW28507   2.535   1.105   4.317 -0.3743  0.1203 -0.6832
 5682SOL    HW128508   2.555   1.157   4.394 -1.0344 -0.1026 -0.3638
 5682SOL    HW228509   2.500   1.028   4.362  1.2152 -0.7167 -0.8740
 5683SOL     OW28510   3.409   4.090   4.962 -0.2154 -0.0279  0.0567
 5683SOL    HW128511   3.452   4.147   5.025 -0.3739  1.0443 -0.7918
 5683SOL    HW228512   3.440   4.130   4.880 -0.3686 -1.9356 -0.9353
 5684SOL     OW28513   1.339   1.272   4.764  0.2837 -0.2748 -0.1314
 5684SOL    HW128514   1.402   1.259   4.693  1.2020 -1.3948  0.8847
 5684SOL    HW228515   1.260   1.299   4.718  0.0255  1.5367  1.3883
 5685SOL     OW28516   0.170   0.308   7.891  0.3205 -0.0679  0.4225
 5685SOL    HW128517   0.188   0.252   7.816 -1.6606 -0.3680  0.1695
 5685SOL    HW228518   0.096   0.362   7.862  3.3500  1.5312 -4.3616
 5686SOL     OW28519   3.632   1.546   4.247 -0.4372  0.5860 -0.0614
 5686SOL    HW128520   3.652   1.584   4.333  2.0662  0.6244 -0.6587
 5686SOL    HW228521   3.681   1.617   4.205  0.3411  0.5728  0.8385
 5687SOL     OW28522   3.507   4.158   3.494  0.2093  0.0296  0.2221
 5687SOL    HW128523   3.588   4.209   3.492  0.9253 -1.1490 -0.8828
 5687SOL    HW228524   3.509   4.097   3.568  1.2787  2.4696  2.1921
 5688SOL     OW28525   2.883   4.252   8.144 -0.2470  0.1263 -0.1589
 5688SOL    HW128526   2.957   4.192   8.146  1.0386  1.7254  0.3236
 5688SOL    HW228527   2.834   4.203   8.078  0.9436  0.3656 -1.2233
 5689SOL     OW28528   0.530   2.324   7.519  0.5314 -0.0324 -0.0102
 5689SOL    HW128529   0.465   2.358   7.581 -0.9198 -1.8433 -0.5374
 5689SOL    HW228530   0.495   2.348   7.434  0.9509 -1.1282 -0.4951
 5690SOL     OW28531   0.018   3.321   2.755  0.1425  0.1290  0.2368
 5690SOL    HW128532   0.067   3.386   2.806  1.0056 -0.5411  0.2432
 5690SOL    HW228533   0.085   3.279   2.701  0.2888  1.4630 -0.6434
 5691SOL     OW28534   2.588   3.584   3.462  0.0370  0.1128  0.1057
 5691SOL    HW128535   2.596   3.662   3.409 -1.0272 -0.5428 -1.0196
 5691SOL    HW228536   2.495   3.585   3.487  0.5152 -0.0870  1.8746
 5692SOL     OW28537   4.039   4.201  14.849  0.0229  0.0642  0.0705
 5692SOL    HW128538   4.024   4.265  14.779  1.6464 -0.6842 -0.9499
 5692SOL    HW228539   4.008   4.119  14.810 -1.4156 -0.7269  2.8851
 5693SOL     OW28540   2.000   0.217   2.300 -0.3226  0.3447  0.1201
 5693SOL    HW128541   1.926   0.231   2.240  0.5981  0.5701 -0.9520
 5693SOL    HW228542   1.942   0.212   2.376  0.7200  1.1678  0.9615
 5694SOL     OW28543   4.297   0.589   3.215  0.3255  0.4498 -0.1596
 5694SOL    HW128544   4.325   0.649   3.146  2.7539  0.8651  1.2115
 5694SOL    HW228545   4.346   0.626   3.289 -1.5168  0.9539  0.8172
 5695SOL     OW28546   0.017   1.340  12.349 -0.7737 -0.2609  0.0713
 5695SOL    HW128547   4.713   1.398  12.279  0.0818  1.1618  0.8764
 5695SOL    HW228548   0.085   1.389  12.394 -1.7289  1.8781 -0.8258
 5696SOL     OW28549   1.182   0.739   8.335 -0.9012 -0.3628  0.5449
 5696SOL    HW128550   1.202   0.829   8.308 -2.0788  0.1320  1.3282
 5696SOL    HW228551   1.237   0.735   8.413 -1.2924 -0.1273  0.8279
 5697SOL     OW28552   4.427   2.233  10.789 -0.5063 -0.2670 -0.8737
 5697SOL    HW128553   4.485   2.277  10.728  1.0598 -0.1258  0.7038
 5697SOL    HW228554   4.366   2.197  10.726 -1.1461  0.0807 -0.4534
 5698SOL     OW28555   1.400   1.535   7.456 -0.1631 -0.2844 -0.1194
 5698SOL    HW128556   1.404   1.551   7.362  1.3003 -0.2763 -0.0608
 5698SOL    HW228557   1.355   1.452   7.468  2.5253 -1.4508  1.8728
 5699SOL     OW28558   2.497   4.152   3.160  0.2101  0.1074 -0.4619
 5699SOL    HW128559   2.539   4.149   3.074 -1.6094 -1.7663 -1.3039
 5699SOL    HW228560   2.410   4.121   3.134 -0.6769  0.5191  2.1031
 5700SOL     OW28561   0.139   1.619   3.370 -0.3794  0.1009 -0.0072
 5700SOL    HW128562   0.178   1.704   3.348 -0.8343  0.9940  2.6791
 5700SOL    HW228563   0.067   1.605   3.309  1.1790 -1.1090 -1.5911
 5701SOL     OW28564   0.814   4.435  13.870 -0.5963  0.3435  0.0763
 5701SOL    HW128565   0.756   4.394  13.805 -0.4402  0.8665 -0.3971
 5701SOL    HW228566   0.767   4.501  13.922 -0.7001  0.1019  0.2859
 5702SOL     OW28567   0.080   4.719   4.209 -0.0712 -0.2148 -0.5303
 5702SOL    HW128568   0.059   0.071   4.258 -2.2337 -1.7583  1.0369
 5702SOL    HW228569   0.094   4.668   4.289 -0.4483  0.6957  0.1235
 5703SOL     OW28570   4.394   3.503  10.908 -0.4603 -0.5009 -1.2088
 5703SOL    HW128571   4.331   3.567  10.874 -0.6911 -1.1668 -2.0439
 5703SOL    HW228572   4.342   3.428  10.878  0.5382 -1.2970 -0.9317
 5704SOL     OW28573   0.935   0.086   6.701 -0.2998  0.1490  0.1448
 5704SOL    HW128574   0.905   0.176   6.713  0.3564  0.2911  0.7096
 5704SOL    HW228575   0.852   0.037   6.698  0.0653 -0.5847  2.0233
 5705SOL     OW28576   2.516   0.497   9.708 -0.3894  0.3256 -0.1064
 5705SOL    HW128577   2.480   0.430   9.651 -1.4165  1.2156 -0.5040
 5705SOL    HW228578   2.554   0.552   9.639 -1.3261  0.6726 -0.3450
 5706SOL     OW28579   0.345   2.138   3.006  0.1147 -0.0916 -0.3760
 5706SOL    HW128580   0.380   2.050   3.016 -0.1769 -0.1128  0.4806
 5706SOL    HW228581   0.254   2.128   3.033 -0.3205  0.6691 -1.6008
 5707SOL     OW28582   2.631   1.982   4.426 -0.5505 -0.4304 -0.0150
 5707SOL    HW128583   2.723   2.008   4.434 -0.5248 -0.1867 -1.0939
 5707SOL    HW228584   2.599   1.984   4.516  0.5318  1.7925  0.3176
 5708SOL     OW28585   4.509   3.534   0.080  0.3454 -0.4508  0.5003
 5708SOL    HW128586   4.485   3.591   0.007  0.3586 -2.3988 -1.0259
 5708SOL    HW228587   4.434   3.474   0.085  0.7472 -0.8929  1.3024
 5709SOL     OW28588   0.698   4.002  11.843 -0.6408  0.1306 -0.3040
 5709SOL    HW128589   0.768   4.041  11.791 -0.6319  0.6892  0.1222
 5709SOL    HW228590   0.634   3.980  11.774 -0.0882  1.5776 -1.2896
 5710SOL     OW28591   4.462   4.678   5.661 -0.5711 -0.1458 -0.2054
 5710SOL    HW128592   4.552   4.668   5.630 -0.3826 -1.0060  0.6002
 5710SOL    HW228593   4.427   0.005   5.591  1.7708  0.1317 -1.1709
 5711SOL     OW28594   0.546   0.219   5.579 -0.6432  0.1782  0.1002
 5711SOL    HW128595   0.603   0.155   5.536  0.7888  0.7149  1.1618
 5711SOL    HW228596   0.619   0.271   5.612  0.7724 -0.9358 -1.2846
 5712SOL     OW28597   2.890   3.289   5.055  0.4597  0.1500 -0.1191
 5712SOL    HW128598   2.860   3.298   4.964  1.3164  0.3277 -0.3848
 5712SOL    HW228599   2.812   3.310   5.105  0.2984  0.9097 -0.6860
 5713SOL     OW28600   3.591   0.616   5.895  0.1351  0.0066  0.4903
 5713SOL    HW128601   3.520   0.658   5.846 -1.9972 -2.9843  1.0222
 5713SOL    HW228602   3.643   0.595   5.818  0.1698  0.3808  0.4109
 5714SOL     OW28603   2.678   2.956   4.758 -0.3152 -0.4722  0.4149
 5714SOL    HW128604   2.614   3.018   4.793 -1.8107 -1.4310 -0.6307
 5714SOL    HW228605   2.648   2.872   4.792 -3.5560  0.2715 -0.6522
 5715SOL     OW28606   3.975   1.051  11.351 -0.4717  0.4336 -0.2174
 5715SOL    HW128607   3.977   1.044  11.256  2.0846 -1.3314 -0.0477
 5715SOL    HW228608   4.063   1.085  11.368  0.3103 -1.3511 -0.6601
 5716SOL     OW28609   3.877   3.422   2.247  0.3044  0.6164 -0.2280
 5716SOL    HW128610   3.822   3.374   2.186  0.7713 -0.0102 -0.1572
 5716SOL    HW228611   3.888   3.356   2.316 -0.9707  1.1757  0.5253
 5717SOL     OW28612   2.901   2.718  14.101 -0.5205  0.1612  0.1824
 5717SOL    HW128613   2.840   2.791  14.115 -0.4881  0.1088  0.6215
 5717SOL    HW228614   2.953   2.739  14.024  0.1304  3.0439  1.3984
 5718SOL     OW28615   2.817   4.203   6.853  0.4875  0.8188 -0.2964
 5718SOL    HW128616   2.745   4.174   6.797  0.9833  0.5139 -0.7676
 5718SOL    HW228617   2.815   4.139   6.924 -1.3801  1.4763  0.2558
 5719SOL     OW28618   0.125   3.533  12.675  0.5827 -0.2291 -0.0761
 5719SOL    HW128619   0.192   3.547  12.608 -0.7573  0.7741 -1.1734
 5719SOL    HW228620   0.192   3.516  12.742  0.8826  0.7924 -0.1188
 5720SOL     OW28621   4.521   1.142   8.403 -0.4026 -0.5182 -0.0574
 5720SOL    HW128622   4.447   1.134   8.463  0.0371 -0.9863  0.4237
 5720SOL    HW228623   4.584   1.083   8.444  1.1229  1.5494  0.5363
 5721SOL     OW28624   0.763   1.063   3.935  0.2555 -0.1844 -0.0185
 5721SOL    HW128625   0.817   1.032   3.862  0.6093 -2.6776  1.2909
 5721SOL    HW228626   0.691   1.002   3.926  0.4283 -0.4589  0.4716
 5722SOL     OW28627   0.086   0.097  15.058 -0.7588 -0.1062 -0.1708
 5722SOL    HW128628   0.016   0.132  15.114 -1.2623  0.4105 -1.1205
 5722SOL    HW228629   0.138   0.041  15.116 -0.7551 -0.2363 -0.2996
 5723SOL     OW28630   1.613   0.635   8.488  0.4900  0.6301  0.6043
 5723SOL    HW128631   1.552   0.644   8.415  0.8311  1.6906  0.4432
 5723SOL    HW228632   1.670   0.561   8.466 -1.5097 -0.8224  0.3385
 5724SOL     OW28633   2.515   0.607  15.322 -0.0606 -0.2273  0.3214
 5724SOL    HW128634   2.520   0.614  15.417  0.4941  2.5977  0.0753
 5724SOL    HW228635   2.425   0.577  15.315 -0.4103  0.8094  0.4269
 5725SOL     OW28636   3.957   4.705   8.876 -0.0488  0.1622 -0.3576
 5725SOL    HW128637   4.013   4.724   8.800  0.7934 -0.2743  0.1529
 5725SOL    HW228638   4.009   4.634   8.913 -0.4942  0.2404  0.4040
 5726SOL     OW28639   2.466   2.791   8.830 -0.0067 -0.5847  0.0155
 5726SOL    HW128640   2.422   2.821   8.910  1.8184 -0.8274  1.1117
 5726SOL    HW228641   2.398   2.737   8.791 -0.5216  0.5577 -0.6449
 5727SOL     OW28642   4.080   2.026   3.204  0.5670  0.6582  0.0764
 5727SOL    HW128643   4.024   2.102   3.220 -1.7324 -0.6238 -1.8481
 5727SOL    HW228644   4.122   2.017   3.290  0.2731 -2.2368 -0.0859
 5728SOL     OW28645   0.516   0.117   8.060 -0.2215  0.3356 -0.3356
 5728SOL    HW128646   0.429   0.142   8.028 -0.7956  0.2556  1.1434
 5728SOL    HW228647   0.566   0.198   8.066 -0.2638  0.3917 -0.7917
 5729SOL     OW28648   1.301   4.723   7.488 -0.3960  0.2109 -0.0577
 5729SOL    HW128649   1.223   4.710   7.542 -0.5494 -0.1866 -0.3804
 5729SOL    HW228650   1.349   4.642   7.502 -1.9823 -0.3568  2.0240
 5730SOL     OW28651   2.214   4.041  12.381  0.3093  0.2366  0.4197
 5730SOL    HW128652   2.234   3.962  12.332  0.5227 -0.3794  1.5048
 5730SOL    HW228653   2.155   4.009  12.450 -0.0205 -1.2731 -0.5626
 5731SOL     OW28654   3.912   1.820   6.998 -0.0712  0.2346  0.5068
 5731SOL    HW128655   3.817   1.821   6.989  0.0628  0.2620 -0.8631
 5731SOL    HW228656   3.931   1.732   6.964 -0.2258  0.5347 -0.3394
 5732SOL     OW28657   1.035   3.443   8.982 -0.3381 -0.2470  0.1707
 5732SOL    HW128658   1.130   3.437   8.989 -0.1592 -0.4399 -2.3415
 5732SOL    HW228659   1.028   3.536   8.964 -0.6679 -0.4200 -0.5945
 5733SOL     OW28660   4.638   1.443   2.880  0.5333  0.2297 -0.6091
 5733SOL    HW128661   4.551   1.450   2.840  1.0273 -0.0961 -1.7395
 5733SOL    HW228662   4.672   1.361   2.844 -0.6801 -0.2939 -0.5803
 5734SOL     OW28663   3.183   3.360   8.745 -0.1530 -0.1877 -0.1541
 5734SOL    HW128664   3.268   3.317   8.735 -0.0113 -0.0941  0.6371
 5734SOL    HW228665   3.155   3.317   8.664  0.9736  0.6048 -0.9716
 5735SOL     OW28666   0.051   0.822  16.563 -0.4922  0.4601 -0.5257
 5735SOL    HW128667   0.041   0.758  16.633 -0.2804  0.6220 -0.3491
 5735SOL    HW228668   4.688   0.826  16.530 -0.9211 -0.3959  0.5728
 5736SOL     OW28669   0.358   0.465   3.517  0.2551  0.1294  0.0591
 5736SOL    HW128670   0.331   0.555   3.537 -2.1314 -0.3610 -0.9848
 5736SOL    HW228671   0.295   0.435   3.451  1.1004  0.9707 -1.1351
 5737SOL     OW28672   2.259   2.260   3.883 -0.5228 -0.1283 -0.5968
 5737SOL    HW128673   2.218   2.214   3.956  0.4242  1.4954  0.9589
 5737SOL    HW228674   2.304   2.330   3.931 -2.5034  0.7475 -0.0409
 5738SOL     OW28675   3.923   0.876   1.475 -0.3877  0.1275  0.3687
 5738SOL    HW128676   3.900   0.929   1.398  3.5613  0.5870 -0.4989
 5738SOL    HW228677   3.846   0.822   1.493  0.5859 -1.4995 -0.3798
 5739SOL     OW28678   2.780   2.958   5.170  0.1672  0.5921  0.0562
 5739SOL    HW128679   2.862   2.978   5.213  1.7554 -1.1065 -2.1657
 5739SOL    HW228680   2.816   2.954   5.081  1.0575  3.6574  0.2997
 5740SOL     OW28681   0.429   2.056   8.081  0.6660  0.5616  0.0610
 5740SOL    HW128682   0.520   2.079   8.103 -0.0305  3.1581  0.1837
 5740SOL    HW228683   0.436   1.961   8.071 -0.4023  0.5796 -0.8726
 5741SOL     OW28684   0.414   3.766   6.429 -0.0107 -0.8990  0.0077
 5741SOL    HW128685   0.459   3.704   6.372  0.1199 -0.1900 -0.6681
 5741SOL    HW228686   0.323   3.746   6.404 -0.8269  1.6495  0.8786
 5742SOL     OW28687   4.215   4.561   5.591 -0.2179  0.0542 -0.0865
 5742SOL    HW128688   4.209   4.467   5.575  0.6872 -0.1324  0.6591
 5742SOL    HW228689   4.308   4.572   5.610  0.2428 -1.9125 -1.2059
 5743SOL     OW28690   0.604   1.396  12.234 -0.0089 -0.2980  0.6025
 5743SOL    HW128691   0.520   1.409  12.191 -0.5565 -2.0831  1.1584
 5743SOL    HW228692   0.627   1.488  12.249 -0.6168 -0.3034  1.5597
 5744SOL     OW28693   0.339   4.671  17.099  0.0338 -0.3258 -0.0861
 5744SOL    HW128694   0.283   4.707  17.168 -0.0516 -0.6186 -0.0014
 5744SOL    HW228695   0.367   4.591  17.143  0.1374 -0.6882 -0.8131
 5745SOL     OW28696   1.661   1.771   1.109  0.4496 -0.5196  0.8566
 5745SOL    HW128697   1.635   1.686   1.146  2.0389 -1.1305  0.5349
 5745SOL    HW228698   1.725   1.807   1.171  0.5331 -0.9919  1.0478
 5746SOL     OW28699   4.415   0.602  17.590 -0.2431  0.4289  0.7993
 5746SOL    HW128700   4.361   0.678  17.567  0.6861  0.3168 -1.7332
 5746SOL    HW228701   4.497   0.652  17.596  0.4644 -0.5722 -0.6726
 5747SOL     OW28702   2.119   2.241   6.537  0.6220 -0.8179 -0.1999
 5747SOL    HW128703   2.056   2.313   6.529  4.0191  2.2712  1.0388
 5747SOL    HW228704   2.189   2.290   6.494  0.5168  1.2331  1.9491
 5748SOL     OW28705   1.422   0.084   6.954 -0.3390  0.5872  0.2016
 5748SOL    HW128706   1.478   0.016   6.989  0.9358  1.6104  0.1721
 5748SOL    HW228707   1.374   0.039   6.885  0.4071  0.0835  0.0126
 5749SOL     OW28708   0.769   1.666  11.308  0.0519 -0.3157  0.1300
 5749SOL    HW128709   0.716   1.729  11.357 -0.0848 -0.4253  0.1216
 5749SOL    HW228710   0.748   1.587  11.357  2.5840 -0.7548  0.5157
 5750SOL     OW28711   3.175   1.071   7.258  0.6032 -0.3673  0.0498
 5750SOL    HW128712   3.210   1.012   7.325 -0.0125  0.1347  0.8158
 5750SOL    HW228713   3.093   1.034   7.226  0.6940  0.9876 -1.6873
 5751SOL     OW28714   3.384   2.000   9.906  0.1664 -0.0730 -0.1844
 5751SOL    HW128715   3.365   1.985   9.998 -0.0506  0.8120 -0.0787
 5751SOL    HW228716   3.416   2.090   9.907 -0.8516  0.2721  0.8765
 5752SOL     OW28717   0.997   4.185   7.046  0.4468  0.0280  0.0312
 5752SOL    HW128718   1.061   4.245   7.085  1.1203 -0.3424 -0.4950
 5752SOL    HW228719   0.992   4.208   6.953  1.8748 -0.6310 -0.2116
 5753SOL     OW28720   2.092   0.035   2.095  0.2098  0.1323 -0.5471
 5753SOL    HW128721   2.097   0.109   2.034 -1.5224  0.7169 -0.0030
 5753SOL    HW228722   2.063   0.078   2.176  1.4677  0.3349 -0.2081
 5754SOL     OW28723   2.865   3.028  12.906  0.3075  0.5539  0.0653
 5754SOL    HW128724   2.780   3.051  12.944  1.1873  0.8179  1.8793
 5754SOL    HW228725   2.913   3.104  12.939  2.6598 -0.0206 -2.0092
 5755SOL     OW28726   3.807   1.219   8.386 -0.1169  0.3519  0.2859
 5755SOL    HW128727   3.787   1.174   8.303  0.2184  1.5467 -0.4402
 5755SOL    HW228728   3.886   1.171   8.409  0.0759  1.1561  1.2526
 5756SOL     OW28729   0.247   2.963  11.599  0.2804 -0.1999  0.1033
 5756SOL    HW128730   0.238   3.053  11.630  0.7216 -0.3118  0.5612
 5756SOL    HW228731   0.329   2.963  11.549  0.1200  3.8230 -0.1351
 5757SOL     OW28732   3.994   4.201   6.485  0.1036  0.7884 -0.0460
 5757SOL    HW128733   4.082   4.237   6.497  1.6121 -2.7840 -0.4190
 5757SOL    HW228734   3.940   4.238   6.555  0.0622  0.4182  0.1198
 5758SOL     OW28735   4.095   3.805   4.704 -0.3324  0.1641  0.2224
 5758SOL    HW128736   4.022   3.809   4.766  1.3363  0.7302  2.1153
 5758SOL    HW228737   4.150   3.882   4.715 -1.7356  1.0784  0.8529
 5759SOL     OW28738   0.841   3.476   2.793  0.3860  0.3183  0.1810
 5759SOL    HW128739   0.780   3.463   2.721  0.9986  0.0927 -0.2949
 5759SOL    HW228740   0.852   3.385   2.819 -1.4419 -0.4431 -1.7722
 5760SOL     OW28741   2.256   3.720  12.548 -0.1094  0.5161 -0.1063
 5760SOL    HW128742   2.175   3.668  12.545  1.2971 -1.7099  0.9269
 5760SOL    HW228743   2.209   3.804  12.554  0.1204  0.5771  0.8475
 5761SOL     OW28744   4.315   3.741   5.638  0.3510 -0.3854 -0.0767
 5761SOL    HW128745   4.318   3.658   5.684  1.2694  0.0404  0.6323
 5761SOL    HW228746   4.255   3.783   5.700  0.1179 -1.0021  0.1137
 5762SOL     OW28747   2.073   0.362  11.958  0.0821 -0.2884 -0.1737
 5762SOL    HW128748   2.098   0.291  12.016  2.3390  0.0065 -0.7460
 5762SOL    HW228749   2.149   0.362  11.900 -1.0997  2.3031 -1.7345
 5763SOL     OW28750   3.719   2.917   4.543  0.9683 -0.1330  0.1654
 5763SOL    HW128751   3.651   2.862   4.583  1.0700  1.5414  2.6431
 5763SOL    HW228752   3.750   2.970   4.616  1.8615  0.5651 -0.7217
 5764SOL     OW28753   2.915   0.150   2.584  0.2516  0.1462 -0.0916
 5764SOL    HW128754   2.941   0.239   2.605 -1.8134  0.7661 -0.1655
 5764SOL    HW228755   2.989   0.125   2.528  0.5953 -0.2071  0.5137
 5765SOL     OW28756   3.550   0.234   3.866  0.2496 -0.4522 -0.5884
 5765SOL    HW128757   3.590   0.148   3.878 -0.1504 -0.1185  2.9887
 5765SOL    HW228758   3.464   0.197   3.883  0.4587 -0.4024  0.5356
 5766SOL     OW28759   1.972   3.252   3.793 -0.5060 -0.3327 -0.3352
 5766SOL    HW128760   2.016   3.166   3.790 -0.9237 -0.5241 -0.8106
 5766SOL    HW228761   1.960   3.272   3.886 -0.6778 -0.2456 -0.3777
 5767SOL     OW28762   2.673   3.849   5.503  0.5339  0.2778 -0.1060
 5767SOL    HW128763   2.625   3.783   5.453  0.7368  0.0620 -0.0198
 5767SOL    HW228764   2.748   3.793   5.525  0.6327 -0.3899 -2.1697
 5768SOL     OW28765   2.760   1.889  14.676 -0.7089  0.3729  0.0853
 5768SOL    HW128766   2.805   1.808  14.651  0.7147  1.2682 -0.2389
 5768SOL    HW228767   2.700   1.852  14.740 -1.3993  0.4076 -0.5376
 5769SOL     OW28768   0.067   2.590  10.505 -0.1435 -0.6169  0.4139
 5769SOL    HW128769   0.035   2.505  10.532 -0.6801 -0.9311 -1.2027
 5769SOL    HW228770   0.055   2.597  10.410 -1.9491  1.8570  0.8270
 5770SOL     OW28771   4.212   4.050   4.700  0.5380 -0.0261  0.2729
 5770SOL    HW128772   4.264   4.131   4.702  1.5212 -0.6465 -0.3684
 5770SOL    HW228773   4.139   4.080   4.647 -1.5930 -2.9474  1.5661
 5771SOL     OW28774   1.764   1.749   0.210 -0.1061 -0.2743 -0.2438
 5771SOL    HW128775   1.826   1.804   0.162  0.0618 -1.5660 -1.5042
 5771SOL    HW228776   1.700   1.817   0.235 -0.5712 -1.4556  1.7575
 5772SOL     OW28777   2.304   3.617   7.019  0.8148  0.3030 -0.0316
 5772SOL    HW128778   2.210   3.636   7.020  1.0744  1.5150  1.8947
 5772SOL    HW228779   2.353   3.690   7.057  3.6372 -0.9152 -1.2969
 5773SOL     OW28780   0.138   3.622   0.745  0.3376 -0.3531  0.0827
 5773SOL    HW128781   0.146   3.642   0.652  1.2192  2.1750  0.7072
 5773SOL    HW228782   0.128   3.528   0.732 -1.2632 -0.5148  2.5039
 5774SOL     OW28783   1.068   4.663   7.144 -0.0895 -0.0998 -0.3592
 5774SOL    HW128784   0.989   4.717   7.136 -0.0913 -0.2852 -1.5369
 5774SOL    HW228785   1.098   4.680   7.055 -2.3489  1.4629 -0.8202
 5775SOL     OW28786   1.578   1.637   2.777 -0.4130 -0.2419 -0.1213
 5775SOL    HW128787   1.640   1.588   2.723  0.0478 -0.5549  0.6940
 5775SOL    HW228788   1.513   1.661   2.711  0.9273 -0.1971 -1.4299
 5776SOL     OW28789   0.054   0.873   9.184 -0.6195  1.0316 -0.2098
 5776SOL    HW128790   0.128   0.933   9.192  0.9032 -1.0461  1.2752
 5776SOL    HW228791   0.070   0.816   9.259 -1.1005  0.3226 -0.6593
 5777SOL     OW28792   4.256   3.361   5.526 -0.2902 -1.0195 -0.2764
 5777SOL    HW128793   4.308   3.391   5.453  0.1072  1.2320  0.9419
 5777SOL    HW228794   4.320   3.337   5.593 -1.7695 -0.3027  1.3960
 5778SOL     OW28795   4.656   1.968   6.869 -0.3458  0.8500  0.1847
 5778SOL    HW128796   4.693   1.960   6.957  0.5601 -2.0578 -0.4729
 5778SOL    HW228797   4.670   1.883   6.827  2.1173  0.7735  1.1282
 5779SOL     OW28798   1.654   2.214   4.978  0.6958 -0.7382  0.1100
 5779SOL    HW128799   1.642   2.305   5.006  0.6989 -0.4195 -0.9218
 5779SOL    HW228800   1.722   2.189   5.041 -0.7863  0.5555  2.2333
 5780SOL     OW28801   3.432   4.422   1.801  0.0824  0.2683  0.1629
 5780SOL    HW128802   3.356   4.368   1.820  0.0964  0.5359  1.0198
 5780SOL    HW228803   3.495   4.366   1.756 -1.9213 -1.7400 -0.1247
 5781SOL     OW28804   0.878   0.135   2.954  0.0437  0.5368  0.0408
 5781SOL    HW128805   0.945   0.118   3.020 -2.2733  1.5451  2.6626
 5781SOL    HW228806   0.849   0.223   2.979 -2.3287 -0.5498  1.0537
 5782SOL     OW28807   0.534   3.303   0.536 -0.5434  0.5086 -0.4246
 5782SOL    HW128808   0.610   3.359   0.519  1.0506 -1.5711 -0.0825
 5782SOL    HW228809   0.559   3.249   0.610 -0.3457  1.8875  0.5245
 5783SOL     OW28810   2.556   2.003   5.618 -0.0080  0.1020 -0.1344
 5783SOL    HW128811   2.611   2.017   5.540  0.6169 -2.5538 -0.1798
 5783SOL    HW228812   2.612   2.034   5.689 -0.9686  0.9462  0.2563
 5784SOL     OW28813   4.093   3.989   0.118  0.3093 -0.8098 -0.5259
 5784SOL    HW128814   4.024   4.041   0.160 -1.0444 -2.0610 -1.1895
 5784SOL    HW228815   4.172   4.008   0.168 -0.2493 -2.1081  0.8441
 5785SOL     OW28816   0.282   0.214  16.489 -0.4863 -0.5940  0.3961
 5785SOL    HW128817   0.237   0.295  16.514 -3.3177 -1.7564 -0.9824
 5785SOL    HW228818   0.364   0.225  16.537 -1.7183  1.4160  2.0601
 5786SOL     OW28819   1.026   2.899   4.996  0.2814  0.0790 -0.4628
 5786SOL    HW128820   1.058   2.988   4.982  2.1034 -0.3248  1.1845
 5786SOL    HW228821   1.024   2.902   5.092  0.1479  1.7279 -0.5056
 5787SOL     OW28822   0.435   3.417   2.015 -0.0359 -0.3030 -0.3401
 5787SOL    HW128823   0.404   3.387   1.929 -0.6942 -0.3268 -0.0956
 5787SOL    HW228824   0.515   3.366   2.029 -2.4927 -3.5227  2.1371
 5788SOL     OW28825   0.765   1.171   8.127 -0.0981  0.1053 -0.2495
 5788SOL    HW128826   0.713   1.172   8.208 -0.3189  0.0670 -0.3926
 5788SOL    HW228827   0.832   1.113   8.164 -0.9448 -0.8021 -0.1185
 5789SOL     OW28828   3.785   0.631  11.432  0.8603  0.3293  0.0079
 5789SOL    HW128829   3.699   0.673  11.432  0.2931 -0.8418  1.5333
 5789SOL    HW228830   3.783   0.555  11.491 -2.7110  0.3938 -0.0201
 5790SOL     OW28831   1.131   3.037   3.762  0.6940  0.2809  0.8984
 5790SOL    HW128832   1.225   3.026   3.750  0.4574  0.9293 -1.6548
 5790SOL    HW228833   1.139   3.131   3.777 -2.1536  0.7158 -0.2224
 5791SOL     OW28834   0.080   2.951   3.708 -0.4347 -0.4043 -0.0261
 5791SOL    HW128835   0.155   2.966   3.764 -0.7505  0.0291  0.2823
 5791SOL    HW228836   0.126   2.961   3.625  1.2801 -1.8681  0.7569
 5792SOL     OW28837   0.747   4.080   9.398  0.5142 -0.9052  0.2849
 5792SOL    HW128838   0.824   4.030   9.425  1.4127 -0.3685 -1.2759
 5792SOL    HW228839   0.775   4.167   9.425  2.4713 -1.2515 -0.6239
 5793SOL     OW28840   2.438   0.921   4.954 -0.1488 -0.9112  0.1142
 5793SOL    HW128841   2.521   0.942   4.912  0.5848  0.1363  2.0719
 5793SOL    HW228842   2.445   0.975   5.033 -1.0558 -1.7275  0.7482
 5794SOL     OW28843   0.824   3.154   6.370  0.4147 -0.0995  0.3791
 5794SOL    HW128844   0.733   3.127   6.383  0.7419 -1.7721 -0.7118
 5794SOL    HW228845   0.856   3.174   6.458  1.2559 -2.0246  0.5137
 5795SOL     OW28846   0.698   4.391  11.766 -0.0584 -0.1820  0.1933
 5795SOL    HW128847   0.769   4.355  11.713 -0.0431  0.4052 -0.1916
 5795SOL    HW228848   0.672   4.470  11.719  0.9824 -0.3105 -0.5894
 5796SOL     OW28849   4.203   4.276   5.564  0.1271  0.1742  0.5098
 5796SOL    HW128850   4.115   4.238   5.573  0.0471  0.0923 -0.6056
 5796SOL    HW228851   4.252   4.229   5.632  0.1293 -1.9014 -0.9123
 5797SOL     OW28852   0.064   4.177   4.683 -0.0755 -0.0845  0.1982
 5797SOL    HW128853   0.009   4.151   4.609 -1.3560  1.2048  0.6938
 5797SOL    HW228854   0.031   4.118   4.750 -1.9486  0.1737 -0.5047
 5798SOL     OW28855   0.570   2.052   8.495  0.3594  0.2558 -0.1046
 5798SOL    HW128856   0.487   2.093   8.472 -0.1556 -0.5993  0.2609
 5798SOL    HW228857   0.612   2.062   8.410 -0.0193 -0.4628 -0.3775
 5799SOL     OW28858   0.061   1.339   5.894 -0.2358  0.5294 -0.2553
 5799SOL    HW128859   0.109   1.322   5.814  0.0207 -0.3808  0.0960
 5799SOL    HW228860   4.704   1.305   5.864 -1.3949  3.4798 -0.3189
 5800SOL     OW28861   1.508   2.978   3.365 -0.1746  0.3349 -0.2883
 5800SOL    HW128862   1.437   2.932   3.320  2.4970 -2.0408 -2.1677
 5800SOL    HW228863   1.549   3.013   3.285  2.9321 -0.8906  0.7821
 5801SOL     OW28864   1.343   0.323  10.236  0.2979 -0.4617 -0.3670
 5801SOL    HW128865   1.346   0.413  10.271  1.4042 -0.6792  0.0743
 5801SOL    HW228866   1.358   0.277  10.319 -1.4049 -1.2356 -0.4895
 5802SOL     OW28867   1.746   0.356  16.015  0.1685  0.2428  0.1664
 5802SOL    HW128868   1.679   0.421  15.993  0.7275  0.3594 -1.2069
 5802SOL    HW228869   1.695   0.276  16.009  2.4210 -1.3953  2.6058
 5803SOL     OW28870   0.403   3.727  10.348 -0.0947 -0.3263  0.1793
 5803SOL    HW128871   0.468   3.786  10.386  0.6269 -1.0369  0.0396
 5803SOL    HW228872   0.450   3.679  10.280  1.5845 -0.1261  1.1969
 5804SOL     OW28873   1.105   0.714   2.329  0.0111 -0.4162 -0.0176
 5804SOL    HW128874   1.163   0.689   2.401  0.2582  2.8267  0.9107
 5804SOL    HW228875   1.027   0.662   2.352 -0.6094 -0.1279 -1.5017
 5805SOL     OW28876   2.873   1.623   9.833  0.5049  0.5885 -0.3262
 5805SOL    HW128877   2.929   1.655   9.904  1.0491 -1.6925  0.2848
 5805SOL    HW228878   2.911   1.539   9.808  0.5540 -0.5133  3.3795
 5806SOL     OW28879   4.361   3.181   8.649  0.3607 -0.1574  0.2565
 5806SOL    HW128880   4.309   3.102   8.634 -2.8379  2.6588 -3.3616
 5806SOL    HW228881   4.395   3.155   8.734 -1.2117 -3.6896 -0.1881
 5807SOL     OW28882   1.569   3.276   5.799 -0.1368 -0.3163  0.3262
 5807SOL    HW128883   1.481   3.298   5.831 -0.0337 -0.0203  0.4069
 5807SOL    HW228884   1.577   3.185   5.828  3.0357 -0.8960 -2.4063
 5808SOL     OW28885   2.461   2.767   7.433 -0.4597 -0.2223 -0.1553
 5808SOL    HW128886   2.491   2.686   7.474 -0.1676 -0.1664 -0.2550
 5808SOL    HW228887   2.523   2.828   7.473 -1.3284  0.7971 -0.3619
 5809SOL     OW28888   1.051   0.389   5.620 -0.4595  0.5364 -0.5957
 5809SOL    HW128889   1.112   0.389   5.694 -0.7679  0.9151 -0.3483
 5809SOL    HW228890   1.103   0.423   5.547 -0.8753  2.2311 -0.0846
 5810SOL     OW28891   1.038   0.117   6.445 -0.4462 -0.5857 -0.1103
 5810SOL    HW128892   1.089   0.184   6.490  0.1228  0.0169 -1.6453
 5810SOL    HW228893   1.022   0.069   6.526 -0.9829 -2.4097 -1.2941
 5811SOL     OW28894   0.243   1.308   6.469  0.4881  0.0637  0.1642
 5811SOL    HW128895   0.279   1.265   6.547  2.1889  1.1480 -0.0251
 5811SOL    HW228896   0.313   1.291   6.406 -0.4971 -0.6244 -0.7367
 5812SOL     OW28897   2.617   1.636   9.702  0.0895 -0.2510 -0.5005
 5812SOL    HW128898   2.580   1.554   9.735  0.5029 -0.5153 -0.6841
 5812SOL    HW228899   2.705   1.631   9.741  0.3996 -0.0315 -1.1740
 5813SOL     OW28900   1.502   3.814   4.203  0.2894 -0.0176  0.4266
 5813SOL    HW128901   1.536   3.725   4.200  0.0950 -0.0391 -1.3663
 5813SOL    HW228902   1.470   3.832   4.114  1.3292  0.4339  0.1425
 5814SOL     OW28903   1.843   3.947   4.278  0.0062 -0.1080  0.3005
 5814SOL    HW128904   1.934   3.972   4.293 -0.0163  0.1097  0.0726
 5814SOL    HW228905   1.850   3.852   4.284 -2.8421 -0.5212 -3.3690
 5815SOL     OW28906   1.997   1.657  11.283 -0.1553  0.3001  0.2325
 5815SOL    HW128907   2.015   1.648  11.190  1.5571  2.1676  0.3775
 5815SOL    HW228908   1.917   1.709  11.282 -0.4509 -0.1614 -0.0994
 5816SOL     OW28909   3.213   1.756  15.324 -0.9832  0.4300  0.0129
 5816SOL    HW128910   3.293   1.801  15.351 -1.1534 -0.0248  1.2470
 5816SOL    HW228911   3.152   1.827  15.304  0.7600  2.0793  0.5036
 5817SOL     OW28912   2.696   2.051   5.842  0.4350  0.4953  0.3073
 5817SOL    HW128913   2.694   1.982   5.908  0.7661 -0.4303 -0.6522
 5817SOL    HW228914   2.780   2.095   5.857 -0.8328  3.1899 -0.5133
 5818SOL     OW28915   1.990   0.824  17.529 -0.5848 -0.1576 -0.1911
 5818SOL    HW128916   1.999   0.870  17.446  0.8086  0.7414  0.4424
 5818SOL    HW228917   2.032   0.741  17.505 -0.9518 -0.0892 -1.0388
 5819SOL     OW28918   1.417   2.456   4.117 -0.7191 -0.0275  0.9441
 5819SOL    HW128919   1.410   2.455   4.022  2.8762 -0.1338  0.6852
 5819SOL    HW228920   1.333   2.417   4.143 -0.4901 -0.7313  0.6471
 5820SOL     OW28921   0.933   0.818   6.600 -0.1613  0.2031 -0.3213
 5820SOL    HW128922   0.924   0.732   6.559 -0.6993 -1.0251  2.3735
 5820SOL    HW228923   1.025   0.840   6.588 -0.6111  2.1490 -0.2188
 5821SOL     OW28924   2.066   2.728  14.690 -0.0048  0.1809  0.1301
 5821SOL    HW128925   2.100   2.652  14.644  0.0214  0.6423 -0.6194
 5821SOL    HW228926   1.973   2.724  14.667 -0.6552  0.1434  2.7241
 5822SOL     OW28927   1.687   1.054   5.923 -0.1876  0.1057  0.0383
 5822SOL    HW128928   1.710   0.984   5.862 -0.2651  1.7279 -1.8882
 5822SOL    HW228929   1.663   1.124   5.862 -1.7907  0.0305  0.5906
 5823SOL     OW28930   2.311   0.455  12.167  0.8886  0.6045  0.0672
 5823SOL    HW128931   2.254   0.380  12.179  2.1976 -0.3175  0.4804
 5823SOL    HW228932   2.371   0.444  12.241 -0.8864  0.0379  1.4155
 5824SOL     OW28933   2.202   1.773   2.390  0.5775 -0.4038  0.0805
 5824SOL    HW128934   2.192   1.865   2.364  0.4170 -0.6669 -0.7944
 5824SOL    HW228935   2.261   1.745   2.320 -0.7275 -0.4276 -1.0087
 5825SOL     OW28936   4.457   1.801  14.686  0.2624  0.1999 -0.2473
 5825SOL    HW128937   4.382   1.773  14.632 -0.0076 -0.8551  0.6826
 5825SOL    HW228938   4.448   1.897  14.682 -4.7872 -0.2437  0.5029
 5826SOL     OW28939   1.854   3.911   8.301  0.4053  0.1693 -0.5056
 5826SOL    HW128940   1.860   3.956   8.385  0.2905 -1.0648  0.1633
 5826SOL    HW228941   1.758   3.912   8.302  0.3966 -0.4148 -0.3882
 5827SOL     OW28942   3.456   2.967  13.248  0.1180 -0.3485  0.0601
 5827SOL    HW128943   3.431   2.884  13.289  1.8139 -0.0905  1.6129
 5827SOL    HW228944   3.401   3.023  13.303 -0.3597 -0.7604 -0.0036
 5828SOL     OW28945   2.871   0.164   7.883 -0.3029  0.0457  0.1310
 5828SOL    HW128946   2.832   0.078   7.870  1.4000 -0.4605 -1.6918
 5828SOL    HW228947   2.923   0.152   7.962  0.8783  0.4466 -0.5770
 5829SOL     OW28948   2.168   1.322   1.612 -0.7612 -0.8963 -0.1452
 5829SOL    HW128949   2.229   1.305   1.539 -0.9767  0.1418 -0.5612
 5829SOL    HW228950   2.182   1.417   1.611 -1.1398 -0.8675 -2.8243
 5830SOL     OW28951   2.659   1.133   7.228 -0.1942  0.2820  0.1190
 5830SOL    HW128952   2.670   1.186   7.149  0.2099 -0.8267 -0.5685
 5830SOL    HW228953   2.709   1.179   7.296  1.2394 -0.5608 -0.3769
 5831SOL     OW28954   3.879   1.125  11.795 -0.1810  0.0763 -0.1723
 5831SOL    HW128955   3.961   1.174  11.788 -1.0845  1.4063 -1.4149
 5831SOL    HW228956   3.908   1.059  11.858 -1.5998  0.5029  0.9047
 5832SOL     OW28957   3.400   0.758   5.737  0.0662  0.2299 -0.6631
 5832SOL    HW128958   3.377   0.671   5.705 -1.3355  0.2767  0.2461
 5832SOL    HW228959   3.428   0.804   5.657  0.4018  0.1518 -0.5925
 5833SOL     OW28960   4.583   1.510  17.672  0.1459 -0.5751  0.5632
 5833SOL    HW128961   4.540   1.560   0.032  1.5638  2.5386 -0.7734
 5833SOL    HW228962   4.639   1.457   0.020 -0.3302 -0.4782  1.1095
 5834SOL     OW28963   0.146   2.718  14.193  0.2687 -0.3855  0.5045
 5834SOL    HW128964   0.208   2.789  14.183 -2.4985  1.8796 -0.4836
 5834SOL    HW228965   0.090   2.737  14.118 -0.8356 -0.4815  1.2998
 5835SOL     OW28966   1.971   3.441  12.510  0.3697 -0.7754 -0.1208
 5835SOL    HW128967   1.978   3.391  12.591 -0.2419 -0.6798 -0.0035
 5835SOL    HW228968   1.921   3.522  12.527  0.0465 -1.0311  0.1419
 5836SOL     OW28969   2.186   1.971   6.017  0.1609 -0.3050  0.5553
 5836SOL    HW128970   2.137   2.034   6.069 -0.2231  0.6720 -1.0033
 5836SOL    HW228971   2.127   1.896   6.025  0.7826 -0.8458  0.1013
 5837SOL     OW28972   1.246   1.543  10.141 -0.0088  0.5240  0.1604
 5837SOL    HW128973   1.274   1.585  10.222 -0.1072  0.7849  0.0584
 5837SOL    HW228974   1.288   1.598  10.075  2.4915  1.0726  2.1825
 5838SOL     OW28975   1.901   2.889   9.938 -0.6415 -0.0534 -0.5925
 5838SOL    HW128976   1.968   2.843   9.887  0.7426  2.3900 -0.9726
 5838SOL    HW228977   1.911   2.983   9.921 -1.0216  0.0377 -0.3227
 5839SOL     OW28978   0.722   3.888   1.795  0.4387 -0.0304  0.7030
 5839SOL    HW128979   0.741   3.981   1.801  0.1184  0.2463 -2.2620
 5839SOL    HW228980   0.633   3.895   1.760  0.8715 -1.0833 -0.6285
 5840SOL     OW28981   0.793   0.823   4.627 -0.0213  0.3752  0.1885
 5840SOL    HW128982   0.808   0.906   4.581  1.4743 -0.3453 -0.6287
 5840SOL    HW228983   0.867   0.839   4.686  0.2230 -0.8948  0.2259
 5841SOL     OW28984   3.986   3.525   0.718  0.0199  0.1319  0.1480
 5841SOL    HW128985   3.937   3.471   0.657 -1.2544  1.8779 -0.3886
 5841SOL    HW228986   4.056   3.561   0.663  0.2979  1.0029  1.0786
 5842SOL     OW28987   3.766   2.894   7.609  0.2371  0.1309 -1.5300
 5842SOL    HW128988   3.670   2.896   7.615  0.4007  1.1197  0.8609
 5842SOL    HW228989   3.804   2.819   7.656 -0.1965 -0.6466 -2.4197
 5843SOL     OW28990   4.536   1.241   4.480  0.1487  0.1293 -0.1864
 5843SOL    HW128991   4.532   1.226   4.385  0.3126  0.9506 -0.3253
 5843SOL    HW228992   4.489   1.325   4.485  0.4039  0.2953 -0.6026
 5844SOL     OW28993   3.447   2.490  16.311  0.1849  0.5224  0.1767
 5844SOL    HW128994   3.406   2.565  16.354 -1.6934 -0.4355  0.0578
 5844SOL    HW228995   3.451   2.417  16.372  0.7245  0.3123 -0.1078
 5845SOL     OW28996   1.262   4.303   1.992 -0.0422  0.3918 -0.2841
 5845SOL    HW128997   1.177   4.299   2.037 -0.3312  0.1745 -0.8578
 5845SOL    HW228998   1.243   4.378   1.935 -0.1234  1.2164  0.8113
 5846SOL     OW28999   1.826   3.263   4.399 -0.0072 -0.1671  0.0459
 5846SOL    HW129000   1.872   3.184   4.429 -1.3985  0.6282  4.1261
 5846SOL    HW229001   1.798   3.227   4.315  0.2180  0.9725 -0.5171
 5847SOL     OW29002   0.512   4.343   8.393  0.0493  0.3913 -0.3428
 5847SOL    HW129003   0.509   4.368   8.485  3.3062 -0.9184  0.1181
 5847SOL    HW229004   0.455   4.266   8.392  2.2933 -1.2997 -0.1732
 5848SOL     OW29005   2.631   2.007  16.675 -0.1664  0.4132 -0.2280
 5848SOL    HW129006   2.602   1.978  16.589  1.9391  0.4025 -0.9533
 5848SOL    HW229007   2.617   2.101  16.678  0.9755  0.6543 -2.2737
 5849SOL     OW29008   0.821   1.687   7.082  0.0525  0.7280 -0.5250
 5849SOL    HW129009   0.840   1.713   6.992  0.3634  0.5170 -0.5205
 5849SOL    HW229010   0.904   1.719   7.117 -0.3748  3.5384 -2.0717
 5850SOL     OW29011   4.386   3.163   5.211 -0.1446  0.2479  0.6929
 5850SOL    HW129012   4.476   3.142   5.183 -1.3132 -2.8106 -0.7920
 5850SOL    HW229013   4.402   3.225   5.282 -0.2460  0.3546  0.6217
 5851SOL     OW29014   2.790   3.739   1.497  0.2308 -0.1372 -0.2305
 5851SOL    HW129015   2.739   3.819   1.482  0.6486  0.4644  1.6700
 5851SOL    HW229016   2.725   3.672   1.475  2.1749 -1.1682 -2.8660
 5852SOL     OW29017   1.696   3.778   3.045  0.1096 -0.3361 -0.4759
 5852SOL    HW129018   1.778   3.812   3.079 -0.8171  2.8930 -1.5360
 5852SOL    HW229019   1.718   3.770   2.952  2.5442 -0.5540  0.1092
 5853SOL     OW29020   0.814   0.418  12.719 -0.1217 -0.1144  0.4183
 5853SOL    HW129021   0.830   0.426  12.813 -1.0839 -0.1692  0.5896
 5853SOL    HW229022   0.898   0.379  12.693  1.2250  3.1133 -0.0794
 5854SOL     OW29023   1.429   3.288   4.832  0.1994 -0.6768 -0.2210
 5854SOL    HW129024   1.341   3.326   4.832  0.6263  0.3103  0.0462
 5854SOL    HW229025   1.486   3.343   4.779  0.2811  0.1445  0.7117
 5855SOL     OW29026   1.895   0.030   6.528 -0.2902 -0.1324 -0.1202
 5855SOL    HW129027   1.955   0.104   6.539 -0.3360 -0.1693  0.3857
 5855SOL    HW229028   1.895   4.699   6.604  0.9274  1.0471  0.7916
 5856SOL     OW29029   0.586   2.222  10.343 -0.2583 -0.1592  0.1897
 5856SOL    HW129030   0.573   2.235  10.437  0.2036 -0.4277  0.2901
 5856SOL    HW229031   0.571   2.128  10.341 -2.6048  0.1774  1.9350
 5857SOL     OW29032   0.357   0.434   9.213 -0.1894  0.3470 -0.3222
 5857SOL    HW129033   0.429   0.463   9.157 -0.9661 -0.4982 -1.7519
 5857SOL    HW229034   0.369   0.339   9.208 -2.4407  0.1865 -2.4691
 5858SOL     OW29035   0.516   0.504   4.157 -0.2754  0.4439  0.4460
 5858SOL    HW129036   0.596   0.487   4.206  1.1966 -2.0998 -2.7853
 5858SOL    HW229037   0.446   0.502   4.222 -0.0257  1.7397  0.7539
 5859SOL     OW29038   2.395   2.661  12.016  0.0995 -0.4045 -0.4013
 5859SOL    HW129039   2.407   2.755  12.012  1.8105 -0.5548  1.2903
 5859SOL    HW229040   2.321   2.661  12.078  0.4941 -2.3157  0.0960
 5860SOL     OW29041   4.709   4.487   4.411 -0.1190  0.4709  0.1964
 5860SOL    HW129042   4.701   4.400   4.371  1.7632  0.4683 -0.1944
 5860SOL    HW229043   4.621   4.517   4.388 -0.9753 -1.4269  0.9490
 5861SOL     OW29044   2.936   0.073   7.248  0.0713 -0.0583 -0.2682
 5861SOL    HW129045   2.867   0.119   7.201  1.6036  2.3074 -0.1889
 5861SOL    HW229046   2.966   0.022   7.173 -3.3337 -2.0695 -0.2918
 5862SOL     OW29047   0.893   4.408   2.766 -0.3370  0.5475  0.0236
 5862SOL    HW129048   0.842   4.380   2.690  0.6485 -1.0560 -0.0628
 5862SOL    HW229049   0.840   4.480   2.799  2.3823  2.0171  1.1443
 5863SOL     OW29050   3.258   0.852  15.453  0.4284  0.5056  0.2218
 5863SOL    HW129051   3.208   0.807  15.385  0.8085 -2.2036  1.7422
 5863SOL    HW229052   3.322   0.785  15.475  0.1116 -0.5745 -2.0821
 5864SOL     OW29053   3.374   2.491   3.474  0.1570 -0.1859  0.2372
 5864SOL    HW129054   3.443   2.471   3.411 -0.8561  0.5629 -1.0999
 5864SOL    HW229055   3.291   2.468   3.432 -0.9346  2.3118  1.0004
 5865SOL     OW29056   2.879   0.711   8.702 -0.1844  0.1464 -0.7132
 5865SOL    HW129057   2.970   0.711   8.734 -0.0421 -2.0819 -1.1688
 5865SOL    HW229058   2.833   0.655   8.764  1.3214 -1.5890 -1.1761
 5866SOL     OW29059   0.592   0.598  11.072 -1.5204  0.1673  0.0673
 5866SOL    HW129060   0.681   0.573  11.048 -0.9532  0.1475  2.2050
 5866SOL    HW229061   0.554   0.613  10.986  1.0544  0.2149 -1.0577
 5867SOL     OW29062   1.315   2.934   6.236  0.2569  0.2383 -0.2410
 5867SOL    HW129063   1.342   3.016   6.195  2.2102 -0.9393 -1.3271
 5867SOL    HW229064   1.230   2.930   6.193  0.5661  0.6451 -0.9018
 5868SOL     OW29065   1.792   1.185   7.385 -0.1234 -0.6289 -0.1874
 5868SOL    HW129066   1.707   1.193   7.341 -0.4533 -1.9803  0.2174
 5868SOL    HW229067   1.766   1.212   7.473  0.3732 -1.1669  0.1225
 5869SOL     OW29068   3.939   0.208   1.940 -0.0236  0.6497 -0.0388
 5869SOL    HW129069   3.883   0.247   1.873  1.3761  0.5451 -1.2593
 5869SOL    HW229070   4.019   0.261   1.938  0.2691  0.1874 -0.3743
 5870SOL     OW29071   4.100   2.547   6.023 -0.0924  0.1024  0.3726
 5870SOL    HW129072   4.136   2.636   6.020 -0.9054  0.3863 -1.4112
 5870SOL    HW229073   4.012   2.580   6.006  0.7914  1.2450 -2.0270
 5871SOL     OW29074   2.075   1.343   6.676  0.0314 -0.5006  0.5725
 5871SOL    HW129075   2.119   1.380   6.599 -2.2779  1.2999  0.1102
 5871SOL    HW229076   2.024   1.417   6.707  2.3098  1.2987  0.0075
 5872SOL     OW29077   1.998   0.706   6.748  0.0521  0.7030 -0.7545
 5872SOL    HW129078   2.046   0.759   6.813  2.4762 -3.8758  1.1768
 5872SOL    HW229079   2.067   0.649   6.714 -1.1052 -2.0395  1.6082
 5873SOL     OW29080   2.764   2.819   7.233 -0.2765 -0.0382 -0.4650
 5873SOL    HW129081   2.748   2.889   7.297  0.9835 -1.2049  1.1361
 5873SOL    HW229082   2.714   2.842   7.155 -0.0170  1.2158 -0.2689
 5874SOL     OW29083   0.334   2.716   4.456  0.0802 -0.2144 -0.1389
 5874SOL    HW129084   0.413   2.675   4.421  0.1471 -0.4406  0.2736
 5874SOL    HW229085   0.337   2.657   4.532 -0.7091 -0.9844 -0.6974
 5875SOL     OW29086   1.153   1.228  12.299 -0.1996 -0.0573  0.3602
 5875SOL    HW129087   1.150   1.191  12.388  1.0819  3.3580  1.8286
 5875SOL    HW229088   1.159   1.322  12.317 -0.1579  0.2928 -1.5604
 5876SOL     OW29089   1.043   1.675  10.745  0.2691 -0.3706  0.2355
 5876SOL    HW129090   1.102   1.736  10.701 -0.3108 -0.6096 -0.8710
 5876SOL    HW229091   0.979   1.732  10.788  0.8919  0.0299  0.6312
 5877SOL     OW29092   0.205   0.599   3.979 -0.1477 -0.6593 -0.2179
 5877SOL    HW129093   0.189   0.666   4.045 -0.5221  0.0780 -1.0523
 5877SOL    HW229094   0.197   0.524   4.037 -0.9698  1.0192  1.8215
 5878SOL     OW29095   0.483   1.703   1.926  0.3638 -0.8330  0.1152
 5878SOL    HW129096   0.514   1.615   1.906  1.1776 -0.8674  1.5037
 5878SOL    HW229097   0.399   1.689   1.971  0.0779  2.1371  0.5277
 5879SOL     OW29098   2.710   2.513   6.535  0.1535 -0.1069  0.2927
 5879SOL    HW129099   2.776   2.572   6.498 -0.2284 -0.4443 -0.9368
 5879SOL    HW229100   2.633   2.563   6.509 -0.1449 -1.4707 -1.4189
 5880SOL     OW29101   0.994   3.811   4.205 -0.0347 -0.3829  1.1740
 5880SOL    HW129102   1.057   3.789   4.274 -0.2544 -1.5772  0.9908
 5880SOL    HW229103   1.012   3.903   4.188 -1.5771 -0.7218 -2.2401
 5881SOL     OW29104   0.866   0.905  13.352  0.0375 -0.5057 -0.0797
 5881SOL    HW129105   0.931   0.835  13.355 -0.0269 -0.5415  0.5011
 5881SOL    HW229106   0.846   0.900  13.445  3.3069  0.4715  0.7080
 5882SOL     OW29107   3.995   0.072  11.519  0.2575 -0.1220 -0.3496
 5882SOL    HW129108   3.988   0.000  11.456  1.3889 -1.7955  1.4232
 5882SOL    HW229109   4.089   0.084  11.530 -0.2935  0.1221  4.1622
 5883SOL     OW29110   1.821   3.320   4.969  0.6654  0.2801  0.3540
 5883SOL    HW129111   1.861   3.245   5.012  0.0741 -0.2169  0.0404
 5883SOL    HW229112   1.846   3.305   4.878  0.7902 -2.6156  0.8827
 5884SOL     OW29113   2.407   0.154  10.653  0.1272 -0.8097  0.3354
 5884SOL    HW129114   2.385   0.062  10.667 -1.5153 -0.5351 -0.4792
 5884SOL    HW229115   2.321   0.194  10.641  0.6326  0.6936  1.7489
 5885SOL     OW29116   1.187   0.164   1.805 -0.5145 -0.0857 -0.3374
 5885SOL    HW129117   1.117   0.189   1.865  1.2775  0.8125  1.4013
 5885SOL    HW229118   1.132   0.111   1.748 -0.7272 -1.6638  1.3077
 5886SOL     OW29119   3.438   1.668   1.042 -0.0920 -0.1544 -1.0952
 5886SOL    HW129120   3.472   1.646   0.955  0.0683  0.4870 -1.1953
 5886SOL    HW229121   3.491   1.743   1.070  2.6827 -3.3362  2.1678
 5887SOL     OW29122   3.683   2.376   3.785 -0.6462 -0.2769 -0.5214
 5887SOL    HW129123   3.593   2.407   3.784 -1.5078 -2.6567  3.8897
 5887SOL    HW229124   3.708   2.354   3.695 -0.0798  1.8504 -0.8663
 5888SOL     OW29125   0.943   1.164   4.746 -0.0075  0.4514 -0.2657
 5888SOL    HW129126   0.902   1.133   4.827 -0.5783 -0.0077 -0.7300
 5888SOL    HW229127   0.944   1.256   4.771  0.2415 -0.2931  2.5053
 5889SOL     OW29128   2.624   0.331   8.103  0.0708 -0.2375  0.1781
 5889SOL    HW129129   2.613   0.237   8.088  0.0448 -0.5023  1.8917
 5889SOL    HW229130   2.630   0.322   8.198 -1.8339  1.9141  0.4964
 5890SOL     OW29131   2.890   3.869   4.974  0.2132  0.1848  0.4647
 5890SOL    HW129132   2.800   3.885   4.945 -0.4258  0.1654  2.4360
 5890SOL    HW229133   2.942   3.851   4.895 -1.4200  4.1645 -1.5222
 5891SOL     OW29134   3.877   0.750  10.726 -0.0285  0.2721  0.5615
 5891SOL    HW129135   3.934   0.819  10.759  0.4213 -0.1329  0.6380
 5891SOL    HW229136   3.869   0.696  10.805 -1.8376 -1.3680 -0.7290
 5892SOL     OW29137   4.499   2.941   0.638  0.2875 -0.5875 -0.4929
 5892SOL    HW129138   4.422   2.925   0.583  0.1274  0.8612 -0.6900
 5892SOL    HW229139   4.479   2.905   0.725  0.1396  0.0356 -0.2698
 5893SOL     OW29140   4.521   4.639  14.105  0.0873  0.2829 -0.0585
 5893SOL    HW129141   4.561   4.671  14.185  1.4712 -0.0763 -0.6061
 5893SOL    HW229142   4.589   4.579  14.074  0.5478  0.1674  1.1884
 5894SOL     OW29143   0.619   0.731  13.195  0.2604 -0.1199 -0.3763
 5894SOL    HW129144   0.538   0.684  13.173 -1.0196  1.6181  0.5854
 5894SOL    HW229145   0.586   0.821  13.196  1.6806  0.3966  0.6277
 5895SOL     OW29146   3.218   0.515   5.932  0.2986  0.4385  0.1982
 5895SOL    HW129147   3.283   0.508   5.862  0.4145 -2.4417  0.5829
 5895SOL    HW229148   3.247   0.441   5.986 -0.4738 -0.8115 -1.0934
 5896SOL     OW29149   3.530   0.341   7.089  0.2602 -0.6577 -0.5027
 5896SOL    HW129150   3.494   0.329   7.001  1.2038 -1.7613 -0.7329
 5896SOL    HW229151   3.608   0.394   7.073  2.1245 -3.2005  0.0802
 5897SOL     OW29152   2.022   0.150   7.019 -0.3567  0.1287  0.1221
 5897SOL    HW129153   2.043   0.228   7.070 -0.9926 -1.6628  3.1364
 5897SOL    HW229154   1.941   0.176   6.974 -1.5762 -2.5095  0.7441
 5898SOL     OW29155   4.138   0.881   9.988 -0.5113 -0.2851 -0.5687
 5898SOL    HW129156   4.200   0.816  10.023  0.8430 -0.1603 -2.6883
 5898SOL    HW229157   4.085   0.819   9.937 -1.6084  0.6876 -0.5952
 5899SOL     OW29158   2.774   2.417  16.135  0.6365 -0.4997  0.3390
 5899SOL    HW129159   2.725   2.346  16.095  1.1729 -1.6740  1.7729
 5899SOL    HW229160   2.852   2.405  16.081 -0.0714  0.3189 -0.8622
 5900SOL     OW29161   0.470   3.235  13.710  0.0074  0.4202 -0.1778
 5900SOL    HW129162   0.484   3.252  13.617 -2.9432 -1.3317 -0.9402
 5900SOL    HW229163   0.414   3.158  13.700  0.4668  0.0570  0.0914
 5901SOL     OW29164   4.553   2.438   1.064  0.2462  0.2434  0.5775
 5901SOL    HW129165   4.576   2.474   1.149  0.6187  1.9168 -0.2331
 5901SOL    HW229166   4.552   2.344   1.084 -0.1098  0.0147 -0.5171
 5902SOL     OW29167   2.289   1.310   0.737 -0.1696  0.1676 -0.1017
 5902SOL    HW129168   2.244   1.256   0.672  1.4620 -1.2511 -0.0691
 5902SOL    HW229169   2.379   1.282   0.721 -0.9061  0.2981 -4.4247
 5903SOL     OW29170   2.493   4.335   3.601 -0.4105  0.4239 -0.5838
 5903SOL    HW129171   2.459   4.260   3.650 -0.6651 -0.2759 -1.8487
 5903SOL    HW229172   2.537   4.287   3.531 -0.7935 -1.7799  0.7142
 5904SOL     OW29173   2.095   1.663  15.777 -0.0884  0.1484 -0.0737
 5904SOL    HW129174   2.060   1.730  15.836  2.6188  1.2944  0.2106
 5904SOL    HW229175   2.011   1.639  15.737  0.5164 -2.0418 -0.0272
 5905SOL     OW29176   4.216   4.686   7.930 -0.2864  0.2406 -0.2141
 5905SOL    HW129177   4.184   4.603   7.966  3.6700 -0.9870  0.4310
 5905SOL    HW229178   4.301   4.650   7.905 -0.2058  0.5248 -0.3395
 5906SOL     OW29179   1.273   2.360   1.334 -0.4579 -0.1460 -0.0009
 5906SOL    HW129180   1.241   2.358   1.424  0.4842 -2.0856  0.3018
 5906SOL    HW229181   1.303   2.269   1.329 -0.0183 -0.0796  1.4195
 5907SOL     OW29182   3.883   1.090   9.243  0.0919 -0.3792 -0.0429
 5907SOL    HW129183   3.807   1.078   9.299 -0.3387  0.8373 -0.3592
 5907SOL    HW229184   3.843   1.107   9.158  1.8329  2.6145 -0.2809
 5908SOL     OW29185   3.270   1.589  11.611 -0.7176  0.5328 -0.0108
 5908SOL    HW129186   3.196   1.598  11.551 -1.4953 -1.7228  0.6057
 5908SOL    HW229187   3.269   1.495  11.626 -0.5013  0.7575  1.4421
 5909SOL     OW29188   2.401   2.373  16.801 -0.2968 -0.4306  0.7915
 5909SOL    HW129189   2.462   2.357  16.873 -0.5480 -2.2578  0.5898
 5909SOL    HW229190   2.323   2.327  16.832 -1.8449  0.3679 -2.0053
 5910SOL     OW29191   3.061   0.660   7.174  0.5459  0.8479 -0.0255
 5910SOL    HW129192   2.991   0.653   7.109  1.7715  0.5302 -1.3244
 5910SOL    HW229193   3.029   0.731   7.230 -0.6903  0.2657  0.0168
 5911SOL     OW29194   0.554   3.652   2.903  0.4679 -0.3568 -0.1175
 5911SOL    HW129195   0.476   3.666   2.957 -0.6836  0.8725 -2.1063
 5911SOL    HW229196   0.616   3.631   2.972  1.0436 -3.3982 -1.5478
 5912SOL     OW29197   3.612   3.377   9.164 -0.0065 -0.0182 -0.1712
 5912SOL    HW129198   3.670   3.314   9.121  0.5784 -0.8974  1.9369
 5912SOL    HW229199   3.577   3.428   9.091  1.0813 -2.3380 -2.3043
 5913SOL     OW29200   4.440   1.085   5.390 -0.2281 -0.1314  0.2366
 5913SOL    HW129201   4.380   1.102   5.462 -2.1661  0.1501 -1.4486
 5913SOL    HW229202   4.465   0.993   5.398 -0.7588 -0.0293  2.9657
 5914SOL     OW29203   4.009   0.643   7.552  0.0233  0.1969  0.1533
 5914SOL    HW129204   3.916   0.659   7.539  0.3139  1.6096 -0.1815
 5914SOL    HW229205   4.043   0.727   7.583  1.0507  0.6329 -2.1114
 5915SOL     OW29206   2.072   2.671   7.735 -0.9124 -0.1679 -0.1628
 5915SOL    HW129207   2.037   2.733   7.799  0.8541  0.3901  0.2837
 5915SOL    HW229208   2.041   2.584   7.761  0.1103 -0.2430  0.7934
 5916SOL     OW29209   0.630   2.065  14.108 -0.1051  0.3741 -0.1212
 5916SOL    HW129210   0.711   2.071  14.057 -0.2696  1.3764 -0.2586
 5916SOL    HW229211   0.623   1.971  14.119 -0.6918  0.0586 -3.2233
 5917SOL     OW29212   0.849   2.767   2.975  0.6922  0.1935  0.1403
 5917SOL    HW129213   0.830   2.857   2.949 -0.5130  0.3799  1.7142
 5917SOL    HW229214   0.845   2.711   2.898  0.0635 -1.0511  1.0814
 5918SOL     OW29215   0.020   3.861   4.566 -0.1010  0.7174  0.1351
 5918SOL    HW129216   0.099   3.915   4.559 -1.1604  2.1618 -0.8427
 5918SOL    HW229217   4.687   3.919   4.519  0.2377  1.1848  0.2883
 5919SOL     OW29218   0.455   2.185   2.765  0.2351 -0.1223 -0.1007
 5919SOL    HW129219   0.539   2.167   2.809  0.5424  2.0213  0.1895
 5919SOL    HW229220   0.395   2.152   2.833  0.5200 -1.6564 -0.5939
 5920SOL     OW29221   0.190   2.814   0.784 -0.3836  0.9738 -0.3867
 5920SOL    HW129222   0.161   2.852   0.701 -1.0202 -1.8372 -1.4415
 5920SOL    HW229223   0.160   2.879   0.848 -2.9382 -0.8644  0.2940
 5921SOL     OW29224   0.649   2.332   0.429  0.5176 -0.6758 -0.2842
 5921SOL    HW129225   0.647   2.284   0.347 -0.9599 -1.9942  0.5202
 5921SOL    HW229226   0.561   2.365   0.449  0.4297 -1.4822  0.6908
 5922SOL     OW29227   1.602   2.074   3.314  0.3242  0.1909 -0.1215
 5922SOL    HW129228   1.650   2.106   3.237 -0.4938  0.3302 -0.5786
 5922SOL    HW229229   1.550   2.004   3.274  0.0663 -0.0118  0.5629
 5923SOL     OW29230   0.669   3.845   8.102 -0.1276  0.3406  0.8471
 5923SOL    HW129231   0.607   3.824   8.172 -1.3025  1.3107  0.0900
 5923SOL    HW229232   0.745   3.804   8.142 -0.7776 -1.0886  0.6227
 5924SOL     OW29233   0.096   1.562  15.584  0.0893  0.0365 -0.0188
 5924SOL    HW129234   0.041   1.633  15.552  1.1001  0.6321 -0.4420
 5924SOL    HW229235   0.104   1.509  15.504 -1.5712 -2.0662  1.2199
 5925SOL     OW29236   0.405   2.413   0.778  0.5017 -0.3908 -0.1932
 5925SOL    HW129237   0.317   2.439   0.804  1.2838  0.0528  2.0277
 5925SOL    HW229238   0.379   2.349   0.712 -1.8704  0.0709  0.3045
 5926SOL     OW29239   3.150   1.151   5.663 -0.3722 -0.0616  0.1677
 5926SOL    HW129240   3.136   1.233   5.711 -1.1703 -1.2426  2.0036
 5926SOL    HW229241   3.119   1.087   5.728 -3.3876  0.1589 -1.0550
 5927SOL     OW29242   3.692   2.757   0.984 -0.0369  0.0474  0.2075
 5927SOL    HW129243   3.711   2.747   1.077  3.2347  1.1644 -0.3346
 5927SOL    HW229244   3.647   2.675   0.964 -0.1106 -0.1294  1.1057
 5928SOL     OW29245   0.359   1.432   5.859  0.2297 -0.4406  0.2279
 5928SOL    HW129246   0.415   1.497   5.815  0.0117 -0.4124 -0.0025
 5928SOL    HW229247   0.302   1.499   5.898  0.2658 -0.0381 -0.4180
 5929SOL     OW29248   1.691   4.392   7.813 -0.0955  0.1574  0.3138
 5929SOL    HW129249   1.681   4.406   7.907 -1.4232  2.3945 -0.1786
 5929SOL    HW229250   1.618   4.335   7.789  0.2346  0.9526 -2.5411
 5930SOL     OW29251   0.831   3.968  10.749  0.1890  0.2270 -0.3978
 5930SOL    HW129252   0.901   3.904  10.736  2.1410  1.9499  1.7512
 5930SOL    HW229253   0.869   4.039  10.800  0.4428 -0.2155  0.0279
 5931SOL     OW29254   1.864   2.900   3.021 -0.2884  0.0594  0.0989
 5931SOL    HW129255   1.817   2.848   3.086  0.6073 -2.6175 -1.3905
 5931SOL    HW229256   1.784   2.940   2.987  2.1373  1.5653 -3.8269
 5932SOL     OW29257   1.792   2.128   8.502 -0.4446 -0.1746  0.3896
 5932SOL    HW129258   1.714   2.081   8.530 -0.8832 -0.1019 -0.7232
 5932SOL    HW229259   1.867   2.068   8.507  0.1582  0.4110 -1.7284
 5933SOL     OW29260   4.202   3.031   7.679  1.4615 -0.7441 -0.0886
 5933SOL    HW129261   4.132   2.979   7.641  0.3542  0.5703  0.1822
 5933SOL    HW229262   4.267   2.962   7.697  2.1709  0.0445  0.3878
 5934SOL     OW29263   3.107   0.504   8.058  0.3645 -0.3931 -0.3228
 5934SOL    HW129264   3.125   0.491   8.152 -0.6158 -0.9840 -0.2200
 5934SOL    HW229265   3.018   0.469   8.063 -0.2543  1.2606 -0.0529
 5935SOL     OW29266   1.810   2.049   2.209  0.1409  0.3563 -0.0539
 5935SOL    HW129267   1.781   2.038   2.299  0.5061  2.0145  0.2663
 5935SOL    HW229268   1.902   2.050   2.235  0.8515  0.5273 -2.6059
 5936SOL     OW29269   3.208   0.540   2.416  0.3716  0.6413 -0.6503
 5936SOL    HW129270   3.292   0.576   2.387 -1.2861  2.6474 -2.9692
 5936SOL    HW229271   3.215   0.453   2.376  2.7943 -0.1312  1.4425
 5937SOL     OW29272   3.536   2.229   6.275 -0.2345  0.1726  0.1027
 5937SOL    HW129273   3.482   2.304   6.299 -1.7091  0.2529 -3.5489
 5937SOL    HW229274   3.568   2.266   6.193 -1.4103 -3.7088 -2.0587
 5938SOL     OW29275   4.256   0.375   1.313 -0.1529  0.0156  0.3497
 5938SOL    HW129276   4.269   0.319   1.237 -0.6923  1.7391 -1.0049
 5938SOL    HW229277   4.309   0.328   1.378 -0.9113  0.8546  1.5793
 5939SOL     OW29278   4.059   4.129   7.003  0.1019  0.0906  0.6508
 5939SOL    HW129279   4.073   4.224   7.001  0.8491 -0.0559 -1.0577
 5939SOL    HW229280   3.967   4.121   7.029  0.9677 -2.9588  2.7624
 5940SOL     OW29281   2.460   4.297   6.935  0.3213 -0.0541  0.5286
 5940SOL    HW129282   2.530   4.353   6.967  1.0398 -1.9699  2.3343
 5940SOL    HW229283   2.516   4.242   6.879 -0.6105 -1.6910  1.1930
 5941SOL     OW29284   3.846   2.682  13.760  0.3289  0.0184 -0.1331
 5941SOL    HW129285   3.823   2.594  13.788  2.8249 -0.5989 -0.0609
 5941SOL    HW229286   3.940   2.693  13.776  0.0485  0.0894  1.4193
 5942SOL     OW29287   1.444   3.075   3.946 -0.0326 -0.1641  0.3958
 5942SOL    HW129288   1.524   3.042   3.988  0.1763 -0.7610 -0.4689
 5942SOL    HW229289   1.452   3.039   3.857 -1.8595  0.4814 -0.0129
 5943SOL     OW29290   1.311   1.379   1.221  1.0824 -0.1107  0.0176
 5943SOL    HW129291   1.342   1.318   1.154 -1.7459 -0.4886 -0.9317
 5943SOL    HW229292   1.219   1.380   1.195  0.5136 -1.5844  1.9526
 5944SOL     OW29293   1.489   1.192   1.073  0.1709 -0.1189  0.8672
 5944SOL    HW129294   1.541   1.163   0.997 -0.9254 -0.6510  0.3161
 5944SOL    HW229295   1.439   1.114   1.097  1.2600 -1.3800 -0.9091
 5945SOL     OW29296   2.680   0.046   2.977  0.7475  0.3379 -0.1267
 5945SOL    HW129297   2.626   4.697   2.962 -0.8787  1.6984 -1.1295
 5945SOL    HW229298   2.744   0.039   2.906  1.4507 -0.2222  0.5669
 5946SOL     OW29299   4.009   1.329   2.910 -0.0895  0.2687 -0.5426
 5946SOL    HW129300   4.019   1.424   2.897  2.3251  0.2950  1.5350
 5946SOL    HW229301   3.926   1.305   2.869 -0.4621 -1.8551  1.4440
 5947SOL     OW29302   0.025   4.081   0.330  0.0862  0.2780  0.0297
 5947SOL    HW129303   0.028   4.159   0.386  0.0491 -1.1666  2.0387
 5947SOL    HW229304   0.100   4.029   0.359 -1.1433 -1.9223 -0.7380
 5948SOL     OW29305   0.876   2.098   9.391 -0.2891 -0.3065 -0.1189
 5948SOL    HW129306   0.934   2.070   9.462 -1.1473  0.4044  0.8672
 5948SOL    HW229307   0.933   2.145   9.330 -1.0202 -1.1251 -1.4174
 5949SOL     OW29308   4.032   0.970   4.499 -0.0235 -0.2216 -0.4497
 5949SOL    HW129309   4.085   1.035   4.545 -1.8751 -0.3550  1.9376
 5949SOL    HW229310   4.059   0.986   4.409 -1.3748 -3.4946 -1.4304
 5950SOL     OW29311   0.997   2.537  12.622 -0.0158  0.2848 -0.3756
 5950SOL    HW129312   1.069   2.476  12.607 -0.5615 -0.2723 -0.7239
 5950SOL    HW229313   1.029   2.573  12.705  0.3977  0.1387 -0.4721
 5951SOL     OW29314   1.245   1.297   3.551  0.2097 -0.2563 -0.2909
 5951SOL    HW129315   1.302   1.232   3.592 -0.2071 -0.2574  0.2795
 5951SOL    HW229316   1.221   1.250   3.471  0.1739  0.1053 -0.4953
 5952SOL     OW29317   4.359   3.912   4.401  0.3858 -0.1702  0.2613
 5952SOL    HW129318   4.361   3.830   4.352 -1.9148  2.9786 -5.0397
 5952SOL    HW229319   4.353   3.888   4.493 -2.0520  1.5022  0.5353
 5953SOL     OW29320   3.670   0.138   4.875  0.1421  0.2123 -0.3568
 5953SOL    HW129321   3.651   0.218   4.923 -3.1213 -1.1523  0.5931
 5953SOL    HW229322   3.759   0.120   4.905  0.0659 -1.5327 -1.1734
 5954SOL     OW29323   4.434   1.651  15.258 -0.0190 -0.0275 -0.1785
 5954SOL    HW129324   4.513   1.596  15.255 -1.3374 -2.0699  1.8492
 5954SOL    HW229325   4.402   1.622  15.344  1.7548  0.4397  0.6536
 5955SOL     OW29326   1.466   2.021   3.964  0.1769  0.5263  0.6960
 5955SOL    HW129327   1.482   2.086   3.896  1.8450  0.6054  1.1470
 5955SOL    HW229328   1.526   2.051   4.032 -1.9083  1.5834  2.0627
 5956SOL     OW29329   4.588   3.774  16.285 -0.0888 -0.5655 -0.0523
 5956SOL    HW129330   4.530   3.701  16.307 -0.1860 -0.2281  0.8084
 5956SOL    HW229331   4.608   3.796  16.376  0.6117 -1.0798 -0.0733
 5957SOL     OW29332   1.543   0.123   7.342 -0.6699  0.2871  0.4463
 5957SOL    HW129333   1.591   0.058   7.290 -0.3532  1.8383 -1.1964
 5957SOL    HW229334   1.596   0.130   7.421  0.8429  0.4877 -0.5969
 5958SOL     OW29335   1.774   0.435   8.429  0.8689  0.7262  0.1297
 5958SOL    HW129336   1.733   0.388   8.357 -2.5698  4.1295 -0.1319
 5958SOL    HW229337   1.849   0.471   8.382  0.8495  1.8114  0.9294
 5959SOL     OW29338   0.398   3.790   2.180 -0.2487 -0.8415 -0.3330
 5959SOL    HW129339   0.413   3.822   2.091 -0.3558  1.5381  0.5069
 5959SOL    HW229340   0.357   3.705   2.166 -1.3824 -0.4179  0.4635
 5960SOL     OW29341   1.000   0.954   0.639  0.1210  0.0312  0.0298
 5960SOL    HW129342   1.024   1.016   0.571 -0.3748  1.2889  1.0045
 5960SOL    HW229343   1.057   0.981   0.711  0.2095  1.3423 -0.5369
 5961SOL     OW29344   2.618   3.606   1.699  0.0067  0.2619 -0.5118
 5961SOL    HW129345   2.558   3.676   1.723  0.9495  0.6592  0.6855
 5961SOL    HW229346   2.588   3.594   1.609  0.3544  0.3467 -0.6397
 5962SOL     OW29347   1.877   2.206   2.845  0.2494  0.7213  0.3643
 5962SOL    HW129348   1.901   2.217   2.937 -0.9291  1.5888  0.5740
 5962SOL    HW229349   1.930   2.274   2.803  1.8160 -0.7768 -0.0669
 5963SOL     OW29350   4.675   4.205   4.221 -0.9766  0.1870 -0.0760
 5963SOL    HW129351   4.696   4.112   4.210 -0.4049  0.3239 -0.1589
 5963SOL    HW229352   4.696   4.233   4.132  1.9133 -1.5201  0.0645
 5964SOL     OW29353   0.341   4.597   9.761  0.7922  0.0328 -0.0691
 5964SOL    HW129354   0.325   4.673   9.817  2.0263  0.1617  0.1131
 5964SOL    HW229355   0.249   4.583   9.738  0.7814 -0.7753  0.4534
 5965SOL     OW29356   3.875   4.366  14.321 -0.1499  0.3765  0.3071
 5965SOL    HW129357   3.851   4.457  14.340 -1.4410  0.4290 -1.5395
 5965SOL    HW229358   3.887   4.326  14.407 -3.5929  0.9569  1.0549
 5966SOL     OW29359   1.144   4.049   3.353 -0.0531 -0.0703 -0.3141
 5966SOL    HW129360   1.067   4.059   3.297 -1.6222  0.5322  1.9594
 5966SOL    HW229361   1.117   4.091   3.435 -0.1324 -0.0178 -0.3672
 5967SOL     OW29362   3.997   4.204   3.919  0.3889 -0.4765  0.4084
 5967SOL    HW129363   3.979   4.115   3.948  1.8075 -0.6916  0.6177
 5967SOL    HW229364   4.048   4.236   3.993  0.9017  0.3057 -0.2873
 5968SOL     OW29365   3.654   2.323  10.534 -1.0474 -0.3749 -0.1236
 5968SOL    HW129366   3.634   2.306  10.441 -0.6302 -1.0014 -0.1023
 5968SOL    HW229367   3.611   2.246  10.571  0.1739 -1.3769 -0.7515
 5969SOL     OW29368   2.399   1.645   3.738 -0.1949 -0.5444  0.0934
 5969SOL    HW129369   2.364   1.731   3.762  1.4829 -0.2592  1.4760
 5969SOL    HW229370   2.377   1.591   3.815 -0.0696  0.2054  0.6502
 5970SOL     OW29371   2.062   0.285  13.632  0.2794  0.4509 -0.4274
 5970SOL    HW129372   2.047   0.251  13.720 -0.5899  0.0253 -0.7426
 5970SOL    HW229373   1.990   0.257  13.576  0.5465 -1.4346  0.1900
 5971SOL     OW29374   3.645   2.924   8.390  0.1327  0.0529  0.3813
 5971SOL    HW129375   3.606   2.866   8.325 -1.2992 -0.3316  1.5780
 5971SOL    HW229376   3.727   2.875   8.396  0.4641  0.6289  0.5456
 5972SOL     OW29377   0.776   1.944   7.837 -0.3527  0.0971  0.1951
 5972SOL    HW129378   0.714   1.984   7.775  0.3138  0.6987 -0.0805
 5972SOL    HW229379   0.725   1.893   7.901 -2.2198 -1.7021 -2.7066
 5973SOL     OW29380   0.603   3.996  15.056 -0.4564 -0.2023 -0.3095
 5973SOL    HW129381   0.580   3.971  14.966  0.7841 -1.3100 -0.3272
 5973SOL    HW229382   0.529   4.055  15.070 -0.4473 -0.0837 -0.7451
 5974SOL     OW29383   1.805   2.692  14.789 -0.7543 -0.1473  0.1713
 5974SOL    HW129384   1.792   2.742  14.869  0.5863 -2.0267  1.5756
 5974SOL    HW229385   1.753   2.734  14.721  0.4997  2.1462  0.6344
 5975SOL     OW29386   1.342   2.316   9.259  0.0234  0.0426 -0.4944
 5975SOL    HW129387   1.318   2.398   9.218  1.1837  0.2684 -0.6988
 5975SOL    HW229388   1.433   2.325   9.285 -0.1935  0.5004  0.0901
 5976SOL     OW29389   2.604   3.120   1.634 -0.8114  0.1490  0.1008
 5976SOL    HW129390   2.593   3.187   1.701 -2.0343 -1.6370  1.7197
 5976SOL    HW229391   2.519   3.128   1.590 -0.1407 -2.8925 -1.7528
 5977SOL     OW29392   4.456   3.585  13.808 -0.0134 -0.4085 -0.4297
 5977SOL    HW129393   4.394   3.550  13.744  0.6149 -0.0033 -1.2524
 5977SOL    HW229394   4.508   3.644  13.753  0.6834 -0.4852  0.1470
 5978SOL     OW29395   1.406   2.116   0.359  0.0821  0.4443 -0.2780
 5978SOL    HW129396   1.388   2.183   0.292 -0.3710 -0.9105 -1.5144
 5978SOL    HW229397   1.414   2.179   0.430 -0.1090  0.6537 -0.4386
 5979SOL     OW29398   1.429   4.594   6.225 -0.4902  0.1453  0.0783
 5979SOL    HW129399   1.349   4.576   6.176 -1.4300  2.0041  0.9019
 5979SOL    HW229400   1.409   4.567   6.315  1.0918 -0.4154  0.2627
 5980SOL     OW29401   0.665   0.801   5.661 -0.3451  0.2353  0.2229
 5980SOL    HW129402   0.595   0.865   5.671  0.2420  1.0659 -0.9460
 5980SOL    HW229403   0.732   0.834   5.721 -0.6709 -0.1252  0.7838
 5981SOL     OW29404   2.729   3.183   3.898 -0.4060  0.0181 -0.2700
 5981SOL    HW129405   2.773   3.109   3.939  1.7304  1.8492  0.7549
 5981SOL    HW229406   2.783   3.191   3.819  1.2268 -0.1337  0.8288
 5982SOL     OW29407   0.287   0.851   7.720 -0.3229 -0.1871 -0.2139
 5982SOL    HW129408   0.309   0.942   7.741 -1.5746  0.2529 -0.7984
 5982SOL    HW229409   0.194   0.864   7.739  0.1102  1.3851  0.8561
 5983SOL     OW29410   1.306   2.450   1.882 -0.0077  1.5824 -0.7771
 5983SOL    HW129411   1.296   2.419   1.972  2.1293 -0.3848 -1.2271
 5983SOL    HW229412   1.339   2.538   1.897  0.8067  1.1822 -0.1868
 5984SOL     OW29413   0.081   0.720   3.060  0.3595  0.0100  0.5357
 5984SOL    HW129414   0.005   0.676   3.023  0.2707 -0.6530  1.5236
 5984SOL    HW229415   0.084   0.703   3.154 -2.0231  0.5986  0.7359
 5985SOL     OW29416   2.791   2.924   1.010 -0.4202  0.5763 -0.4151
 5985SOL    HW129417   2.787   2.870   0.931  0.6292 -0.0943 -0.0063
 5985SOL    HW229418   2.822   3.010   0.980  0.0936 -0.3150 -2.4540
 5986SOL     OW29419   3.266   0.784   2.153 -0.1008 -0.7929  0.1514
 5986SOL    HW129420   3.251   0.720   2.083 -0.8605  0.7894 -1.1180
 5986SOL    HW229421   3.346   0.746   2.190 -1.2177 -4.4712 -1.1566
 5987SOL     OW29422   2.699   2.587   3.988 -0.4523  0.2482 -0.0814
 5987SOL    HW129423   2.691   2.675   3.953  1.3988 -0.2418 -1.7146
 5987SOL    HW229424   2.604   2.572   3.982 -0.5505  1.3569 -1.3627
 5988SOL     OW29425   2.727   4.285   6.024  0.4398 -0.3081  0.0878
 5988SOL    HW129426   2.817   4.263   6.049 -0.0475 -4.0548 -1.5510
 5988SOL    HW229427   2.708   4.351   6.091 -1.2776  1.3457 -2.0425
 5989SOL     OW29428   0.382   3.725   7.266 -0.2674  0.1431  0.4570
 5989SOL    HW129429   0.384   3.801   7.207  0.4306  0.5621  1.0220
 5989SOL    HW229430   0.287   3.716   7.274 -0.3607  1.3094  0.7353
 5990SOL     OW29431   3.677   4.367  11.691 -0.0063  0.4924  0.2060
 5990SOL    HW129432   3.688   4.396  11.782  0.0701  0.4343  0.2153
 5990SOL    HW229433   3.606   4.304  11.702 -0.2800  0.4350 -2.0001
 5991SOL     OW29434   4.511   4.036   0.462 -0.2367  0.3398 -0.8014
 5991SOL    HW129435   4.565   4.070   0.391  0.0354  0.0279 -0.7385
 5991SOL    HW229436   4.575   4.013   0.529 -0.3194  0.7753 -0.5712
 5992SOL     OW29437   0.090   0.328  17.408  0.4071 -0.9744 -0.9306
 5992SOL    HW129438   0.001   0.354  17.382  0.2054 -1.7312 -1.0012
 5992SOL    HW229439   0.102   0.354  17.499  2.9298 -0.6508 -1.3723
 5993SOL     OW29440   1.815   0.054   4.078  1.1971  0.0430 -0.5772
 5993SOL    HW129441   1.883   0.116   4.106 -1.4046  2.1094  1.1800
 5993SOL    HW229442   1.803   0.009   4.162 -0.3992 -1.7548 -1.7557
 5994SOL     OW29443   3.713   4.168   8.160  0.6561  0.2503  0.5029
 5994SOL    HW129444   3.660   4.233   8.113  0.1713 -0.9389 -0.5789
 5994SOL    HW229445   3.789   4.145   8.107  1.9674  2.9620  1.2336
 5995SOL     OW29446   0.033   0.597   5.358  0.2100  0.0929  0.0806
 5995SOL    HW129447   0.061   0.588   5.267  0.1010 -3.1756  0.3860
 5995SOL    HW229448   0.120   0.608   5.398 -0.1380 -0.0482  0.8693
 5996SOL     OW29449   1.566   1.076   9.707  0.0064 -0.6786  0.4261
 5996SOL    HW129450   1.555   1.154   9.761 -1.7991 -0.4026 -0.3697
 5996SOL    HW229451   1.510   1.016   9.756 -2.3649  0.2618 -1.1823
 5997SOL     OW29452   2.303   2.584   5.335 -0.1106 -0.0622 -0.6091
 5997SOL    HW129453   2.243   2.639   5.284 -0.4324  0.1541  0.0023
 5997SOL    HW229454   2.389   2.622   5.314 -1.1848  1.1149 -2.9664
 5998SOL     OW29455   3.014   3.287   2.795  0.3235 -0.0187 -0.5558
 5998SOL    HW129456   3.079   3.355   2.810  0.0821  0.4074 -1.4363
 5998SOL    HW229457   3.063   3.207   2.812  1.2628  0.8353  0.7645
 5999SOL     OW29458   0.481   3.872   9.595  0.4213 -0.0548 -0.2426
 5999SOL    HW129459   0.494   3.957   9.639 -1.4827 -0.3365  0.9126
 5999SOL    HW229460   0.434   3.834   9.670  0.1075  1.4364  0.3342
 6000SOL     OW29461   1.550   1.440   0.941  0.1665  0.2123  0.6581
 6000SOL    HW129462   1.512   1.361   0.979 -0.3112  0.6473  1.0881
 6000SOL    HW229463   1.643   1.419   0.932 -0.1668 -0.8143 -0.4620
 6001SOL     OW29464   3.257   1.265   0.917 -0.1618  0.1585 -0.0213
 6001SOL    HW129465   3.291   1.339   0.866  0.5044 -1.0064 -1.2648
 6001SOL    HW229466   3.166   1.265   0.887 -0.5693 -0.3548  1.2348
 6002SOL     OW29467   0.689   1.560   1.691  0.4672 -0.0013 -0.7019
 6002SOL    HW129468   0.744   1.621   1.740  3.6806 -1.5665 -2.3556
 6002SOL    HW229469   0.735   1.476   1.696 -1.7911 -1.1358  0.8503
 6003SOL     OW29470   0.890   3.570  15.021  0.2775  0.0792  0.1701
 6003SOL    HW129471   0.891   3.489  14.971 -0.7644 -1.0379  1.9742
 6003SOL    HW229472   0.906   3.541  15.111 -0.7001  1.3613  0.7523
 6004SOL     OW29473   3.055   1.825   4.896  0.0911 -0.0472  0.7306
 6004SOL    HW129474   3.005   1.812   4.816 -0.8589 -2.0755  1.6380
 6004SOL    HW229475   3.123   1.759   4.881  0.4015  0.4211  0.1213
 6005SOL     OW29476   0.480   1.354   5.262  0.3757 -1.0843 -0.1769
 6005SOL    HW129477   0.481   1.406   5.181  0.3750 -2.0547 -0.8000
 6005SOL    HW229478   0.563   1.307   5.250  0.0740 -1.8955  0.9909
 6006SOL     OW29479   2.778   2.517   0.064 -0.3606  0.2046 -0.0038
 6006SOL    HW129480   2.785   2.545  17.683 -0.4802  3.1973  0.9141
 6006SOL    HW229481   2.791   2.593   0.120  0.3799  1.7808 -2.2973
 6007SOL     OW29482   2.886   1.899  10.115  0.2283  0.4063 -0.8375
 6007SOL    HW129483   2.792   1.884  10.104  0.0490  0.1521  1.0576
 6007SOL    HW229484   2.905   1.852  10.196  0.3320  1.0663 -0.4840
 6008SOL     OW29485   2.052   0.475  14.090 -0.4503  0.0047  0.4243
 6008SOL    HW129486   2.101   0.531  14.150 -1.3547  1.5976 -0.3121
 6008SOL    HW229487   2.055   0.525  14.008 -1.3729 -1.5355 -0.5408
 6009SOL     OW29488   1.995   4.052  16.131 -0.5267 -0.3538  0.8872
 6009SOL    HW129489   1.928   3.997  16.090 -0.6626  1.0314 -0.7415
 6009SOL    HW229490   1.951   4.083  16.211 -0.1597 -0.1998  1.0303
 6010SOL     OW29491   3.264   3.466  10.419 -0.0564  0.7128 -0.1037
 6010SOL    HW129492   3.342   3.464  10.475 -0.5033  0.1452  0.5008
 6010SOL    HW229493   3.238   3.374  10.414 -0.8476  0.9064  0.4987
 6011SOL     OW29494   3.202   2.255   0.865  0.3961  0.3709  0.1887
 6011SOL    HW129495   3.258   2.323   0.903  0.4218  0.6051 -0.2654
 6011SOL    HW229496   3.182   2.202   0.942 -0.9616 -0.8832 -1.0450
 6012SOL     OW29497   1.117   3.295   1.090 -0.1014  0.0014  0.0873
 6012SOL    HW129498   1.160   3.209   1.079 -2.0365 -0.9280 -0.2112
 6012SOL    HW229499   1.075   3.295   1.176  4.6402  1.2783  2.3953
 6013SOL     OW29500   0.628   0.946   0.393  0.3512  0.0449  0.1308
 6013SOL    HW129501   0.655   0.858   0.420 -1.2298 -0.1825  0.9728
 6013SOL    HW229502   0.656   0.955   0.302 -1.0507  1.2459 -0.1642
 6014SOL     OW29503   0.693   2.103   8.244  0.3511 -0.2276  0.3436
 6014SOL    HW129504   0.641   2.182   8.232  0.7585 -0.1411 -0.8877
 6014SOL    HW229505   0.779   2.146   8.240  0.6414 -0.8051  0.3446
 6015SOL     OW29506   0.366   0.284   8.726 -0.6259  0.2038  0.2785
 6015SOL    HW129507   0.281   0.258   8.761 -1.1858  0.1485 -1.1254
 6015SOL    HW229508   0.377   0.237   8.644  3.7920 -0.2821  1.1461
 6016SOL     OW29509   0.139   1.614   8.021  0.1855 -0.4717 -0.0562
 6016SOL    HW129510   0.137   1.629   8.116 -3.2225 -1.7856  0.0696
 6016SOL    HW229511   0.066   1.667   7.991  1.4397  2.1526  1.5298
 6017SOL     OW29512   3.302   3.875   5.830  0.6669 -0.0853 -0.2604
 6017SOL    HW129513   3.396   3.885   5.815  0.3047  1.3459 -1.5742
 6017SOL    HW229514   3.259   3.945   5.780 -1.4889 -0.6446  0.7713
 6018SOL     OW29515   2.129   1.380  10.890 -0.5046  0.1501 -0.0385
 6018SOL    HW129516   2.148   1.431  10.811  0.7116  0.7733  0.6485
 6018SOL    HW229517   2.193   1.310  10.887 -1.5189 -0.6893 -1.7291
 6019SOL     OW29518   1.195   1.341   7.461  0.2005  0.1171  0.0988
 6019SOL    HW129519   1.111   1.364   7.422  0.2479  0.9547  0.4922
 6019SOL    HW229520   1.172   1.309   7.549  0.4328 -3.3222 -1.0730
 6020SOL     OW29521   0.638   0.927   5.126 -0.2354  0.0438 -0.2207
 6020SOL    HW129522   0.615   0.958   5.214  0.5731  3.3948 -1.2098
 6020SOL    HW229523   0.559   0.897   5.082  0.5478 -1.1587 -0.7976
 6021SOL     OW29524   0.515   0.230  16.664  0.2389  0.0705  0.3783
 6021SOL    HW129525   0.592   0.221  16.609  1.1062 -0.5382  1.6936
 6021SOL    HW229526   0.551   0.214  16.751 -0.8397 -1.2453  0.5727
 6022SOL     OW29527   3.891   0.938   8.557  0.7750 -0.0795  0.7599
 6022SOL    HW129528   3.901   0.975   8.644  2.8095  1.3130 -0.0593
 6022SOL    HW229529   3.796   0.944   8.544  0.8315  0.9664  0.8366
 6023SOL     OW29530   2.502   1.145   1.552 -0.0038  0.1668 -0.9353
 6023SOL    HW129531   2.478   1.060   1.589  0.4198  0.5392  0.2130
 6023SOL    HW229532   2.521   1.186   1.637 -0.3939  1.1657 -1.3340
 6024SOL     OW29533   0.230   0.986   1.636  0.0115  0.0388 -0.1682
 6024SOL    HW129534   0.161   1.048   1.662 -0.2932 -0.5423  0.4040
 6024SOL    HW229535   0.202   0.971   1.546 -0.6048  2.4113 -0.3975
 6025SOL     OW29536   0.729   0.830   4.249  0.4058  0.8848  0.0133
 6025SOL    HW129537   0.803   0.883   4.220  1.3599 -0.4043  0.0882
 6025SOL    HW229538   0.649   0.866   4.211  0.3571 -0.5245 -1.2475
 6026SOL     OW29539   4.297   1.111   5.644  0.0218 -0.3070  0.3390
 6026SOL    HW129540   4.222   1.160   5.611  0.6396  0.6844  0.3931
 6026SOL    HW229541   4.266   1.021   5.636  0.4270 -0.2341 -2.2249
 6027SOL     OW29542   2.016   0.936   5.904  0.2880 -0.4594  0.0096
 6027SOL    HW129543   2.074   0.996   5.856  1.3514  0.1117  1.9711
 6027SOL    HW229544   2.023   0.966   5.995 -1.8109  0.0105  0.0036
 6028SOL     OW29545   3.660   3.790  10.740  0.1707  0.0801 -0.2440
 6028SOL    HW129546   3.639   3.704  10.777 -1.7396  0.8096  0.3246
 6028SOL    HW229547   3.617   3.850  10.801  2.0382  2.1516 -0.9720
 6029SOL     OW29548   3.849   1.021   3.436  0.2955  0.0644 -0.5707
 6029SOL    HW129549   3.827   1.008   3.344  0.5107  0.0696 -0.6246
 6029SOL    HW229550   3.772   1.075   3.452 -0.3278 -0.6986 -1.0372
 6030SOL     OW29551   0.787   1.561   5.975  0.0530 -0.6898 -0.2257
 6030SOL    HW129552   0.728   1.620   6.022 -1.0265 -1.0385 -1.1483
 6030SOL    HW229553   0.827   1.515   6.049  1.3506  1.4931  0.4145
 6031SOL     OW29554   1.907   2.673   5.722  0.2060  0.7016 -0.7087
 6031SOL    HW129555   1.996   2.674   5.758  0.7958 -2.0614 -2.0436
 6031SOL    HW229556   1.873   2.747   5.771  1.5857  0.1905  1.0134
 6032SOL     OW29557   3.255   1.317  11.619  0.3382  0.5185  0.2785
 6032SOL    HW129558   3.231   1.242  11.673  1.4654 -0.9469 -1.2817
 6032SOL    HW229559   3.225   1.289  11.532  1.5157 -1.0635  0.3903
 6033SOL     OW29560   0.915   0.218   9.094  0.9755  0.2085  0.1230
 6033SOL    HW129561   0.989   0.173   9.135  0.4191  2.3072  3.4651
 6033SOL    HW229562   0.855   0.145   9.112 -1.1373  2.0159  0.2902
 6034SOL     OW29563   3.467   1.767   7.983 -0.1340  0.1758  0.5136
 6034SOL    HW129564   3.473   1.686   7.932 -1.9564 -0.1916  0.8983
 6034SOL    HW229565   3.494   1.739   8.071  1.8597  2.8221  0.7542
 6035SOL     OW29566   1.781   0.690  16.158 -0.4093  0.1478  0.2141
 6035SOL    HW129567   1.875   0.676  16.143 -0.1223  0.8120  1.3907
 6035SOL    HW229568   1.749   0.642  16.082 -1.8223  0.8030  0.4078
 6036SOL     OW29569   4.638   0.383   5.156 -0.2184 -0.1859  0.4211
 6036SOL    HW129570   4.719   0.431   5.139 -0.4799 -0.0815 -0.5470
 6036SOL    HW229571   4.668   0.292   5.159  0.5256  0.1272  2.4614
 6037SOL     OW29572   0.403   4.456   8.997  0.2700 -0.5941  0.8030
 6037SOL    HW129573   0.315   4.428   9.022 -0.8104  1.1350 -0.9991
 6037SOL    HW229574   0.387   4.539   8.951  1.0427 -0.1278  1.3788
 6038SOL     OW29575   1.230   1.475   5.700  0.1505  0.4514  0.0062
 6038SOL    HW129576   1.138   1.449   5.695  0.3846 -0.1280 -1.3530
 6038SOL    HW229577   1.254   1.383   5.715  0.3319  0.6149  0.7064
 6039SOL     OW29578   0.905   1.319   7.934 -0.0361  0.6201 -0.0837
 6039SOL    HW129579   0.842   1.389   7.924 -0.3689 -0.1047 -3.1510
 6039SOL    HW229580   0.881   1.255   8.001  2.2642  0.0236  0.1771
 6040SOL     OW29581   2.513   4.608   2.835  0.2668 -0.2379  0.2832
 6040SOL    HW129582   2.531   4.564   2.752  1.4933  0.3594  0.2376
 6040SOL    HW229583   2.479   4.534   2.886 -3.4025  0.2193 -1.5050
 6041SOL     OW29584   0.287   2.067   7.015  0.3001 -0.1839  0.2592
 6041SOL    HW129585   0.215   2.010   7.042  0.5249 -0.5021  0.1793
 6041SOL    HW229586   0.250   2.153   7.036 -1.5587 -0.8705 -0.2576
 6042SOL     OW29587   2.627   2.935  14.412  0.1724 -0.0709 -0.1255
 6042SOL    HW129588   2.578   3.017  14.403 -0.0258 -0.3151 -1.2732
 6042SOL    HW229589   2.642   2.927  14.506  0.2539 -0.7316 -0.1972
 6043SOL     OW29590   2.290   0.275   2.367 -0.3774  0.1303  0.2347
 6043SOL    HW129591   2.341   0.194   2.368 -1.3956 -0.4999  2.0773
 6043SOL    HW229592   2.205   0.242   2.338  0.5978  0.3913 -2.9347
 6044SOL     OW29593   3.125   3.748  14.383  0.1628  0.1238 -0.6923
 6044SOL    HW129594   3.083   3.805  14.319  0.4560 -0.2785 -1.2487
 6044SOL    HW229595   3.110   3.666  14.335 -0.6125  1.5472 -2.8663
 6045SOL     OW29596   0.874   0.335  10.711  0.2718 -0.0572  0.0856
 6045SOL    HW129597   0.937   0.394  10.752 -0.2977 -1.2369  2.6170
 6045SOL    HW229598   0.824   0.404  10.668 -1.7725 -0.7058  1.4444
 6046SOL     OW29599   4.033   0.455   8.768 -0.5443  0.4688  0.0742
 6046SOL    HW129600   4.019   0.376   8.821  0.6029  1.0584  1.2627
 6046SOL    HW229601   4.109   0.495   8.810  1.5561 -1.9394 -1.4546
 6047SOL     OW29602   0.599   2.260   1.600  0.0287 -0.7154  0.1967
 6047SOL    HW129603   0.653   2.187   1.632  0.2558 -0.5016  0.3033
 6047SOL    HW229604   0.525   2.207   1.570 -0.3825  0.1223 -0.2652
 6048SOL     OW29605   3.512   2.407   8.861  0.2417 -0.0041 -0.2610
 6048SOL    HW129606   3.570   2.396   8.786 -1.0948  1.0423 -1.4575
 6048SOL    HW229607   3.522   2.500   8.881 -0.6107 -0.1770  1.0259
 6049SOL     OW29608   4.524   0.800   5.389 -0.0416 -0.1484 -0.2652
 6049SOL    HW129609   4.610   0.761   5.370  0.1271 -0.1263  0.4811
 6049SOL    HW229610   4.485   0.736   5.448  1.2108  0.0551  0.7782
 6050SOL     OW29611   1.936   1.650   8.652  0.1565  0.2286 -0.1613
 6050SOL    HW129612   1.943   1.627   8.745  0.8618  0.3686 -0.1759
 6050SOL    HW229613   1.842   1.663   8.645 -0.1359 -2.6303 -1.2417
 6051SOL     OW29614   3.955   2.495   0.287  0.6345 -0.3351 -0.1504
 6051SOL    HW129615   4.023   2.556   0.261 -0.5652  1.1808  0.2123
 6051SOL    HW229616   3.873   2.545   0.281 -0.0908 -1.7601 -2.0842
 6052SOL     OW29617   0.553   1.675  12.254  0.4451 -0.3576  0.0291
 6052SOL    HW129618   0.525   1.695  12.164 -3.0388 -0.7561  1.0472
 6052SOL    HW229619   0.492   1.735  12.296  1.0128  0.6463 -0.5810
 6053SOL     OW29620   1.306   2.072  16.886  0.4765 -0.1784  0.2432
 6053SOL    HW129621   1.332   2.142  16.826 -1.9128  0.8438  0.4296
 6053SOL    HW229622   1.377   2.009  16.871  0.1971 -0.4782  0.1846
 6054SOL     OW29623   3.702   1.090   5.632 -0.2053 -0.5405 -0.3785
 6054SOL    HW129624   3.702   1.069   5.726 -1.4212  1.3595  0.0656
 6054SOL    HW229625   3.613   1.118   5.612 -0.0389  0.5095  0.3319
 6055SOL     OW29626   2.563   3.718  10.501  0.3494  0.3173 -0.5077
 6055SOL    HW129627   2.469   3.726  10.487  0.2450 -2.6633 -1.5741
 6055SOL    HW229628   2.568   3.629  10.537  0.0386  1.1206  1.5316
 6056SOL     OW29629   0.155   2.448   4.080  0.1488 -0.0714  0.3761
 6056SOL    HW129630   0.098   2.501   4.025 -1.5696 -1.8452  0.4530
 6056SOL    HW229631   0.202   2.519   4.124  0.6237  1.1134 -2.0719
 6057SOL     OW29632   2.188   0.832   3.826  0.6295  0.3726  0.2508
 6057SOL    HW129633   2.219   0.741   3.831  0.2117  0.2161  0.0132
 6057SOL    HW229634   2.191   0.846   3.731 -0.8295  2.9068  0.5852
 6058SOL     OW29635   2.536   1.400   1.001  0.3463  0.4934  0.6931
 6058SOL    HW129636   2.530   1.361   0.914 -0.3746 -1.3286  1.5775
 6058SOL    HW229637   2.482   1.342   1.054 -0.3744  1.0075  0.5304
 6059SOL     OW29638   4.667   2.492   7.106  0.5028 -0.0727  0.4616
 6059SOL    HW129639   4.646   2.408   7.067  1.3429  0.9621 -2.2209
 6059SOL    HW229640   4.717   2.457   7.180 -1.0809 -1.2938  0.9398
 6060SOL     OW29641   2.709   1.645   8.086  0.4997  0.1480  0.2196
 6060SOL    HW129642   2.766   1.717   8.113  2.7943 -1.3645 -0.6482
 6060SOL    HW229643   2.625   1.690   8.079  0.7070  0.1208 -2.4050
 6061SOL     OW29644   1.352   0.615  10.097 -0.2689  0.2552  0.3238
 6061SOL    HW129645   1.372   0.595  10.188  1.4924 -1.7968 -0.5314
 6061SOL    HW229646   1.343   0.534  10.048  1.1463  0.0423  0.4197
 6062SOL     OW29647   4.497   1.908   7.741  0.1504  0.4137  0.1834
 6062SOL    HW129648   4.418   1.873   7.699  0.2637 -1.5433  1.5684
 6062SOL    HW229649   4.467   1.979   7.798 -1.0545  0.4978 -0.5378
 6063SOL     OW29650   3.940   1.250   7.527  0.0458 -0.1322 -0.0399
 6063SOL    HW129651   3.933   1.313   7.455 -0.8643  1.8923  1.8247
 6063SOL    HW229652   3.869   1.188   7.509  0.8821 -0.1457 -3.2586
 6064SOL     OW29653   4.675   0.075   2.278 -0.1123 -0.1491  0.1486
 6064SOL    HW129654   4.702   0.162   2.307  0.2604 -0.2342  0.0626
 6064SOL    HW229655   4.727   0.026   2.341 -0.7990 -0.0973  0.7494
 6065SOL     OW29656   0.865   3.443   3.865 -0.1263 -0.1868 -0.0876
 6065SOL    HW129657   0.883   3.517   3.923 -1.1931  0.3727 -0.4649
 6065SOL    HW229658   0.951   3.401   3.864 -0.2311 -0.4269  0.8523
 6066SOL     OW29659   4.376   1.123   8.921 -0.2971  0.0173 -0.2561
 6066SOL    HW129660   4.429   1.111   9.000 -0.7212 -0.9917 -0.1197
 6066SOL    HW229661   4.402   1.042   8.877  1.9798  1.5363 -1.7155
 6067SOL     OW29662   4.091   2.275   7.325  0.3563  0.3354 -0.2219
 6067SOL    HW129663   4.055   2.322   7.250  0.3537  1.3042  0.3783
 6067SOL    HW229664   4.171   2.233   7.295  0.3142  0.2016 -0.1475
 6068SOL     OW29665   4.165   3.000   6.368  0.5457  0.4745 -0.5780
 6068SOL    HW129666   4.141   2.920   6.415  0.1636  0.5516 -0.6430
 6068SOL    HW229667   4.190   3.053   6.443 -0.5364 -0.0350  0.1456
 6069SOL     OW29668   0.843   0.878   5.850 -0.2252 -0.0334  0.1984
 6069SOL    HW129669   0.792   0.897   5.929 -1.0932  3.3315 -1.1627
 6069SOL    HW229670   0.918   0.827   5.882 -0.4843 -0.2545  0.4502
 6070SOL     OW29671   4.023   3.711   3.956 -0.2290  0.2493  0.3446
 6070SOL    HW129672   4.087   3.649   3.991 -2.0825 -2.2342 -0.6547
 6070SOL    HW229673   4.069   3.795   3.960 -0.0103  0.1768 -0.7398
 6071SOL     OW29674   0.225   3.422   4.956  0.2471 -0.2850  0.1666
 6071SOL    HW129675   0.151   3.386   4.907 -0.8658  0.3020  1.4344
 6071SOL    HW229676   0.281   3.443   4.881 -0.9072  1.9806 -0.0595
 6072SOL     OW29677   0.774   0.443   4.301  0.1765 -0.2854 -0.1677
 6072SOL    HW129678   0.765   0.433   4.395  1.2515 -0.2104 -0.0594
 6072SOL    HW229679   0.834   0.516   4.285 -0.1795  0.4589  1.9975
 6073SOL     OW29680   0.236   2.040  10.288 -0.0672  0.2137  0.1772
 6073SOL    HW129681   0.175   1.970  10.311 -1.2763  1.1990 -0.0828
 6073SOL    HW229682   0.326   2.006  10.287 -0.2217 -0.2034  1.0575
 6074SOL     OW29683   1.391   2.691   9.448  0.4092  0.5736  0.1191
 6074SOL    HW129684   1.320   2.666   9.390  0.7889  1.2201 -0.6259
 6074SOL    HW229685   1.462   2.683   9.385  0.5302 -1.5470  0.5397
 6075SOL     OW29686   0.748   2.579   3.170  0.0715  0.3374  0.3041
 6075SOL    HW129687   0.678   2.626   3.217 -0.6719  1.9046 -2.3634
 6075SOL    HW229688   0.779   2.641   3.104  0.3883 -0.1314  0.0083
 6076SOL     OW29689   4.586   3.732   5.949 -0.1741 -0.0776 -0.5897
 6076SOL    HW129690   4.492   3.746   5.940 -0.2473  0.5700  1.1409
 6076SOL    HW229691   4.604   3.648   5.908  0.8152 -0.1924  0.0610
 6077SOL     OW29692   4.147   4.168   8.941 -0.4718  0.0836 -0.0753
 6077SOL    HW129693   4.108   4.088   8.977  3.8257 -1.8504  0.3287
 6077SOL    HW229694   4.220   4.189   9.000  0.7694 -3.1814 -0.4488
 6078SOL     OW29695   4.284   2.515   8.829  0.4316  0.3058  0.3838
 6078SOL    HW129696   4.268   2.607   8.853  1.6039  0.5252  0.3065
 6078SOL    HW229697   4.377   2.501   8.847  1.2453  1.9337 -2.6333
 6079SOL     OW29698   0.475   3.672   8.184  0.3105 -0.8054 -0.1647
 6079SOL    HW129699   0.388   3.633   8.194  0.7492 -1.7194  0.1125
 6079SOL    HW229700   0.479   3.732   8.258 -1.7634  0.7997 -1.3710
 6080SOL     OW29701   3.908   2.330   8.143 -0.1982  0.3681  0.0330
 6080SOL    HW129702   3.991   2.290   8.116  0.5597  2.5977 -0.9082
 6080SOL    HW229703   3.883   2.267   8.211 -0.0835 -1.0443 -1.2374
 6081SOL     OW29704   2.369   1.042  11.358  0.4915 -0.5699  0.3713
 6081SOL    HW129705   2.356   1.026  11.451 -1.2337 -2.0030 -0.1100
 6081SOL    HW229706   2.383   1.136  11.369  0.6063 -0.1129 -3.5270
 6082SOL     OW29707   2.658   0.585  15.734 -0.3089  0.0307  0.3734
 6082SOL    HW129708   2.637   0.528  15.660 -2.4907 -0.4413  1.3658
 6082SOL    HW229709   2.643   0.671  15.694 -0.1037 -1.0119 -1.9631
 6083SOL     OW29710   4.245   3.416   0.622  0.9503 -0.2549  0.2074
 6083SOL    HW129711   4.192   3.477   0.572  0.2024 -0.3018  0.9503
 6083SOL    HW229712   4.172   3.372   0.665 -0.0249  1.1355 -0.0320
 6084SOL     OW29713   2.344   2.714   2.523 -0.0604  0.1643  0.0309
 6084SOL    HW129714   2.267   2.768   2.505  0.1680  0.4379 -0.1226
 6084SOL    HW229715   2.399   2.759   2.459 -1.4898  1.7052 -0.0988
 6085SOL     OW29716   0.268   0.785   2.571  0.7226 -0.3837 -0.2859
 6085SOL    HW129717   0.258   0.814   2.662 -0.4060 -1.8350  0.0576
 6085SOL    HW229718   0.280   0.869   2.527 -0.7593 -0.8699 -1.6217
 6086SOL     OW29719   3.508   1.549  15.155 -0.1430  0.1300  0.4321
 6086SOL    HW129720   3.502   1.597  15.073  1.9213  0.0691  0.2551
 6086SOL    HW229721   3.520   1.616  15.223 -0.6647  1.2283 -0.5652
 6087SOL     OW29722   2.004   3.482   2.571 -0.4466  0.0757  0.1727
 6087SOL    HW129723   2.039   3.410   2.518  1.3095  0.2707  1.0461
 6087SOL    HW229724   1.997   3.443   2.658  0.5370  1.1245  0.7287
 6088SOL     OW29725   3.444   1.816   9.357 -0.4862  0.1897 -0.8266
 6088SOL    HW129726   3.407   1.735   9.321  0.9355  0.2874 -2.5241
 6088SOL    HW229727   3.429   1.806   9.451  3.1004  0.8660 -0.1777
 6089SOL     OW29728   1.228   1.183   4.105 -0.4279  0.1711  0.3099
 6089SOL    HW129729   1.148   1.210   4.061 -0.0739  0.4583 -0.1707
 6089SOL    HW229730   1.283   1.258   4.080 -1.8480  0.9279 -0.5340
 6090SOL     OW29731   3.856   2.934  15.206 -0.8673 -0.1602 -0.0988
 6090SOL    HW129732   3.802   2.990  15.262  0.6452  0.6127  0.6095
 6090SOL    HW229733   3.917   2.910  15.275  1.4801  2.9856 -1.0616
 6091SOL     OW29734   2.574   1.339  10.946 -0.6133  0.1191 -0.2289
 6091SOL    HW129735   2.589   1.363  10.854  0.7922 -0.8425 -0.2588
 6091SOL    HW229736   2.632   1.263  10.955 -0.1814  0.6899  1.6731
 6092SOL     OW29737   3.592   2.570   8.245  0.2646  0.2991 -0.0800
 6092SOL    HW129738   3.655   2.553   8.315 -0.1067 -0.9331 -0.0426
 6092SOL    HW229739   3.575   2.482   8.211  2.2266  0.5345 -1.6261
 6093SOL     OW29740   1.573   2.665   1.223 -0.3328 -0.3844  0.0602
 6093SOL    HW129741   1.500   2.633   1.170  0.2350  1.1385 -1.6397
 6093SOL    HW229742   1.609   2.580   1.248  0.0018 -0.1834  0.2541
 6094SOL     OW29743   3.480   2.307  11.935  0.4365  0.1990 -0.0071
 6094SOL    HW129744   3.460   2.323  12.027  0.9619 -2.0925  0.5066
 6094SOL    HW229745   3.548   2.373  11.929 -0.0873  0.6097 -1.2998
 6095SOL     OW29746   3.514   1.794   4.651 -0.5235 -0.4200 -0.5905
 6095SOL    HW129747   3.505   1.762   4.562 -1.3739 -1.7287 -0.0383
 6095SOL    HW229748   3.504   1.888   4.636  2.2752  0.1151  0.8491
 6096SOL     OW29749   4.345   1.087   7.144 -0.1102 -0.9021 -0.3416
 6096SOL    HW129750   4.346   1.183   7.141  1.1036 -0.9014  0.2392
 6096SOL    HW229751   4.309   1.080   7.232  0.1626 -0.5313 -0.2007
 6097SOL     OW29752   4.074   1.564   9.404  0.0495 -0.1385 -0.5095
 6097SOL    HW129753   4.086   1.645   9.353 -0.7548  0.7407  0.6918
 6097SOL    HW229754   4.161   1.560   9.443 -0.1152 -0.8453 -0.2306
 6098SOL     OW29755   4.660   3.062   1.323 -0.0305 -0.1682  0.3916
 6098SOL    HW129756   4.684   3.024   1.238  0.7608  0.0783  0.5050
 6098SOL    HW229757   4.649   2.979   1.370 -3.8193  0.2489  0.2807
 6099SOL     OW29758   1.620   3.460   8.566 -0.3545  0.4219  0.8179
 6099SOL    HW129759   1.667   3.500   8.638 -1.7624  1.4634  1.1554
 6099SOL    HW229760   1.648   3.528   8.505  0.9379  0.1683  1.1316
 6100SOL     OW29761   3.147   3.952  17.063 -0.0074 -0.3623  0.1898
 6100SOL    HW129762   3.197   3.992  16.992 -0.0292 -1.9640 -0.7309
 6100SOL    HW229763   3.197   3.975  17.141  1.4474  0.2417 -0.9120
 6101SOL     OW29764   1.527   2.765   5.159  0.6694 -0.4268  0.2532
 6101SOL    HW129765   1.513   2.845   5.209  1.5889  0.1724 -0.4515
 6101SOL    HW229766   1.512   2.803   5.073  1.0683 -1.1778 -0.1534
 6102SOL     OW29767   2.000   1.658   0.456  0.5560 -0.1609  0.0612
 6102SOL    HW129768   1.947   1.602   0.512 -0.5102  0.9784  0.1945
 6102SOL    HW229769   2.070   1.595   0.440  1.8501  0.8822  1.5594
 6103SOL     OW29770   0.100   3.338   0.526  0.2062 -0.4680 -0.4359
 6103SOL    HW129771   0.041   3.378   0.462 -0.6562 -1.9697 -0.5931
 6103SOL    HW229772   0.051   3.258   0.547 -0.6264  0.3714  0.7535
 6104SOL     OW29773   3.408   3.271   6.708  0.0927  0.9262  0.4767
 6104SOL    HW129774   3.468   3.272   6.783 -0.7561 -1.4654  1.2223
 6104SOL    HW229775   3.408   3.366   6.703 -0.4183  0.9082  0.0810
 6105SOL     OW29776   4.694   3.562   2.544  0.4154 -0.1419  0.0021
 6105SOL    HW129777   0.045   3.541   2.595 -0.6855 -2.8775  0.5656
 6105SOL    HW229778   4.632   3.604   2.604 -1.3511 -1.2804 -1.0141
 6106SOL     OW29779   0.662   1.329   7.715 -0.4104  0.1376  0.0348
 6106SOL    HW129780   0.657   1.257   7.777  0.1262 -0.4972 -0.6680
 6106SOL    HW229781   0.668   1.404   7.775  0.9325 -0.6674  0.8816
 6107SOL     OW29782   2.055   3.031   6.116 -0.0069  0.5198 -0.0704
 6107SOL    HW129783   2.136   3.062   6.156 -0.7654  1.5592  0.6547
 6107SOL    HW229784   2.061   2.937   6.099 -1.0693  0.2831  0.8872
 6108SOL     OW29785   3.151   3.972  11.089  0.2840  0.0225  0.7526
 6108SOL    HW129786   3.105   3.911  11.032  1.0622  2.2903 -2.2706
 6108SOL    HW229787   3.213   3.914  11.134 -0.2646  0.4290  2.0516
 6109SOL     OW29788   0.749   2.150   6.832  0.5726  0.2415  0.2950
 6109SOL    HW129789   0.799   2.140   6.913  3.8583  0.9193 -1.6876
 6109SOL    HW229790   0.807   2.208   6.783 -0.6439  1.3345  0.1178
 6110SOL     OW29791   4.005   3.132   1.941 -0.3864 -0.2629  0.0663
 6110SOL    HW129792   4.009   3.036   1.942 -0.8104 -0.2659  1.6525
 6110SOL    HW229793   4.072   3.156   2.005  1.4170 -1.8592 -1.2118
 6111SOL     OW29794   1.094   4.623  11.669  0.2654 -0.7326 -0.0254
 6111SOL    HW129795   1.178   4.610  11.625 -0.4533  0.7587 -1.8858
 6111SOL    HW229796   1.059   4.535  11.657  0.5745 -0.6599 -1.4681
 6112SOL     OW29797   1.747   4.455   8.259  0.7142  0.5310 -0.4310
 6112SOL    HW129798   1.685   4.429   8.190  0.7850 -0.2949 -0.1815
 6112SOL    HW229799   1.724   4.396   8.331 -0.1662 -2.2359 -2.9759
 6113SOL     OW29800   4.698   2.890   5.586 -0.6942  0.4551  0.1010
 6113SOL    HW129801   4.661   2.803   5.596  1.4995 -0.3613  1.0945
 6113SOL    HW229802   4.627   2.951   5.607 -0.9139  0.3337 -0.2896
 6114SOL     OW29803   1.213   2.363  10.576  0.5829  0.8178  0.0028
 6114SOL    HW129804   1.189   2.371  10.483 -1.4799 -0.9422  0.4137
 6114SOL    HW229805   1.229   2.452  10.608 -1.6880  0.9197  0.8513
 6115SOL     OW29806   0.663   4.591   1.553  0.1638  0.0541 -0.1845
 6115SOL    HW129807   0.662   4.506   1.510  1.7908  0.6156 -1.3217
 6115SOL    HW229808   0.745   4.631   1.524 -0.6490  1.7849 -0.1155
 6116SOL     OW29809   1.780   0.404  10.722  0.5583  0.7679 -1.0171
 6116SOL    HW129810   1.864   0.411  10.769  0.2873  0.3363 -0.4632
 6116SOL    HW229811   1.807   0.454  10.645 -2.4239  1.5680 -1.5126
 6117SOL     OW29812   3.559   1.731   3.686  0.3515 -0.1664  0.0707
 6117SOL    HW129813   3.622   1.803   3.689  0.1411  0.0463 -0.7833
 6117SOL    HW229814   3.501   1.745   3.612 -0.1375 -2.2035  0.0529
 6118SOL     OW29815   1.365   3.618   2.664  0.5050  0.5045  0.3489
 6118SOL    HW129816   1.299   3.566   2.617 -1.7280  1.8219  2.0513
 6118SOL    HW229817   1.374   3.554   2.735  0.8348  0.5464  0.3463
 6119SOL     OW29818   1.932   4.357  11.326 -0.1742  0.6532  0.2757
 6119SOL    HW129819   1.859   4.392  11.275  0.5002  0.0269 -1.1037
 6119SOL    HW229820   1.936   4.414  11.404 -1.9322  1.4384 -0.1994
 6120SOL     OW29821   1.519   2.197  13.648  0.0685 -0.4074  0.2894
 6120SOL    HW129822   1.594   2.158  13.693  0.5667 -1.5943 -1.5653
 6120SOL    HW229823   1.542   2.161  13.562 -0.6187  0.4902 -0.2640
 6121SOL     OW29824   2.858   3.165   2.322 -0.0403  0.0844 -0.0814
 6121SOL    HW129825   2.775   3.182   2.278 -0.2513 -0.2739  0.1794
 6121SOL    HW229826   2.913   3.165   2.244 -0.9068 -1.7879 -0.6868
 6122SOL     OW29827   3.993   0.588   4.676  0.2770 -0.1220  0.6123
 6122SOL    HW129828   4.063   0.647   4.646 -0.8243 -0.7586 -3.1792
 6122SOL    HW229829   4.049   0.512   4.686 -0.0638 -0.3968  0.4457
 6123SOL     OW29830   3.879   3.773   5.507  0.7365 -0.4538 -1.1576
 6123SOL    HW129831   3.803   3.743   5.556  1.1502  0.6870  0.1904
 6123SOL    HW229832   3.935   3.799   5.580  0.4456 -0.7356 -0.8321
 6124SOL     OW29833   2.776   2.721  17.083 -0.2326  0.0664 -0.6267
 6124SOL    HW129834   2.855   2.671  17.102 -0.3345 -0.6821 -2.1461
 6124SOL    HW229835   2.790   2.810  17.117  0.8697 -0.7189  0.9813
 6125SOL     OW29836   1.745   3.985   2.793 -0.3941  0.4335  0.9752
 6125SOL    HW129837   1.755   3.892   2.776 -0.4312  0.7361 -0.7075
 6125SOL    HW229838   1.810   4.012   2.728  0.2394 -0.4637  1.2247
 6126SOL     OW29839   4.297   2.808  11.936  0.4083  0.0627  0.1115
 6126SOL    HW129840   4.255   2.737  11.886 -0.8458  1.8077 -1.2868
 6126SOL    HW229841   4.319   2.873  11.870  0.6267 -0.6334 -0.5067
 6127SOL     OW29842   1.023   1.145  17.548  0.0028 -0.1352 -0.0723
 6127SOL    HW129843   1.102   1.093  17.557 -0.1652 -0.3748  0.0168
 6127SOL    HW229844   1.043   1.208  17.618  1.0070 -0.2563 -0.2495
 6128SOL     OW29845   2.458   0.446   7.910 -0.8017  0.5762  0.0021
 6128SOL    HW129846   2.516   0.423   7.982  1.9248  1.5074 -1.8749
 6128SOL    HW229847   2.521   0.455   7.839 -0.9951  2.7527  0.1061
 6129SOL     OW29848   2.928   0.474   8.468 -0.0712 -0.6101  0.7077
 6129SOL    HW129849   2.889   0.548   8.514  1.8721  1.0405 -0.2676
 6129SOL    HW229850   2.926   0.410   8.539 -1.7640  0.8997  2.0351
 6130SOL     OW29851   3.678   3.570   4.762  0.2529  0.2038 -0.1957
 6130SOL    HW129852   3.761   3.540   4.797  1.4023 -0.2640 -3.3326
 6130SOL    HW229853   3.704   3.591   4.672 -0.0251  2.1614  0.1716
 6131SOL     OW29854   2.550   0.644  12.546 -0.3223  0.2438 -0.0366
 6131SOL    HW129855   2.638   0.638  12.582 -0.5371  0.5258  0.5308
 6131SOL    HW229856   2.492   0.625  12.619 -0.6278 -1.0453 -0.6066
 6132SOL     OW29857   0.171   2.876   8.279  0.0565 -0.2476 -0.7848
 6132SOL    HW129858   0.129   2.804   8.325 -0.0199 -0.6077 -1.4157
 6132SOL    HW229859   0.129   2.947   8.327 -1.0466 -2.6121  1.7219
 6133SOL     OW29860   2.621   1.852   7.626  0.6706 -0.1435  0.1334
 6133SOL    HW129861   2.689   1.819   7.685  0.6764 -0.4225 -0.0304
 6133SOL    HW229862   2.554   1.879   7.689 -1.3740 -2.4093 -1.0720
 6134SOL     OW29863   1.003   1.278   2.595 -0.1612 -0.0213  0.1188
 6134SOL    HW129864   0.932   1.214   2.592 -0.0702 -0.2295  2.4890
 6134SOL    HW229865   0.971   1.354   2.546 -0.9213 -1.3811 -1.4780
 6135SOL     OW29866   3.352   0.033   5.539 -0.0643  0.0160 -0.1573
 6135SOL    HW129867   3.286   4.700   5.570 -0.2766  0.0269 -0.5893
 6135SOL    HW229868   3.299   0.069   5.468  1.1099  1.0119 -0.5382
 6136SOL     OW29869   1.641   0.059   6.474  0.1204  0.1774  0.3115
 6136SOL    HW129870   1.629   4.697   6.443  0.7927  0.5337 -0.9627
 6136SOL    HW229871   1.737   0.056   6.480  0.1815  0.7560 -0.4475
 6137SOL     OW29872   4.441   2.609   4.767 -0.3461  0.2694 -0.7855
 6137SOL    HW129873   4.448   2.529   4.819 -1.4577  1.7695  1.6980
 6137SOL    HW229874   4.370   2.657   4.810 -0.8837 -2.4040  1.2855
 6138SOL     OW29875   1.878   4.302   0.149  0.6368  0.5744  0.3701
 6138SOL    HW129876   1.896   4.238   0.079  2.3967 -1.3847  2.6199
 6138SOL    HW229877   1.962   4.291   0.194  0.0957  0.7834  1.4249
 6139SOL     OW29878   0.685   4.026   4.591  0.7284 -0.0895 -0.1623
 6139SOL    HW129879   0.722   4.111   4.617  0.9383  0.0484 -0.9302
 6139SOL    HW229880   0.635   4.037   4.511  0.5801 -1.3248 -0.2459
 6140SOL     OW29881   1.381   1.437   6.534 -0.3322 -0.2896  0.7008
 6140SOL    HW129882   1.452   1.479   6.583 -1.3445  2.2926 -0.0355
 6140SOL    HW229883   1.329   1.391   6.600 -2.0379 -0.3477 -0.6664
 6141SOL     OW29884   0.662   2.212   6.399 -0.8928 -0.0798  0.3943
 6141SOL    HW129885   0.597   2.262   6.350  0.5928  1.8228  0.3497
 6141SOL    HW229886   0.621   2.126   6.409  1.2208 -1.2051 -0.7031
 6142SOL     OW29887   3.936   3.311   6.435  0.8015  0.2400  0.5294
 6142SOL    HW129888   4.005   3.368   6.469  2.1876 -2.1333  1.6477
 6142SOL    HW229889   3.883   3.313   6.515  3.9926  1.8279  2.5940
 6143SOL     OW29890   1.051   2.291  15.386 -0.0110  0.6333 -0.3719
 6143SOL    HW129891   0.976   2.288  15.446  1.9375  2.4224  2.1237
 6143SOL    HW229892   1.121   2.331  15.437  0.0005 -1.3194  1.1476
 6144SOL     OW29893   3.155   3.598  12.634  0.1809 -0.3583 -0.0595
 6144SOL    HW129894   3.201   3.551  12.704  0.8634 -1.5006 -1.2590
 6144SOL    HW229895   3.120   3.524  12.583  3.9789 -2.3049  0.1363
 6145SOL     OW29896   1.697   3.642   1.252 -0.5705 -0.9645 -0.8639
 6145SOL    HW129897   1.666   3.623   1.341  0.5639 -1.2978 -0.5468
 6145SOL    HW229898   1.785   3.675   1.264 -0.6421 -0.4414 -1.7650
 6146SOL     OW29899   2.080   4.511   8.524  0.0701 -0.2166  0.3715
 6146SOL    HW129900   2.153   4.509   8.585  1.2645  1.4058 -0.9859
 6146SOL    HW229901   2.049   4.422   8.540  2.9439 -1.4798 -1.1081
 6147SOL     OW29902   3.837   1.384   7.745  0.1104  0.3210 -0.2109
 6147SOL    HW129903   3.868   1.338   7.667  1.4439 -0.4916  0.7891
 6147SOL    HW229904   3.789   1.313   7.785  0.2422  0.3028 -0.0839
 6148SOL     OW29905   4.455   2.285   8.614 -0.0093 -0.1074 -0.3076
 6148SOL    HW129906   4.540   2.292   8.571 -0.0671 -0.5932 -0.5051
 6148SOL    HW229907   4.467   2.330   8.697 -0.1402 -1.4329  0.4324
 6149SOL     OW29908   2.816   0.859  10.661 -0.9554 -0.2788  0.3143
 6149SOL    HW129909   2.868   0.870  10.582 -0.4292  1.2861  0.8786
 6149SOL    HW229910   2.864   0.798  10.718 -1.3890 -1.0611 -0.1471
 6150SOL     OW29911   0.791   3.210   8.073 -0.6471  0.5093  0.1221
 6150SOL    HW129912   0.721   3.167   8.025 -1.7340  1.7009  0.6354
 6150SOL    HW229913   0.735   3.257   8.136 -0.1553 -0.7707  1.5238
 6151SOL     OW29914   0.641   1.144   0.576  0.0050  0.5975 -0.9394
 6151SOL    HW129915   0.612   1.078   0.514 -1.8443  0.1702  0.3898
 6151SOL    HW229916   0.695   1.088   0.633 -1.8904  1.5172  1.7633
 6152SOL     OW29917   1.532   4.636   8.562 -0.5013 -0.3442  0.1740
 6152SOL    HW129918   1.613   4.598   8.596 -1.3297 -2.8229 -0.6102
 6152SOL    HW229919   1.525   4.721   8.606 -1.0355 -0.5349  0.4553
 6153SOL     OW29920   0.209   0.154   8.112  0.5258 -0.1437 -0.0660
 6153SOL    HW129921   0.186   0.195   8.028 -1.4879 -0.7052  0.1969
 6153SOL    HW229922   0.181   0.221   8.175  0.5452 -0.6162  0.4500
 6154SOL     OW29923   2.008   2.411   8.974  0.3213  0.3896 -0.2385
 6154SOL    HW129924   2.069   2.338   8.977  0.8639  0.7870 -1.5263
 6154SOL    HW229925   1.952   2.392   8.899 -1.8570 -1.6757  1.9220
 6155SOL     OW29926   0.457   4.673  14.983  0.4099 -0.1843 -0.3240
 6155SOL    HW129927   0.479   4.626  15.063  1.0575  1.1961  0.2893
 6155SOL    HW229928   0.375   4.626  14.963 -0.3563  0.9983  0.0613
 6156SOL     OW29929   4.380   1.342   9.254  0.0278  0.1299  0.6396
 6156SOL    HW129930   4.358   1.412   9.192  0.1247 -0.3533  0.0580
 6156SOL    HW229931   4.297   1.297   9.244  0.9176 -1.2626 -0.5196
 6157SOL     OW29932   1.432   0.266   4.994  0.5485 -0.3475  0.1495
 6157SOL    HW129933   1.525   0.248   4.986  0.1738 -1.6922 -1.2909
 6157SOL    HW229934   1.425   0.323   5.071  0.0513  2.8660 -2.2688
 6158SOL     OW29935   3.980   2.360   8.513 -0.4170 -0.7820 -0.1517
 6158SOL    HW129936   3.942   2.292   8.457  1.3565 -1.9016  0.0076
 6158SOL    HW229937   4.032   2.310   8.577 -1.1380 -1.0905  0.1995
 6159SOL     OW29938   2.447   2.022   4.046  0.0142  0.6556  0.0497
 6159SOL    HW129939   2.537   2.053   4.033  0.7546 -2.2498 -2.0154
 6159SOL    HW229940   2.454   1.926   4.051  1.1863  0.7003 -0.8235
 6160SOL     OW29941   0.574   2.154   0.182 -0.1709  0.0942  0.6840
 6160SOL    HW129942   0.578   2.172   0.088  0.3783  0.5750  0.7997
 6160SOL    HW229943   0.478   2.152   0.192 -0.2500 -1.8216 -0.5571
 6161SOL     OW29944   4.657   4.423   6.264  0.4812 -0.0929  0.1010
 6161SOL    HW129945   4.694   4.336   6.270  0.0619 -0.3094 -0.4600
 6161SOL    HW229946   4.699   4.455   6.344 -0.2435  1.1169 -0.0016
 6162SOL     OW29947   2.529   2.647  14.780 -0.1268 -0.1112 -0.0296
 6162SOL    HW129948   2.491   2.605  14.703 -0.7917  0.1698  0.1414
 6162SOL    HW229949   2.485   2.732  14.784  0.3594  0.1477 -0.1340
 6163SOL     OW29950   4.241   4.442   4.610 -0.0312 -0.3562  0.3122
 6163SOL    HW129951   4.227   4.405   4.697 -0.2701  0.4303  0.6073
 6163SOL    HW229952   4.167   4.404   4.562  2.8265 -1.3695 -3.2603
 6164SOL     OW29953   0.339   3.308   9.345 -0.0468  0.1776  0.4307
 6164SOL    HW129954   0.352   3.379   9.407  0.5970  0.0506  0.4333
 6164SOL    HW229955   0.263   3.338   9.295  1.0647 -0.3009 -1.5545
 6165SOL     OW29956   2.189   2.841   5.497  0.0154  0.5279  0.2494
 6165SOL    HW129957   2.149   2.786   5.429  0.5633  2.0304 -1.3029
 6165SOL    HW229958   2.259   2.880   5.445  1.8435 -1.6342  1.1143
 6166SOL     OW29959   1.142   3.331   3.839 -0.0781 -0.7877 -0.1187
 6166SOL    HW129960   1.206   3.402   3.831  1.6177 -1.9980  2.4957
 6166SOL    HW229961   1.156   3.300   3.928 -0.4831  1.2372  0.6535
 6167SOL     OW29962   1.660   3.559   3.284  0.1351  0.1180 -0.3363
 6167SOL    HW129963   1.717   3.483   3.285 -0.4141 -0.3266 -2.6441
 6167SOL    HW229964   1.619   3.551   3.370 -0.4838  0.0472 -0.6343
 6168SOL     OW29965   0.153   4.330   2.765  0.4414  0.6631 -0.5639
 6168SOL    HW129966   0.069   4.373   2.781 -0.2204 -0.4224 -1.0735
 6168SOL    HW229967   0.204   4.410   2.756 -0.7213  1.2498 -1.8029
 6169SOL     OW29968   2.191   3.827  11.965 -0.3318  0.0479  0.7308
 6169SOL    HW129969   2.200   3.826  12.060  1.0297 -0.2253  0.6013
 6169SOL    HW229970   2.124   3.760  11.948  0.8682 -0.9947  0.0403
 6170SOL     OW29971   2.089   3.116   4.462 -0.2166  0.6357  0.2416
 6170SOL    HW129972   2.117   3.203   4.490  0.2432 -0.6264  3.8031
 6170SOL    HW229973   2.145   3.064   4.521 -0.5040 -1.2432 -1.1365
 6171SOL     OW29974   3.900   2.009   2.589  0.2596  0.2707 -0.3600
 6171SOL    HW129975   3.970   1.978   2.646  0.5359 -0.9724 -1.3795
 6171SOL    HW229976   3.949   2.082   2.552 -0.1682 -0.7838 -2.9660
 6172SOL     OW29977   3.893   0.696   6.123 -0.5071 -0.1986  0.0364
 6172SOL    HW129978   3.870   0.659   6.037  0.9320 -0.6187 -0.1615
 6172SOL    HW229979   3.942   0.621   6.156 -0.9990  0.3625  2.0467
 6173SOL     OW29980   0.235   0.906   8.905 -0.5851  0.6112 -0.2410
 6173SOL    HW129981   0.233   0.841   8.975 -0.4153  0.1401 -0.6758
 6173SOL    HW229982   0.322   0.945   8.907  0.6166 -2.0647 -0.7661
 6174SOL     OW29983   1.050   1.360   3.751  0.7154  0.2813 -0.3739
 6174SOL    HW129984   1.105   1.341   3.675  0.8347 -0.3500 -0.1325
 6174SOL    HW229985   0.963   1.351   3.711  1.2636 -0.3905 -1.4213
 6175SOL     OW29986   3.876   2.059  13.503 -0.6906 -0.5769 -0.3732
 6175SOL    HW129987   3.921   2.039  13.421 -0.7038 -3.2532  0.2621
 6175SOL    HW229988   3.946   2.034  13.563  0.2195  2.1991 -0.2851
 6176SOL     OW29989   2.414   4.616   9.188  0.4328 -0.2409  0.3866
 6176SOL    HW129990   2.400   4.700   9.144 -0.2806 -0.2328  0.6248
 6176SOL    HW229991   2.336   4.564   9.170  0.0045  0.8252 -0.8552
 6177SOL     OW29992   3.323   0.153  11.778  0.2333 -0.8132 -0.5241
 6177SOL    HW129993   3.252   0.089  11.786  0.8570 -1.3191  0.8821
 6177SOL    HW229994   3.384   0.111  11.838  0.2124  2.1893  1.5951
 6178SOL     OW29995   3.949   3.465   7.443  0.3283 -0.2207  0.5169
 6178SOL    HW129996   3.954   3.441   7.350 -0.2295 -0.3798  0.5266
 6178SOL    HW229997   3.970   3.558   7.435 -2.9677  0.2580 -2.5483
 6179SOL     OW29998   3.116   1.241   4.008 -0.1001 -0.1735 -0.1428
 6179SOL    HW129999   3.069   1.207   3.932 -0.5510 -0.9257  0.4710
 6179SOL    HW230000   3.192   1.285   3.972  0.0379  0.1392  0.5318
 6180SOL     OW30001   0.977   1.539   0.465  0.2774 -0.4668  0.3763
 6180SOL    HW130002   0.900   1.484   0.452 -0.2117  0.1880  0.4575
 6180SOL    HW230003   1.054   1.482   0.471  2.3893  2.5159  2.0197
 6181SOL     OW30004   4.120   2.359   5.787 -0.1052 -0.1651  0.0698
 6181SOL    HW130005   4.135   2.419   5.861  0.4242 -2.1126  1.5447
 6181SOL    HW230006   4.208   2.363   5.750 -0.5068  0.5957 -0.7898
 6182SOL     OW30007   1.256   3.923  10.513  0.4417  0.1135 -0.1379
 6182SOL    HW130008   1.329   3.942  10.572  0.1432 -0.2368  0.3298
 6182SOL    HW230009   1.283   3.946  10.423 -0.8604  1.2870 -0.2261
 6183SOL     OW30010   0.701   1.945   6.638 -0.0629  0.5010  0.5122
 6183SOL    HW130011   0.698   2.021   6.697 -0.1640  0.9004 -0.0090
 6183SOL    HW230012   0.795   1.927   6.644 -0.1411  0.5746  1.9242
 6184SOL     OW30013   2.542   0.747  14.446 -0.0004 -0.6358 -0.2720
 6184SOL    HW130014   2.616   0.759  14.506 -0.3445 -0.3277  0.0947
 6184SOL    HW230015   2.573   0.668  14.402  0.0896 -1.1012  0.6371
 6185SOL     OW30016   4.278   0.669  10.065 -0.2758 -0.4369  0.5393
 6185SOL    HW130017   4.297   0.594  10.008 -0.2889 -0.2354  0.2665
 6185SOL    HW230018   4.367   0.705  10.064 -0.2021 -0.6435 -1.6743
 6186SOL     OW30019   3.492   1.199   6.804  0.2843 -0.3057 -0.1410
 6186SOL    HW130020   3.495   1.295   6.803 -0.4862 -0.2868 -0.4668
 6186SOL    HW230021   3.565   1.184   6.864  0.6068  1.5692 -0.0726
 6187SOL     OW30022   1.397   0.153   7.995 -0.0398  0.1459 -0.2753
 6187SOL    HW130023   1.356   0.110   8.069  0.8810  1.9623  1.2834
 6187SOL    HW230024   1.320   0.139   7.940 -0.7719  0.0079  0.7892
 6188SOL     OW30025   0.531   1.574  12.882  0.7345 -0.3162 -0.5591
 6188SOL    HW130026   0.529   1.573  12.978  1.4579  2.2976 -0.5216
 6188SOL    HW230027   0.437   1.588  12.869  0.3862 -1.3907  0.8212
 6189SOL     OW30028   2.346   2.196   8.009 -0.1415 -0.0847  0.9326
 6189SOL    HW130029   2.276   2.204   7.945  0.0628 -0.5082  0.6522
 6189SOL    HW230030   2.353   2.281   8.053 -2.9637 -0.5864  2.3381
 6190SOL     OW30031   3.052   1.241  16.027  0.3098 -0.3281  0.3285
 6190SOL    HW130032   3.034   1.177  16.096 -0.3736 -3.8527 -3.1061
 6190SOL    HW230033   3.113   1.201  15.965 -1.4210 -2.6542  0.0998
 6191SOL     OW30034   2.907   0.643   3.456  0.0272  0.2483 -0.3679
 6191SOL    HW130035   2.838   0.674   3.515 -1.7743 -2.0573 -1.2554
 6191SOL    HW230036   2.858   0.567   3.425  0.9449 -0.8937  1.0225
 6192SOL     OW30037   3.146   2.222   1.737  0.3116  0.2704  0.4419
 6192SOL    HW130038   3.229   2.268   1.721  0.2573  0.6483  1.2855
 6192SOL    HW230039   3.133   2.195   1.646 -1.0096 -1.0021  1.0231
 6193SOL     OW30040   3.509   3.226   1.890 -0.2882 -0.7804  0.6537
 6193SOL    HW130041   3.419   3.199   1.878 -0.6642  0.6469  0.2812
 6193SOL    HW230042   3.503   3.305   1.944  2.3429 -0.0240 -0.1142
 6194SOL     OW30043   1.205   2.986   8.277  0.0868  0.5600  0.2153
 6194SOL    HW130044   1.125   3.035   8.256 -0.1644  1.2724  2.8709
 6194SOL    HW230045   1.162   2.910   8.317  1.2771  0.8321  2.0135
 6195SOL     OW30046   3.914   2.395   7.523 -0.1959  0.0246 -0.7402
 6195SOL    HW130047   3.973   2.354   7.460  0.5863 -2.8580  1.8709
 6195SOL    HW230048   3.845   2.423   7.463 -1.3995  0.1866  0.7338
 6196SOL     OW30049   0.510   4.079  10.830 -0.3264  0.2936 -0.1181
 6196SOL    HW130050   0.485   4.162  10.872 -0.9219 -0.4916  1.0508
 6196SOL    HW230051   0.553   4.028  10.898  0.0172  0.5093 -0.1701
 6197SOL     OW30052   3.134   4.518   2.189  0.4717 -0.2817  0.5561
 6197SOL    HW130053   3.043   4.515   2.161  0.6093  1.3865 -0.0393
 6197SOL    HW230054   3.162   4.426   2.196 -0.5159 -0.6235 -0.1203
 6198SOL     OW30055   2.762   0.590  15.183 -0.2060  0.0072 -0.5673
 6198SOL    HW130056   2.741   0.509  15.136  1.3767 -0.7339  0.0167
 6198SOL    HW230057   2.684   0.598  15.237 -0.7259  0.7422 -1.4327
 6199SOL     OW30058   0.282   3.384  12.856  0.3523 -0.0135 -0.6568
 6199SOL    HW130059   0.254   3.322  12.788 -0.3393  0.9897 -1.2922
 6199SOL    HW230060   0.372   3.404  12.831  0.5653  0.2565  0.3244
 6200SOL     OW30061   2.867   2.538  15.218  0.0768 -0.2991 -0.5293
 6200SOL    HW130062   2.875   2.623  15.261 -0.3669 -0.7784  0.5031
 6200SOL    HW230063   2.813   2.554  15.141  0.1315  4.1170  0.3344
 6201SOL     OW30064   1.909   3.728  17.356 -0.3690 -0.1915  0.0868
 6201SOL    HW130065   1.946   3.794  17.416  0.0605  0.7939 -1.2575
 6201SOL    HW230066   1.841   3.687  17.409 -0.2079 -1.3318 -0.6042
 6202SOL     OW30067   3.137   3.688   4.985  0.0373  0.0148  0.1806
 6202SOL    HW130068   3.108   3.738   5.061 -1.8190 -0.9181  0.0810
 6202SOL    HW230069   3.185   3.756   4.939  0.5786 -0.6514 -0.2434
 6203SOL     OW30070   3.183   3.888  12.648 -0.4958  0.3918  0.3335
 6203SOL    HW130071   3.267   3.887  12.694 -1.3655  1.1975  1.9504
 6203SOL    HW230072   3.163   3.799  12.619  3.4907 -0.3104 -0.1358
 6204SOL     OW30073   2.636   1.535   7.752 -0.1355 -0.2482 -0.4080
 6204SOL    HW130074   2.666   1.480   7.824 -0.5839  0.8515  0.6203
 6204SOL    HW230075   2.546   1.547   7.783  0.7393 -2.3996  2.9392
 6205SOL     OW30076   4.396   0.361   8.918  0.3668  0.0319 -0.2556
 6205SOL    HW130077   4.399   0.285   8.860 -0.5430  1.1956 -1.8199
 6205SOL    HW230078   4.387   0.314   9.001 -0.6068 -0.3940 -0.5995
 6206SOL     OW30079   3.752   0.638   6.593  0.1290  0.3377  0.0515
 6206SOL    HW130080   3.735   0.629   6.500  1.7161 -2.3664  0.0136
 6206SOL    HW230081   3.795   0.723   6.588  0.1602  0.3977  1.3425
 6207SOL     OW30082   2.599   0.376   2.666 -0.0926  0.5680 -0.0322
 6207SOL    HW130083   2.627   0.344   2.753 -1.3144 -2.3360 -0.7087
 6207SOL    HW230084   2.507   0.355   2.683 -0.0143  0.5463  0.3814
 6208SOL     OW30085   4.562   2.411   6.477  0.5187  0.4437  0.2561
 6208SOL    HW130086   4.553   2.368   6.391 -0.3340  1.8809 -0.3688
 6208SOL    HW230087   4.603   2.495   6.460  1.2604  0.0169 -0.0613
 6209SOL     OW30088   0.703   4.319   1.505  0.4105  0.2642  0.6550
 6209SOL    HW130089   0.726   4.227   1.507 -0.5500 -0.0333 -1.8870
 6209SOL    HW230090   0.633   4.321   1.570 -0.2065 -0.6773  0.0196
 6210SOL     OW30091   0.399   3.511   9.591 -0.3158 -0.3236  0.1317
 6210SOL    HW130092   0.436   3.433   9.633 -1.1040  0.0213  1.4234
 6210SOL    HW230093   0.396   3.570   9.666  1.8461 -1.2239  0.9410
 6211SOL     OW30094   4.315   0.673   1.991 -0.3487  0.0318 -0.1913
 6211SOL    HW130095   4.305   0.740   1.924 -2.8090 -0.4498 -0.2956
 6211SOL    HW230096   4.322   0.601   1.928 -1.5069 -1.0031  0.8614
 6212SOL     OW30097   1.673   3.239   7.876  0.7286  0.1356  0.4155
 6212SOL    HW130098   1.589   3.274   7.905  0.2420  0.4071 -1.2805
 6212SOL    HW230099   1.686   3.180   7.950 -0.1570  0.8161  1.1037
 6213SOL     OW30100   3.810   2.453   6.677  0.0220  0.2809  0.4620
 6213SOL    HW130101   3.884   2.513   6.683 -0.6344  1.0542  0.8036
 6213SOL    HW230102   3.841   2.407   6.598  0.4198  1.8429 -0.2865
 6214SOL     OW30103   3.399   1.318   6.189  0.5172 -0.8147 -0.5262
 6214SOL    HW130104   3.494   1.324   6.181  0.5826  0.7959  1.3269
 6214SOL    HW230105   3.384   1.286   6.278 -1.0363  0.2792 -0.4058
 6215SOL     OW30106   4.554   2.790   2.282  0.6336 -0.0481 -0.3982
 6215SOL    HW130107   4.615   2.733   2.235 -0.1698 -2.2968  1.2919
 6215SOL    HW230108   4.584   2.768   2.370  1.1680 -0.3680 -0.6562
 6216SOL     OW30109   1.525   1.027   7.048 -0.4063 -0.8690  0.2592
 6216SOL    HW130110   1.572   1.104   7.018  0.2530 -1.1494  0.5693
 6216SOL    HW230111   1.435   1.056   7.032 -0.3326  0.5260  2.2588
 6217SOL     OW30112   0.196   3.303   1.147  0.2592  0.0959  0.0731
 6217SOL    HW130113   0.154   3.251   1.215  1.2310 -2.0551 -0.9610
 6217SOL    HW230114   0.163   3.390   1.167  1.2869  0.6506 -0.6224
 6218SOL     OW30115   2.834   3.145   1.951 -0.0945  0.6869 -0.2678
 6218SOL    HW130116   2.811   3.052   1.958 -1.1213  0.8480 -1.3987
 6218SOL    HW230117   2.777   3.181   2.018  2.0564  0.4731  1.6688
 6219SOL     OW30118   1.601   2.211   2.157  0.5290 -0.2802 -0.1525
 6219SOL    HW130119   1.640   2.265   2.225 -2.0826 -1.7527  2.5286
 6219SOL    HW230120   1.667   2.143   2.147  4.6508  3.3718  2.5132
 6220SOL     OW30121   1.493   3.754   1.857  0.2567  0.0471 -0.4949
 6220SOL    HW130122   1.503   3.827   1.795 -1.3320  1.5083  0.9480
 6220SOL    HW230123   1.534   3.785   1.938 -1.4844 -3.2383  1.6189
 6221SOL     OW30124   3.669   2.871   6.222  0.0881  0.0759  0.2472
 6221SOL    HW130125   3.580   2.880   6.255  0.1884  3.1207 -0.2801
 6221SOL    HW230126   3.724   2.933   6.270  0.7643  0.2486 -0.7431
 6222SOL     OW30127   2.413   2.225   3.662  0.0538 -0.0464  0.6677
 6222SOL    HW130128   2.344   2.245   3.726 -0.2816  0.2803  0.2083
 6222SOL    HW230129   2.489   2.262   3.707 -0.4861  2.1079 -0.1893
 6223SOL     OW30130   0.394   2.294  13.664 -0.4161 -0.1188  0.3429
 6223SOL    HW130131   0.484   2.327  13.666 -1.3748  2.4833  0.1388
 6223SOL    HW230132   0.350   2.375  13.689 -0.9163 -0.3697  0.2837
 6224SOL     OW30133   4.174   2.176   9.297 -0.3652  0.1724 -0.1293
 6224SOL    HW130134   4.223   2.104   9.256 -0.1572  0.5446 -0.5291
 6224SOL    HW230135   4.096   2.132   9.331 -1.9142  2.1563 -1.1500
 6225SOL     OW30136   2.216   0.974   2.413  0.0663 -0.3152  0.1235
 6225SOL    HW130137   2.299   0.990   2.459 -0.8743  1.1687  1.3174
 6225SOL    HW230138   2.225   1.033   2.339 -1.8855 -0.1483  0.0188
 6226SOL     OW30139   0.435   3.215   3.776  0.1727  0.2853 -0.1796
 6226SOL    HW130140   0.359   3.247   3.729 -0.3773  2.5597  2.2654
 6226SOL    HW230141   0.502   3.279   3.751 -0.4608  0.4794 -1.3777
 6227SOL     OW30142   4.458   3.520   1.820  0.1188 -0.1865 -0.1342
 6227SOL    HW130143   4.374   3.537   1.777  0.9688  2.1715 -0.7947
 6227SOL    HW230144   4.474   3.587   1.886  3.1990  0.9650 -2.0792
 6228SOL     OW30145   4.614   2.786   5.881 -0.2025  0.1266  0.1946
 6228SOL    HW130146   4.654   2.872   5.892 -0.6872  0.6061 -1.7475
 6228SOL    HW230147   4.691   2.729   5.869 -1.1637 -0.7285 -1.8781
 6229SOL     OW30148   0.863   1.380   1.762 -0.2165 -0.0263 -0.0374
 6229SOL    HW130149   0.833   1.310   1.819 -2.6563 -1.2687 -2.7942
 6229SOL    HW230150   0.935   1.412   1.816 -1.0256 -1.4154  1.8667
 6230SOL     OW30151   2.553   1.769   6.361 -0.5405  0.1119  0.7728
 6230SOL    HW130152   2.519   1.782   6.450  0.7950  1.7698  1.0462
 6230SOL    HW230153   2.485   1.807   6.305 -0.3262 -0.1063  0.3632
 6231SOL     OW30154   2.715   1.390   6.544 -0.3819  0.1822  0.5896
 6231SOL    HW130155   2.669   1.308   6.562  0.8775 -0.3917  1.2240
 6231SOL    HW230156   2.730   1.405   6.638 -0.2417 -0.8935  0.7426
 6232SOL     OW30157   0.759   0.214  16.356 -0.1173  0.3833 -0.2087
 6232SOL    HW130158   0.765   0.276  16.428  0.1361 -0.5715  0.5753
 6232SOL    HW230159   0.804   0.272  16.293  1.2682 -0.2311  0.2193
 6233SOL     OW30160   2.161   2.070   8.662  0.0915 -0.4196  0.1319
 6233SOL    HW130161   2.236   2.042   8.714  1.4395  1.7560 -0.6623
 6233SOL    HW230162   2.111   1.988   8.664 -0.0150 -0.3920 -1.5150
 6234SOL     OW30163   0.696   2.252  10.834  0.3800 -0.0535 -0.2529
 6234SOL    HW130164   0.714   2.159  10.841  0.4391  0.1225  1.9053
 6234SOL    HW230165   0.661   2.247  10.745 -3.2276  0.9435  1.1153
 6235SOL     OW30166   4.632   0.671  16.935  0.8434  0.1198  0.1766
 6235SOL    HW130167   4.725   0.659  16.917  0.8034 -0.9398  0.6773
 6235SOL    HW230168   4.607   0.753  16.893  2.7417  0.5942 -0.0045
 6236SOL     OW30169   1.867   4.562   5.272 -0.3763 -0.1926  0.4935
 6236SOL    HW130170   1.773   4.542   5.268  0.3672 -3.2967 -1.5001
 6236SOL    HW230171   1.876   4.586   5.364 -0.7934 -0.1468  0.5240
 6237SOL     OW30172   3.418   0.310  12.144  0.0993 -0.3547  0.6189
 6237SOL    HW130173   3.429   0.284  12.236  0.7821  0.1834  0.6848
 6237SOL    HW230174   3.499   0.359  12.132 -1.2016  1.2837 -1.4671
 6238SOL     OW30175   1.603   2.731   2.741 -0.0344 -0.2062  0.0673
 6238SOL    HW130176   1.512   2.701   2.736  0.0024 -0.2631 -0.2241
 6238SOL    HW230177   1.638   2.681   2.815  2.0006 -1.0153 -1.4387
 6239SOL     OW30178   2.637   2.558   5.478  0.5299 -0.1944 -0.2156
 6239SOL    HW130179   2.565   2.578   5.538  1.0907 -0.6285  0.5862
 6239SOL    HW230180   2.608   2.593   5.393  2.4171 -0.0665 -0.8140
 6240SOL     OW30181   3.734   0.616   5.661  0.0088 -0.2163 -0.1428
 6240SOL    HW130182   3.677   0.622   5.584 -0.1243  0.6878  0.0223
 6240SOL    HW230183   3.776   0.530   5.655 -2.3384 -1.3317 -0.6863
 6241SOL     OW30184   0.972   1.042   8.266 -0.1299 -0.0212 -0.4155
 6241SOL    HW130185   1.067   1.056   8.261 -0.4961  2.4584 -0.2962
 6241SOL    HW230186   0.960   0.954   8.229  1.0249 -0.1207 -0.5477
 6242SOL     OW30187   3.448   3.375   4.262  0.4663 -0.5234  1.0771
 6242SOL    HW130188   3.511   3.312   4.298  0.1666 -1.0646  0.6632
 6242SOL    HW230189   3.424   3.419   4.343  2.8964  0.9832  0.9692
 6243SOL     OW30190   1.439   1.281  14.471 -0.0301 -0.1695 -0.6029
 6243SOL    HW130191   1.465   1.371  14.450  0.2197 -0.3653 -1.1623
 6243SOL    HW230192   1.345   1.293  14.483  0.3802  0.9620  1.4138
 6244SOL     OW30193   2.653   2.621  13.252  0.2457  0.1115  0.4740
 6244SOL    HW130194   2.711   2.696  13.259 -0.2266  0.6081 -0.9909
 6244SOL    HW230195   2.721   2.565  13.215  1.3770  1.4196  0.5742
 6245SOL     OW30196   3.974   0.027   0.482 -0.0070 -0.3567 -0.2673
 6245SOL    HW130197   3.918   4.692   0.529  0.0709 -0.3632 -0.1832
 6245SOL    HW230198   4.060   4.719   0.505  0.5926  0.6249 -1.0128
 6246SOL     OW30199   4.365   2.006   5.369  0.3457  0.5096  0.6997
 6246SOL    HW130200   4.330   1.924   5.334  2.5416 -0.4789  0.7891
 6246SOL    HW230201   4.413   2.038   5.293 -0.3077  1.1405  0.5615
 6247SOL     OW30202   0.894   2.107   3.860  0.2417 -0.3499 -0.4497
 6247SOL    HW130203   0.893   2.057   3.778 -1.2042  1.2588 -1.4032
 6247SOL    HW230204   0.835   2.177   3.831 -0.3901 -0.3526  0.8112
 6248SOL     OW30205   2.945   1.729   5.243 -0.4748 -0.0255  0.1924
 6248SOL    HW130206   3.036   1.758   5.252  0.1374 -2.4051  1.5950
 6248SOL    HW230207   2.903   1.786   5.308  0.4580 -0.1759  0.9388
 6249SOL     OW30208   0.259   2.544   1.368 -0.0314  0.0685 -0.1205
 6249SOL    HW130209   0.236   2.637   1.362  0.9135  0.3203  0.1876
 6249SOL    HW230210   0.276   2.528   1.275  0.9885  0.4109 -0.0013
 6250SOL     OW30211   1.404   0.981   2.279  0.5536 -0.5363 -0.5469
 6250SOL    HW130212   1.406   0.949   2.369 -0.5132 -1.8833 -0.9996
 6250SOL    HW230213   1.496   0.991   2.256  0.9174  0.9509  1.6130
 6251SOL     OW30214   3.406   2.983   4.419 -0.2336 -0.0568 -0.0178
 6251SOL    HW130215   3.338   3.017   4.361 -0.3144  0.0981  0.1706
 6251SOL    HW230216   3.349   2.949   4.488  0.2351 -1.3221 -0.2590
 6252SOL     OW30217   1.802   3.515   6.862  0.0210 -0.6375 -0.3625
 6252SOL    HW130218   1.831   3.501   6.772 -0.3933 -3.4978 -0.0378
 6252SOL    HW230219   1.730   3.453   6.875 -0.4468  0.0698  0.4283
 6253SOL     OW30220   1.496   0.486   9.291 -0.5396 -0.6652 -0.1268
 6253SOL    HW130221   1.494   0.442   9.376 -0.0667 -1.5624 -0.5793
 6253SOL    HW230222   1.490   0.411   9.232  2.0138 -1.2167  0.3148
 6254SOL     OW30223   0.680   2.704  10.926  0.6401  0.3118  0.1465
 6254SOL    HW130224   0.719   2.710  10.838  2.0284  1.4045  0.8232
 6254SOL    HW230225   0.641   2.790  10.937 -1.0226 -0.3662 -0.4810
 6255SOL     OW30226   4.148   2.591   8.555  0.1774  0.3407 -0.5337
 6255SOL    HW130227   4.177   2.594   8.647 -1.7930 -0.5743  0.1159
 6255SOL    HW230228   4.098   2.511   8.541 -0.9410  0.8720  0.4056
 6256SOL     OW30229   2.616   2.892   1.239  0.2641  0.2626  0.6201
 6256SOL    HW130230   2.676   2.906   1.312  0.2301  0.7090  0.5610
 6256SOL    HW230231   2.679   2.886   1.168 -0.7171 -0.3555 -0.1901
 6257SOL     OW30232   0.541   2.372  13.364  0.3928  0.6091 -0.5818
 6257SOL    HW130233   0.597   2.396  13.438  0.0657  2.2668 -0.8609
 6257SOL    HW230234   0.524   2.284  13.397  0.3486  0.8172 -0.0462
 6258SOL     OW30235   4.139   4.631   0.152  0.1475 -0.5659 -0.1194
 6258SOL    HW130236   4.158   4.611   0.243  1.5263 -0.0901 -0.3098
 6258SOL    HW230237   4.067   4.692   0.167 -0.0427 -0.5908 -0.9145
 6259SOL     OW30238   2.100   1.234   8.093  0.3299  0.2306 -0.4863
 6259SOL    HW130239   2.023   1.205   8.143  0.7528 -0.4183 -0.2139
 6259SOL    HW230240   2.144   1.149   8.091 -0.4342 -0.1248 -2.0593
 6260SOL     OW30241   2.156   3.554  15.983  0.0825  0.1088  0.3841
 6260SOL    HW130242   2.073   3.519  16.016  0.7886 -0.8423  1.1550
 6260SOL    HW230243   2.213   3.478  15.975 -0.0378  0.4197 -3.1468
 6261SOL     OW30244   0.128   3.718  11.006 -0.5313  0.7323 -0.3134
 6261SOL    HW130245   0.119   3.790  11.068 -1.5141  0.9330 -0.6857
 6261SOL    HW230246   0.040   3.702  10.973 -1.1418  2.2033  0.6320
 6262SOL     OW30247   3.694   4.304   8.947 -0.4611  0.2524  0.5034
 6262SOL    HW130248   3.707   4.397   8.965 -0.3413  0.3438 -0.0494
 6262SOL    HW230249   3.704   4.304   8.852 -2.7492 -0.1681  0.2669
 6263SOL     OW30250   0.409   0.457   7.836 -0.2840 -0.4159 -0.2880
 6263SOL    HW130251   0.461   0.424   7.910  1.3098  2.4457 -0.1590
 6263SOL    HW230252   0.325   0.432   7.873 -1.3838  0.6309 -2.1078
 6264SOL     OW30253   1.910   1.930   5.410  0.3011  0.2399 -0.2471
 6264SOL    HW130254   1.865   1.848   5.388 -1.0107  0.8072  0.3153
 6264SOL    HW230255   1.840   1.980   5.452  0.2367  0.4595 -0.6162
 6265SOL     OW30256   1.922   1.878   3.135  0.1425  0.0405  0.0965
 6265SOL    HW130257   1.904   1.841   3.049 -0.4598  0.8548 -0.1250
 6265SOL    HW230258   1.847   1.843   3.184  1.3226 -0.8351  1.2756
 6266SOL     OW30259   3.820   4.059   8.705 -0.0229 -0.3568  0.3391
 6266SOL    HW130260   3.886   4.048   8.637  1.0697 -1.0351  1.5167
 6266SOL    HW230261   3.811   4.154   8.706 -0.8491 -0.4027 -3.2125
 6267SOL     OW30262   1.815   1.486   5.609  1.1855  0.8438 -0.0409
 6267SOL    HW130263   1.722   1.479   5.630  1.3057 -0.5347  0.0657
 6267SOL    HW230264   1.845   1.395   5.611  1.2805  0.8999  1.0621
 6268SOL     OW30265   1.068   1.859   3.690  0.1290  0.4182 -0.1338
 6268SOL    HW130266   1.038   1.770   3.711  0.4577  0.1469 -0.8019
 6268SOL    HW230267   1.028   1.858   3.603 -0.1505  1.7848 -0.0237
 6269SOL     OW30268   4.463   3.924   2.297  0.6117  0.4273  0.1415
 6269SOL    HW130269   4.393   3.871   2.260  1.8436 -0.2428 -1.2103
 6269SOL    HW230270   4.424   3.990   2.355  0.2804  0.7901 -0.5027
 6270SOL     OW30271   1.174   2.705   5.944  0.1744 -0.3194 -0.1005
 6270SOL    HW130272   1.182   2.622   5.898  1.2940 -0.1706 -0.1631
 6270SOL    HW230273   1.079   2.719   5.948  0.1615 -0.3422 -0.3531
 6271SOL     OW30274   1.076   0.967  13.044 -0.3512 -0.6807 -0.1106
 6271SOL    HW130275   1.010   0.901  13.023  0.1002 -1.0452 -0.3767
 6271SOL    HW230276   1.126   0.912  13.105  0.5971  1.7758  1.2935
 6272SOL     OW30277   1.244   1.583   3.561  0.2799  0.2072  0.4007
 6272SOL    HW130278   1.264   1.490   3.557 -1.2336 -0.0811 -0.3826
 6272SOL    HW230279   1.221   1.599   3.469  0.4577  0.6007  0.4213
 6273SOL     OW30280   3.565   0.348   8.891  0.2355 -0.3861 -0.5100
 6273SOL    HW130281   3.641   0.405   8.874 -1.0996  1.6498  0.2431
 6273SOL    HW230282   3.519   0.370   8.810  0.5100 -2.2708 -1.1728
 6274SOL     OW30283   3.674   1.707   0.161  0.3395  0.4656  0.4192
 6274SOL    HW130284   3.754   1.733   0.206 -0.6912  2.3485  1.1704
 6274SOL    HW230285   3.669   1.781   0.101 -0.6286 -0.9587 -1.2469
 6275SOL     OW30286   3.092   4.573   3.918 -0.2631 -0.0370  0.4255
 6275SOL    HW130287   3.012   4.525   3.894 -0.6408  0.6808  0.2415
 6275SOL    HW230288   3.155   4.501   3.920 -0.4301 -0.1932  0.1383
 6276SOL     OW30289   0.292   4.346   8.743  0.2700  0.1169 -0.0570
 6276SOL    HW130290   0.298   4.370   8.836 -3.5765 -0.3029  0.2873
 6276SOL    HW230291   0.381   4.374   8.721  0.8070 -1.0899  0.5576
 6277SOL     OW30292   1.863   1.524   0.637  0.0191 -0.4906 -0.7288
 6277SOL    HW130293   1.868   1.431   0.611 -0.0307 -0.4005 -1.0614
 6277SOL    HW230294   1.855   1.511   0.731 -1.1500 -0.1171 -0.7783
 6278SOL     OW30295   1.413   4.309   1.495  0.7900 -0.2297 -0.1080
 6278SOL    HW130296   1.374   4.222   1.497 -1.7428  0.8741 -1.0578
 6278SOL    HW230297   1.357   4.347   1.563  1.8118 -2.2564  1.8422
 6279SOL     OW30298   3.049   1.319   8.864 -0.3611 -0.1725  0.0022
 6279SOL    HW130299   3.064   1.356   8.777  2.1658 -1.2835 -0.0319
 6279SOL    HW230300   2.954   1.326   8.859 -0.2683  0.1754 -1.2938
 6280SOL     OW30301   0.508   0.296  14.002  0.0813  0.3563  0.4769
 6280SOL    HW130302   0.516   0.294  14.097  0.4488 -1.0180  0.4228
 6280SOL    HW230303   0.425   0.248  13.996  0.1087  0.1341  1.8829
 6281SOL     OW30304   1.345   4.544   3.991  0.1226 -0.2444 -0.7396
 6281SOL    HW130305   1.266   4.584   4.027  1.2581  1.0864  0.2649
 6281SOL    HW230306   1.419   4.602   4.011  0.2176  0.7286 -3.9251
 6282SOL     OW30307   1.148   4.712   5.849  0.2030 -0.0502 -0.4163
 6282SOL    HW130308   1.183   0.003   5.761  1.2496 -1.0324 -0.2116
 6282SOL    HW230309   1.153   0.068   5.895  2.0303  0.2306 -1.1231
 6283SOL     OW30310   3.765   3.974   8.367 -0.0672 -0.2600 -0.8369
 6283SOL    HW130311   3.670   3.962   8.365 -0.0407 -0.4935 -0.6868
 6283SOL    HW230312   3.766   4.044   8.301 -0.2988  1.0314  0.5340
 6284SOL     OW30313   2.251   1.624   0.887  0.0212  0.3741  0.7096
 6284SOL    HW130314   2.237   1.683   0.812  0.0585  0.8483  1.0776
 6284SOL    HW230315   2.256   1.535   0.851  0.3124  1.2057 -1.3039
 6285SOL     OW30316   4.616   2.494   5.660 -1.0055 -0.3605 -0.0247
 6285SOL    HW130317   4.679   2.456   5.599 -0.3505  1.3018 -0.3752
 6285SOL    HW230318   4.672   2.531   5.728 -1.2112 -0.8740  0.4237
 6286SOL     OW30319   4.467   4.381   9.310 -0.2094  0.0493 -0.1549
 6286SOL    HW130320   4.480   4.287   9.325  1.9054  0.4691  0.5458
 6286SOL    HW230321   4.487   4.415   9.397 -0.1278 -1.7206  0.5104
 6287SOL     OW30322   1.958   0.642   3.091  0.2409 -0.0698 -0.3226
 6287SOL    HW130323   1.880   0.595   3.060 -0.1484  1.9851 -2.4712
 6287SOL    HW230324   2.020   0.588   3.043 -1.9724 -0.8083 -2.4076
 6288SOL     OW30325   1.857   1.522   2.777  0.1423  0.5380  0.6986
 6288SOL    HW130326   1.789   1.479   2.830  2.2539 -0.6101  2.4421
 6288SOL    HW230327   1.860   1.463   2.702  2.5116  1.0489  0.4024
 6289SOL     OW30328   0.285   1.762   9.288 -0.7483 -0.1364  0.2704
 6289SOL    HW130329   0.319   1.673   9.303 -2.1187 -0.2414  2.8397
 6289SOL    HW230330   0.339   1.792   9.215 -2.3412  1.0966 -0.3807
 6290SOL     OW30331   2.542   1.215   1.808 -0.5757 -0.5729 -0.4470
 6290SOL    HW130332   2.480   1.188   1.875 -0.1895 -0.2781  0.0276
 6290SOL    HW230333   2.524   1.309   1.798  0.8605 -0.0507  1.9300
 6291SOL     OW30334   4.683   3.868  13.073  0.7294 -0.1264  0.7043
 6291SOL    HW130335   4.641   3.842  12.991  1.2825 -1.3170  0.7999
 6291SOL    HW230336   4.673   3.784  13.118  1.8851 -0.1031  1.0150
 6292SOL     OW30337   0.238   2.423   8.725  0.4739  0.1202 -0.2286
 6292SOL    HW130338   0.237   2.510   8.766  0.8188  0.5162 -1.0741
 6292SOL    HW230339   0.223   2.363   8.798 -0.8545  0.2956 -0.3449
 6293SOL     OW30340   1.060   4.087   1.586 -0.2003  0.0672  0.3835
 6293SOL    HW130341   1.050   4.081   1.681  0.8292 -0.2441  0.4724
 6293SOL    HW230342   1.150   4.061   1.567 -0.5776 -1.1958  0.3035
 6294SOL     OW30343   0.350   4.527   4.856  0.7583 -1.0439  0.3607
 6294SOL    HW130344   0.427   4.568   4.895  1.4788 -1.1687 -0.9407
 6294SOL    HW230345   0.388   4.498   4.773  2.3397 -0.1555  0.7794
 6295SOL     OW30346   1.501   0.648   4.004  0.0498 -0.3847 -0.0697
 6295SOL    HW130347   1.545   0.732   4.001  0.1089 -0.4319 -0.5472
 6295SOL    HW230348   1.539   0.599   3.931  0.0735 -1.7914  0.8671
 6296SOL     OW30349   2.230   2.283   1.096 -0.1954  0.0925  0.2934
 6296SOL    HW130350   2.158   2.324   1.048  0.1294  0.0975 -0.1908
 6296SOL    HW230351   2.310   2.324   1.064 -0.2218 -0.1762 -0.1141
 6297SOL     OW30352   1.535   0.281   0.377 -0.1168  0.4371  0.0353
 6297SOL    HW130353   1.492   0.366   0.372 -0.2917  0.5140  2.5247
 6297SOL    HW230354   1.556   0.278   0.471 -0.1292 -0.3972  0.0051
 6298SOL     OW30355   1.145   1.886  14.027  0.1291 -0.1363 -0.0785
 6298SOL    HW130356   1.126   1.980  14.027 -0.4985 -0.2631 -0.8101
 6298SOL    HW230357   1.155   1.871  14.121 -1.1464  0.2221  0.1053
 6299SOL     OW30358   1.659   0.001   0.797  0.2805 -0.1052  0.4242
 6299SOL    HW130359   1.599   0.029   0.728  0.7608  0.1986  0.1302
 6299SOL    HW230360   1.745   4.720   0.755  0.3167 -2.4257  0.9381
 6300SOL     OW30361   0.023   3.566   7.449  0.3063 -0.6957  0.0380
 6300SOL    HW130362   0.034   3.521   7.365  1.2678 -0.5200  0.0707
 6300SOL    HW230363   4.683   3.631   7.430  0.7844  0.3337  1.8871
 6301SOL     OW30364   3.109   1.065   2.986  0.4454  0.6089  0.6134
 6301SOL    HW130365   3.063   1.148   2.973 -0.6718  0.1966  1.9767
 6301SOL    HW230366   3.131   1.040   2.896  0.7296  1.3445  0.4789
 6302SOL     OW30367   3.615   4.364  13.595 -0.7720 -0.4338 -0.1228
 6302SOL    HW130368   3.560   4.442  13.589  0.0346  0.1734  0.2810
 6302SOL    HW230369   3.645   4.373  13.685 -0.9159 -0.4893 -0.0701
 6303SOL     OW30370   3.607   4.581   4.120  0.6613 -0.0853 -0.4260
 6303SOL    HW130371   3.671   4.625   4.065 -0.5073 -0.3598 -2.0151
 6303SOL    HW230372   3.631   4.619   4.204  0.4037  0.2485 -0.5015
 6304SOL     OW30373   0.035   1.320   2.348  0.4640  0.6375 -0.4687
 6304SOL    HW130374   0.051   1.225   2.351 -0.9832  0.4248  0.4031
 6304SOL    HW230375   0.118   1.341   2.390 -0.5938  1.6198  1.1176
 6305SOL     OW30376   0.914   2.971   2.050 -0.3876 -0.2072 -0.1579
 6305SOL    HW130377   0.928   3.060   2.083  0.4751 -0.1504 -0.6765
 6305SOL    HW230378   0.824   2.950   2.073 -0.0619 -0.5863  0.7733
 6306SOL     OW30379   2.518   4.040   2.357  0.1013 -0.2946  0.4016
 6306SOL    HW130380   2.575   4.113   2.382 -0.1834  0.8752 -2.2852
 6306SOL    HW230381   2.447   4.094   2.323 -1.2766 -2.8450 -0.7254
 6307SOL     OW30382   4.095   3.042  11.183 -0.3683 -0.3099  0.2367
 6307SOL    HW130383   4.181   3.019  11.218  0.5685  1.5847 -0.8265
 6307SOL    HW230384   4.103   3.022  11.090 -0.8015  1.1147 -0.0983
 6308SOL     OW30385   3.596   3.245   4.877  0.1546 -0.0552 -0.0480
 6308SOL    HW130386   3.535   3.265   4.806  1.2835  0.4613 -0.8722
 6308SOL    HW230387   3.635   3.332   4.891  0.3956  0.1501 -2.0662
 6309SOL     OW30388   3.201   0.626   3.969  0.1725 -0.3696  0.1159
 6309SOL    HW130389   3.275   0.679   4.000  0.0338  0.5529 -1.1278
 6309SOL    HW230390   3.175   0.582   4.050 -3.3555  0.5771 -0.5109
 6310SOL     OW30391   1.541   3.712   8.686 -0.1323 -0.1796 -0.5365
 6310SOL    HW130392   1.482   3.787   8.677 -1.3888 -0.8898  1.8150
 6310SOL    HW230393   1.556   3.693   8.593 -0.4587 -0.9110 -0.4377
 6311SOL     OW30394   4.672   4.598   4.718  0.0973  0.1112 -0.1019
 6311SOL    HW130395   4.614   4.664   4.680 -0.4132 -0.5704 -0.5027
 6311SOL    HW230396   4.689   4.546   4.639 -0.0241  1.6998 -1.1671
 6312SOL     OW30397   1.392   3.291   7.693 -0.6656  0.1199  0.2900
 6312SOL    HW130398   1.444   3.345   7.633  1.9671 -2.1854  0.4516
 6312SOL    HW230399   1.414   3.334   7.776 -0.3994  0.0272  0.2674
 6313SOL     OW30400   4.721   1.849  10.328  0.0957  0.7248 -0.5424
 6313SOL    HW130401   4.639   1.802  10.316  1.0028 -0.7109 -1.1321
 6313SOL    HW230402   0.057   1.780  10.310  0.2002  0.3193  1.3870
 6314SOL     OW30403   2.895   0.679   0.983  0.4723 -0.2897  0.0919
 6314SOL    HW130404   2.950   0.619   1.033 -0.2651 -0.5095  0.6338
 6314SOL    HW230405   2.845   0.617   0.931 -2.6540  1.1193  1.4517
 6315SOL     OW30406   2.634   2.498  12.044  0.3644  0.3146  0.7308
 6315SOL    HW130407   2.559   2.552  12.020  0.4902 -0.6793 -1.9380
 6315SOL    HW230408   2.607   2.421  11.994  1.1172  1.2438 -1.1314
 6316SOL     OW30409   0.805   0.678   7.155 -0.4790  0.7284  0.4990
 6316SOL    HW130410   0.837   0.764   7.180  0.5763  0.5280 -0.1574
 6316SOL    HW230411   0.881   0.649   7.105 -0.4403 -0.0936  1.0291
 6317SOL     OW30412   4.214   4.513   6.016 -0.1203  0.2856 -0.2461
 6317SOL    HW130413   4.148   4.496   6.083  0.2462 -0.9413 -0.1859
 6317SOL    HW230414   4.156   4.570   5.967  0.0193  0.8833  0.2861
 6318SOL     OW30415   0.512   3.156   4.798  0.2702 -0.0911 -0.0182
 6318SOL    HW130416   0.539   3.075   4.754  0.9895  1.4818 -2.4604
 6318SOL    HW230417   0.423   3.132   4.821 -0.2249 -0.0146 -1.8508
 6319SOL     OW30418   2.910   0.151   1.201 -0.2834 -0.3218  0.2843
 6319SOL    HW130419   2.985   0.177   1.147  0.0707 -0.5522  0.6659
 6319SOL    HW230420   2.842   0.122   1.141 -0.2820 -0.7914  0.5106
 6320SOL     OW30421   2.925   0.327   4.101  0.3684  1.0070 -0.1145
 6320SOL    HW130422   2.898   0.347   4.011  0.4952 -2.5572 -0.9189
 6320SOL    HW230423   2.929   0.416   4.138 -2.3064  0.9831  0.2350
 6321SOL     OW30424   3.008   2.151   0.125  0.2055 -0.2445  0.3215
 6321SOL    HW130425   3.013   2.060   0.154 -1.2241  0.2654  2.1825
 6321SOL    HW230426   3.069   2.189   0.187 -1.6957 -0.7886  2.5304
 6322SOL     OW30427   1.229   1.870   4.940  0.2124  0.0369 -0.0759
 6322SOL    HW130428   1.234   1.949   4.886  0.6337  0.0800  0.0236
 6322SOL    HW230429   1.318   1.847   4.913  0.3996 -0.2433  0.7855
 6323SOL     OW30430   3.321   2.350   4.468  0.1546 -0.0500 -0.0551
 6323SOL    HW130431   3.395   2.313   4.517 -0.0451 -0.3754  0.0053
 6323SOL    HW230432   3.338   2.440   4.494 -1.3189 -0.2347  1.5862
 6324SOL     OW30433   2.031   3.084   8.008  0.1807 -0.3039 -0.5078
 6324SOL    HW130434   2.104   3.123   8.054  0.1170  0.4785 -1.0588
 6324SOL    HW230435   2.028   3.146   7.935  2.4276  0.1343 -0.2193
 6325SOL     OW30436   1.132   0.006   9.174 -0.1307  0.1121 -0.0397
 6325SOL    HW130437   1.139   4.721   9.269  2.4216  2.7755  0.1340
 6325SOL    HW230438   1.223   0.025   9.149  0.3258  0.2661  1.7453
 6326SOL     OW30439   2.416   1.030   2.591 -0.2037  0.1568 -0.1608
 6326SOL    HW130440   2.436   1.002   2.681 -1.0074  2.1415  0.6473
 6326SOL    HW230441   2.504   1.025   2.553  0.3056  0.6633  0.9450
 6327SOL     OW30442   1.215   0.832   5.106 -0.0399  0.0791 -0.0637
 6327SOL    HW130443   1.197   0.744   5.138 -0.3440 -0.0970 -0.7344
 6327SOL    HW230444   1.132   0.881   5.107 -0.4484 -0.6047 -0.1703
 6328SOL     OW30445   1.851   2.313   4.487  0.5235 -0.2855 -0.3647
 6328SOL    HW130446   1.911   2.250   4.446 -0.1746 -0.5212 -1.0352
 6328SOL    HW230447   1.830   2.366   4.410 -0.7252 -1.7215 -1.0333
 6329SOL     OW30448   1.514   3.204  13.882 -0.5210 -0.1894  0.1863
 6329SOL    HW130449   1.584   3.144  13.909  0.8030  0.6482 -1.4536
 6329SOL    HW230450   1.515   3.188  13.788  0.0770 -0.9880  0.3197
 6330SOL     OW30451   4.426   0.627   5.898  0.7556 -0.2906 -0.3489
 6330SOL    HW130452   4.455   0.718   5.891  1.9228 -0.5538  0.9547
 6330SOL    HW230453   4.458   0.607   5.986 -1.9224 -1.6326  0.2936
 6331SOL     OW30454   1.975   2.399   1.359  0.4091 -0.0730  0.3961
 6331SOL    HW130455   1.998   2.472   1.416  3.5341 -1.4670  0.9378
 6331SOL    HW230456   2.040   2.424   1.293  0.4054 -0.4249  0.2601
 6332SOL     OW30457   4.175   4.041   5.259 -0.1500 -0.1395 -0.2320
 6332SOL    HW130458   4.207   4.029   5.348  0.9847  0.3389 -0.5787
 6332SOL    HW230459   4.115   4.114   5.274 -2.7079 -2.3535  0.3270
 6333SOL     OW30460   2.573   1.596   8.948  0.2737  0.3191  0.6509
 6333SOL    HW130461   2.504   1.566   8.888  0.4848 -0.4051  0.7755
 6333SOL    HW230462   2.606   1.511   8.978  0.8579 -0.6648 -2.8184
 6334SOL     OW30463   0.402   0.066   5.916 -0.8089  0.1127  0.0580
 6334SOL    HW130464   0.364   0.089   5.832  0.8625 -1.9286 -1.2466
 6334SOL    HW230465   0.417   4.699   5.907 -0.4995 -0.0389  2.0967
 6335SOL     OW30466   2.295   4.268   8.822  0.0277 -0.2839 -0.0497
 6335SOL    HW130467   2.353   4.217   8.766  0.7613 -1.9833  2.2720
 6335SOL    HW230468   2.298   4.354   8.780 -2.6095 -0.4662 -0.6455
 6336SOL     OW30469   0.762   0.936  13.609 -0.2266 -0.4997 -0.3849
 6336SOL    HW130470   0.804   0.977  13.685  0.8910 -2.3638 -0.0057
 6336SOL    HW230471   0.675   0.911  13.639  0.7459 -0.0044  2.9012
 6337SOL     OW30472   3.515   2.619   4.987  0.2067 -0.6472 -0.1608
 6337SOL    HW130473   3.528   2.527   5.010  0.3279 -0.3416  1.0031
 6337SOL    HW230474   3.569   2.649   5.061  2.8103  0.0176 -2.3247
 6338SOL     OW30475   1.366   4.640   3.428 -0.6685 -0.3932  0.5984
 6338SOL    HW130476   1.375   4.673   3.517 -0.3819  0.0913  0.3960
 6338SOL    HW230477   1.314   4.709   3.386 -2.2442 -1.6203  0.5326
 6339SOL     OW30478   2.461   3.206   2.321  0.1503 -0.2864  0.4264
 6339SOL    HW130479   2.520   3.202   2.245 -0.0223  2.0938  0.1642
 6339SOL    HW230480   2.409   3.286   2.318  1.5079  0.5352 -0.9949
 6340SOL     OW30481   0.012   4.356  13.189 -0.2378 -0.3784 -0.0397
 6340SOL    HW130482   4.718   4.377  13.098  0.0858  1.6082  0.3402
 6340SOL    HW230483   4.672   4.290  13.209 -0.9448  0.6202  0.8472
 6341SOL     OW30484   2.811   1.206  14.991  0.2563 -0.0739  0.6442
 6341SOL    HW130485   2.896   1.210  14.949 -1.1296 -0.0578 -2.1562
 6341SOL    HW230486   2.763   1.176  14.914  0.2502  2.1646 -0.2282
 6342SOL     OW30487   0.311   4.469   4.414 -0.0191 -0.0938  0.1511
 6342SOL    HW130488   0.293   4.558   4.383  0.6532  1.0989  3.1750
 6342SOL    HW230489   0.237   4.434   4.464  1.6099 -2.5679  0.8515
 6343SOL     OW30490   2.839   2.268  15.232 -0.7792  0.0883 -0.7666
 6343SOL    HW130491   2.826   2.362  15.245 -0.5145 -0.1020  0.8190
 6343SOL    HW230492   2.833   2.230  15.319 -1.4210  1.9869  0.0179
 6344SOL     OW30493   0.992   0.442   3.202  0.2370 -0.3895  0.0492
 6344SOL    HW130494   0.999   0.374   3.269 -1.4106  0.2957  0.8975
 6344SOL    HW230495   1.020   0.513   3.259  2.4186  0.5716 -2.2118
 6345SOL     OW30496   4.442   4.604   1.913  0.0645 -0.1339  0.0182
 6345SOL    HW130497   4.436   4.601   2.009  1.4035  0.9409  0.1374
 6345SOL    HW230498   4.495   4.527   1.891  0.9488  0.1872  1.0522
 6346SOL     OW30499   0.316   4.010  12.979  0.1679 -0.4000  0.0373
 6346SOL    HW130500   0.285   3.956  12.906  2.1912  1.4508 -2.2037
 6346SOL    HW230501   0.403   3.975  12.998 -0.5013 -0.7334  2.4245
 6347SOL     OW30502   4.032   0.790  14.986 -0.0394 -0.1890  0.0917
 6347SOL    HW130503   4.017   0.879  15.020  0.2315  0.6404 -1.9572
 6347SOL    HW230504   4.114   0.775  15.031  0.6645 -0.8710 -1.4329
 6348SOL     OW30505   3.109   3.699   7.812  0.0125 -0.2196  0.0472
 6348SOL    HW130506   3.101   3.646   7.733  0.0799 -0.2457  0.0574
 6348SOL    HW230507   3.202   3.704   7.838 -0.0252 -0.0395  0.1469
 6349SOL     OW30508   0.173   4.440   3.266  0.0049  0.3416 -0.1385
 6349SOL    HW130509   0.255   4.436   3.315 -1.3412 -1.8463  1.9151
 6349SOL    HW230510   0.167   4.535   3.257  1.4455  0.4134 -0.3680
 6350SOL     OW30511   1.280   2.745   2.985 -0.0563 -0.1616 -0.2568
 6350SOL    HW130512   1.260   2.654   2.965  0.1678 -0.4555  0.8050
 6350SOL    HW230513   1.210   2.760   3.049 -0.8963  0.9763 -1.4412
 6351SOL     OW30514   1.553   0.270  10.641 -0.4338  0.0472  0.3187
 6351SOL    HW130515   1.593   0.236  10.562 -0.1261  0.1480  0.4312
 6351SOL    HW230516   1.626   0.309  10.690 -0.6853 -2.1090  2.4014
 6352SOL     OW30517   4.320   2.076  11.744  0.0047 -0.6108 -0.1507
 6352SOL    HW130518   4.404   2.047  11.708  1.8499  1.2839  2.5814
 6352SOL    HW230519   4.292   2.151  11.693 -1.0937  0.0208  1.3879
 6353SOL     OW30520   0.741   3.650   5.206  0.3749 -0.2801  0.2669
 6353SOL    HW130521   0.648   3.632   5.221 -0.2302  0.8492 -2.1877
 6353SOL    HW230522   0.744   3.726   5.149 -1.6007  0.6998  1.4645
 6354SOL     OW30523   1.388   4.198   8.059 -0.0599  0.8809 -0.3445
 6354SOL    HW130524   1.349   4.131   8.115  0.2738  1.0585  0.1028
 6354SOL    HW230525   1.314   4.212   8.000 -0.4713 -1.0719 -0.2872
 6355SOL     OW30526   2.197   1.486   2.347 -0.5141  0.3750 -0.0187
 6355SOL    HW130527   2.174   1.560   2.403 -1.9840  1.0176 -1.4671
 6355SOL    HW230528   2.247   1.428   2.405  1.0948 -0.3303 -2.1491
 6356SOL     OW30529   2.814   2.936   4.004  0.0186  0.2833  0.1459
 6356SOL    HW130530   2.777   2.869   3.946 -0.8509  0.3931  0.5607
 6356SOL    HW230531   2.904   2.935   3.971  0.4848  1.2888  1.4255
 6357SOL     OW30532   3.841   0.527   9.015  0.7053  0.1150  0.3194
 6357SOL    HW130533   3.898   0.599   9.042 -0.6743  1.7408 -1.1356
 6357SOL    HW230534   3.822   0.558   8.927  1.6633  0.8541  0.3771
 6358SOL     OW30535   0.083   0.504   2.731  1.0091 -0.6624  0.8244
 6358SOL    HW130536   0.040   0.560   2.795  1.1279  0.5407 -0.1510
 6358SOL    HW230537   0.101   0.571   2.665  1.9093 -1.0027  0.7147
 6359SOL     OW30538   4.723   4.691   5.541  0.8848  0.3516  0.5379
 6359SOL    HW130539   4.705   4.668   5.450  0.7770 -0.0605  0.6616
 6359SOL    HW230540   0.031   0.051   5.524 -1.6187  1.3228  0.2853
 6360SOL     OW30541   0.869   1.637   1.925 -0.4539  0.6074 -0.6981
 6360SOL    HW130542   0.952   1.592   1.938 -0.9171  0.0376  0.2839
 6360SOL    HW230543   0.805   1.576   1.960  0.4318 -0.0745 -0.2764
 6361SOL     OW30544   2.195   4.650   7.760  0.4343 -0.2113  0.2553
 6361SOL    HW130545   2.134   4.693   7.700  0.5703 -0.9142 -0.3948
 6361SOL    HW230546   2.268   4.622   7.705  0.0861 -1.7811  0.5754
 6362SOL     OW30547   2.911   3.249   4.253  0.0981  0.6244 -0.1964
 6362SOL    HW130548   2.845   3.256   4.183 -0.7750  0.7591  0.6376
 6362SOL    HW230549   2.997   3.233   4.215 -0.2045  0.1729 -0.6966
 6363SOL     OW30550   2.269   3.617  16.999  0.2330 -0.2601  0.2112
 6363SOL    HW130551   2.244   3.607  17.090  0.1322  0.1473  0.2269
 6363SOL    HW230552   2.264   3.527  16.968 -0.5651 -0.2173  0.1994
 6364SOL     OW30553   4.056   4.727   8.270  0.2615  0.2778 -0.4216
 6364SOL    HW130554   4.047   0.009   8.365 -3.3358 -1.2676 -0.6387
 6364SOL    HW230555   4.134   4.671   8.269  0.2970  0.2600  2.0097
 6365SOL     OW30556   4.603   2.356   4.210  0.0975 -0.3130 -0.0279
 6365SOL    HW130557   4.566   2.444   4.217 -2.2549 -1.2813 -0.2802
 6365SOL    HW230558   4.694   2.362   4.180  0.2154 -1.8410  0.0177
 6366SOL     OW30559   2.283   2.913  11.307 -0.4642  0.3555 -0.4085
 6366SOL    HW130560   2.232   2.864  11.372 -0.1272  0.0797 -0.3521
 6366SOL    HW230561   2.352   2.935  11.369  0.0195 -1.2251 -0.3947
 6367SOL     OW30562   2.581   2.631   1.027  0.2461  0.1951 -0.1658
 6367SOL    HW130563   2.502   2.672   1.064 -0.0779 -1.2634  0.7889
 6367SOL    HW230564   2.574   2.547   1.073  0.3066  0.3817  0.1862
 6368SOL     OW30565   2.881   2.235   5.575  0.3746 -0.0176 -0.3542
 6368SOL    HW130566   2.847   2.241   5.486 -1.5131 -0.6828  0.3244
 6368SOL    HW230567   2.945   2.307   5.577  0.0504  0.2586  0.1028
 6369SOL     OW30568   0.066   1.614   6.219 -0.0488  0.3105 -0.5535
 6369SOL    HW130569   0.125   1.669   6.272  0.5072 -0.7312 -0.0896
 6369SOL    HW230570   0.010   1.679   6.177 -1.5895 -0.7467 -0.1304
 6370SOL     OW30571   2.546   4.421   8.602  0.1293 -0.0535  0.0197
 6370SOL    HW130572   2.517   4.332   8.619 -1.3152  0.4463  0.1718
 6370SOL    HW230573   2.531   4.441   8.510 -1.7167  3.4895  1.0567
 6371SOL     OW30574   1.760   2.435   6.820  0.8295  0.0915 -0.4302
 6371SOL    HW130575   1.750   2.343   6.845  2.8447 -0.0184 -0.0864
 6371SOL    HW230576   1.720   2.474   6.898 -2.7327 -2.2260 -1.0667
 6372SOL     OW30577   2.871   3.819   8.412  0.5219  0.0187  0.2599
 6372SOL    HW130578   2.815   3.895   8.402 -2.2879 -1.8695  1.6039
 6372SOL    HW230579   2.948   3.852   8.459 -0.4906  2.4609  0.2151
 6373SOL     OW30580   3.707   3.637  17.313 -0.1408  0.5476  0.1241
 6373SOL    HW130581   3.714   3.713  17.255  0.8363  1.4981  1.4908
 6373SOL    HW230582   3.798   3.608  17.301 -1.0356 -1.0502 -2.7597
 6374SOL     OW30583   3.415   3.219   8.707  0.2681  0.2209 -0.1983
 6374SOL    HW130584   3.503   3.232   8.742 -0.3160 -2.6697  2.3850
 6374SOL    HW230585   3.439   3.178   8.624  1.3822  0.8581 -0.1844
 6375SOL     OW30586   4.192   4.538  11.707 -0.2256 -0.3346 -0.9861
 6375SOL    HW130587   4.187   4.453  11.664  0.0740 -0.9366  0.1391
 6375SOL    HW230588   4.113   4.578  11.672 -0.7578 -1.2668 -0.8304
 6376SOL     OW30589   0.373   4.308   7.629 -0.4340 -0.4834  0.2539
 6376SOL    HW130590   0.387   4.247   7.556 -0.3621  0.1393 -0.2524
 6376SOL    HW230591   0.453   4.358   7.615 -0.2892 -0.6933  0.3290
 6377SOL     OW30592   0.309   1.055  11.790  0.3311 -0.1871  0.1370
 6377SOL    HW130593   0.334   1.127  11.731  0.4803  0.3193  0.8067
 6377SOL    HW230594   0.283   0.985  11.731 -1.8077 -0.4203  1.3724
 6378SOL     OW30595   4.362   1.673   2.653 -0.9346  0.4541 -0.1646
 6378SOL    HW130596   4.392   1.632   2.572  0.4271 -1.3714  1.2486
 6378SOL    HW230597   4.306   1.742   2.618  1.0350  1.8682 -0.5202
 6379SOL     OW30598   4.075   3.170   0.946  0.0901 -0.1421  0.3397
 6379SOL    HW130599   3.994   3.203   0.986  1.0268  3.9777 -1.1410
 6379SOL    HW230600   4.046   3.148   0.858 -1.6708  2.0012  0.3651
 6380SOL     OW30601   2.347   3.159   5.035  0.8279 -0.6501 -0.2975
 6380SOL    HW130602   2.359   3.079   4.983 -0.4601 -0.3309 -1.0939
 6380SOL    HW230603   2.419   3.146   5.096  0.8363  0.0892 -0.1513
 6381SOL     OW30604   0.944   2.681   6.380  0.4831 -0.3282 -0.3449
 6381SOL    HW130605   0.978   2.673   6.291  0.1247 -1.0893 -0.4099
 6381SOL    HW230606   0.993   2.621   6.436 -0.0942 -0.5531 -0.0822
 6382SOL     OW30607   3.014   1.496  15.976 -0.0057 -0.2192 -0.2346
 6382SOL    HW130608   3.015   1.489  15.881  1.5458  0.3882 -0.2606
 6382SOL    HW230609   3.036   1.407  16.004 -0.4997 -0.6118 -1.0946
 6383SOL     OW30610   0.749   3.850   5.801  0.2227  0.1466 -0.5760
 6383SOL    HW130611   0.832   3.897   5.796  0.7014 -0.6065  0.3504
 6383SOL    HW230612   0.732   3.842   5.707 -1.0532  0.3601 -0.3698
 6384SOL     OW30613   0.729   0.389   3.855 -0.1617  0.6185 -0.2607
 6384SOL    HW130614   0.713   0.332   3.931  1.9725  0.7774  0.3102
 6384SOL    HW230615   0.638   0.411   3.839 -0.7180 -1.5543 -0.1200
 6385SOL     OW30616   4.021   2.443   4.183 -0.0649 -0.0771 -0.2127
 6385SOL    HW130617   3.982   2.456   4.097  0.5071 -0.8053 -0.5807
 6385SOL    HW230618   4.050   2.533   4.195  1.1995 -0.5795  0.5410
 6386SOL     OW30619   1.528   4.294   6.309  0.2234 -0.0731 -0.3391
 6386SOL    HW130620   1.529   4.275   6.215  2.2574 -1.8845  0.0645
 6386SOL    HW230621   1.443   4.263   6.341 -0.9812  0.6337 -2.8094
 6387SOL     OW30622   3.157   1.849   8.829  0.5865 -0.2481 -0.0328
 6387SOL    HW130623   3.162   1.890   8.743 -2.4941 -0.7232 -0.4294
 6387SOL    HW230624   3.202   1.766   8.812  1.3902  0.1747  0.0000
 6388SOL     OW30625   0.820   4.433   5.241 -0.0654 -0.0433  0.1150
 6388SOL    HW130626   0.815   4.451   5.335 -0.4127 -1.5058  0.3687
 6388SOL    HW230627   0.899   4.380   5.230  0.2259  0.5743 -0.8237
 6389SOL     OW30628   1.843   0.511   5.318 -0.0424  0.5147 -0.0057
 6389SOL    HW130629   1.791   0.538   5.243 -1.4766 -0.3800  0.6750
 6389SOL    HW230630   1.918   0.466   5.280 -0.0629  1.6338 -1.3628
 6390SOL     OW30631   1.341   1.493  16.528  0.0816 -0.0743 -0.0558
 6390SOL    HW130632   1.391   1.548  16.468 -0.3276  1.2541  0.7987
 6390SOL    HW230633   1.407   1.449  16.581  0.6379  1.7597  0.7885
 6391SOL     OW30634   4.016   3.470  12.101  0.2843  0.6766 -0.6465
 6391SOL    HW130635   4.053   3.525  12.170  1.4062 -0.4194 -0.3810
 6391SOL    HW230636   3.923   3.459  12.122  0.8642  0.1395  1.5893
 6392SOL     OW30637   1.288   4.281  13.345 -0.1845  0.1638  0.4838
 6392SOL    HW130638   1.224   4.226  13.300  0.5025 -0.7639  0.6422
 6392SOL    HW230639   1.340   4.217  13.393 -1.7626 -0.3194  1.5506
 6393SOL     OW30640   4.611   0.049   9.148  0.3086 -0.0339 -0.1819
 6393SOL    HW130641   4.655   0.107   9.086 -0.9045 -0.9932 -1.9316
 6393SOL    HW230642   4.549   0.104   9.196  2.1575  0.1325  2.0212
 6394SOL     OW30643   1.208   0.788  13.202 -0.4029 -0.3007  0.2746
 6394SOL    HW130644   1.280   0.777  13.265  1.3706 -1.0000 -1.8672
 6394SOL    HW230645   1.149   0.720  13.236 -2.4594  0.7334 -1.3006
 6395SOL     OW30646   2.289   2.850   3.950  0.0635  0.1177 -0.2278
 6395SOL    HW130647   2.269   2.819   4.039 -1.4134 -0.3420 -0.7197
 6395SOL    HW230648   2.369   2.901   3.963  0.0284  0.3352 -0.8970
 6396SOL     OW30649   1.166   2.487   5.006 -0.0071 -0.1739 -0.1885
 6396SOL    HW130650   1.211   2.571   5.011 -0.2693  0.0833 -2.1570
 6396SOL    HW230651   1.210   2.440   4.935  3.1890 -1.1855  2.4773
 6397SOL     OW30652   3.182   1.602   2.233 -0.1174  0.4137 -0.0755
 6397SOL    HW130653   3.226   1.630   2.153 -0.2121  3.3945  0.9364
 6397SOL    HW230654   3.156   1.688   2.265  0.4620  0.2808  0.7521
 6398SOL     OW30655   1.391   2.500   1.122  0.8016 -0.2617 -0.1498
 6398SOL    HW130656   1.334   2.473   1.050 -1.2462  0.3191  1.2466
 6398SOL    HW230657   1.357   2.447   1.194 -2.0563  1.6510 -0.0912
 6399SOL     OW30658   1.355   1.836   6.440 -0.0079 -0.2265 -0.0513
 6399SOL    HW130659   1.375   1.892   6.365 -1.6887  2.3957  1.4602
 6399SOL    HW230660   1.438   1.795   6.464  0.7257  1.0358 -0.4170
 6400SOL     OW30661   1.734   2.219   3.543  0.2094  0.1323 -0.1693
 6400SOL    HW130662   1.657   2.219   3.599  0.4972 -1.3242  0.2376
 6400SOL    HW230663   1.692   2.173   3.470  0.5143 -0.9555  0.3318
 6401SOL     OW30664   4.520   4.417  10.196 -0.2530 -0.2308  0.3475
 6401SOL    HW130665   4.506   4.477  10.269 -0.5766  0.3662 -0.2087
 6401SOL    HW230666   4.433   4.379  10.183 -0.5153  0.5055 -0.0715
 6402SOL     OW30667   0.807   4.015   3.460 -0.1005 -0.3245  0.2429
 6402SOL    HW130668   0.811   3.954   3.386 -0.6908  3.0067 -2.5509
 6402SOL    HW230669   0.900   4.031   3.475  0.0844  0.6330 -1.9151
 6403SOL     OW30670   3.145   0.760   6.360 -0.0148  0.1079  0.5261
 6403SOL    HW130671   3.186   0.840   6.325  0.8423 -1.0836 -1.2447
 6403SOL    HW230672   3.099   0.798   6.434 -0.6970 -0.6032  0.4635
 6404SOL     OW30673   0.190   3.251   3.641  0.1334 -0.1639 -0.3766
 6404SOL    HW130674   0.189   3.336   3.684  0.2701 -0.1379 -0.4232
 6404SOL    HW230675   0.103   3.237   3.603  0.9717 -2.2493 -1.5104
 6405SOL     OW30676   4.372   0.666  13.277 -0.6319  0.3491 -0.1050
 6405SOL    HW130677   4.466   0.684  13.279 -0.6484  0.3929  0.1863
 6405SOL    HW230678   4.370   0.622  13.362 -1.5083  0.6324  0.0193
 6406SOL     OW30679   2.055   2.906   0.637 -0.0526 -0.0864  0.2788
 6406SOL    HW130680   2.003   2.986   0.631  0.9396  0.4557 -1.0623
 6406SOL    HW230681   1.993   2.843   0.601 -0.1859  0.1429  0.0995
 6407SOL     OW30682   0.024   3.975   5.970 -0.4733 -0.0955 -0.1598
 6407SOL    HW130683   4.685   4.007   6.032  0.5314  0.4666  0.6165
 6407SOL    HW230684   0.008   3.881   5.965  2.6698 -0.6459  0.2254
 6408SOL     OW30685   3.077   4.060   8.045 -0.1795 -0.3315  0.0555
 6408SOL    HW130686   2.997   4.009   8.059  0.3994 -1.6836 -1.5123
 6408SOL    HW230687   3.146   4.013   8.090  0.8979 -0.2238 -1.4792
 6409SOL     OW30688   2.530   3.105   6.720 -0.9113 -0.0548 -0.4577
 6409SOL    HW130689   2.583   3.157   6.659 -0.2847 -0.2994 -0.1189
 6409SOL    HW230690   2.491   3.163   6.785 -1.3330 -0.3084 -0.4799
 6410SOL     OW30691   3.036   3.109   7.201 -0.0356  0.5716 -0.1229
 6410SOL    HW130692   3.032   3.062   7.284 -0.8683  0.6197 -0.1346
 6410SOL    HW230693   3.055   3.039   7.139  0.0507  0.7267 -0.2720
 6411SOL     OW30694   3.344   3.344   3.328  0.4116 -0.1612  0.0290
 6411SOL    HW130695   3.392   3.377   3.403  0.0338  1.4422 -0.4329
 6411SOL    HW230696   3.252   3.351   3.355  0.6420  1.0960  0.4536
 6412SOL     OW30697   3.595   3.427   1.530  0.2601  0.2214  0.6988
 6412SOL    HW130698   3.673   3.447   1.477 -0.2993 -0.6534 -0.4465
 6412SOL    HW230699   3.540   3.500   1.502  1.1032  0.5367 -0.1656
 6413SOL     OW30700   1.727   1.498  13.452  0.7918 -0.6329  0.4436
 6413SOL    HW130701   1.768   1.548  13.382  0.6348 -1.2893 -0.1203
 6413SOL    HW230702   1.644   1.544  13.463 -0.4579 -3.0722  1.2424
 6414SOL     OW30703   4.373   3.783   8.098 -0.1396  0.3648 -0.0345
 6414SOL    HW130704   4.389   3.702   8.050  2.3041  0.1777  1.0983
 6414SOL    HW230705   4.281   3.799   8.079  0.4254  1.7225 -1.6950
 6415SOL     OW30706   3.302   2.869  15.093 -0.2220 -0.2177 -0.2729
 6415SOL    HW130707   3.247   2.930  15.042  1.0694 -0.3308 -1.7754
 6415SOL    HW230708   3.338   2.810  15.027  0.8672  0.7776 -0.5747
 6416SOL     OW30709   0.225   4.666   0.013  0.2186  0.0330 -0.0210
 6416SOL    HW130710   0.239   0.023  17.680  2.1473 -1.1867 -1.7961
 6416SOL    HW230711   0.171   4.630  17.653  0.7675 -0.4192 -0.2073
 6417SOL     OW30712   1.952   3.827   9.424  0.2676  0.0400  0.2972
 6417SOL    HW130713   1.927   3.896   9.362  0.1524 -1.5754 -1.4765
 6417SOL    HW230714   1.974   3.758   9.361 -2.2536 -0.7714  0.3011
 6418SOL     OW30715   2.870   2.277   7.373  0.3742  0.1828  0.4780
 6418SOL    HW130716   2.886   2.357   7.322  0.0415 -0.6794 -0.9516
 6418SOL    HW230717   2.948   2.227   7.347 -1.7646 -2.8231 -0.0534
 6419SOL     OW30718   3.437   2.589   5.985  0.0062  0.4042  0.1123
 6419SOL    HW130719   3.510   2.632   5.941  0.7912 -0.8525  0.1927
 6419SOL    HW230720   3.371   2.629   5.929  0.0344 -1.7184 -1.4047
 6420SOL     OW30721   2.518   3.805  14.606  0.4556  0.6709  0.4939
 6420SOL    HW130722   2.483   3.888  14.572 -2.3334 -1.2946 -1.4286
 6420SOL    HW230723   2.611   3.827  14.597  0.3552  1.0966  0.4739
 6421SOL     OW30724   3.558   2.047   1.847  0.1767  0.3225 -0.4623
 6421SOL    HW130725   3.516   2.124   1.885 -1.7816 -0.3497 -1.2650
 6421SOL    HW230726   3.634   2.089   1.806 -0.5819  1.5209 -0.6369
 6422SOL     OW30727   0.657   1.137   2.809  0.7459 -0.5153  0.0012
 6422SOL    HW130728   0.654   1.232   2.821  2.7736 -0.2694 -1.3804
 6422SOL    HW230729   0.712   1.129   2.731  0.1878  1.2168 -0.5526
 6423SOL     OW30730   0.321   3.645   9.284  0.3480 -0.1732  0.2309
 6423SOL    HW130731   0.312   3.676   9.374  0.8645 -1.5147  0.7479
 6423SOL    HW230732   0.251   3.681   9.230 -2.2078 -1.6088  2.5953
 6424SOL     OW30733   0.874   1.557   4.086 -0.0097 -0.6501 -0.0364
 6424SOL    HW130734   0.808   1.493   4.061 -0.5521  0.2752 -1.0059
 6424SOL    HW230735   0.864   1.574   4.179 -0.1785 -3.1858  0.3822
 6425SOL     OW30736   3.763   4.685   2.629  0.7963  0.2481 -0.4409
 6425SOL    HW130737   3.730   4.602   2.594  2.8897 -0.9603  0.4251
 6425SOL    HW230738   3.733   0.015   2.559  0.9321 -0.1084 -0.7895
 6426SOL     OW30739   3.643   3.414   5.822 -0.2764  0.0647 -0.0590
 6426SOL    HW130740   3.682   3.419   5.909 -1.6023  0.9118  0.5037
 6426SOL    HW230741   3.639   3.319   5.819 -0.0641  0.0534  0.0450
 6427SOL     OW30742   4.136   1.754   0.172  0.4653 -0.7359  0.3599
 6427SOL    HW130743   4.065   1.798   0.218  1.7030  1.7880 -0.1728
 6427SOL    HW230744   4.201   1.734   0.239 -0.0016 -0.3993  0.9039
 6428SOL     OW30745   4.005   2.922   5.053 -0.5607  0.3137 -0.7368
 6428SOL    HW130746   4.010   2.831   5.023  0.0703  0.1159 -0.0086
 6428SOL    HW230747   4.055   2.910   5.133  1.2580  0.7719 -1.8105
 6429SOL     OW30748   2.688   0.848  15.082 -0.4257  0.0044  0.5904
 6429SOL    HW130749   2.777   0.868  15.109 -1.5109  2.5719  2.2723
 6429SOL    HW230750   2.691   0.755  15.102  0.9135  0.2731  1.6448
 6430SOL     OW30751   4.432   3.854   6.588  0.6895 -0.0980 -0.5887
 6430SOL    HW130752   4.467   3.916   6.652 -0.2337 -0.1813 -0.0063
 6430SOL    HW230753   4.358   3.817   6.636  1.0866 -0.8039 -0.5285
 6431SOL     OW30754   1.192   2.333   3.277 -0.4909 -0.6249  0.2520
 6431SOL    HW130755   1.125   2.290   3.329 -0.9332 -1.4029 -0.9558
 6431SOL    HW230756   1.266   2.301   3.329  0.8205  0.4650 -0.9221
 6432SOL     OW30757   1.520   1.648   4.331 -0.3388 -0.2421  0.6232
 6432SOL    HW130758   1.473   1.570   4.361 -0.1988 -0.3445  0.5721
 6432SOL    HW230759   1.450   1.711   4.351 -1.5022 -0.5417 -2.4129
 6433SOL     OW30760   4.624   1.108  12.410 -0.4429  0.4114 -0.2143
 6433SOL    HW130761   4.654   1.198  12.395 -1.6766  1.2140  2.2309
 6433SOL    HW230762   4.567   1.107  12.486  1.0089 -1.1336  0.8485
 6434SOL     OW30763   3.743   4.369   1.645  0.0410 -0.2737  0.1648
 6434SOL    HW130764   3.755   4.356   1.551  0.5097 -0.5185  0.2609
 6434SOL    HW230765   3.836   4.360   1.666  0.2901 -2.0612 -1.7690
 6435SOL     OW30766   1.930   3.602   8.381  0.4838 -0.4407  0.6579
 6435SOL    HW130767   1.863   3.608   8.449 -0.0954 -1.7215  0.1991
 6435SOL    HW230768   1.959   3.693   8.373 -0.9335  0.0843  1.6257
 6436SOL     OW30769   2.137   2.922  14.245 -0.4229 -0.0358 -0.4540
 6436SOL    HW130770   2.193   2.847  14.261  2.2305  1.8889 -0.7526
 6436SOL    HW230771   2.122   2.961  14.331  0.5266 -1.1688  0.2201
 6437SOL     OW30772   2.813   4.301  12.728  0.1135  0.0813 -0.5999
 6437SOL    HW130773   2.863   4.356  12.669  1.0529  0.3671  0.4833
 6437SOL    HW230774   2.870   4.226  12.711 -1.2296 -1.0821  0.0330
 6438SOL     OW30775   4.228   2.374   2.698 -1.0075 -0.2705  0.9320
 6438SOL    HW130776   4.227   2.309   2.627  3.0956 -0.8537  1.3835
 6438SOL    HW230777   4.164   2.437   2.665 -1.5309 -1.1157  0.3228
 6439SOL     OW30778   1.274   3.443   0.582  0.4236 -0.1659 -0.2323
 6439SOL    HW130779   1.306   3.439   0.673  1.1980  0.2087 -0.4849
 6439SOL    HW230780   1.316   3.371   0.534  2.2688  0.2307  0.7889
 6440SOL     OW30781   0.821   1.583  16.615 -0.0398  0.5400 -0.2766
 6440SOL    HW130782   0.799   1.490  16.612 -0.2765  0.6539 -1.8242
 6440SOL    HW230783   0.754   1.616  16.555  0.5110 -0.8905 -1.6724
 6441SOL     OW30784   4.367   2.467   5.777  0.0703 -0.6804  0.2626
 6441SOL    HW130785   4.454   2.474   5.738  0.4358  3.8053  1.9243
 6441SOL    HW230786   4.384   2.524   5.852 -2.6878 -0.2832  0.5886
 6442SOL     OW30787   0.408   3.745   0.589  0.5093  0.2667 -0.6294
 6442SOL    HW130788   0.453   3.783   0.665 -1.3297  0.3497  0.4431
 6442SOL    HW230789   0.371   3.668   0.633  0.2220  0.6772 -0.1586
 6443SOL     OW30790   1.041   3.615   2.697  0.1735 -0.0323 -0.0604
 6443SOL    HW130791   1.062   3.584   2.609 -1.1213 -0.4282 -0.2226
 6443SOL    HW230792   0.984   3.551   2.739 -0.3105  0.8335  0.5813
 6444SOL     OW30793   0.576   4.009   8.860 -0.0140 -0.4803  0.3290
 6444SOL    HW130794   0.490   4.027   8.822  0.3896  0.4164 -0.1579
 6444SOL    HW230795   0.548   3.968   8.942 -1.5733  1.4903  0.7774
 6445SOL     OW30796   0.869   4.149   2.893 -0.5080  0.7143  0.3579
 6445SOL    HW130797   0.778   4.121   2.896  0.4823 -2.1650  2.3777
 6445SOL    HW230798   0.871   4.245   2.887 -0.7096  0.6524 -0.6749
 6446SOL     OW30799   3.716   2.692   2.397  0.3753 -0.2849  0.3246
 6446SOL    HW130800   3.764   2.720   2.319 -0.3119 -1.6207 -0.5841
 6446SOL    HW230801   3.662   2.626   2.353  0.0124  0.7044 -0.7036
 6447SOL     OW30802   1.472   4.560   5.185 -0.0924 -0.3996  0.9136
 6447SOL    HW130803   1.393   4.614   5.181 -0.5737 -1.1171  0.7134
 6447SOL    HW230804   1.505   4.551   5.095 -2.7865 -1.0728  0.0013
 6448SOL     OW30805   2.367   0.979   6.057 -0.1140 -0.1541 -0.3632
 6448SOL    HW130806   2.357   0.886   6.076 -2.0313 -0.0058 -0.6895
 6448SOL    HW230807   2.377   1.019   6.143 -0.8885  1.3264 -0.9693
 6449SOL     OW30808   3.943   2.035   5.351  0.0803 -0.3023  0.5806
 6449SOL    HW130809   4.021   2.090   5.356 -1.6652  2.1675  0.6244
 6449SOL    HW230810   3.977   1.946   5.336  1.2733  0.1556  0.5714
 6450SOL     OW30811   1.189   1.329  10.581  0.2646 -0.4147  0.0949
 6450SOL    HW130812   1.221   1.397  10.521 -2.0081  1.0557  0.5043
 6450SOL    HW230813   1.198   1.251  10.527  0.4100 -0.5560  0.3247
 6451SOL     OW30814   3.956   1.112   6.447 -0.2789 -0.0845 -0.2140
 6451SOL    HW130815   3.918   1.197   6.425 -0.7572 -0.3680 -0.4821
 6451SOL    HW230816   3.958   1.070   6.361  2.7266 -2.1295  0.8547
 6452SOL     OW30817   0.989   0.310   5.295 -0.5337 -0.0628 -0.4876
 6452SOL    HW130818   1.007   0.228   5.341  0.3469  0.4781  0.1483
 6452SOL    HW230819   1.048   0.375   5.335  0.2122  0.0033 -1.7005
 6453SOL     OW30820   4.648   2.932   1.069 -0.1543 -0.3467  0.1728
 6453SOL    HW130821   4.686   2.984   0.998 -1.3937  1.6492  0.9555
 6453SOL    HW230822   4.553   2.925   1.056 -0.0783 -3.2126  1.2119
 6454SOL     OW30823   0.330   3.948   3.668 -0.0504 -0.0643 -0.4604
 6454SOL    HW130824   0.420   3.950   3.636 -0.1641 -0.5156 -0.8161
 6454SOL    HW230825   0.293   4.021   3.618  0.6507  0.7578  0.2084
 6455SOL     OW30826   4.546   0.623   8.097  0.2609 -0.5013  0.3661
 6455SOL    HW130827   4.467   0.575   8.072 -0.2189  1.2016 -1.3764
 6455SOL    HW230828   4.603   0.612   8.021  0.8253  1.4682  0.5072
 6456SOL     OW30829   0.915   4.268   9.811 -0.4269 -0.1581  0.2915
 6456SOL    HW130830   0.881   4.186   9.775 -0.0347 -0.3633  0.3795
 6456SOL    HW230831   0.842   4.328   9.820  0.5690  0.7741  2.2137
 6457SOL     OW30832   2.720   2.431   6.004  0.0357  0.0202  0.2523
 6457SOL    HW130833   2.645   2.446   5.947  2.0649  1.7462 -1.9776
 6457SOL    HW230834   2.788   2.409   5.940  0.4106 -0.9989  0.9937
 6458SOL     OW30835   2.249   0.123   2.625  0.5733  0.5880 -0.0649
 6458SOL    HW130836   2.291   0.079   2.551  0.7927  0.9539 -0.1600
 6458SOL    HW230837   2.320   0.136   2.688 -0.9834 -0.7921  2.0048
 6459SOL     OW30838   4.281   3.455   4.510  0.4453  0.1545 -0.2131
 6459SOL    HW130839   4.339   3.523   4.545 -0.1733 -0.1981  1.4901
 6459SOL    HW230840   4.258   3.407   4.590  2.4804  1.2305  1.0060
 6460SOL     OW30841   4.309   4.161   2.430  0.5058  0.1757 -0.2511
 6460SOL    HW130842   4.264   4.153   2.514 -0.4228 -1.0083 -0.8580
 6460SOL    HW230843   4.239   4.150   2.367 -1.6270  0.7701  2.0053
 6461SOL     OW30844   2.454   2.837   0.074 -0.3886 -0.6310 -0.5662
 6461SOL    HW130845   2.375   2.853   0.126  0.2338  0.5352  0.0267
 6461SOL    HW230846   2.455   2.924   0.035 -0.6960 -0.9172 -1.2103
 6462SOL     OW30847   1.699   1.400   6.166  0.1443  0.1582  0.0218
 6462SOL    HW130848   1.781   1.391   6.118 -1.2620 -0.2208 -2.2972
 6462SOL    HW230849   1.644   1.345   6.111  1.6321  0.1035 -1.4355
 6463SOL     OW30850   4.005   3.352   7.189 -0.4374 -0.9102 -0.0202
 6463SOL    HW130851   4.073   3.299   7.232  0.6557  0.1683 -0.4213
 6463SOL    HW230852   4.014   3.313   7.102  0.0216  0.7791 -0.7190
 6464SOL     OW30853   4.166   2.231   8.037 -0.1284 -0.0326 -0.4129
 6464SOL    HW130854   4.201   2.221   7.948 -0.1589 -1.1743 -0.2912
 6464SOL    HW230855   4.238   2.281   8.075 -0.8891 -0.3696  1.4593
 6465SOL     OW30856   4.469   3.727   2.598 -0.0337  0.1685 -0.0849
 6465SOL    HW130857   4.490   3.812   2.559 -0.7449 -0.6194 -2.2215
 6465SOL    HW230858   4.414   3.742   2.674 -0.5723  1.3370 -0.6963
 6466SOL     OW30859   2.760   2.554   2.797 -0.4174  0.1122  0.3495
 6466SOL    HW130860   2.706   2.481   2.767  0.2141 -0.1690 -0.1108
 6466SOL    HW230861   2.692   2.619   2.814 -0.2001  0.5723 -0.5290
 6467SOL     OW30862   4.445   3.287   5.758  1.0852  0.7680 -0.0025
 6467SOL    HW130863   4.522   3.338   5.784  1.1559  0.8454 -0.3641
 6467SOL    HW230864   4.372   3.326   5.805  1.0914 -0.0541  0.7038
 6468SOL     OW30865   3.198   0.503   6.426  0.2008  0.0748  0.0256
 6468SOL    HW130866   3.268   0.485   6.363  1.9917 -1.6071  2.4858
 6468SOL    HW230867   3.183   0.595   6.403 -0.3660  0.4941  2.0583
 6469SOL     OW30868   2.395   3.460   2.125  0.3527 -0.4573 -0.6600
 6469SOL    HW130869   2.356   3.457   2.213 -1.6072 -0.2580 -1.5283
 6469SOL    HW230870   2.489   3.460   2.142  0.1639  0.0029  0.3946
 6470SOL     OW30871   4.499   4.102  17.255  1.1181  0.4070  0.1926
 6470SOL    HW130872   4.456   4.016  17.243  0.2903  0.8739 -0.2151
 6470SOL    HW230873   4.423   4.150  17.288  0.0599 -1.1698  0.1000
 6471SOL     OW30874   1.394   1.485   3.796 -0.4259  0.0252  0.1934
 6471SOL    HW130875   1.351   1.547   3.736 -2.1299  2.1230  3.6251
 6471SOL    HW230876   1.381   1.510   3.887 -0.2650  0.2533  0.1544
 6472SOL     OW30877   0.036   0.909   7.809 -0.4705 -0.0768  0.4998
 6472SOL    HW130878   4.715   0.931   7.889  0.1077  0.7487  0.6306
 6472SOL    HW230879   0.007   0.818   7.801  1.6958 -0.7367  0.0222
 6473SOL     OW30880   0.074   4.211   3.125  0.4658 -0.5565  0.2713
 6473SOL    HW130881   0.064   4.306   3.137 -1.5826 -0.8654  0.9642
 6473SOL    HW230882   0.016   4.178   3.193 -0.6287 -0.2257 -0.4951
 6474SOL     OW30883   3.847   4.724  16.042  0.6935 -0.7441 -0.1291
 6474SOL    HW130884   3.811   0.082  16.067 -1.1264 -0.9178 -2.0870
 6474SOL    HW230885   3.815   4.671  16.115  2.1557 -1.6451 -0.1516
 6475SOL     OW30886   2.337   3.422  17.405 -0.2513 -0.6477  0.6184
 6475SOL    HW130887   2.392   3.420  17.483  2.1138  2.4934 -0.9285
 6475SOL    HW230888   2.393   3.425  17.327 -0.8827  0.2069  0.1845
 6476SOL     OW30889   3.875   1.411   6.400 -0.2806  0.1301 -0.0621
 6476SOL    HW130890   3.872   1.398   6.305 -2.9593 -0.2429  0.0555
 6476SOL    HW230891   3.925   1.493   6.404 -1.8580  1.0713  0.8478
 6477SOL     OW30892   0.190   3.291   6.502 -0.8362 -0.4281  0.2629
 6477SOL    HW130893   0.271   3.343   6.498 -1.7986  0.9452 -1.6923
 6477SOL    HW230894   0.221   3.233   6.571  1.0237 -0.3333 -0.4905
 6478SOL     OW30895   1.228   1.262   3.224 -0.4212 -0.4397  0.0828
 6478SOL    HW130896   1.175   1.192   3.188 -1.6819 -0.5561  2.1649
 6478SOL    HW230897   1.297   1.210   3.267 -0.7752 -1.5529 -0.7024
 6479SOL     OW30898   0.734   3.241   1.201  0.0589 -0.4742  0.1658
 6479SOL    HW130899   0.827   3.245   1.224  0.2953 -0.1002 -0.8765
 6479SOL    HW230900   0.739   3.203   1.114  2.1429  0.6561 -0.2140
 6480SOL     OW30901   1.689   2.620   4.668  0.3382 -0.4242 -0.1175
 6480SOL    HW130902   1.616   2.655   4.719  1.3253  1.5333 -0.0532
 6480SOL    HW230903   1.727   2.555   4.727 -0.8140 -0.8020  0.2105
 6481SOL     OW30904   4.408   4.261   4.498  0.0773 -0.7761  0.4324
 6481SOL    HW130905   4.419   4.325   4.427 -1.7748 -1.3137 -0.3335
 6481SOL    HW230906   4.357   4.310   4.563  1.2807 -1.0277  1.5624
 6482SOL     OW30907   0.126   4.446   5.152 -0.4833  0.1085 -0.1302
 6482SOL    HW130908   0.157   4.397   5.228  3.0027  0.2051 -1.4950
 6482SOL    HW230909   0.155   4.394   5.077  0.1721 -0.0462  0.2374
 6483SOL     OW30910   3.496   2.732   5.543 -0.1958 -0.5049 -0.2575
 6483SOL    HW130911   3.527   2.819   5.518  0.0304 -1.7056 -4.1339
 6483SOL    HW230912   3.408   2.759   5.569  0.9334  4.1592 -1.3371
 6484SOL     OW30913   0.003   0.669  13.716  0.0180 -0.6680 -0.0166
 6484SOL    HW130914   4.641   0.685  13.687 -0.3162  2.6783  2.9086
 6484SOL    HW230915   0.046   0.744  13.676 -0.6913 -0.4051 -0.2808
 6485SOL     OW30916   1.484   1.787   7.216  0.3833 -0.7607  0.4281
 6485SOL    HW130917   1.469   1.875   7.183  3.6287 -0.3391  0.0073
 6485SOL    HW230918   1.468   1.730   7.142 -2.3579  2.8321 -1.7230
 6486SOL     OW30919   0.140   0.946  13.254  0.1809 -0.3616  0.3502
 6486SOL    HW130920   0.090   1.027  13.265  1.1544  0.3666 -0.6368
 6486SOL    HW230921   0.224   0.974  13.219 -0.6081  0.2498 -1.0781
 6487SOL     OW30922   3.077   0.547   3.238  0.0940 -0.8003  0.3210
 6487SOL    HW130923   3.037   0.541   3.324 -1.1395 -0.7741 -0.2463
 6487SOL    HW230924   3.165   0.571   3.265  0.9382 -1.8658 -1.5124
 6488SOL     OW30925   3.271   2.152   7.045 -0.7923  0.0470 -0.3019
 6488SOL    HW130926   3.344   2.214   7.039 -0.6084 -0.5046 -3.6108
 6488SOL    HW230927   3.325   2.074   7.033 -0.1147  0.2682  1.2128
 6489SOL     OW30928   2.145   4.620  12.146 -1.0264  0.4213 -0.2879
 6489SOL    HW130929   2.172   4.529  12.135 -0.1287  0.8022 -1.2473
 6489SOL    HW230930   2.181   4.661  12.067 -3.0035  2.9212  0.1168
 6490SOL     OW30931   0.441   0.349   1.583 -0.6416  0.1467  0.2791
 6490SOL    HW130932   0.456   0.277   1.521  4.3865  0.3300  1.2890
 6490SOL    HW230933   0.384   0.299   1.642 -0.6314 -1.0483 -0.7138
 6491SOL     OW30934   0.737   4.252   2.598  0.7489  0.2828 -0.1958
 6491SOL    HW130935   0.648   4.239   2.630  0.5961  0.0155 -0.7164
 6491SOL    HW230936   0.731   4.215   2.509  0.1593  0.2890 -0.1620
 6492SOL     OW30937   4.073   1.091  11.088  0.2706  0.2568 -0.2135
 6492SOL    HW130938   4.052   1.091  10.994  0.1562 -3.2089 -0.1830
 6492SOL    HW230939   4.162   1.056  11.082  0.3403  0.5698 -1.1388
 6493SOL     OW30940   2.070   2.702   2.301 -0.1502  0.0117 -0.3828
 6493SOL    HW130941   2.080   2.622   2.352  1.6645  0.2218 -0.4072
 6493SOL    HW230942   2.128   2.686   2.227 -1.1061 -1.0935 -0.8870
 6494SOL     OW30943   2.011   3.361   3.535  0.0806 -0.1686 -0.2732
 6494SOL    HW130944   2.009   3.330   3.626 -2.0225  0.1147 -0.2163
 6494SOL    HW230945   2.105   3.346   3.526  0.7761  1.9163  3.1847
 6495SOL     OW30946   0.008   3.383   5.382 -0.2021  0.1542  0.0018
 6495SOL    HW130947   0.049   3.444   5.321  1.1445  0.8795  1.6263
 6495SOL    HW230948   0.066   3.388   5.458  0.7643  1.6430 -0.8494
 6496SOL     OW30949   1.623   3.842   1.071  0.5369 -0.0791 -0.1858
 6496SOL    HW130950   1.635   3.772   1.006  1.0539 -0.0755 -0.0929
 6496SOL    HW230951   1.646   3.787   1.146 -1.5019 -0.0218  0.4769
 6497SOL     OW30952   3.605   2.189   0.870 -0.3482 -0.1400 -0.6294
 6497SOL    HW130953   3.538   2.142   0.821  0.7320 -2.5891  0.2621
 6497SOL    HW230954   3.659   2.117   0.904 -0.6766  0.0551  0.3016
 6498SOL     OW30955   2.584   2.309  12.896 -0.1835  0.7482  0.4162
 6498SOL    HW130956   2.533   2.305  12.815 -0.6254  0.4578  0.7066
 6498SOL    HW230957   2.650   2.378  12.889 -0.1714  0.6951  0.0388
 6499SOL     OW30958   1.524   1.850  11.763  0.3450 -0.5163 -0.0819
 6499SOL    HW130959   1.454   1.910  11.737  1.3968  0.2716 -1.0649
 6499SOL    HW230960   1.493   1.766  11.730 -0.0954 -0.5516  0.4220
 6500SOL     OW30961   2.465   0.349   3.007  0.0913  0.3492  0.1705
 6500SOL    HW130962   2.489   0.439   3.029  2.2572  0.2005 -1.5219
 6500SOL    HW230963   2.531   0.308   3.063 -0.5637 -0.8160  0.0885
 6501SOL     OW30964   1.136   4.257   5.771 -0.6478  0.4056  0.2722
 6501SOL    HW130965   1.214   4.300   5.806 -0.9807 -0.3892  2.0175
 6501SOL    HW230966   1.154   4.266   5.678  0.5249 -2.7351  0.1783
 6502SOL     OW30967   4.215   4.080   3.042 -0.2740  0.2977 -0.2304
 6502SOL    HW130968   4.134   4.104   3.088  0.1347  0.8183  0.2092
 6502SOL    HW230969   4.226   3.987   3.064 -0.3672 -0.9031 -5.1740
 6503SOL     OW30970   4.207   1.076   6.599  0.2454 -0.3072 -0.3659
 6503SOL    HW130971   4.127   1.107   6.555  2.2791 -0.2892 -4.0331
 6503SOL    HW230972   4.266   1.074   6.524  0.9480 -1.6416  0.2398
 6504SOL     OW30973   1.469   3.250   1.982 -0.0883 -0.3365 -0.0560
 6504SOL    HW130974   1.387   3.294   1.960 -0.8851 -2.2646 -0.9898
 6504SOL    HW230975   1.464   3.165   1.938  1.6215  0.2959 -1.4516
 6505SOL     OW30976   3.375   2.563   1.081 -0.1239  0.5302 -0.0880
 6505SOL    HW130977   3.464   2.560   1.044 -0.1858 -1.2256 -0.1116
 6505SOL    HW230978   3.325   2.594   1.006 -2.4073 -0.8071  0.8619
 6506SOL     OW30979   0.597   1.467   2.536  0.1042 -0.1137  0.2489
 6506SOL    HW130980   0.684   1.449   2.573  0.6655  1.2894 -0.3702
 6506SOL    HW230981   0.608   1.427   2.449  0.4960  1.5363 -0.4648
 6507SOL     OW30982   4.047   0.351   3.193 -0.0703  0.0723  0.0239
 6507SOL    HW130983   3.974   0.398   3.234  0.3710  0.9974 -0.2551
 6507SOL    HW230984   4.110   0.377   3.259  0.7127  0.6063 -0.9365
 6508SOL     OW30985   0.190   4.115   5.574  0.0137 -0.2733  0.1022
 6508SOL    HW130986   0.099   4.085   5.575  0.2499 -0.9687  0.4588
 6508SOL    HW230987   0.188   4.162   5.657 -0.5479  2.8177 -1.6279
 6509SOL     OW30988   2.798   1.508   5.696  0.1706  0.2493 -0.5801
 6509SOL    HW130989   2.887   1.541   5.711 -0.3673  1.3761  0.0501
 6509SOL    HW230990   2.812   1.447   5.623 -1.9597 -1.6102  0.5922
 6510SOL     OW30991   4.123   3.061   6.109  0.4626  0.0368 -0.2963
 6510SOL    HW130992   4.211   3.066   6.072  0.2127 -0.6085 -0.9878
 6510SOL    HW230993   4.148   3.040   6.199 -0.6373  0.7882  0.1757
 6511SOL     OW30994   3.167   4.127   2.842 -0.6291  0.2492  0.0478
 6511SOL    HW130995   3.100   4.186   2.876  0.0927  2.5029 -2.4196
 6511SOL    HW230996   3.139   4.114   2.751  3.7022 -1.0358 -1.0858
 6512SOL     OW30997   2.873   2.987  17.666 -0.4181 -0.0394  0.8545
 6512SOL    HW130998   2.938   2.997  17.596 -0.3564  0.3144  0.9642
 6512SOL    HW230999   2.883   3.075  17.700  1.3332 -0.1646  0.6782
 6513SOL     OW31000   2.103   3.154   9.401 -0.1512  0.4881 -0.1023
 6513SOL    HW131001   2.139   3.067   9.414  3.5191  1.9677 -0.4650
 6513SOL    HW231002   2.119   3.191   9.488 -1.7203  0.8740  0.0161
 6514SOL     OW31003   4.069   2.524  13.098 -0.1427 -0.4090 -0.4552
 6514SOL    HW131004   4.076   2.429  13.106 -0.9506 -0.6063 -2.0275
 6514SOL    HW231005   4.126   2.545  13.024  1.0028 -0.8043  0.3326
 6515SOL     OW31006   1.385   2.835  15.249  0.2586 -0.3327 -0.5849
 6515SOL    HW131007   1.472   2.863  15.276 -0.6689  0.9097  1.1284
 6515SOL    HW231008   1.393   2.750  15.206  0.9356  0.7599 -2.6035
 6516SOL     OW31009   1.176   3.900  11.269  0.1499  0.4426 -0.1599
 6516SOL    HW131010   1.197   3.848  11.192  0.3303  1.5678 -0.8620
 6516SOL    HW231011   1.194   3.985  11.231  1.1257  1.3528  2.3263
 6517SOL     OW31012   2.166   3.691   2.027  0.5918 -0.2666  0.0268
 6517SOL    HW131013   2.215   3.612   2.008  4.4564  2.3425 -0.7708
 6517SOL    HW231014   2.129   3.670   2.113 -0.3818  0.0769 -0.3119
 6518SOL     OW31015   4.318   0.227   8.135 -0.2207 -0.3248 -0.2732
 6518SOL    HW131016   4.350   0.162   8.198  1.5029  1.1908  0.3932
 6518SOL    HW231017   4.229   0.246   8.163  0.1338  1.4031 -0.3377
 6519SOL     OW31018   1.482   2.265   8.634 -0.2223 -0.7576 -0.1322
 6519SOL    HW131019   1.443   2.243   8.718 -2.1363 -0.0291 -0.8476
 6519SOL    HW231020   1.574   2.265   8.661 -0.1864 -0.1909 -0.2470
 6520SOL     OW31021   2.687   0.709   3.589  0.5021 -0.6979  0.0444
 6520SOL    HW131022   2.668   0.754   3.672 -0.1871 -1.6238  0.3936
 6520SOL    HW231023   2.613   0.736   3.535  0.7227  1.2960  0.7166
 6521SOL     OW31024   1.246   3.081   2.467 -0.1285 -0.2064  0.1292
 6521SOL    HW131025   1.266   3.096   2.560 -0.4210 -0.7823  0.2887
 6521SOL    HW231026   1.272   3.165   2.430 -0.5243  0.2744  0.9161
 6522SOL     OW31027   0.636   4.547   9.116 -0.5010 -0.3449 -0.2067
 6522SOL    HW131028   0.559   4.519   9.065 -1.9668  2.0295  0.7513
 6522SOL    HW231029   0.606   4.524   9.204  1.6365  1.0154  0.8411
 6523SOL     OW31030   4.054   3.606   5.889 -0.1778 -0.4126 -0.1666
 6523SOL    HW131031   4.019   3.516   5.889  0.1533 -0.5460  0.3892
 6523SOL    HW231032   3.978   3.655   5.921  0.9671  1.3539 -0.1574
 6524SOL     OW31033   4.542   0.166   0.993  0.3927 -0.3621 -0.4931
 6524SOL    HW131034   4.608   0.234   1.007 -1.9736  1.9519 -0.5605
 6524SOL    HW231035   4.500   0.185   0.909 -1.7797  1.7874  1.0705
 6525SOL     OW31036   1.333   2.136   8.861 -0.0622  0.2882 -0.0608
 6525SOL    HW131037   1.271   2.127   8.934  1.3601  0.5025  1.1934
 6525SOL    HW231038   1.408   2.081   8.887 -0.4571 -0.5860 -0.7830
 6526SOL     OW31039   1.594   3.574  13.219 -0.0551 -0.6838 -0.1854
 6526SOL    HW131040   1.627   3.565  13.129  0.8182  1.6690 -0.0930
 6526SOL    HW231041   1.537   3.498  13.228 -0.2720 -0.4702  0.2684
 6527SOL     OW31042   0.523   0.238   2.778  0.2446  0.0192  0.0941
 6527SOL    HW131043   0.453   0.274   2.724 -0.3003 -1.3200 -0.0910
 6527SOL    HW231044   0.585   0.311   2.773  0.4439 -0.0797  1.0131
 6528SOL     OW31045   2.361   3.188   1.569 -0.2005  0.4670 -0.3937
 6528SOL    HW131046   2.292   3.123   1.560  1.7111 -1.4230 -1.4012
 6528SOL    HW231047   2.319   3.274   1.564  0.6308  0.9108  0.1846
 6529SOL     OW31048   2.558   0.843  15.659 -0.0180 -0.1255  0.3005
 6529SOL    HW131049   2.512   0.908  15.713 -0.8123 -0.4070 -0.0373
 6529SOL    HW231050   2.630   0.886  15.612 -0.8128  2.1033  1.1097
 6530SOL     OW31051   3.774   1.957   7.571  0.1444 -0.6481  0.2826
 6530SOL    HW131052   3.687   1.972   7.608  1.0885  3.1278  0.9691
 6530SOL    HW231053   3.819   2.036   7.599  0.2762 -0.2647 -1.0148
 6531SOL     OW31054   2.770   0.321   2.893 -0.4574  0.5056 -0.4528
 6531SOL    HW131055   2.746   0.292   2.981 -1.1093  2.7233  0.1000
 6531SOL    HW231056   2.842   0.377   2.921  0.8653 -1.1079 -0.5875
 6532SOL     OW31057   1.140   2.585   5.489 -0.3367  0.3926  0.0417
 6532SOL    HW131058   1.180   2.511   5.534 -1.6556 -0.5204 -0.3021
 6532SOL    HW231059   1.181   2.664   5.525  0.8280  0.8026 -2.2177
 6533SOL     OW31060   1.172   3.153   6.820 -0.1077  0.3098 -0.3460
 6533SOL    HW131061   1.242   3.198   6.772 -0.4625  0.8463 -0.3665
 6533SOL    HW231062   1.158   3.072   6.771  2.3424 -0.2779 -0.0688
 6534SOL     OW31063   4.244   0.171  14.648 -0.2038 -0.7824 -0.3493
 6534SOL    HW131064   4.183   0.187  14.720  0.7864 -0.7528  0.4701
 6534SOL    HW231065   4.245   0.265  14.625  0.7133 -1.4726 -3.1599
 6535SOL     OW31066   1.857   4.194   2.986 -0.0618  0.4405 -0.5323
 6535SOL    HW131067   1.823   4.123   2.931  0.4798 -0.8299  0.7794
 6535SOL    HW231068   1.898   4.248   2.919 -0.0487  1.0826 -0.0114
 6536SOL     OW31069   2.615   3.909   4.504  0.3850 -0.0391  0.1529
 6536SOL    HW131070   2.632   3.977   4.440 -3.6764  1.3206  0.4927
 6536SOL    HW231071   2.598   3.967   4.579 -0.7555  0.6326 -0.6360
 6537SOL     OW31072   3.398   2.038  16.366  0.3336  0.1495  0.3998
 6537SOL    HW131073   3.421   2.040  16.273  0.8430 -0.4047  0.5126
 6537SOL    HW231074   3.303   2.041  16.359  0.6273  2.5569 -2.2870
 6538SOL     OW31075   1.774   3.719   2.764 -0.3791 -0.0273  0.3776
 6538SOL    HW131076   1.777   3.627   2.791  0.5502  0.8959  3.4547
 6538SOL    HW231077   1.719   3.712   2.687  1.2407 -0.5798 -0.7375
 6539SOL     OW31078   2.057   2.786   8.548 -0.1618 -0.4501  0.4255
 6539SOL    HW131079   1.972   2.776   8.507 -0.2274 -1.8714  0.9220
 6539SOL    HW231080   2.115   2.792   8.471  0.8167  0.7014  1.2414
 6540SOL     OW31081   3.953   2.020   6.301  1.0479  0.3874 -0.0045
 6540SOL    HW131082   3.970   2.107   6.265 -0.0328  0.9349  0.7804
 6540SOL    HW231083   3.903   1.982   6.229  4.0626 -1.4614 -1.1109
 6541SOL     OW31084   3.951   2.961   2.953  0.0085  0.2308  0.0206
 6541SOL    HW131085   3.928   3.002   3.036 -0.0662 -2.4416  1.3368
 6541SOL    HW231086   4.021   2.907   2.991  0.9888  0.8854 -0.8481
 6542SOL     OW31087   0.826   1.444   6.238  0.6986 -0.6124  0.6521
 6542SOL    HW131088   0.867   1.388   6.305  1.3065  0.7037  1.3751
 6542SOL    HW231089   0.741   1.463   6.279 -0.2698  0.7565 -1.9744
 6543SOL     OW31090   1.893   4.191  13.797  0.3368  0.2410 -0.3614
 6543SOL    HW131091   1.841   4.189  13.877  0.3098  0.8842 -0.3679
 6543SOL    HW231092   1.832   4.237  13.740 -0.3355  0.6750  0.7298
 6544SOL     OW31093   4.551   1.509   8.212  0.1845  0.0897 -0.3158
 6544SOL    HW131094   4.470   1.476   8.251  0.3418  1.4244  1.1207
 6544SOL    HW231095   4.523   1.497   8.121  1.9248  0.2037 -0.8695
 6545SOL     OW31096   2.327   3.240   4.555 -0.5127  0.2257  0.4866
 6545SOL    HW131097   2.365   3.161   4.516 -1.4410  0.4108 -0.8191
 6545SOL    HW231098   2.394   3.255   4.621  0.2975 -1.2703  0.0041
 6546SOL     OW31099   2.844   3.954   8.695 -0.1675  0.0555 -0.6424
 6546SOL    HW131100   2.815   3.982   8.782  0.1338 -1.5035 -0.0392
 6546SOL    HW231101   2.938   3.964   8.708 -0.2995  0.1190  0.2692
 6547SOL     OW31102   3.630   0.178   8.292 -0.3359  0.2037 -0.1738
 6547SOL    HW131103   3.655   0.142   8.377 -0.1783  0.6068 -0.0499
 6547SOL    HW231104   3.654   0.111   8.228 -2.9040 -0.1232 -0.8040
 6548SOL     OW31105   0.528   1.081   1.873  0.0442 -0.1527  0.0418
 6548SOL    HW131106   0.520   1.129   1.791  2.0088  0.5476  0.2714
 6548SOL    HW231107   0.602   1.021   1.863  0.5679  0.3190  1.0780
 6549SOL     OW31108   3.834   0.221   4.177  0.4456  0.0970  0.0785
 6549SOL    HW131109   3.890   0.236   4.253  0.4634  1.1893 -0.1509
 6549SOL    HW231110   3.847   0.304   4.133 -0.0062 -1.3440 -2.7737
 6550SOL     OW31111   4.590   0.616   1.257  0.2340  0.1497 -0.3455
 6550SOL    HW131112   4.648   0.692   1.250  0.8314 -0.0256  2.7378
 6550SOL    HW231113   4.543   0.621   1.173  0.0739 -1.6947 -0.3748
 6551SOL     OW31114   0.814   1.450   6.838  0.0222 -0.6376 -0.1733
 6551SOL    HW131115   0.745   1.451   6.772 -0.2164 -0.6283  0.0782
 6551SOL    HW231116   0.837   1.543   6.846  1.3122 -1.2140  2.7374
 6552SOL     OW31117   4.122   3.645   7.706 -0.2549 -0.0258 -0.0331
 6552SOL    HW131118   4.079   3.581   7.764  1.8475 -0.1660  1.3795
 6552SOL    HW231119   4.127   3.594   7.625  0.4892 -1.6977  1.0588
 6553SOL     OW31120   1.089   0.996   0.219  1.0217 -0.0894 -0.0447
 6553SOL    HW131121   1.140   1.048   0.281 -0.0134  1.0433 -0.1464
 6553SOL    HW231122   1.140   0.990   0.138  0.9598 -1.7848  0.0318
 6554SOL     OW31123   4.653   0.804   4.255 -0.3899  0.3536 -0.8957
 6554SOL    HW131124   4.659   0.741   4.327 -0.5914  0.2508 -0.9671
 6554SOL    HW231125   4.616   0.755   4.182 -0.4192 -0.4889 -0.3182
 6555SOL     OW31126   0.332   3.559  10.048 -0.3596 -0.4525  0.3256
 6555SOL    HW131127   0.338   3.506  10.128  2.9368 -1.5599 -0.6517
 6555SOL    HW231128   0.247   3.599  10.061  0.1904  0.1005  2.2272
 6556SOL     OW31129   2.833   4.563   3.073  0.5406 -0.2426  0.1883
 6556SOL    HW131130   2.923   4.576   3.044  1.1674 -1.9557  1.3772
 6556SOL    HW231131   2.793   4.649   3.056  1.1298  0.0081  0.0518
 6557SOL     OW31132   4.540   4.112  16.981  0.0181  0.2577 -0.7458
 6557SOL    HW131133   4.509   4.202  16.987 -0.8368 -0.0932  0.0971
 6557SOL    HW231134   4.546   4.088  17.073  0.6890  0.7353 -0.6618
 6558SOL     OW31135   3.225   4.379   3.566 -0.0833 -0.1218  0.1260
 6558SOL    HW131136   3.278   4.306   3.534  0.2153  1.5202 -3.1975
 6558SOL    HW231137   3.229   4.448   3.500 -2.4577  0.2526  0.3923
 6559SOL     OW31138   1.322   1.106   9.923 -0.1817 -0.2780 -0.3728
 6559SOL    HW131139   1.404   1.155   9.917 -0.9471  1.4977  3.4465
 6559SOL    HW231140   1.356   1.021   9.894 -2.0790 -1.1805  0.0774
 6560SOL     OW31141   1.157   1.424  14.068 -0.1612 -0.0364  0.1454
 6560SOL    HW131142   1.241   1.380  14.071 -0.5709 -0.8743 -0.6656
 6560SOL    HW231143   1.183   1.516  14.072 -2.2858  0.4193  3.6358
 6561SOL     OW31144   1.634   2.452  13.487  0.0587  0.1719 -0.2865
 6561SOL    HW131145   1.710   2.503  13.516  0.1212  0.7285 -1.4375
 6561SOL    HW231146   1.600   2.421  13.571 -1.5384  2.1637 -0.2127
 6562SOL     OW31147   4.689   4.666   2.647  0.2133  0.2824 -0.0349
 6562SOL    HW131148   0.028   4.669   2.579 -2.5710 -0.4245 -2.7548
 6562SOL    HW231149   4.612   4.643   2.596  0.6997 -1.8539  0.1592
 6563SOL     OW31150   2.478   0.822   6.309 -0.1305 -0.0517 -0.0679
 6563SOL    HW131151   2.436   0.886   6.367  1.3455  0.9390 -0.0896
 6563SOL    HW231152   2.568   0.850   6.328 -0.8478  0.9731  1.8382
 6564SOL     OW31153   3.702   1.943  14.689 -0.3386 -0.1301  0.4699
 6564SOL    HW131154   3.611   1.937  14.718 -0.1306  0.9347  1.3782
 6564SOL    HW231155   3.720   2.032  14.721  2.2184  0.2578 -2.0337
 6565SOL     OW31156   0.168   1.915   2.976  0.0991  0.3217  0.1873
 6565SOL    HW131157   0.095   1.956   2.930  0.6771  2.2189  0.9799
 6565SOL    HW231158   0.143   1.826   2.951  2.1362 -0.8546  2.3202
 6566SOL     OW31159   0.459   1.469   6.912  0.0566  0.7430 -0.0501
 6566SOL    HW131160   0.459   1.386   6.864  1.6350 -0.8305  2.5971
 6566SOL    HW231161   0.484   1.447   7.002  0.0448 -0.1494 -0.2627
 6567SOL     OW31162   3.753   4.180   2.443  0.0458  0.0539 -0.7028
 6567SOL    HW131163   3.847   4.171   2.462 -0.6837 -3.8039  1.2494
 6567SOL    HW231164   3.733   4.087   2.431 -0.6708  0.2004 -0.6614
 6568SOL     OW31165   4.453   2.613   6.020  0.0655 -0.0418 -0.2909
 6568SOL    HW131166   4.438   2.684   6.082  4.2243  0.0425  0.5981
 6568SOL    HW231167   4.536   2.647   5.988 -0.6177  1.5206 -0.4093
 6569SOL     OW31168   2.225   2.632   2.093 -0.1318  0.3258 -0.9670
 6569SOL    HW131169   2.267   2.703   2.044  1.8871  0.4590  0.9660
 6569SOL    HW231170   2.268   2.561   2.047  0.3887  0.7443 -1.1279
 6570SOL     OW31171   2.624   2.052   0.369  0.4497 -0.4854 -0.2594
 6570SOL    HW131172   2.646   2.122   0.307 -1.1659  0.5849  0.3911
 6570SOL    HW231173   2.553   2.085   0.424 -0.6926  0.0833 -2.0642
 6571SOL     OW31174   3.196   4.656   7.331  0.2689 -0.1793 -0.2994
 6571SOL    HW131175   3.291   4.663   7.339  0.0261  0.7329  1.7119
 6571SOL    HW231176   3.197   4.568   7.294  1.1563 -0.7793  1.1303
 6572SOL     OW31177   1.938   1.201   7.748  0.2247  0.6687  0.5108
 6572SOL    HW131178   1.962   1.136   7.681  2.1784  0.0195  1.8414
 6572SOL    HW231179   1.848   1.212   7.718  0.5778 -0.4240 -0.9733
 6573SOL     OW31180   3.141   4.213  14.808  0.8925 -0.1404  0.1892
 6573SOL    HW131181   3.114   4.202  14.717  1.4281  0.2418 -0.0169
 6573SOL    HW231182   3.237   4.210  14.807  0.8994  0.6159 -1.7888
 6574SOL     OW31183   1.352   4.346   4.714 -0.5921 -0.5817  0.1443
 6574SOL    HW131184   1.268   4.389   4.695 -1.5410 -1.1566  2.9653
 6574SOL    HW231185   1.365   4.275   4.652  2.1725  0.6020 -0.6106
 6575SOL     OW31186   2.993   0.380   6.158  0.1019  0.3172  0.2364
 6575SOL    HW131187   2.957   0.315   6.218 -2.1594  1.4989  0.1552
 6575SOL    HW231188   3.086   0.365   6.175 -0.0330  0.9411  1.4994
 6576SOL     OW31189   0.305   2.886  12.632 -0.1413 -0.0406 -0.3750
 6576SOL    HW131190   0.219   2.852  12.606 -0.1367 -0.3160 -0.0239
 6576SOL    HW231191   0.369   2.822  12.601  0.2525 -0.1190  0.6080
 6577SOL     OW31192   0.490   2.870  10.585  0.0423  0.1815  0.0564
 6577SOL    HW131193   0.448   2.785  10.571  1.7823 -1.1254  2.8193
 6577SOL    HW231194   0.430   2.930  10.540  1.6270  0.6174 -1.4776
 6578SOL     OW31195   4.191   1.875   0.695 -0.6153 -0.7093 -0.3587
 6578SOL    HW131196   4.278   1.888   0.656 -0.1707  0.0420  0.9055
 6578SOL    HW231197   4.150   1.820   0.627  1.7321 -2.0525 -0.7079
 6579SOL     OW31198   2.590   3.196   7.171  0.0690 -0.1630 -0.4172
 6579SOL    HW131199   2.555   3.175   7.257 -0.3049  0.8516 -0.3215
 6579SOL    HW231200   2.644   3.274   7.181  1.3342 -1.3727  2.2943
 6580SOL     OW31201   3.988   2.528   3.467  0.4877  0.0183  0.2687
 6580SOL    HW131202   3.911   2.495   3.421  0.2638  0.1111  0.5838
 6580SOL    HW231203   4.001   2.613   3.424 -1.2669  0.8998  1.5094
 6581SOL     OW31204   1.871   0.810  13.027  0.8046  0.4484  0.4669
 6581SOL    HW131205   1.827   0.890  12.999 -0.3720 -0.4089 -0.1664
 6581SOL    HW231206   1.955   0.826  12.984  0.9422  0.1668  0.6292
 6582SOL     OW31207   0.401   2.202   0.929  0.1132 -0.5633 -0.3967
 6582SOL    HW131208   0.483   2.173   0.888  0.3630 -0.3580 -0.0298
 6582SOL    HW231209   0.407   2.297   0.920  0.3286 -0.4761  0.6864
 6583SOL     OW31210   4.717   2.742   9.103  0.4724 -0.3343  0.2909
 6583SOL    HW131211   0.079   2.773   9.114  1.1637 -0.5145 -4.8266
 6583SOL    HW231212   0.001   2.649   9.126  1.4782 -0.4803 -0.8160
 6584SOL     OW31213   4.235   3.245  12.264  0.1538 -0.7686  0.2907
 6584SOL    HW131214   4.267   3.297  12.190  1.1334 -1.5418  0.1803
 6584SOL    HW231215   4.139   3.252  12.262  0.1458 -0.6993  0.8788
 6585SOL     OW31216   1.774   3.316   1.205  0.2086  0.4304  0.2139
 6585SOL    HW131217   1.765   3.353   1.293 -1.0626  0.1472  0.2010
 6585SOL    HW231218   1.758   3.390   1.147  0.5474  0.8798  0.6946
 6586SOL     OW31219   1.250   1.990   2.532  0.2790  0.1947 -0.0358
 6586SOL    HW131220   1.280   2.003   2.442  0.0514 -1.5564 -0.3703
 6586SOL    HW231221   1.326   2.027   2.578 -1.4384  0.3555  2.6428
 6587SOL     OW31222   4.477   0.321   8.573 -0.4307  0.0030  0.0129
 6587SOL    HW131223   4.529   0.364   8.504 -0.5843  0.2008  0.0231
 6587SOL    HW231224   4.454   0.398   8.625 -0.5645  0.3690 -0.5807
 6588SOL     OW31225   0.413   0.647  14.795 -0.2910  0.0624  0.2228
 6588SOL    HW131226   0.379   0.737  14.793  2.1693  1.0193  0.8142
 6588SOL    HW231227   0.461   0.669  14.876  3.3372 -1.1483 -1.6110
 6589SOL     OW31228   3.177   3.782   4.014  0.3644  0.3402  0.1819
 6589SOL    HW131229   3.231   3.836   4.072  1.0672 -0.5389  0.3453
 6589SOL    HW231230   3.209   3.807   3.928  0.2155  0.1582  0.0728
 6590SOL     OW31231   0.805   1.595   5.641  0.0728  0.6068  0.3425
 6590SOL    HW131232   0.846   1.508   5.645 -0.7820  0.2312  0.9095
 6590SOL    HW231233   0.888   1.643   5.640 -0.3412  1.2807 -1.1731
 6591SOL     OW31234   1.374   1.201   8.736 -0.3674 -0.5608 -0.6511
 6591SOL    HW131235   1.306   1.134   8.732 -0.1115 -0.8375 -0.3684
 6591SOL    HW231236   1.336   1.279   8.696 -1.1005  0.1749  1.4684
 6592SOL     OW31237   3.587   2.934   3.995  0.5795 -0.1494 -0.0341
 6592SOL    HW131238   3.639   2.889   4.061 -0.2146  0.1853  0.8228
 6592SOL    HW231239   3.621   3.021   4.016  0.1914  0.2338 -1.0017
 6593SOL     OW31240   0.568   1.250   4.843 -0.0709 -0.1945 -0.1636
 6593SOL    HW131241   0.525   1.334   4.824 -0.6615 -0.6359 -0.7799
 6593SOL    HW231242   0.545   1.215   4.757 -1.5843  0.4012  0.0036
 6594SOL     OW31243   1.025   4.215   6.269  0.5985 -0.4103 -0.0983
 6594SOL    HW131244   0.968   4.141   6.248  2.5295 -2.0025  0.2583
 6594SOL    HW231245   1.096   4.196   6.207  0.8834  0.5489 -0.0567
 6595SOL     OW31246   1.594   4.126   3.178 -0.1148 -0.0603 -0.0595
 6595SOL    HW131247   1.568   4.181   3.251  0.5738 -1.0995  0.9685
 6595SOL    HW231248   1.684   4.159   3.177 -0.6417  1.3570  0.4982
 6596SOL     OW31249   4.479   0.857   2.817 -0.0617 -0.1962  0.0152
 6596SOL    HW131250   4.458   0.878   2.726  1.1024 -0.1670 -0.2400
 6596SOL    HW231251   4.419   0.913   2.868  0.3661  0.5778 -0.3336
 6597SOL     OW31252   2.049   2.602   1.212 -0.1053 -0.5350 -0.7668
 6597SOL    HW131253   1.990   2.677   1.216  0.9533  0.2957 -0.7636
 6597SOL    HW231254   2.088   2.620   1.126  0.5055  0.0524 -0.3753
 6598SOL     OW31255   2.828   1.102  15.744 -0.4028  0.1807  0.0180
 6598SOL    HW131256   2.876   1.156  15.806 -3.0728 -1.4988  3.6033
 6598SOL    HW231257   2.780   1.166  15.692 -0.0237  1.4151  1.1932
 6599SOL     OW31258   2.747   3.577   8.308  0.1345  0.1602 -0.1919
 6599SOL    HW131259   2.813   3.638   8.340 -0.2279  1.0575 -1.1709
 6599SOL    HW231260   2.691   3.582   8.385 -2.2053 -0.4566 -1.8405
 6600SOL     OW31261   4.168   4.726  14.432 -0.3747  0.4889 -0.4158
 6600SOL    HW131262   4.168   0.057  14.508 -0.5012 -0.4988  0.3316
 6600SOL    HW231263   4.155   4.648  14.486  1.4380  1.2317  1.0528
 6601SOL     OW31264   2.494   1.759   4.229  0.1152 -0.0295 -0.2782
 6601SOL    HW131265   2.530   1.823   4.290 -2.0420 -0.9943  1.9727
 6601SOL    HW231266   2.575   1.722   4.192 -0.6047 -2.2566  0.3718
 6602SOL     OW31267   3.947   2.687   5.364  0.0680 -0.1467  0.3441
 6602SOL    HW131268   3.874   2.636   5.399 -1.1242  1.5925  0.4176
 6602SOL    HW231269   3.929   2.701   5.271  1.1916 -1.3080 -0.0490
 6603SOL     OW31270   1.057   2.635   7.432  0.4165 -0.0267 -0.2567
 6603SOL    HW131271   1.141   2.643   7.477  0.8557 -2.9404 -0.5578
 6603SOL    HW231272   1.002   2.690   7.488  1.2779 -0.9590  1.4931
 6604SOL     OW31273   2.430   1.985   1.897  0.6187  0.2252  0.1618
 6604SOL    HW131274   2.525   1.973   1.899  0.8124  1.8873  1.2139
 6604SOL    HW231275   2.400   1.895   1.886 -0.2941  0.3445  1.6347
 6605SOL     OW31276   3.969   2.345   1.265  0.0251 -0.4361  0.1501
 6605SOL    HW131277   4.054   2.376   1.294 -0.6925  0.5156  1.2355
 6605SOL    HW231278   3.930   2.285   1.328 -1.1838 -1.7078 -1.7945
 6606SOL     OW31279   3.061   2.311   4.166  0.1008 -0.2264 -0.0199
 6606SOL    HW131280   3.054   2.251   4.092 -0.4453 -0.1054 -0.0633
 6606SOL    HW231281   3.128   2.371   4.133  0.6131 -1.1010 -0.5863
 6607SOL     OW31282   2.743   1.691   4.134 -0.5707  0.1576 -0.5042
 6607SOL    HW131283   2.805   1.762   4.117  1.4322 -1.5016 -0.0991
 6607SOL    HW231284   2.779   1.621   4.078  1.0297  1.1459 -0.7061
 6608SOL     OW31285   3.154   0.020  13.954  0.0147  0.2975  0.1969
 6608SOL    HW131286   3.065   0.054  13.940  0.1593  1.1369  1.2991
 6608SOL    HW231287   3.185   0.067  14.032  1.9237  0.1909 -0.5054
 6609SOL     OW31288   0.256   2.321   6.017  0.3327  0.4259  0.2562
 6609SOL    HW131289   0.334   2.337   5.963  0.0977  0.9971  0.0852
 6609SOL    HW231290   0.189   2.273   5.969  0.2202 -1.4123  2.2442
 6610SOL     OW31291   3.209   3.251   9.246 -0.2222  0.5065 -0.0769
 6610SOL    HW131292   3.236   3.332   9.202 -1.2475  0.5982 -0.5301
 6610SOL    HW231293   3.219   3.185   9.177  2.0393  1.6859 -0.8926
 6611SOL     OW31294   2.461   1.346  15.798 -0.2207 -0.3261 -0.1877
 6611SOL    HW131295   2.457   1.339  15.702  1.6902 -0.8754 -0.2243
 6611SOL    HW231296   2.384   1.292  15.817 -0.3755 -0.8366 -2.2610
 6612SOL     OW31297   0.589   3.069  17.646 -0.0094 -0.3365  0.6102
 6612SOL    HW131298   0.672   3.112  17.665  0.4437 -0.8912 -0.0974
 6612SOL    HW231299   0.555   3.059   0.024  0.5549  0.1039  0.8729
 6613SOL     OW31300   1.626   0.447  10.209  0.2130 -0.2977 -0.3855
 6613SOL    HW131301   1.594   0.519  10.264  2.0416  3.3603 -4.2176
 6613SOL    HW231302   1.718   0.471  10.220  0.8390 -2.4660 -0.8881
 6614SOL     OW31303   0.771   3.837   9.849  0.1493 -0.5140  0.0174
 6614SOL    HW131304   0.736   3.752   9.822 -0.8824 -0.1023  0.0582
 6614SOL    HW231305   0.847   3.807   9.898  0.1507 -1.8199 -0.7923
 6615SOL     OW31306   1.869   1.812   1.259 -0.2776  0.1366 -0.4574
 6615SOL    HW131307   1.949   1.855   1.290 -1.0159  0.9578  0.3119
 6615SOL    HW231308   1.889   1.723   1.289 -0.2248  0.8758  1.7331
 6616SOL     OW31309   3.923   3.058   9.461  0.9386  0.2411 -0.2977
 6616SOL    HW131310   3.834   3.084   9.488  0.2242 -2.6886  0.1771
 6616SOL    HW231311   3.918   3.103   9.377  0.7877  0.4833 -0.1602
 6617SOL     OW31312   0.423   2.138  12.711  0.2496 -0.4880 -0.1197
 6617SOL    HW131313   0.329   2.154  12.725  0.8140  1.4273  1.3948
 6617SOL    HW231314   0.417   2.057  12.661 -1.7238 -0.1205 -0.4828
 6618SOL     OW31315   0.677   1.595   8.754 -0.2831  0.4750  0.3922
 6618SOL    HW131316   0.582   1.585   8.765 -0.6451  2.3943 -1.0523
 6618SOL    HW231317   0.686   1.521   8.693  0.3866  0.3025  0.6989
 6619SOL     OW31318   4.033   2.330   4.562  0.1154 -0.3019 -0.0929
 6619SOL    HW131319   4.106   2.268   4.564 -0.2534 -0.6936  1.7491
 6619SOL    HW231320   3.976   2.288   4.497  1.0411 -0.3924 -0.8486
 6620SOL     OW31321   1.239   3.352   0.861  0.6324 -0.0528  0.3162
 6620SOL    HW131322   1.215   3.328   0.950 -0.2237 -3.6270 -0.8808
 6620SOL    HW231323   1.258   3.443   0.883 -1.9737  0.2286  1.3381
 6621SOL     OW31324   1.474   3.038   5.263 -0.0558  0.4273  0.4220
 6621SOL    HW131325   1.478   3.090   5.183  0.7352 -1.3115 -0.6698
 6621SOL    HW231326   1.552   3.067   5.311 -1.3579  0.7301  2.3511
 6622SOL     OW31327   3.947   2.306  12.888  0.0490  0.1184 -0.1238
 6622SOL    HW131328   3.998   2.261  12.820 -1.0585  0.1200 -0.9698
 6622SOL    HW231329   4.001   2.274  12.960  1.1176  0.2022 -0.8919
 6623SOL     OW31330   0.168   3.698   5.832 -0.1087  0.3565 -0.0011
 6623SOL    HW131331   0.226   3.774   5.839  2.4023 -1.4181 -1.6092
 6623SOL    HW231332   0.097   3.745   5.789  1.2625  1.1247 -1.4447
 6624SOL     OW31333   3.097   0.411  13.982 -0.3013 -1.1168 -0.6743
 6624SOL    HW131334   3.097   0.315  13.984  2.1365 -1.0136  5.4358
 6624SOL    HW231335   3.001   0.415  13.974 -0.3432  1.3186  1.3051
 6625SOL     OW31336   4.030   0.601  10.067  0.4684  0.1666  0.1905
 6625SOL    HW131337   4.035   0.630   9.976 -0.0083  2.2140  0.8180
 6625SOL    HW231338   4.121   0.611  10.095  0.4255 -0.0067  0.3916
 6626SOL     OW31339   3.909   1.430   6.038  0.6410 -0.4857 -0.5648
 6626SOL    HW131340   3.974   1.446   5.970 -0.4277  0.8604 -1.2669
 6626SOL    HW231341   3.979   1.402   6.096 -0.0276  1.4037  1.1535
 6627SOL     OW31342   2.754   4.380   2.857 -0.2457  0.2442 -0.0535
 6627SOL    HW131343   2.811   4.410   2.787 -0.3719 -0.2005 -0.3533
 6627SOL    HW231344   2.770   4.441   2.929  0.8964 -1.8344  1.4467
 6628SOL     OW31345   3.706   0.760   2.689  0.3674 -0.1877 -0.0274
 6628SOL    HW131346   3.641   0.769   2.619  0.7325  1.2291 -0.1708
 6628SOL    HW231347   3.766   0.701   2.644 -0.3339 -0.7149 -0.2714
 6629SOL     OW31348   3.587   1.009   6.547  0.1428 -0.2722  0.3436
 6629SOL    HW131349   3.575   1.082   6.608 -0.5145  0.0832 -0.2154
 6629SOL    HW231350   3.674   0.973   6.565 -0.3485 -1.5536  0.1382
 6630SOL     OW31351   0.280   0.679  15.849  0.0891  0.0460  0.0603
 6630SOL    HW131352   0.199   0.628  15.852  0.6417 -0.6998  1.7150
 6630SOL    HW231353   0.247   0.766  15.873 -1.8706 -0.2909 -1.4022
 6631SOL     OW31354   1.949   3.127   7.542 -0.2484 -1.4599  0.1521
 6631SOL    HW131355   1.884   3.193   7.562  2.5899  1.0546  1.0242
 6631SOL    HW231356   1.892   3.053   7.522 -1.3463 -0.1170 -1.6099
 6632SOL     OW31357   4.298   4.001   5.960  0.4219  0.0315  0.5112
 6632SOL    HW131358   4.308   4.027   6.052  0.5581  1.8502 -0.0222
 6632SOL    HW231359   4.313   3.907   5.962  1.6070  0.2048  0.2876
 6633SOL     OW31360   0.797   0.966   1.841 -0.6087  0.3835  0.2611
 6633SOL    HW131361   0.763   0.954   1.752 -1.3042 -2.9001  0.9766
 6633SOL    HW231362   0.877   0.913   1.849 -0.4297  0.7219  0.6712
 6634SOL     OW31363   1.311   4.304  11.427  0.1379 -0.1084  0.0447
 6634SOL    HW131364   1.373   4.376  11.430  1.5245 -1.2764 -0.3188
 6634SOL    HW231365   1.296   4.292  11.521 -0.8494 -0.7372 -0.1878
 6635SOL     OW31366   3.428   3.431   3.588 -0.5354  0.2042  0.2477
 6635SOL    HW131367   3.514   3.390   3.582 -0.9630 -0.6671  0.1501
 6635SOL    HW231368   3.401   3.416   3.679  1.2257 -0.1406  0.7148
 6636SOL     OW31369   3.535   0.622   8.088  0.7728 -0.1239  0.2260
 6636SOL    HW131370   3.627   0.614   8.114  0.9200  2.5652  0.4744
 6636SOL    HW231371   3.490   0.639   8.171 -1.6181 -2.7037 -0.5599
 6637SOL     OW31372   3.614   0.064   9.157 -0.4135 -0.4089 -0.2642
 6637SOL    HW131373   3.560   0.101   9.226  1.0214  0.5703  0.3352
 6637SOL    HW231374   3.661   0.142   9.127 -1.4945  0.1700 -0.4519
 6638SOL     OW31375   1.787   1.282   2.423 -0.3634 -0.6199  0.6578
 6638SOL    HW131376   1.743   1.207   2.384 -0.7116  0.8122 -1.7270
 6638SOL    HW231377   1.841   1.315   2.350  2.0176  2.5892  3.8696
 6639SOL     OW31378   2.836   3.163   3.025 -0.1784 -0.3155  0.0494
 6639SOL    HW131379   2.806   3.109   2.952 -0.5173 -0.2213  0.1195
 6639SOL    HW231380   2.898   3.217   2.977 -1.3286  0.9628 -0.0127
 6640SOL     OW31381   4.320   1.236  14.015 -1.0123 -0.3711  0.5087
 6640SOL    HW131382   4.317   1.325  14.051 -1.3970 -0.2210  0.1083
 6640SOL    HW231383   4.362   1.254  13.931  2.5720  0.7544  2.5284
 6641SOL     OW31384   0.345   1.117   7.779 -0.3529 -0.5122 -0.3025
 6641SOL    HW131385   0.277   1.173   7.816 -0.5529 -0.2930 -1.0135
 6641SOL    HW231386   0.385   1.094   7.863 -0.7408 -0.8306 -0.2093
 6642SOL     OW31387   1.556   0.909   6.635 -0.2864 -0.0953  0.2753
 6642SOL    HW131388   1.491   0.977   6.618 -0.5426 -0.0287  1.5423
 6642SOL    HW231389   1.601   0.938   6.714  0.1252 -3.4861  1.3104
 6643SOL     OW31390   3.591   4.253  14.436 -0.3576 -0.2469 -0.1404
 6643SOL    HW131391   3.585   4.348  14.447 -1.5435 -0.3089 -0.1930
 6643SOL    HW231392   3.650   4.227  14.506 -3.3307 -2.5363  1.5126
 6644SOL     OW31393   0.765   0.968   0.805 -0.0776 -0.1654 -0.2839
 6644SOL    HW131394   0.855   0.935   0.808  0.9469  2.3718 -2.9411
 6644SOL    HW231395   0.759   1.004   0.893 -2.2356  0.1418 -0.5435
 6645SOL     OW31396   2.292   4.596   4.420  0.1535 -0.5714  0.4622
 6645SOL    HW131397   2.351   4.670   4.404 -1.5762  0.8869  0.9435
 6645SOL    HW231398   2.222   4.637   4.470  0.3759 -1.6562  1.6976
 6646SOL     OW31399   2.562   3.939  11.272 -0.3286  0.1738  0.3698
 6646SOL    HW131400   2.557   3.912  11.363 -2.0226  0.8641  0.4913
 6646SOL    HW231401   2.525   3.863  11.226  1.3495 -1.2269  1.3306
 6647SOL     OW31402   2.859   4.622   2.710  0.6396  0.0262  0.2572
 6647SOL    HW131403   2.857   4.706   2.664 -1.5075  0.8784  1.9349
 6647SOL    HW231404   2.919   4.639   2.783 -0.4990  0.8497  1.0113
 6648SOL     OW31405   0.227   4.595  10.571  0.2784  0.1009  0.5984
 6648SOL    HW131406   0.188   4.508  10.565  0.1851  0.1679  0.2568
 6648SOL    HW231407   0.272   4.581  10.654  0.5993  1.2883  0.6272
 6649SOL     OW31408   3.388   2.475   7.470 -0.0587  0.0619 -0.5748
 6649SOL    HW131409   3.366   2.524   7.391 -0.1553  0.8077 -0.0857
 6649SOL    HW231410   3.467   2.523   7.496  0.1580 -1.4498  1.5686
 6650SOL     OW31411   4.337   1.112   2.305  0.0471 -0.3784  0.7019
 6650SOL    HW131412   4.356   1.053   2.232 -0.4110 -0.0329  0.2972
 6650SOL    HW231413   4.383   1.191   2.278  0.6260 -0.1135  2.4928
 6651SOL     OW31414   4.031   3.878   5.718 -0.4052 -0.1727  0.4458
 6651SOL    HW131415   3.976   3.818   5.769  0.2302 -0.1589  1.1466
 6651SOL    HW231416   4.043   3.956   5.771  0.3093  0.1466 -0.2035
 6652SOL     OW31417   2.924   3.065   4.843  0.0466 -0.2718  0.2554
 6652SOL    HW131418   2.871   3.145   4.845  0.7424  0.1956 -0.5207
 6652SOL    HW231419   2.858   3.005   4.808  0.1716  0.2155 -0.8034
 6653SOL     OW31420   2.921   4.181   1.925  0.2803 -0.4184 -0.3315
 6653SOL    HW131421   2.989   4.120   1.896 -1.0981 -2.4335  0.5791
 6653SOL    HW231422   2.878   4.200   1.841 -1.0709  0.6055  0.5881
 6654SOL     OW31423   3.682   3.365   3.270  0.0439  0.7868  0.3534
 6654SOL    HW131424   3.675   3.459   3.250  1.2249  1.3371  2.5211
 6654SOL    HW231425   3.777   3.362   3.258 -0.1408 -0.0765 -0.9175
 6655SOL     OW31426   3.939   1.294  15.030  0.3644  0.3155 -0.2210
 6655SOL    HW131427   3.847   1.310  15.051  0.6820 -0.7214  2.0376
 6655SOL    HW231428   3.947   1.360  14.962  0.5137 -0.4385 -0.9262
 6656SOL     OW31429   0.315   4.347  17.408  0.3291 -0.5119  0.0254
 6656SOL    HW131430   0.376   4.309  17.471 -0.3684 -2.1020 -0.2716
 6656SOL    HW231431   0.325   4.439  17.433 -0.6208 -0.8950  1.7974
 6657SOL     OW31432   1.433   3.753   4.949  0.6765 -0.0111 -0.1449
 6657SOL    HW131433   1.499   3.788   5.009 -0.0368  1.4490 -0.2032
 6657SOL    HW231434   1.489   3.684   4.913  1.8561  1.3715 -0.9549
 6658SOL     OW31435   3.253   1.624   1.429 -0.6210 -0.5800  0.0617
 6658SOL    HW131436   3.286   1.568   1.359  2.3907 -1.2265  2.0203
 6658SOL    HW231437   3.161   1.624   1.402  0.2384  2.6793 -2.8657
 6659SOL     OW31438   2.356   0.565   8.225 -0.3771 -0.0994  0.1818
 6659SOL    HW131439   2.260   0.572   8.224 -0.3289  0.5605  0.1972
 6659SOL    HW231440   2.376   0.653   8.194  1.3916 -0.2280  1.0024
 6660SOL     OW31441   4.351   0.024   6.801 -0.0032 -0.3335  0.2249
 6660SOL    HW131442   4.314   0.074   6.728 -2.3252  0.5703  2.0318
 6660SOL    HW231443   4.376   0.091   6.865  1.9304 -1.4566  0.6333
 6661SOL     OW31444   2.892   2.618  12.075  0.1471  0.6306 -0.0903
 6661SOL    HW131445   2.837   2.574  12.010 -0.2271  2.0161 -0.7243
 6661SOL    HW231446   2.852   2.590  12.157  0.3135 -0.4937 -0.3891
 6662SOL     OW31447   3.553   4.203   6.710 -0.3745  0.4972  0.1418
 6662SOL    HW131448   3.617   4.274   6.711  0.2251 -0.0309 -0.4912
 6662SOL    HW231449   3.613   4.129   6.697  0.8880  0.9293  3.3831
 6663SOL     OW31450   1.383   0.682   6.191  0.1404 -0.5036 -0.0650
 6663SOL    HW131451   1.476   0.686   6.215 -0.6169  0.6774  2.7598
 6663SOL    HW231452   1.387   0.622   6.117 -1.5845 -1.6366  0.7508
 6664SOL     OW31453   3.826   3.500   6.976 -0.5453 -0.3691 -0.0727
 6664SOL    HW131454   3.815   3.592   6.997  1.7917 -0.5454  1.9284
 6664SOL    HW231455   3.874   3.468   7.053  2.2687  0.4954 -1.4537
 6665SOL     OW31456   2.630   1.797  12.988 -0.0979  0.3159 -0.1152
 6665SOL    HW131457   2.583   1.880  12.981  0.6964  0.6830 -1.0654
 6665SOL    HW231458   2.701   1.817  13.050  0.1076 -0.0567 -0.2294
 6666SOL     OW31459   0.217   3.599   8.184  0.2940 -0.2863 -0.2403
 6666SOL    HW131460   0.158   3.562   8.118 -0.2133  0.8287 -0.4092
 6666SOL    HW231461   0.152   3.634   8.245  0.1321  1.1222 -1.2080
 6667SOL     OW31462   2.798   1.401   8.112  0.1267 -0.2283  0.8190
 6667SOL    HW131463   2.743   1.479   8.107  1.2028  0.5423  0.8814
 6667SOL    HW231464   2.777   1.370   8.200 -2.3951 -0.5669  0.0868
 6668SOL     OW31465   2.216   3.332  10.974  0.1715  0.0515 -0.1281
 6668SOL    HW131466   2.295   3.279  10.986 -0.5409 -1.2041 -0.9401
 6668SOL    HW231467   2.236   3.398  11.040  0.2541 -1.8102  1.7090
 6669SOL     OW31468   0.427   1.665   4.691 -0.5711  0.1077 -0.4636
 6669SOL    HW131469   0.366   1.723   4.646  0.3839  2.0969  0.7844
 6669SOL    HW231470   0.390   1.660   4.779  0.5650 -0.5711 -0.0235
 6670SOL     OW31471   3.545   3.231   2.652 -0.2885  0.1532  0.1484
 6670SOL    HW131472   3.591   3.174   2.589  0.3778 -2.5078  3.0321
 6670SOL    HW231473   3.503   3.296   2.596  2.1387  0.9055 -0.8105
 6671SOL     OW31474   2.767   2.386   0.564 -0.1579  0.0598  0.7048
 6671SOL    HW131475   2.724   2.382   0.650  0.8919  0.1362  1.2332
 6671SOL    HW231476   2.800   2.475   0.556  0.8581 -0.3217  0.6793
 6672SOL     OW31477   2.602   1.828   3.914 -0.1347  0.6513 -0.6860
 6672SOL    HW131478   2.623   1.741   3.947 -0.5178  0.6893 -0.3287
 6672SOL    HW231479   2.675   1.862   3.863  1.9092 -0.4527  1.5332
 6673SOL     OW31480   1.933   1.717  12.530  0.5536 -0.1198 -0.1639
 6673SOL    HW131481   1.952   1.625  12.545 -0.9128 -0.6513 -1.5742
 6673SOL    HW231482   1.915   1.712  12.436 -2.3036 -0.8594  0.4220
 6674SOL     OW31483   1.939   1.850   6.021  0.4268  0.0939  0.5939
 6674SOL    HW131484   1.861   1.860   6.076 -0.1349 -0.2468 -0.1284
 6674SOL    HW231485   1.927   1.924   5.961  2.3953  1.1220  1.4651
 6675SOL     OW31486   0.637   0.789   3.891  0.0384  0.2415  0.5937
 6675SOL    HW131487   0.623   0.814   3.800 -0.4370 -0.1569  0.5533
 6675SOL    HW231488   0.570   0.720   3.896 -2.1502  2.1999 -2.3820
 6676SOL     OW31489   3.703   0.550   9.940 -0.1868  0.1433  0.2219
 6676SOL    HW131490   3.740   0.529  10.026  0.2922 -0.2952 -0.0907
 6676SOL    HW231491   3.768   0.502   9.888  0.4132  2.1738 -0.8976
 6677SOL     OW31492   3.237   0.622   3.687  0.7953 -0.2417  0.1585
 6677SOL    HW131493   3.231   0.631   3.783 -0.5658  0.1064  0.0475
 6677SOL    HW231494   3.301   0.552   3.683  1.6203  0.4941  0.5404
 6678SOL     OW31495   3.458   1.909  14.800 -0.4719  1.0699 -0.2163
 6678SOL    HW131496   3.387   1.973  14.814 -1.1525  0.9350 -3.0414
 6678SOL    HW231497   3.413   1.869  14.725  0.5218 -0.2133 -0.1167
 6679SOL     OW31498   0.635   1.136   2.144  0.6893 -0.0095  0.3909
 6679SOL    HW131499   0.590   1.120   2.061  0.6717  1.3784  0.1421
 6679SOL    HW231500   0.721   1.098   2.127  1.5029  0.2143  3.9675
 6680SOL     OW31501   2.873   2.049   4.477  0.0575 -0.3107  0.0900
 6680SOL    HW131502   2.885   2.069   4.384  0.1597  2.1468  0.6341
 6680SOL    HW231503   2.895   2.128   4.527  1.7316 -0.5394 -0.2737
 6681SOL     OW31504   3.586   1.492   9.086 -0.5640  0.0140  0.4758
 6681SOL    HW131505   3.522   1.445   9.033  0.7039  0.7598 -1.7067
 6681SOL    HW231506   3.607   1.571   9.038 -0.1599 -1.6064 -2.0018
 6682SOL     OW31507   0.412   1.758   3.513 -0.4552  0.2062  0.4113
 6682SOL    HW131508   0.472   1.720   3.449 -1.6700  1.8670 -1.7150
 6682SOL    HW231509   0.426   1.851   3.495 -1.0223 -0.1940 -2.0975
 6683SOL     OW31510   0.170   0.474   6.311 -0.3769 -0.0665 -0.1392
 6683SOL    HW131511   0.097   0.473   6.373  0.1455  1.1158  0.5022
 6683SOL    HW231512   0.209   0.560   6.329  0.0820  0.1270 -2.0227
 6684SOL     OW31513   3.340   1.574   5.484  0.9017  0.7508 -0.1281
 6684SOL    HW131514   3.402   1.647   5.478 -0.4092  1.8355 -0.5592
 6684SOL    HW231515   3.261   1.608   5.526  0.7303 -0.4799  0.5394
 6685SOL     OW31516   1.415   1.991   5.378 -0.3040  0.1533  0.5097
 6685SOL    HW131517   1.435   2.002   5.285 -1.9326 -1.9394 -0.0787
 6685SOL    HW231518   1.496   1.970   5.424  1.1150  0.7674 -1.6997
 6686SOL     OW31519   4.281   2.680   9.201 -0.1873 -0.0609  0.4816
 6686SOL    HW131520   4.328   2.602   9.229  0.3158  0.7824  1.9595
 6686SOL    HW231521   4.193   2.682   9.239 -0.5963  2.0309 -0.5796
 6687SOL     OW31522   1.521   0.125   2.167  0.0384 -0.2247  0.0917
 6687SOL    HW131523   1.609   0.087   2.162  0.4821  0.6739  1.0233
 6687SOL    HW231524   1.495   0.121   2.075 -1.6074 -3.0373  0.6950
 6688SOL     OW31525   3.242   0.182   7.122 -0.2851 -0.8043  0.5819
 6688SOL    HW131526   3.225   0.267   7.081  0.7869  0.4017  2.6519
 6688SOL    HW231527   3.154   0.161   7.155 -1.0843  0.1818 -0.9632
 6689SOL     OW31528   3.863   4.459   3.895 -0.3463  0.3128  0.0816
 6689SOL    HW131529   3.791   4.452   3.832 -0.8575  0.1421  0.6896
 6689SOL    HW231530   3.885   4.368   3.914 -1.7890  0.3383  1.8478
 6690SOL     OW31531   1.698   2.795   2.212 -0.0721  0.1263  0.1581
 6690SOL    HW131532   1.618   2.845   2.230 -0.0696 -0.2118  1.1209
 6690SOL    HW231533   1.666   2.707   2.229  0.0085  0.0795  0.0667
 6691SOL     OW31534   0.854   0.300  10.214  0.3756  0.0379 -0.3602
 6691SOL    HW131535   0.792   0.270  10.282  0.8923 -1.9133 -0.7431
 6691SOL    HW231536   0.885   0.376  10.264 -0.4454  0.7453 -0.9330
 6692SOL     OW31537   2.302   0.455  10.573  0.3000 -0.2939  0.2993
 6692SOL    HW131538   2.337   0.509  10.503 -0.2964  1.5990  1.4677
 6692SOL    HW231539   2.211   0.440  10.546 -0.0857 -0.3190  1.6224
 6693SOL     OW31540   0.263   3.201   9.748 -0.5882 -0.4163  0.1040
 6693SOL    HW131541   0.319   3.149   9.692 -1.2549  0.1609 -1.0922
 6693SOL    HW231542   0.322   3.242   9.812  2.0059  0.9072 -3.1281
 6694SOL     OW31543   3.888   0.246   4.430 -0.1216 -0.7068  0.4280
 6694SOL    HW131544   3.959   0.192   4.462 -1.0988 -1.0524  2.0168
 6694SOL    HW231545   3.841   0.268   4.510 -0.3268  0.1311  0.0791
 6695SOL     OW31546   0.513   4.278   6.454  0.5044  0.4614  0.1459
 6695SOL    HW131547   0.496   4.359   6.406  2.5803  0.1739 -1.0502
 6695SOL    HW231548   0.562   4.226   6.391 -0.9807  1.5380 -1.8869
 6696SOL     OW31549   2.811   3.089   8.934  0.0356 -0.2213 -0.0473
 6696SOL    HW131550   2.805   3.036   9.014 -0.2588  2.9930  2.0308
 6696SOL    HW231551   2.887   3.144   8.953 -0.2798  0.0572  0.4027
 6697SOL     OW31552   0.705   1.427   9.282 -0.3747  0.5367 -0.3735
 6697SOL    HW131553   0.790   1.392   9.255 -0.6109  0.0851 -0.5246
 6697SOL    HW231554   0.677   1.355   9.339  0.9306 -0.0345 -0.4519
 6698SOL     OW31555   0.615   3.051   6.507 -0.9771  0.8369 -0.0295
 6698SOL    HW131556   0.546   2.986   6.495 -1.5459  1.4635 -0.1576
 6698SOL    HW231557   0.673   2.998   6.563 -1.8965  0.1664  0.2840
 6699SOL     OW31558   0.009   2.186  10.207  0.1023 -0.0224  0.5861
 6699SOL    HW131559   0.091   2.138  10.213  0.4213  0.4026 -0.3811
 6699SOL    HW231560   4.704   2.202  10.296  0.8245  1.3599  0.5940
 6700SOL     OW31561   3.557   2.825   8.652 -0.0817  0.0987 -0.4125
 6700SOL    HW131562   3.586   2.852   8.565 -0.7824 -2.7674 -1.5395
 6700SOL    HW231563   3.517   2.745   8.616  1.8951 -1.4067  0.6928
 6701SOL     OW31564   2.790   2.675   5.716 -0.0747 -0.0454 -0.3309
 6701SOL    HW131565   2.751   2.743   5.661  0.4934 -0.5805 -1.3899
 6701SOL    HW231566   2.750   2.597   5.679  1.1662 -0.6943 -0.2925
 6702SOL     OW31567   4.579   0.546  13.090 -0.6925 -0.7501  0.0812
 6702SOL    HW131568   4.485   0.563  13.097 -0.4986  0.6058 -0.6824
 6702SOL    HW231569   4.587   0.525  12.997  0.8663 -3.2399  0.7472
 6703SOL     OW31570   3.120   3.972   0.787 -0.0997  0.3262  0.4779
 6703SOL    HW131571   3.107   3.923   0.706  2.3509 -2.6936  1.9255
 6703SOL    HW231572   3.213   3.994   0.781  0.5293 -2.2194  1.1361
 6704SOL     OW31573   4.592   2.991  12.152  0.6338  0.2851  0.0427
 6704SOL    HW131574   4.510   3.008  12.200 -0.2620  1.8276 -2.0176
 6704SOL    HW231575   4.619   2.901  12.169  0.7356  0.6146  1.6516
 6705SOL     OW31576   3.570   4.502   2.126  0.2159  0.8337 -0.3996
 6705SOL    HW131577   3.542   4.411   2.115  0.1529  0.3882  3.4376
 6705SOL    HW231578   3.627   4.502   2.049  1.7660  0.5835  0.7692
 6706SOL     OW31579   2.233   2.229   5.907 -0.1748  0.1043 -0.0613
 6706SOL    HW131580   2.215   2.135   5.912  0.7236 -0.2000 -2.5293
 6706SOL    HW231581   2.175   2.250   5.834 -0.6428  1.8604  0.8113
 6707SOL     OW31582   3.982   0.255   8.933 -0.1754 -0.2049 -0.0921
 6707SOL    HW131583   3.923   0.282   9.004 -0.8305 -0.9103 -0.3609
 6707SOL    HW231584   3.946   0.167   8.924  0.5118 -0.7341  2.4621
 6708SOL     OW31585   4.325   0.235   1.535  0.2102  0.3912  0.2211
 6708SOL    HW131586   4.350   0.155   1.582 -0.9144 -0.3453 -0.4431
 6708SOL    HW231587   4.230   0.226   1.535  0.3697 -1.3855  0.3300
 6709SOL     OW31588   3.333   2.707   9.240  0.1227 -0.1755  0.4962
 6709SOL    HW131589   3.405   2.734   9.183  0.2279  0.3817  0.8872
 6709SOL    HW231590   3.337   2.612   9.245  0.6549 -0.2041 -0.4982
 6710SOL     OW31591   3.449   0.098   8.066  0.3913 -0.0665  0.2251
 6710SOL    HW131592   3.508   0.073   7.996 -0.9828 -2.8044  0.0750
 6710SOL    HW231593   3.410   0.182   8.041  0.4007 -0.8269 -2.3186
 6711SOL     OW31594   3.011   2.266  14.311  0.4192 -0.3996  0.5968
 6711SOL    HW131595   2.949   2.323  14.265  0.6297  0.9118  1.9241
 6711SOL    HW231596   3.018   2.185  14.261  0.0940 -0.6502  0.9574
 6712SOL     OW31597   1.912   1.584   8.908  0.4432  0.4731 -0.1613
 6712SOL    HW131598   1.871   1.624   8.985  1.4835  0.5266  0.3653
 6712SOL    HW231599   1.948   1.510   8.957 -1.3686  0.2776  0.8452
 6713SOL     OW31600   3.112   0.395  15.773 -0.3603 -0.1828  0.5836
 6713SOL    HW131601   3.166   0.320  15.747  2.2218  2.5675 -2.0429
 6713SOL    HW231602   3.067   0.419  15.692 -0.7215 -1.4012  0.4184
 6714SOL     OW31603   1.434   3.616   7.366  0.0341  0.0243 -0.0200
 6714SOL    HW131604   1.404   3.660   7.286 -1.6771 -0.6464  0.2384
 6714SOL    HW231605   1.356   3.634   7.419 -0.9401  0.0969 -1.4762
 6715SOL     OW31606   1.957   0.942  11.693 -0.3216 -0.3036  0.8241
 6715SOL    HW131607   1.994   0.893  11.620 -3.0141  0.5557 -1.1371
 6715SOL    HW231608   1.888   0.879  11.713  1.0798 -1.9622  0.4466
 6716SOL     OW31609   0.855   4.346   0.566 -0.1291 -0.6364  0.1236
 6716SOL    HW131610   0.900   4.264   0.547  2.6327  1.1926 -1.1426
 6716SOL    HW231611   0.902   4.381   0.643  0.9594 -1.5032 -0.1474
 6717SOL     OW31612   1.843   3.675   1.993 -0.3049 -0.0389 -0.1255
 6717SOL    HW131613   1.909   3.678   2.063  0.9516  3.4298 -1.4667
 6717SOL    HW231614   1.782   3.737   2.033 -2.0741 -2.8889  1.5419
 6718SOL     OW31615   4.691   0.655   8.536 -0.6359 -0.1426  0.5426
 6718SOL    HW131616   4.717   0.718   8.603  0.7671 -1.7731  1.5043
 6718SOL    HW231617   0.040   0.599   8.532  0.6008  1.6014 -0.3371
 6719SOL     OW31618   2.052   1.459  14.755 -0.0374  0.2409  0.1510
 6719SOL    HW131619   2.138   1.473  14.794  1.7884 -0.4587 -3.6065
 6719SOL    HW231620   2.077   1.468  14.663 -0.5292  0.0574  0.0012
 6720SOL     OW31621   0.640   3.608   8.735 -0.9843 -1.0574 -0.0369
 6720SOL    HW131622   0.699   3.534   8.719  0.7027  0.7191 -2.1029
 6720SOL    HW231623   0.587   3.605   8.656 -1.1934  0.2347  0.0573
 6721SOL     OW31624   2.386   2.800   1.104 -0.0368 -0.0278 -0.0404
 6721SOL    HW131625   2.470   2.836   1.133  0.8937 -1.3422 -1.1420
 6721SOL    HW231626   2.333   2.880   1.101  0.8419  0.5736  0.6347
 6722SOL     OW31627   1.729   4.287  13.604 -0.7610 -0.1114 -0.3988
 6722SOL    HW131628   1.777   4.368  13.619 -0.1742 -0.1755 -1.9537
 6722SOL    HW231629   1.708   4.297  13.511 -1.1413  0.4191 -0.2563
 6723SOL     OW31630   1.662   3.746   4.580 -0.4344  0.1776  0.1829
 6723SOL    HW131631   1.583   3.708   4.542 -0.6288 -0.9175  1.6766
 6723SOL    HW231632   1.667   3.820   4.521 -0.0052  0.8987  1.1217
 6724SOL     OW31633   0.561   0.726   7.468 -0.1432  0.1690 -0.5527
 6724SOL    HW131634   0.576   0.632   7.461 -0.6177 -0.0121  0.9109
 6724SOL    HW231635   0.567   0.740   7.563 -2.0606 -0.2524 -0.3713
 6725SOL     OW31636   0.093   3.847   7.216 -0.2331  0.1227  0.2549
 6725SOL    HW131637   0.143   3.880   7.142 -1.5995  0.9436 -0.2916
 6725SOL    HW231638   0.004   3.872   7.192  0.7296  2.9937 -0.3053
 6726SOL     OW31639   4.538   2.253   7.019 -0.1090  0.7022 -0.4408
 6726SOL    HW131640   4.518   2.161   7.001  0.3340  0.4076  0.6201
 6726SOL    HW231641   4.561   2.284   6.932  1.4132 -1.7262 -0.9092
 6727SOL     OW31642   0.182   0.749   9.641 -0.1725 -0.5754 -0.2221
 6727SOL    HW131643   0.212   0.835   9.671 -1.0552 -0.1536 -0.5574
 6727SOL    HW231644   0.093   0.752   9.676  0.0508  1.3756  0.1797
 6728SOL     OW31645   4.076   0.070   4.572 -0.1009  0.2353 -0.0496
 6728SOL    HW131646   4.038   4.718   4.535 -0.7965  0.3593  0.4017
 6728SOL    HW231647   4.056   0.058   4.664 -1.6328 -0.3478 -0.4566
 6729SOL     OW31648   0.172   0.619   8.242  0.2455 -0.1192 -0.6070
 6729SOL    HW131649   0.259   0.658   8.243 -0.0846  0.5655  0.6628
 6729SOL    HW231650   0.117   0.694   8.265 -0.0939 -1.6818  3.7893
 6730SOL     OW31651   4.019   3.937   6.595 -0.1532  0.3910 -0.4135
 6730SOL    HW131652   4.018   4.028   6.564  0.9590  0.8867  0.9653
 6730SOL    HW231653   4.083   3.947   6.666 -0.6346  0.4847  0.0025
 6731SOL     OW31654   4.223   2.034   5.595 -0.1823  0.1125 -0.3664
 6731SOL    HW131655   4.278   2.008   5.521  0.4551 -0.3269  0.2655
 6731SOL    HW231656   4.194   2.119   5.563 -1.5348 -0.0466  0.4314
 6732SOL     OW31657   0.173   0.919  16.267  0.6827  0.8410  0.6036
 6732SOL    HW131658   0.085   0.883  16.280  0.3764  1.2358 -0.3252
 6732SOL    HW231659   0.188   0.939  16.174 -0.5643 -0.5363  0.1113
 6733SOL     OW31660   1.915   2.679   2.700 -0.0259  0.1627  0.4000
 6733SOL    HW131661   1.881   2.746   2.641  0.7952  0.9962  0.8565
 6733SOL    HW231662   1.838   2.661   2.752 -1.3300  1.1108 -1.1914
 6734SOL     OW31663   3.549   2.024   7.917 -0.2034  0.6045 -0.2944
 6734SOL    HW131664   3.547   2.025   7.821 -0.5365  0.5412 -0.2874
 6734SOL    HW231665   3.515   1.937   7.937 -0.9899  1.2952  1.2667
 6735SOL     OW31666   1.966   4.287  16.710  0.2712 -0.5923 -0.2875
 6735SOL    HW131667   1.926   4.303  16.795 -1.4862 -0.7404 -1.0929
 6735SOL    HW231668   1.916   4.351  16.661  0.8231  0.1408  0.1072
 6736SOL     OW31669   4.672   2.355   0.163 -0.1682  0.3829  0.2858
 6736SOL    HW131670   0.040   2.360   0.151 -0.1028 -1.3531  0.1557
 6736SOL    HW231671   4.665   2.369   0.258 -1.3427 -0.5167  0.3261
 6737SOL     OW31672   4.373   1.853   6.721  0.0380 -0.2395 -0.0928
 6737SOL    HW131673   4.372   1.906   6.801 -1.6136  0.8339 -0.8321
 6737SOL    HW231674   4.408   1.911   6.654 -0.2830  1.0822  0.8701
 6738SOL     OW31675   2.730   2.399   6.761  0.0296  0.2099  0.0147
 6738SOL    HW131676   2.734   2.429   6.670  0.3669  1.7476  0.5376
 6738SOL    HW231677   2.782   2.318   6.763 -0.0734  0.1250 -1.1815
 6739SOL     OW31678   0.776   3.543  10.311 -0.3439  0.7686  0.3849
 6739SOL    HW131679   0.707   3.585  10.260  0.2156  0.7213 -0.4011
 6739SOL    HW231680   0.777   3.599  10.389  0.1768  0.6674  0.4537
 6740SOL     OW31681   4.622   3.845   6.281 -0.2952  0.0945 -0.3639
 6740SOL    HW131682   4.593   3.909   6.216  1.7189 -0.1998 -1.5282
 6740SOL    HW231683   4.557   3.849   6.352 -1.1767 -2.3758 -1.0519
 6741SOL     OW31684   3.642   2.539  13.195  0.0132 -0.0822 -0.5950
 6741SOL    HW131685   3.648   2.445  13.210  2.6595  0.2098  0.1312
 6741SOL    HW231686   3.605   2.573  13.277 -0.1526 -1.7612  0.0229
 6742SOL     OW31687   0.661   0.722   3.288  0.2117 -0.1572  0.4252
 6742SOL    HW131688   0.698   0.653   3.344 -2.8417 -2.2162 -0.0791
 6742SOL    HW231689   0.740   0.754   3.244  0.2812 -1.5698 -0.5032
 6743SOL     OW31690   4.458   3.130   2.931  0.2418 -0.6774  0.0312
 6743SOL    HW131691   4.507   3.175   2.863  0.2559 -1.1767 -0.2902
 6743SOL    HW231692   4.498   3.172   3.007  1.2902  0.2841 -1.0686
 6744SOL     OW31693   3.917   1.813   0.332  0.0122  0.1107 -0.4970
 6744SOL    HW131694   3.844   1.812   0.393 -1.0968  1.5040 -1.7983
 6744SOL    HW231695   3.986   1.773   0.385  0.2008  0.5595 -0.3977
 6745SOL     OW31696   1.154   2.680   8.981 -0.1219 -0.6724 -0.3374
 6745SOL    HW131697   1.164   2.702   8.888  0.9344 -0.5074 -0.1900
 6745SOL    HW231698   1.119   2.768   8.996 -1.0784 -1.0175 -0.5541
 6746SOL     OW31699   1.908   0.368   1.701 -0.2678 -0.7405  0.3179
 6746SOL    HW131700   1.849   0.398   1.633  2.5723  0.6794 -1.5088
 6746SOL    HW231701   1.851   0.348   1.775  1.3527 -0.2578  1.7093
 6747SOL     OW31702   2.971   1.810   4.034 -0.1385  0.0609  0.3267
 6747SOL    HW131703   3.022   1.787   3.956 -0.2774 -1.2590  0.6229
 6747SOL    HW231704   3.008   1.757   4.105  2.8310  1.2711 -0.3069
 6748SOL     OW31705   1.782   1.686   4.380 -0.5892  0.2116  0.1402
 6748SOL    HW131706   1.691   1.660   4.368  0.0492 -2.1512  0.3206
 6748SOL    HW231707   1.806   1.675   4.472  1.0928 -2.7503 -0.6503
 6749SOL     OW31708   2.295   2.088   1.448  0.7630  0.3294 -0.4022
 6749SOL    HW131709   2.322   2.175   1.417  2.6475  0.2029  0.9075
 6749SOL    HW231710   2.275   2.102   1.540  1.1083  0.4687 -0.3480
 6750SOL     OW31711   1.155   3.542   7.863  0.9419  0.2230  0.0826
 6750SOL    HW131712   1.101   3.544   7.942  1.9715  2.6633  0.7455
 6750SOL    HW231713   1.196   3.456   7.858 -1.2153 -0.7718 -0.5885
 6751SOL     OW31714   0.804   1.862   8.321  0.5540  0.0019 -0.5087
 6751SOL    HW131715   0.775   1.952   8.306  3.4620  0.6510 -2.3559
 6751SOL    HW231716   0.885   1.877   8.370 -0.1260  3.2008 -0.3545
 6752SOL     OW31717   1.592   1.877   6.775 -0.3008 -0.1280  0.0154
 6752SOL    HW131718   1.618   1.829   6.696 -2.3269 -1.2658  0.0520
 6752SOL    HW231719   1.578   1.962   6.734 -0.3998  0.2542  0.8459
 6753SOL     OW31720   0.884   2.009  14.283 -0.4685  0.0404  0.0979
 6753SOL    HW131721   0.851   1.930  14.240  1.2946 -0.8322  0.3554
 6753SOL    HW231722   0.936   1.974  14.356 -2.4444 -0.9557  1.0425
 6754SOL     OW31723   0.069   4.583   1.069  0.1819  0.2759  0.4930
 6754SOL    HW131724   0.153   4.624   1.051  0.2056 -1.1651 -2.5250
 6754SOL    HW231725   0.043   4.545   0.986  1.0190 -0.2866  0.4960
 6755SOL     OW31726   0.300   0.356   5.582 -0.1776  0.3195 -0.5167
 6755SOL    HW131727   0.324   0.390   5.669 -1.9906  0.2548  0.0130
 6755SOL    HW231728   0.386   0.325   5.556 -0.5926 -0.7449 -0.6152
 6756SOL     OW31729   0.052   0.469   5.628 -0.2249 -0.9786  0.3493
 6756SOL    HW131730   0.135   0.425   5.610  2.5315  3.5372  2.0784
 6756SOL    HW231731   4.718   0.435   5.563 -0.5020  1.1539 -0.5003
 6757SOL     OW31732   1.211   0.281   8.891 -0.2200 -0.1577 -0.1378
 6757SOL    HW131733   1.291   0.291   8.840 -0.2706  1.2700  0.0697
 6757SOL    HW231734   1.241   0.274   8.981 -2.1061 -0.3703  0.4659
 6758SOL     OW31735   0.227   0.713  12.706  0.1337 -0.7277  0.6569
 6758SOL    HW131736   0.230   0.666  12.622  0.8918  0.9560 -0.2503
 6758SOL    HW231737   0.268   0.797  12.687  1.7585 -1.3827  1.2417
 6759SOL     OW31738   1.021   3.688   8.833  0.3951 -0.0448 -0.2878
 6759SOL    HW131739   0.948   3.747   8.812 -1.7704 -2.5701  0.1540
 6759SOL    HW231740   1.026   3.622   8.764  0.9254 -2.3389  1.9259
 6760SOL     OW31741   0.610   3.961  16.591  0.5844 -0.4065 -0.3898
 6760SOL    HW131742   0.668   4.018  16.540  0.4408 -0.6610 -0.8459
 6760SOL    HW231743   0.523   3.989  16.563  1.5892  2.2667 -0.8264
 6761SOL     OW31744   2.310   1.195  14.684  0.0362 -0.1716 -0.1225
 6761SOL    HW131745   2.347   1.236  14.607 -0.1258 -0.7983 -0.5377
 6761SOL    HW231746   2.243   1.259  14.707 -0.7801 -0.9679 -0.2449
 6762SOL     OW31747   0.647   3.402  16.019  0.3036 -0.5606  0.8422
 6762SOL    HW131748   0.631   3.497  16.025  1.6641 -0.3907  1.6883
 6762SOL    HW231749   0.671   3.379  16.108 -0.3677  1.1380  1.4768
 6763SOL     OW31750   1.915   4.024   1.988 -0.2335 -0.2264 -0.0599
 6763SOL    HW131751   1.936   3.949   1.932  0.1911  0.1598 -0.4150
 6763SOL    HW231752   1.848   4.068   1.935  0.5129  0.3324 -0.5403
 6764SOL     OW31753   1.513   1.880   2.090  0.2533 -0.5673  0.3941
 6764SOL    HW131754   1.584   1.815   2.090  0.9439  0.1867 -0.7383
 6764SOL    HW231755   1.554   1.950   2.038 -1.0963 -0.2726 -0.2587
 6765SOL     OW31756   2.497   0.606   3.078  0.0581  0.5103 -0.0084
 6765SOL    HW131757   2.468   0.624   3.167 -1.7403 -0.0841 -0.4875
 6765SOL    HW231758   2.547   0.681   3.045  1.0723  0.3838  1.2399
 6766SOL     OW31759   4.443   2.081   3.880 -0.0884 -0.0395  0.6418
 6766SOL    HW131760   4.522   2.087   3.934 -0.6376 -0.9116  1.5383
 6766SOL    HW231761   4.369   2.081   3.941  0.0681 -0.6133  0.8339
 6767SOL     OW31762   4.379   2.162   3.287 -0.0934  0.2031 -0.6874
 6767SOL    HW131763   4.443   2.107   3.241 -0.5775 -0.9056 -0.0362
 6767SOL    HW231764   4.362   2.102   3.360  0.3141  0.2009 -0.5948
 6768SOL     OW31765   0.388   3.369   6.859 -0.2569  0.1609 -0.4078
 6768SOL    HW131766   0.466   3.336   6.903 -1.0445 -0.4112  0.5449
 6768SOL    HW231767   0.428   3.428   6.795  2.9393 -0.1560  1.3012
 6769SOL     OW31768   1.206   1.640   6.753  0.4725 -0.1662  0.5413
 6769SOL    HW131769   1.174   1.619   6.841 -1.7009  0.0306 -0.2028
 6769SOL    HW231770   1.295   1.668   6.773 -0.6629  2.0798  2.5001
 6770SOL     OW31771   0.616   2.958  10.796  0.1696  0.0138 -0.6390
 6770SOL    HW131772   0.561   2.927  10.723 -1.5693 -2.0299  1.5205
 6770SOL    HW231773   0.562   2.960  10.875 -0.9325  0.0947 -1.3868
 6771SOL     OW31774   2.855   0.903   0.209 -0.1732 -0.0887  0.7962
 6771SOL    HW131775   2.876   0.815   0.177  0.2214  0.7758 -1.3063
 6771SOL    HW231776   2.826   0.881   0.298 -2.0659 -0.4428  0.0921
 6772SOL     OW31777   0.223   1.754   6.370 -0.0343  0.0438 -0.1924
 6772SOL    HW131778   0.292   1.793   6.424 -1.4017 -1.1497  2.4252
 6772SOL    HW231779   0.150   1.767   6.430 -1.5529 -1.4887 -1.7146
 6773SOL     OW31780   1.871   2.489   5.067  0.6477  0.4976 -0.1683
 6773SOL    HW131781   1.909   2.417   5.119  1.6457  1.8749  1.0314
 6773SOL    HW231782   1.918   2.469   4.986  3.2728 -1.0024  1.6830
 6774SOL     OW31783   0.751   2.420  12.742  0.3616 -0.3788  1.1830
 6774SOL    HW131784   0.815   2.452  12.679 -1.1948 -2.7159 -1.6247
 6774SOL    HW231785   0.779   2.466  12.821 -1.2669 -0.3333  1.7490
 6775SOL     OW31786   2.463   3.250   7.790  0.2666 -0.3778 -0.0763
 6775SOL    HW131787   2.435   3.160   7.809 -0.7622 -0.5334 -2.2969
 6775SOL    HW231788   2.545   3.233   7.742 -1.3623 -2.5063 -2.1126
 6776SOL     OW31789   3.481   3.781   2.361  0.2557  0.2402 -0.2796
 6776SOL    HW131790   3.427   3.775   2.282 -2.3114  1.6679  1.3314
 6776SOL    HW231791   3.417   3.744   2.422  0.3228  1.3668  0.4710
 6777SOL     OW31792   1.915   1.768   6.421  0.8487  0.4011  0.1401
 6777SOL    HW131793   1.980   1.835   6.399  2.1044 -1.4159 -1.5859
 6777SOL    HW231794   1.912   1.724   6.336 -1.4043 -0.3544  0.5963
 6778SOL     OW31795   2.692   0.371   7.461 -0.2697 -0.1410 -0.1576
 6778SOL    HW131796   2.744   0.292   7.476  1.3005  0.9096 -0.1295
 6778SOL    HW231797   2.661   0.360   7.371  1.2899  0.9122 -0.8230
 6779SOL     OW31798   2.211   4.484   9.017 -0.0832  0.0079 -0.2315
 6779SOL    HW131799   2.189   4.502   8.926 -1.4728  0.6125  0.2226
 6779SOL    HW231800   2.142   4.421   9.038  0.9009 -1.5206 -1.6293
 6780SOL     OW31801   0.599   3.321  11.679  0.0033  0.2143  0.2911
 6780SOL    HW131802   0.534   3.330  11.749 -2.3386 -1.2333 -1.7090
 6780SOL    HW231803   0.676   3.295  11.729  0.8197 -1.2735 -1.7311
 6781SOL     OW31804   3.017   2.568   5.806  0.1493 -0.1498  0.4332
 6781SOL    HW131805   2.953   2.626   5.766  0.4556  0.1076  0.3096
 6781SOL    HW231806   2.969   2.486   5.811  0.1448 -0.3537 -2.9408
 6782SOL     OW31807   3.269   0.938   3.960  0.6178 -1.2920  0.2031
 6782SOL    HW131808   3.215   0.959   3.884  2.8348 -0.0663 -1.0200
 6782SOL    HW231809   3.337   1.004   3.950 -0.2950 -0.6073 -1.4576
 6783SOL     OW31810   4.160   2.419   2.309  0.0235 -0.0192  0.4875
 6783SOL    HW131811   4.144   2.356   2.379  0.7694 -2.6515 -1.7489
 6783SOL    HW231812   4.229   2.374   2.260 -1.9677  0.2036 -2.5107
 6784SOL     OW31813   1.721   3.352  14.113 -0.0180  0.4575  0.3220
 6784SOL    HW131814   1.743   3.262  14.087  0.7455  0.4213  1.0860
 6784SOL    HW231815   1.636   3.356  14.069  0.4038 -1.3770 -0.6831
 6785SOL     OW31816   0.260   1.943   0.719  0.1105  0.0896  0.0723
 6785SOL    HW131817   0.355   1.939   0.714  0.0294  1.3931 -2.4015
 6785SOL    HW231818   0.239   1.862   0.767 -0.5256 -0.4621 -1.1414
 6786SOL     OW31819   4.448   2.724   0.358 -0.5980 -0.3009  0.3323
 6786SOL    HW131820   4.402   2.805   0.378  1.6290  1.2287 -0.7069
 6786SOL    HW231821   4.389   2.689   0.291  1.4023 -1.5888 -0.7874
 6787SOL     OW31822   0.040   2.706   3.935 -0.0814 -0.3136  0.1902
 6787SOL    HW131823   0.131   2.731   3.920  0.6591 -2.1595  1.5331
 6787SOL    HW231824   0.025   2.660   3.852  0.4082  2.3941 -1.3962
 6788SOL     OW31825   0.508   0.466   7.384  0.3405  0.0271  0.0985
 6788SOL    HW131826   0.451   0.398   7.348  0.8734  0.8419 -2.2483
 6788SOL    HW231827   0.531   0.445   7.475 -2.6452  0.8350  1.0585
 6789SOL     OW31828   1.041   2.251  17.291 -0.2729 -0.4874  0.0692
 6789SOL    HW131829   1.094   2.183  17.250  0.7719 -0.6369  1.6541
 6789SOL    HW231830   1.099   2.289  17.357 -1.2243 -2.1228  1.8388
 6790SOL     OW31831   2.741   4.123   5.803 -0.2919  0.2309  0.0863
 6790SOL    HW131832   2.781   4.194   5.753  0.5962 -0.3030  0.0189
 6790SOL    HW231833   2.733   4.171   5.886 -0.7184 -0.9228  0.7149
 6791SOL     OW31834   3.813   0.522   3.210  0.2729 -0.2805 -0.2390
 6791SOL    HW131835   3.829   0.551   3.120  0.6645  1.3952  0.3726
 6791SOL    HW231836   3.867   0.583   3.260 -0.9582  1.1667 -0.6698
 6792SOL     OW31837   4.323   1.040   6.354 -0.0453 -0.5059  0.4469
 6792SOL    HW131838   4.281   1.061   6.270 -1.0116 -1.1417  0.7687
 6792SOL    HW231839   4.409   1.070   6.326 -0.2236 -0.1181  0.3129
 6793SOL     OW31840   3.494   1.780   5.609  0.8599 -0.2035  0.3608
 6793SOL    HW131841   3.492   1.851   5.545  1.0102 -0.3280  0.2193
 6793SOL    HW231842   3.444   1.827   5.676  1.0210  2.3691 -1.3447
 6794SOL     OW31843   0.346   4.619  17.432 -0.1551 -0.9903 -0.5079
 6794SOL    HW131844   0.433   4.657  17.436 -0.5274 -0.0127 -1.8526
 6794SOL    HW231845   0.301   4.695  17.395  0.9566 -0.1912 -0.1900
 6795SOL     OW31846   3.644   4.631   6.559 -0.2738  0.5230  0.5030
 6795SOL    HW131847   3.611   4.614   6.647  1.2784 -1.3753  0.7026
 6795SOL    HW231848   3.588   4.578   6.503  0.0291  1.0334 -0.2770
 6796SOL     OW31849   4.332   3.728   0.215  0.4073  0.0147  0.9318
 6796SOL    HW131850   4.356   3.819   0.199  0.3023  0.0999  1.2639
 6796SOL    HW231851   4.363   3.686   0.135  0.3355  1.4384  0.1501
 6797SOL     OW31852   3.529   2.141  15.366  0.2897 -0.1971  0.4127
 6797SOL    HW131853   3.560   2.213  15.421  1.2855  0.7820 -1.4250
 6797SOL    HW231854   3.607   2.128  15.312 -1.7869  1.2627 -2.9382
 6798SOL     OW31855   3.593   1.191   2.208  0.2768 -0.0871  0.4178
 6798SOL    HW131856   3.596   1.237   2.292 -0.9329 -0.6162  0.7606
 6798SOL    HW231857   3.526   1.249   2.172  2.3520  2.7215  1.1039
 6799SOL     OW31858   4.031   3.020  15.930  0.1608 -0.4784 -0.0733
 6799SOL    HW131859   4.089   3.097  15.933  1.1864 -1.2496  0.0759
 6799SOL    HW231860   4.032   3.010  16.025 -2.2525 -0.2722 -0.0435
 6800SOL     OW31861   4.034   3.724   4.454 -0.4705 -0.2900 -0.4861
 6800SOL    HW131862   4.019   3.817   4.437 -2.5446 -0.6961 -0.8715
 6800SOL    HW231863   4.057   3.718   4.546  4.0673  1.4265 -1.5289
 6801SOL     OW31864   1.767   1.671   5.380 -0.1167  0.1411 -0.1923
 6801SOL    HW131865   1.799   1.634   5.462 -0.5676 -0.3984 -0.2555
 6801SOL    HW231866   1.671   1.680   5.383 -0.3353 -2.8800  1.8724
 6802SOL     OW31867   3.569   1.481   1.850  0.2036  0.2740 -0.0337
 6802SOL    HW131868   3.509   1.523   1.787 -0.2821  0.9383  0.8659
 6802SOL    HW231869   3.611   1.431   1.780 -0.0219  1.4964 -1.0422
 6803SOL     OW31870   3.455   3.803   1.655 -0.2572 -0.0102 -0.2562
 6803SOL    HW131871   3.431   3.750   1.579  2.6605 -0.8880 -0.5679
 6803SOL    HW231872   3.471   3.882   1.603 -0.6081  1.3825  1.7400
 6804SOL     OW31873   3.472   2.483   5.650 -0.7771 -0.4036  1.0773
 6804SOL    HW131874   3.468   2.568   5.607 -0.9856 -0.3538  1.1928
 6804SOL    HW231875   3.380   2.487   5.674 -0.8213 -0.7156  0.9569
 6805SOL     OW31876   0.541   3.154   7.145  0.1188  0.0549  0.2719
 6805SOL    HW131877   0.596   3.222   7.106 -0.3696 -0.0589 -0.6018
 6805SOL    HW231878   0.584   3.080   7.102 -0.2672 -0.4634  0.7799
 6806SOL     OW31879   2.014   2.423   7.789 -0.0759  0.6680 -0.3328
 6806SOL    HW131880   1.970   2.375   7.859 -0.6693  2.0787  0.2627
 6806SOL    HW231881   2.094   2.371   7.783 -0.1468  0.7025 -1.7463
 6807SOL     OW31882   4.016   2.952   6.859  0.0260 -0.8957 -0.0624
 6807SOL    HW131883   4.016   2.970   6.953 -0.3591  1.1759 -0.4597
 6807SOL    HW231884   4.105   2.954   6.825 -0.3156  2.1235 -0.7864
 6808SOL     OW31885   4.113   4.034   7.696  0.3422 -0.4104  0.1749
 6808SOL    HW131886   4.137   4.062   7.785 -0.2727  0.2420  0.1333
 6808SOL    HW231887   4.134   4.106   7.636  0.0233  2.0018  2.9333
 6809SOL     OW31888   1.490   0.537  15.362 -0.0350 -0.6233 -0.4064
 6809SOL    HW131889   1.499   0.620  15.313  1.2333 -0.7116 -0.3191
 6809SOL    HW231890   1.453   0.475  15.299  0.0879 -1.5051  0.3971
 6810SOL     OW31891   0.796   0.232   0.104  0.0415  0.0977 -0.5659
 6810SOL    HW131892   0.773   0.160   0.162  0.0796  0.1437 -0.4940
 6810SOL    HW231893   0.875   0.266   0.146 -1.4684  0.9915  1.5687
 6811SOL     OW31894   4.161   3.093   3.866  0.5655  0.1458  0.1550
 6811SOL    HW131895   4.167   3.029   3.937  0.8333  0.0989  0.0933
 6811SOL    HW231896   4.155   3.037   3.789  0.8370 -0.2186  0.3990
 6812SOL     OW31897   0.863   0.853   3.200  0.1697 -0.0927 -0.3509
 6812SOL    HW131898   0.949   0.820   3.175  0.2824  1.2977 -1.8055
 6812SOL    HW231899   0.840   0.901   3.120  1.3165 -0.7226 -1.0640
 6813SOL     OW31900   0.261   3.633   1.156 -0.2546 -0.0904  0.4629
 6813SOL    HW131901   0.236   3.725   1.147 -0.1476 -0.2517 -1.5681
 6813SOL    HW231902   0.201   3.607   1.225  0.1664  0.7478  1.1433
 6814SOL     OW31903   0.293   3.805   0.873 -0.5017 -0.2464  0.4156
 6814SOL    HW131904   0.373   3.752   0.869 -1.0513 -0.9864 -0.7077
 6814SOL    HW231905   0.225   3.747   0.838  0.9454 -1.4977 -0.3451
 6815SOL     OW31906   3.418   3.602   5.909 -0.2533  0.0672  0.1936
 6815SOL    HW131907   3.476   3.678   5.921 -0.9675  0.8796 -1.5987
 6815SOL    HW231908   3.486   3.535   5.900 -0.0776  0.4974 -1.6108
 6816SOL     OW31909   4.462   1.679   1.719 -0.9746 -0.0714 -0.0798
 6816SOL    HW131910   4.418   1.762   1.700 -2.4151 -0.7696  0.2017
 6816SOL    HW231911   4.463   1.670   1.815 -1.2969  0.1761 -0.0535
 6817SOL     OW31912   0.290   0.290  15.714 -0.7230 -0.0194  0.0083
 6817SOL    HW131913   0.290   0.286  15.810 -2.4571  1.6834  0.0782
 6817SOL    HW231914   0.364   0.230  15.697 -1.3276 -0.9151  0.5153
 6818SOL     OW31915   0.718   0.426   8.505 -0.0087  0.0487 -0.3771
 6818SOL    HW131916   0.717   0.472   8.589  0.5982  0.0417 -0.3615
 6818SOL    HW231917   0.746   0.488   8.437  0.7262 -1.7744 -1.7338
 6819SOL     OW31918   3.612   3.912   8.662 -0.8663 -0.1302 -0.4781
 6819SOL    HW131919   3.599   3.908   8.568 -1.6311  0.3343 -0.3943
 6819SOL    HW231920   3.700   3.950   8.668 -0.6318  0.0407 -5.3378
 6820SOL     OW31921   4.440   2.287   2.852 -0.2973  0.1406 -0.4559
 6820SOL    HW131922   4.436   2.193   2.866 -2.0119 -0.0630 -2.3921
 6820SOL    HW231923   4.380   2.295   2.778  0.3733 -1.0628 -1.1091
 6821SOL     OW31924   1.219   1.383  13.036  1.1481 -0.0630  0.1096
 6821SOL    HW131925   1.185   1.461  13.080  1.6351 -0.4035  1.0872
 6821SOL    HW231926   1.301   1.420  13.004  1.3135  0.2706  0.9057
 6822SOL     OW31927   3.943   0.084   0.215  0.8757  0.6300  0.7393
 6822SOL    HW131928   3.893   0.003   0.227  0.5741  0.8525  0.9626
 6822SOL    HW231929   3.977   0.088   0.304  1.3666  0.3812  0.5628
 6823SOL     OW31930   3.533   3.932  17.063 -0.2272  0.8599 -0.3342
 6823SOL    HW131931   3.531   4.015  17.016 -0.5336 -0.4989 -2.7515
 6823SOL    HW231932   3.524   3.862  16.998  0.4344  0.0615  0.4466
 6824SOL     OW31933   4.103   0.920   5.565 -0.1165 -0.5702  0.1141
 6824SOL    HW131934   4.012   0.941   5.543 -0.0167  0.3317  0.5707
 6824SOL    HW231935   4.112   0.835   5.522 -0.6024 -0.4198 -0.2866
 6825SOL     OW31936   1.878   1.854   4.934 -0.1878  0.1318 -0.3578
 6825SOL    HW131937   1.919   1.887   5.014 -1.6974  2.8916 -0.7039
 6825SOL    HW231938   1.791   1.886   4.956 -0.9405 -0.7369 -2.1142
 6826SOL     OW31939   2.815   3.512   6.813  0.5549 -0.3998 -0.1730
 6826SOL    HW131940   2.752   3.545   6.749 -2.1518  2.1262  3.8028
 6826SOL    HW231941   2.775   3.563   6.883 -0.3288  0.7614 -1.5353
 6827SOL     OW31942   3.459   0.217   3.453 -0.4140  0.2446  0.3780
 6827SOL    HW131943   3.419   0.135   3.481  0.7455 -0.1148  0.9785
 6827SOL    HW231944   3.415   0.223   3.368  1.4028 -2.2298 -0.7413
 6828SOL     OW31945   3.593   2.920   2.062  0.1881 -0.1604  0.2763
 6828SOL    HW131946   3.581   2.986   2.130 -0.2543  1.2489 -1.1497
 6828SOL    HW231947   3.610   2.977   1.986 -1.3387  0.0951  0.1254
 6829SOL     OW31948   1.930   0.902   3.828  0.5671 -0.1280  0.0629
 6829SOL    HW131949   2.021   0.876   3.839 -0.1538 -3.6048 -2.1958
 6829SOL    HW231950   1.947   0.957   3.752 -2.5239 -0.0439 -0.6021
 6830SOL     OW31951   1.597   4.444  12.214 -0.3841  0.2028 -0.4550
 6830SOL    HW131952   1.518   4.490  12.242 -0.4454 -0.4316  0.4213
 6830SOL    HW231953   1.563   4.364  12.254  1.9631 -2.0273 -2.8882
 6831SOL     OW31954   3.371   2.735   7.626 -0.2126 -0.5219  0.5764
 6831SOL    HW131955   3.454   2.690   7.638 -0.2150 -1.1019 -1.5578
 6831SOL    HW231956   3.353   2.727   7.532  3.0747 -0.5784 -0.0184
 6832SOL     OW31957   0.627   0.537   5.206 -0.1166 -0.4542 -0.2764
 6832SOL    HW131958   0.673   0.478   5.267  0.0674 -3.0539 -2.9461
 6832SOL    HW231959   0.617   0.610   5.267 -1.3562 -1.8963  1.2203
 6833SOL     OW31960   1.952   0.303   9.922 -0.3455 -0.2268  0.4442
 6833SOL    HW131961   1.983   0.249   9.994  0.2163  3.1744  2.7037
 6833SOL    HW231962   2.022   0.279   9.861 -0.7272 -1.3333  0.4408
 6834SOL     OW31963   0.087   2.814   2.805  0.1489  0.2913 -0.1936
 6834SOL    HW131964   0.074   2.909   2.802  3.6621  0.8462  0.9519
 6834SOL    HW231965   0.146   2.805   2.730  0.4644  1.8392 -0.1431
 6835SOL     OW31966   4.706   2.248   8.248  0.0798  0.3244 -0.0573
 6835SOL    HW131967   0.029   2.250   8.329  2.4170  1.5958 -1.5435
 6835SOL    HW231968   0.030   2.185   8.198 -1.4243  0.3597 -1.6417
 6836SOL     OW31969   2.790   0.706   6.688 -0.1361  0.0698  0.8966
 6836SOL    HW131970   2.855   0.705   6.618 -0.6421  2.3364  0.3883
 6836SOL    HW231971   2.743   0.622   6.683  0.4600 -0.1990 -0.1423
 6837SOL     OW31972   0.291   4.626   8.381  0.0346 -0.0753 -0.1986
 6837SOL    HW131973   0.279   4.718   8.405  1.7546 -0.2664  1.3501
 6837SOL    HW231974   0.385   4.613   8.384 -0.1456 -1.8021 -2.0726
 6838SOL     OW31975   0.454   4.631   7.649  0.3127  0.5945  0.1089
 6838SOL    HW131976   0.369   4.591   7.635  0.6801 -0.2458  0.2712
 6838SOL    HW231977   0.462   4.617   7.744 -0.9746 -0.3325  0.0704
 6839SOL     OW31978   4.074   2.689   9.403  0.1954  0.4342 -0.2690
 6839SOL    HW131979   3.980   2.684   9.388 -0.2905  0.4453  2.8420
 6839SOL    HW231980   4.101   2.597   9.392 -0.2293  0.4752 -1.6265
 6840SOL     OW31981   2.888   2.897  16.207 -0.1672  0.2700 -0.1252
 6840SOL    HW131982   2.847   2.975  16.244  0.9798  0.7319  0.1686
 6840SOL    HW231983   2.853   2.901  16.118 -1.8408 -3.1421  0.3723
 6841SOL     OW31984   0.281   1.395  12.855  0.3958 -0.9083  0.3037
 6841SOL    HW131985   0.336   1.399  12.933  3.3389  1.6118 -1.8910
 6841SOL    HW231986   0.194   1.368  12.885  0.4351 -2.8981 -1.3308
 6842SOL     OW31987   1.131   3.534   0.035  0.4090 -0.2199 -0.3912
 6842SOL    HW131988   1.044   3.564   0.008  0.7928 -0.2684 -1.6445
 6842SOL    HW231989   1.140   3.610   0.092  2.2893 -1.0027  0.3260
 6843SOL     OW31990   2.780   0.872   8.057  0.1684 -0.7820 -0.4113
 6843SOL    HW131991   2.839   0.906   7.990  0.9511  0.0899  0.7294
 6843SOL    HW231992   2.774   0.782   8.025  0.3028 -0.6810 -0.7174
 6844SOL     OW31993   0.156   0.163  10.976  0.2600  0.0328 -0.4181
 6844SOL    HW131994   0.151   0.070  10.957  0.7997  0.0332 -0.5641
 6844SOL    HW231995   0.064   0.186  10.990  0.2003 -0.9782  0.7316
 6845SOL     OW31996   3.817   0.402  16.695 -0.5942  0.0743  0.1572
 6845SOL    HW131997   3.801   0.445  16.779 -2.7953  0.6158 -0.5397
 6845SOL    HW231998   3.739   0.433  16.649 -1.4057  0.1492  1.5500
 6846SOL     OW31999   3.980   3.406   4.731 -0.0273 -0.7418 -0.0462
 6846SOL    HW132000   4.060   3.359   4.710  0.2463 -0.5119  0.4641
 6846SOL    HW232001   4.002   3.434   4.820  2.7862  0.8661 -1.2551
 6847SOL     OW32002   0.996   1.137   5.856  0.3713  0.2558 -0.1863
 6847SOL    HW132003   0.949   1.062   5.820  0.5324 -1.2003  2.6308
 6847SOL    HW232004   0.952   1.141   5.940 -0.3303 -1.7470 -0.4458
 6848SOL     OW32005   3.196   0.961  12.934  0.4645 -0.2891  0.4639
 6848SOL    HW132006   3.228   1.006  12.856 -0.5711  0.1312  0.2812
 6848SOL    HW232007   3.158   1.037  12.978  1.8341  1.2085 -0.9462
 6849SOL     OW32008   2.331   0.822   9.601  0.2123  0.3076 -0.3588
 6849SOL    HW132009   2.402   0.838   9.662 -0.5765  0.0890  0.6132
 6849SOL    HW232010   2.259   0.850   9.657  0.9832  0.0518  0.7418
 6850SOL     OW32011   0.273   2.498   5.751  0.3826  0.1294  0.2308
 6850SOL    HW132012   0.304   2.548   5.675  0.1038 -0.1532 -0.0728
 6850SOL    HW232013   0.307   2.409   5.739 -1.9090 -0.8456  1.0026
 6851SOL     OW32014   1.698   1.221   5.683  0.2735 -0.1685  0.1949
 6851SOL    HW132015   1.770   1.203   5.623  0.2755  1.1325 -0.2116
 6851SOL    HW232016   1.627   1.178   5.635  2.9535 -2.7426 -1.4428
 6852SOL     OW32017   3.863   4.420  11.156  0.0183  0.1179  0.1891
 6852SOL    HW132018   3.788   4.437  11.098  0.3032  0.1369 -0.1732
 6852SOL    HW232019   3.887   4.334  11.122 -1.4690 -1.3212  2.7595
 6853SOL     OW32020   2.291   0.143   5.022  0.4390 -0.6477 -0.5174
 6853SOL    HW132021   2.269   0.137   5.115  0.4892  0.6743 -0.4108
 6853SOL    HW232022   2.345   0.222   5.023 -1.5672  0.7153  0.7445
 6854SOL     OW32023   1.383   3.021   3.644 -0.0835 -0.1146 -0.0939
 6854SOL    HW132024   1.349   2.943   3.600 -0.9011  0.5059 -0.5691
 6854SOL    HW232025   1.473   3.015   3.611 -0.0243  2.1698 -0.3421
 6855SOL     OW32026   3.191   2.252   3.794  0.6911  0.0419  0.6657
 6855SOL    HW132027   3.128   2.290   3.733  0.8150 -1.4265 -0.3860
 6855SOL    HW232028   3.135   2.206   3.856  0.3192  0.7636  0.8634
 6856SOL     OW32029   1.922   0.107  16.076 -0.3857 -0.2470  0.1483
 6856SOL    HW132030   1.965   0.043  16.019  1.5354  1.1329  0.0276
 6856SOL    HW232031   1.962   0.188  16.043  0.6557 -1.0518 -0.5723
 6857SOL     OW32032   1.312   3.727   8.435  0.0823 -0.1643  0.4036
 6857SOL    HW132033   1.282   3.759   8.520 -1.6349 -0.3565 -0.1356
 6857SOL    HW232034   1.233   3.764   8.395  1.4560  0.5730 -1.6113
 6858SOL     OW32035   0.938   1.467  14.447 -0.2053  0.6241  0.0869
 6858SOL    HW132036   0.970   1.544  14.400 -0.4255  0.2339 -0.7138
 6858SOL    HW232037   0.934   1.499  14.537  0.0854  0.5376  0.1303
 6859SOL     OW32038   1.316   3.043  10.220  0.4974  0.4359  0.0720
 6859SOL    HW132039   1.261   2.965  10.212 -0.0944  0.6318  2.2214
 6859SOL    HW232040   1.384   3.021  10.284  0.0155 -2.0522 -0.2793
 6860SOL     OW32041   1.949   3.723  15.516  0.4313  0.1729 -0.2320
 6860SOL    HW132042   1.993   3.753  15.595  1.5014 -0.8705 -0.4366
 6860SOL    HW232043   1.915   3.807  15.484  0.0992  0.2249  0.2606
 6861SOL     OW32044   3.231   3.220   1.861 -0.7137  0.3370 -0.1542
 6861SOL    HW132045   3.224   3.311   1.830 -3.6437 -0.3449 -1.5184
 6861SOL    HW232046   3.187   3.209   1.945 -0.7370  1.8465  0.0370
 6862SOL     OW32047   4.046   3.302   8.167  0.3643  0.2841 -0.3880
 6862SOL    HW132048   4.135   3.277   8.191 -0.1264 -1.1064 -0.0271
 6862SOL    HW232049   4.045   3.302   8.071  0.1876 -0.6133 -0.3895
 6863SOL     OW32050   1.075   1.017   4.540 -0.7067 -0.8534  0.5145
 6863SOL    HW132051   1.049   1.047   4.627  0.0727 -0.7074  0.6962
 6863SOL    HW232052   1.167   1.042   4.545 -0.5843 -1.4133  1.0363
 6864SOL     OW32053   1.690   4.021  16.267 -0.3073 -0.4571 -0.1251
 6864SOL    HW132054   1.631   3.978  16.328 -1.4963 -0.1443 -1.0595
 6864SOL    HW232055   1.752   3.961  16.226 -0.0528 -0.3622  0.1186
 6865SOL     OW32056   0.731   4.649   1.184 -0.3840  0.0607  0.0155
 6865SOL    HW132057   0.823   4.676   1.179 -0.6164  0.7721 -0.4090
 6865SOL    HW232058   0.745   4.564   1.226 -0.8799 -0.0400 -0.0275
 6866SOL     OW32059   2.022   3.053   0.351 -0.0524 -0.1001 -0.1833
 6866SOL    HW132060   1.970   3.066   0.430  1.6724  0.6972  0.8353
 6866SOL    HW232061   1.979   2.982   0.304  1.9298  0.2575 -2.5094
 6867SOL     OW32062   3.589   1.287   8.073  0.4634 -0.0794  0.2028
 6867SOL    HW132063   3.646   1.354   8.112 -1.1395  0.0501  2.3375
 6867SOL    HW232064   3.505   1.317   8.107 -1.8526 -2.3166 -3.5616
 6868SOL     OW32065   3.219   4.563   3.311 -0.8104 -0.8774 -0.2177
 6868SOL    HW132066   3.236   4.618   3.235  1.1917 -1.2525 -0.0356
 6868SOL    HW232067   3.256   4.484   3.272  1.0624  0.5030 -1.2017
 6869SOL     OW32068   2.749   1.573   2.884 -0.2794 -0.2700  0.2143
 6869SOL    HW132069   2.835   1.591   2.846 -0.7458  1.3076 -0.0994
 6869SOL    HW232070   2.746   1.477   2.883 -0.7239 -0.2582  0.4158
 6870SOL     OW32071   3.547   1.010  13.363  0.0711  0.2090  0.1405
 6870SOL    HW132072   3.518   0.924  13.334  0.7747  0.3736 -1.0425
 6870SOL    HW232073   3.582   0.990  13.450 -2.1219  4.1302  1.9058
 6871SOL     OW32074   3.054   2.475   4.650 -0.4478  0.9498  0.0995
 6871SOL    HW132075   3.048   2.416   4.575  0.8738  0.5992  0.2613
 6871SOL    HW232076   3.143   2.507   4.636  0.1007 -0.3362  0.6392
 6872SOL     OW32077   2.657   0.988   2.447  0.0782 -0.0487  0.4245
 6872SOL    HW132078   2.705   1.037   2.380  0.1106 -2.1538 -1.0927
 6872SOL    HW232079   2.655   0.899   2.411  0.1170  0.0408  0.2032
 6873SOL     OW32080   2.372   3.927   2.102 -0.3003  0.8287 -0.4080
 6873SOL    HW132081   2.329   3.843   2.122  1.5538  0.1326  0.6259
 6873SOL    HW232082   2.300   3.987   2.121 -0.4027  0.0902  1.5263
 6874SOL     OW32083   1.547   0.477   4.796 -0.3865  0.5159 -0.0479
 6874SOL    HW132084   1.621   0.535   4.813 -0.1955 -0.1383  1.3894
 6874SOL    HW232085   1.579   0.447   4.711 -1.5890 -1.0560  0.0477
 6875SOL     OW32086   1.256   2.184  13.739  0.4981  0.3693  0.3358
 6875SOL    HW132087   1.274   2.151  13.827 -2.6838 -1.7639  0.2126
 6875SOL    HW232088   1.345   2.198  13.708  0.8955 -0.6971  1.0073
 6876SOL     OW32089   0.305   0.317   3.758  0.7774 -0.3690  0.1222
 6876SOL    HW132090   0.223   0.337   3.804  1.0573  0.6956  0.1545
 6876SOL    HW232091   0.288   0.370   3.680 -0.1717  0.6957  1.0585
 6877SOL     OW32092   4.697   4.171   9.118  0.0753  0.0936  0.2111
 6877SOL    HW132093   4.630   4.103   9.109  0.0534  0.1894 -0.3594
 6877SOL    HW232094   4.724   4.150   9.207 -1.7666  0.6149  0.8886
 6878SOL     OW32095   0.355   3.928   7.935 -0.1077 -0.7539 -0.4998
 6878SOL    HW132096   0.285   3.887   7.885 -0.3647 -0.5262 -0.3260
 6878SOL    HW232097   0.388   3.992   7.872 -0.7393  0.6745  0.6371
 6879SOL     OW32098   1.035   2.405   4.534  0.6653  0.2481  0.4068
 6879SOL    HW132099   1.017   2.419   4.627 -0.2057  3.2672 -0.2414
 6879SOL    HW232100   1.124   2.439   4.533  0.2157  1.4065 -0.5088
 6880SOL     OW32101   4.133   0.880   6.754  0.2265 -0.2368 -0.2681
 6880SOL    HW132102   4.195   0.916   6.818 -0.3400 -1.0362  0.7242
 6880SOL    HW232103   4.132   0.961   6.702  0.7187 -0.5754 -0.8089
 6881SOL     OW32104   3.576   3.874   5.680 -0.3977 -0.0652  0.1212
 6881SOL    HW132105   3.543   3.870   5.591  1.8335  0.2052 -0.7185
 6881SOL    HW232106   3.634   3.797   5.679 -1.3182 -0.7961  3.2606
 6882SOL     OW32107   2.669   0.631   9.532  0.1347  0.6117 -0.4311
 6882SOL    HW132108   2.733   0.702   9.521 -2.2386  2.9422  0.8559
 6882SOL    HW232109   2.722   0.562   9.492  0.3503  0.1140  0.7148
 6883SOL     OW32110   1.103   2.584  15.875 -0.0813  0.1985 -0.0798
 6883SOL    HW132111   1.054   2.659  15.909 -0.3447  0.6834 -1.5449
 6883SOL    HW232112   1.033   2.519  15.869  2.0351 -2.3549  2.8286
 6884SOL     OW32113   2.075   1.007  10.902 -0.1972 -0.1392  0.2078
 6884SOL    HW132114   2.140   1.077  10.905  0.0509 -0.2919 -1.5688
 6884SOL    HW232115   2.129   0.937  10.940 -0.5990 -0.9136 -0.6371
 6885SOL     OW32116   4.600   2.047   4.327  0.1498 -1.3707 -0.0498
 6885SOL    HW132117   4.617   2.101   4.250  0.0212 -1.6786 -0.2929
 6885SOL    HW232118   4.690   2.044   4.359 -0.2834 -1.3229  1.1685
 6886SOL     OW32119   4.028   3.745   0.220  0.1264 -0.1537 -0.3628
 6886SOL    HW132120   4.059   3.830   0.192 -2.3190  1.0237  0.5311
 6886SOL    HW232121   4.098   3.691   0.183 -1.0907 -2.2874  0.4115
 6887SOL     OW32122   1.687   0.876   1.222 -0.1600  0.0322 -0.2844
 6887SOL    HW132123   1.692   0.822   1.301 -1.9924  0.3337  0.0289
 6887SOL    HW232124   1.596   0.903   1.208 -0.1103 -0.0512 -0.7807
 6888SOL     OW32125   0.916   4.705   7.997  0.0888 -0.2264 -0.0738
 6888SOL    HW132126   1.011   4.700   8.012 -0.0268 -2.4196 -0.0820
 6888SOL    HW232127   0.899   0.059   8.044  1.0187 -0.3645  0.5201
 6889SOL     OW32128   1.727   0.804  11.733  0.0557 -0.0740 -0.1756
 6889SOL    HW132129   1.677   0.752  11.796 -1.2501  0.7841 -0.5029
 6889SOL    HW232130   1.700   0.770  11.648 -0.6797  1.8164 -0.6867
 6890SOL     OW32131   0.134   4.125  13.936 -0.1568 -0.0936  0.4274
 6890SOL    HW132132   0.098   4.052  13.884  0.3766  0.4661 -0.7415
 6890SOL    HW232133   0.228   4.120  13.919  0.0378  3.5546  0.3769
 6891SOL     OW32134   4.179   0.359  12.376 -0.1772 -0.4797 -0.1870
 6891SOL    HW132135   4.088   0.330  12.382 -0.3625  0.0592 -0.4583
 6891SOL    HW232136   4.213   0.300  12.443 -0.9986  1.0372  1.5698
 6892SOL     OW32137   3.610   4.147   5.583  0.1641  0.1431 -0.3263
 6892SOL    HW132138   3.545   4.121   5.519 -2.0274  1.4654  1.3712
 6892SOL    HW232139   3.560   4.190   5.652  0.7357 -3.4970  2.3411
 6893SOL     OW32140   0.463   4.104   5.391 -0.3983  0.3308  0.3562
 6893SOL    HW132141   0.467   4.116   5.296  3.9262  0.2080  0.5295
 6893SOL    HW232142   0.552   4.074   5.411 -1.0270 -1.1015  0.9562
 6894SOL     OW32143   1.896   0.175  13.162  0.1318  0.3175 -0.4640
 6894SOL    HW132144   1.869   0.083  13.160 -2.5486  1.1260 -1.6311
 6894SOL    HW232145   1.973   0.173  13.106  0.1897 -2.0200 -0.3015
 6895SOL     OW32146   1.012   4.029   9.412 -0.0555  0.6206 -0.1695
 6895SOL    HW132147   1.036   4.000   9.324 -0.3555 -3.2020  1.0166
 6895SOL    HW232148   1.027   3.949   9.463  1.8592  0.7769 -0.5070
 6896SOL     OW32149   0.783   1.915   1.868 -0.1807  0.1757 -0.0097
 6896SOL    HW132150   0.713   1.886   1.927  0.9273  1.0574  1.7207
 6896SOL    HW232151   0.838   1.838   1.880 -0.0262  0.3393  0.3391
 6897SOL     OW32152   1.773   1.364   5.295  0.0991  0.3819  0.0840
 6897SOL    HW132153   1.698   1.385   5.350 -0.7473  0.0092 -0.9364
 6897SOL    HW232154   1.857   1.395   5.331  0.0054  1.6974 -0.8303
 6898SOL     OW32155   1.772   3.847   9.628  0.2766  0.2167 -0.1650
 6898SOL    HW132156   1.732   3.762   9.645 -2.8541  1.8714  0.7339
 6898SOL    HW232157   1.832   3.841   9.554 -1.1385  0.7915 -1.3528
 6899SOL     OW32158   0.526   2.344   3.941 -0.2078 -0.4748  0.1917
 6899SOL    HW132159   0.565   2.398   4.010 -0.2420  0.2244 -0.3385
 6899SOL    HW232160   0.463   2.405   3.902 -0.8725  0.2227  2.3427
 6900SOL     OW32161   3.863   3.094   8.536 -0.0047  0.0195 -0.4795
 6900SOL    HW132162   3.887   3.130   8.450  0.2845 -3.7880 -2.0063
 6900SOL    HW232163   3.785   3.041   8.519 -1.9547  1.9291  2.5651
 6901SOL     OW32164   2.362   4.209   4.774  0.0510 -0.0656  0.6100
 6901SOL    HW132165   2.384   4.245   4.688  1.9307 -0.0031  1.1294
 6901SOL    HW232166   2.325   4.123   4.752 -0.2565  1.0935 -3.3043
 6902SOL     OW32167   0.210   1.202   7.429  0.1478 -0.3481  0.2989
 6902SOL    HW132168   0.255   1.257   7.365  0.7086 -2.8556 -1.5054
 6902SOL    HW232169   0.282   1.168   7.483  0.1193  1.0883  1.2320
 6903SOL     OW32170   0.469   3.718  12.858  0.0794 -0.0279  0.0901
 6903SOL    HW132171   0.515   3.801  12.861  0.5012 -0.2837  0.7118
 6903SOL    HW232172   0.497   3.675  12.939 -1.1706 -2.0689 -0.5532
 6904SOL     OW32173   3.149   3.162   1.600  0.1410  0.0349 -0.1728
 6904SOL    HW132174   3.175   3.164   1.692 -3.5257 -2.3602  0.9040
 6904SOL    HW232175   3.055   3.176   1.611  0.4532  0.4799  2.0713
 6905SOL     OW32176   1.712   2.037   2.460  0.8822  0.0367  0.3949
 6905SOL    HW132177   1.636   2.069   2.508  1.9615  1.5391  1.1063
 6905SOL    HW232178   1.707   1.943   2.480 -0.6781 -0.1178 -0.6646
 6906SOL     OW32179   4.432   2.782  10.608  0.7924  0.0416 -0.9619
 6906SOL    HW132180   4.351   2.774  10.658 -0.2438 -1.6688 -2.9221
 6906SOL    HW232181   4.475   2.697  10.616 -1.2693 -0.8320  1.0339
 6907SOL     OW32182   4.571   0.442  17.403 -0.3053  0.8998 -0.1681
 6907SOL    HW132183   4.524   0.486  17.473  0.0052  1.0170 -0.0345
 6907SOL    HW232184   4.592   0.507  17.336  2.7397  0.0675 -0.0052
 6908SOL     OW32185   2.767   2.606  17.507  0.1783 -0.1542 -0.1139
 6908SOL    HW132186   2.716   2.685  17.489 -2.1565 -1.2453  1.6678
 6908SOL    HW232187   2.813   2.597  17.424 -0.7613 -1.9444 -0.4657
 6909SOL     OW32188   1.514   1.960   8.947 -0.3591  0.4653 -0.2243
 6909SOL    HW132189   1.512   1.977   9.041  0.7196 -0.9150  0.0487
 6909SOL    HW232190   1.596   1.911   8.935 -1.1043 -0.3375 -2.0766
 6910SOL     OW32191   2.069   2.144   6.796 -0.5813 -0.2092  0.0587
 6910SOL    HW132192   2.088   2.152   6.702 -0.9180  3.9557  0.3791
 6910SOL    HW232193   2.003   2.212   6.808 -0.7544 -0.2806 -0.4810
 6911SOL     OW32194   2.626   0.599   7.200  0.6686 -0.1128  0.1810
 6911SOL    HW132195   2.691   0.583   7.132  0.6135 -1.0721  0.3605
 6911SOL    HW232196   2.562   0.664   7.169  1.3196 -0.4431 -1.8363
 6912SOL     OW32197   1.813   0.011   3.117  0.2691 -0.4150  0.3907
 6912SOL    HW132198   1.735   4.716   3.065  0.4807 -0.9824  0.3128
 6912SOL    HW232199   1.815   4.659   3.171 -1.3855 -1.2562 -0.7790
 6913SOL     OW32200   1.447   2.563   5.342  0.1851  0.6250 -0.0618
 6913SOL    HW132201   1.361   2.597   5.369  0.5780  1.5663  0.0086
 6913SOL    HW232202   1.475   2.639   5.292  2.4364 -1.2934 -1.6890
 6914SOL     OW32203   4.117   2.923   7.949 -0.3488  0.0096 -0.7755
 6914SOL    HW132204   4.091   2.980   7.876 -0.2871 -0.3443 -1.0770
 6914SOL    HW232205   4.155   2.851   7.898  2.1785  1.2753 -0.6872
 6915SOL     OW32206   2.547   2.692   5.223  0.8207  0.0128 -0.2074
 6915SOL    HW132207   2.572   2.643   5.144  1.2399  1.0194 -0.7042
 6915SOL    HW232208   2.581   2.779   5.201  0.0011  0.3216 -0.2564
 6916SOL     OW32209   0.637   0.731   2.380 -0.0823 -0.2364  0.0358
 6916SOL    HW132210   0.624   0.824   2.401  1.9836  0.3065 -1.1312
 6916SOL    HW232211   0.725   0.713   2.410 -0.2782  2.0546  2.0050
 6917SOL     OW32212   0.344   1.456   3.412  0.0166  0.1008  0.3775
 6917SOL    HW132213   0.256   1.492   3.419 -0.6992 -1.1750 -1.9572
 6917SOL    HW232214   0.325   1.371   3.452 -0.4740  0.2754  0.5202
 6918SOL     OW32215   4.322   4.616   3.466  0.3956  0.6906 -0.5889
 6918SOL    HW132216   4.262   4.550   3.501  0.6335  0.4056 -0.7182
 6918SOL    HW232217   4.308   4.677   3.539 -4.6244  0.1176 -1.0448
 6919SOL     OW32218   4.343   2.254   4.271  0.2739 -0.0060 -0.2776
 6919SOL    HW132219   4.437   2.247   4.251  0.3800 -0.9039  0.5009
 6919SOL    HW232220   4.342   2.346   4.297 -0.0279  0.5949 -2.4693
 6920SOL     OW32221   0.855   0.210   8.120 -0.9194 -0.3858 -0.2345
 6920SOL    HW132222   0.850   0.306   8.118  1.3513 -0.2178  1.3260
 6920SOL    HW232223   0.834   0.194   8.212  0.0222 -1.4717 -0.2011
 6921SOL     OW32224   3.086   3.510  14.215 -0.3483  0.8094 -0.4903
 6921SOL    HW132225   3.136   3.431  14.237 -0.0475  1.1662  0.1211
 6921SOL    HW232226   3.061   3.507  14.123  0.9579 -0.6527 -0.7937
 6922SOL     OW32227   1.867   3.353   4.025  0.2331 -0.1251 -0.5329
 6922SOL    HW132228   1.814   3.279   4.051 -1.1970  1.5448  1.3202
 6922SOL    HW232229   1.795   3.402   3.985 -0.1278 -0.7698 -0.6724
 6923SOL     OW32230   0.844   0.593  14.934  0.4177 -0.0528 -0.1899
 6923SOL    HW132231   0.881   0.620  14.850 -1.5323 -0.0672 -1.0518
 6923SOL    HW232232   0.883   0.509  14.958  2.4399  1.5355  2.1757
 6924SOL     OW32233   0.062   0.956   7.342 -0.5920  0.2923  0.2587
 6924SOL    HW132234   0.140   0.916   7.380 -0.3182  0.1375 -0.4735
 6924SOL    HW232235   0.090   1.046   7.359  3.6106 -0.8317 -0.7990
 6925SOL     OW32236   2.706   2.641   8.888  0.8268 -0.4325 -0.1199
 6925SOL    HW132237   2.637   2.705   8.872  1.4476  1.0778  3.2580
 6925SOL    HW232238   2.704   2.583   8.812 -1.2346 -0.2807 -0.1887
 6926SOL     OW32239   0.841   0.822  13.046 -0.2183  0.6394 -0.0101
 6926SOL    HW132240   0.776   0.814  12.976 -0.0639  0.0521 -0.0858
 6926SOL    HW232241   0.779   0.804  13.115 -0.5263 -0.6150 -0.6175
 6927SOL     OW32242   1.712   0.832   7.589  0.0210 -0.0140 -0.0744
 6927SOL    HW132243   1.697   0.878   7.671  1.7595 -1.4474  1.0388
 6927SOL    HW232244   1.633   0.863   7.545 -0.1858 -0.9266 -0.3504
 6928SOL     OW32245   4.373   2.699  14.469  0.1206 -0.2479  0.3008
 6928SOL    HW132246   4.344   2.725  14.556  2.7904  3.5842  0.0689
 6928SOL    HW232247   4.414   2.613  14.475  0.2546 -0.3342 -1.6181
 6929SOL     OW32248   0.981   3.020   6.223  0.3678  0.5429  0.0470
 6929SOL    HW132249   0.992   3.102   6.176 -2.2963  0.9612  0.1239
 6929SOL    HW232250   0.920   3.057   6.288 -0.3895 -0.0754 -0.3027
 6930SOL     OW32251   2.400   2.418   1.684 -0.5677 -0.9547 -0.0747
 6930SOL    HW132252   2.396   2.396   1.777 -1.3361 -0.3314  0.0298
 6930SOL    HW232253   2.314   2.458   1.670 -0.1813 -0.3868 -0.8348
 6931SOL     OW32254   3.257   0.177   0.847 -0.3554 -0.0191 -0.3652
 6931SOL    HW132255   3.253   0.262   0.805 -1.5027 -0.4021 -1.0171
 6931SOL    HW232256   3.192   0.120   0.806 -0.8247 -0.2157  0.6506
 6932SOL     OW32257   0.318   2.541   2.227  0.0844 -0.1586  0.1216
 6932SOL    HW132258   0.401   2.583   2.206 -0.6403  0.5554 -1.3295
 6932SOL    HW232259   0.270   2.541   2.144  0.7815 -0.6154 -0.2843
 6933SOL     OW32260   2.196   1.538   8.655  0.8346  0.4233 -0.1128
 6933SOL    HW132261   2.224   1.480   8.585 -1.2128  0.4514 -0.9432
 6933SOL    HW232262   2.110   1.566   8.623  0.2810 -0.8190  0.2492
 6934SOL     OW32263   0.120   0.496  16.556 -0.0323 -0.4504 -0.1507
 6934SOL    HW132264   0.147   0.517  16.645  2.2060 -0.5898 -0.7897
 6934SOL    HW232265   0.028   0.519  16.570  0.1788  1.4231 -1.7797
 6935SOL     OW32266   2.717   0.263   8.364 -0.0816 -0.1556  0.1271
 6935SOL    HW132267   2.673   0.234   8.445 -1.9499  1.3101 -0.3620
 6935SOL    HW232268   2.770   0.335   8.396 -0.7904 -0.4922  2.0978
 6936SOL     OW32269   0.535   1.041   4.351  0.1498  0.0693 -0.4713
 6936SOL    HW132270   0.616   1.047   4.403  0.1355  0.1727 -0.4615
 6936SOL    HW232271   0.535   1.124   4.304 -1.9575 -0.6682 -1.7394
 6937SOL     OW32272   0.531   2.940   9.616  0.1409 -0.1293  0.6784
 6937SOL    HW132273   0.561   2.887   9.542  2.5364  0.9593  0.8808
 6937SOL    HW232274   0.460   2.982   9.569  0.4026 -0.7521 -0.2670
 6938SOL     OW32275   0.397   1.016   9.526 -0.0157  0.4229  0.2141
 6938SOL    HW132276   0.479   0.968   9.539 -0.3366 -0.8551 -2.6286
 6938SOL    HW232277   0.353   1.013   9.611 -0.0798  1.5020  0.2254
 6939SOL     OW32278   1.937   2.045   4.179  0.1326 -0.0857  0.0846
 6939SOL    HW132279   1.987   2.086   4.249 -0.0661 -0.3286  0.3691
 6939SOL    HW232280   1.934   1.953   4.206  2.1519  0.1885  1.2681
 6940SOL     OW32281   2.612   1.197   8.042 -0.4270  0.2271  0.4438
 6940SOL    HW132282   2.664   1.189   7.962  1.0410 -1.0949  1.5449
 6940SOL    HW232283   2.667   1.265   8.080 -0.0365  0.9194 -1.3339
 6941SOL     OW32284   2.346   1.135   6.285 -0.1643 -0.1205  0.0688
 6941SOL    HW132285   2.369   1.111   6.375  0.7498 -0.9216 -0.3836
 6941SOL    HW232286   2.298   1.218   6.286  0.3163  0.1253  1.9787
 6942SOL     OW32287   2.120   1.926  12.603 -0.4466  0.3848  0.2336
 6942SOL    HW132288   2.032   1.889  12.615 -1.4811  2.2998 -1.4099
 6942SOL    HW232289   2.143   1.870  12.529  0.5554  0.9528  0.1124
 6943SOL     OW32290   1.420   1.835   7.853 -0.4851 -0.2397  0.1673
 6943SOL    HW132291   1.481   1.799   7.788  1.9310  1.5185  1.4772
 6943SOL    HW232292   1.364   1.757   7.856  0.1543 -0.6859  0.4798
 6944SOL     OW32293   4.161   2.639  12.266 -0.0409 -0.3876  0.2391
 6944SOL    HW132294   4.152   2.676  12.178 -2.2586 -0.9288  0.2333
 6944SOL    HW232295   4.142   2.546  12.258  0.1526 -0.4594  0.6277
 6945SOL     OW32296   2.419   4.549   7.586 -0.2547 -0.1207  0.1910
 6945SOL    HW132297   2.487   4.613   7.565  1.7959 -1.7094  2.0388
 6945SOL    HW232298   2.473   4.471   7.595  1.7215  1.2534  0.2937
 6946SOL     OW32299   2.679   0.750   2.291  0.2496  0.0984 -0.2062
 6946SOL    HW132300   2.676   0.654   2.292 -0.2045  0.1660  2.8918
 6946SOL    HW232301   2.769   0.756   2.259 -0.6503  0.3014 -2.7527
 6947SOL     OW32302   0.857   2.312   4.118 -0.0668 -0.0708  0.4035
 6947SOL    HW132303   0.842   2.288   4.209 -1.3274  1.4756  0.6025
 6947SOL    HW232304   0.822   2.232   4.079 -0.5971  0.2994  0.1274
 6948SOL     OW32305   0.925   3.418   4.411  0.1499 -0.0762 -0.8009
 6948SOL    HW132306   0.847   3.448   4.366 -1.1953 -1.1263  0.8157
 6948SOL    HW232307   0.898   3.350   4.473 -0.9158 -0.1921 -1.3956
 6949SOL     OW32308   3.636   1.604   6.442 -0.2952 -0.3747 -0.0735
 6949SOL    HW132309   3.671   1.621   6.355 -0.0828  0.2717  0.1449
 6949SOL    HW232310   3.572   1.675   6.438 -0.2448 -0.2979  0.4819
 6950SOL     OW32311   0.225   3.307   1.766 -0.2082 -0.1933  0.1732
 6950SOL    HW132312   0.145   3.344   1.803 -0.5629  0.2124 -0.9762
 6950SOL    HW232313   0.205   3.213   1.765 -0.5432 -0.1229  0.5284
 6951SOL     OW32314   3.269   1.049   6.783  0.6887  0.2498 -0.0848
 6951SOL    HW132315   3.337   1.115   6.769  0.1221  0.7424 -0.4665
 6951SOL    HW232316   3.280   1.005   6.699  0.5283  0.0554 -0.0040
 6952SOL     OW32317   0.079   3.093  15.649  0.3299  0.0062 -0.2013
 6952SOL    HW132318   0.154   3.151  15.667  0.1845  0.0148  0.3802
 6952SOL    HW232319   0.021   3.155  15.604 -0.2524 -0.3828  0.0145
 6953SOL     OW32320   0.452   3.623   5.220 -0.2446  0.3700 -0.3375
 6953SOL    HW132321   0.451   3.700   5.162 -0.3393 -0.2204 -1.1236
 6953SOL    HW232322   0.359   3.603   5.224 -0.3811  0.5782 -2.3579
 6954SOL     OW32323   0.901   3.258   4.163 -0.3845 -0.1716 -0.5495
 6954SOL    HW132324   0.842   3.332   4.179  1.6663  0.6155  3.4068
 6954SOL    HW232325   0.890   3.207   4.243 -1.6579  0.9228 -0.0143
 6955SOL     OW32326   4.262   0.366  14.118  0.0491  0.1089  0.1150
 6955SOL    HW132327   4.308   0.416  14.186 -0.2487  0.9703 -0.3125
 6955SOL    HW232328   4.216   0.435  14.071  1.0184  0.8786  0.2809
 6956SOL     OW32329   2.139   2.998   5.163  0.2999  0.5166  0.1872
 6956SOL    HW132330   2.194   3.046   5.101  0.1146  0.3505 -0.1049
 6956SOL    HW232331   2.196   2.997   5.240 -0.2717  0.0214  0.6056
 6957SOL     OW32332   3.257   2.328  10.070  0.4412  0.2062 -0.1197
 6957SOL    HW132333   3.233   2.342   9.979  0.4114 -0.0059 -0.1450
 6957SOL    HW232334   3.191   2.268  10.105  0.1432  1.0482  0.7540
 6958SOL     OW32335   1.847   2.508   5.513 -0.3626  0.3781 -0.1265
 6958SOL    HW132336   1.843   2.579   5.450  0.9073 -1.0194 -1.7698
 6958SOL    HW232337   1.875   2.549   5.595  2.1090  1.5049 -1.5465
 6959SOL     OW32338   4.550   1.538   4.276  0.5145  0.3749 -0.0885
 6959SOL    HW132339   4.472   1.536   4.221 -1.1329 -1.3332  2.2930
 6959SOL    HW232340   4.525   1.538   4.368 -0.0292  0.7045 -0.2344
 6960SOL     OW32341   2.338   0.910   1.705  0.2749 -0.0475  0.2989
 6960SOL    HW132342   2.247   0.924   1.678  0.2745 -0.3526  0.1462
 6960SOL    HW232343   2.330   0.855   1.783 -0.9314  0.8487  0.8266
 6961SOL     OW32344   0.136   0.941   4.506  0.2446 -0.3859  0.0857
 6961SOL    HW132345   0.081   1.007   4.463 -0.1085 -1.6826 -1.4511
 6961SOL    HW232346   0.200   0.915   4.440 -0.6480 -0.3129 -0.8027
 6962SOL     OW32347   3.583   0.473   2.808 -0.5794 -0.5150  0.3397
 6962SOL    HW132348   3.626   0.410   2.865  2.2906 -0.3452 -1.6549
 6962SOL    HW232349   3.534   0.415   2.750 -2.1166  2.0978 -0.9893
 6963SOL     OW32350   0.431   1.614   7.692 -0.3153  0.2172  0.3294
 6963SOL    HW132351   0.345   1.643   7.661 -0.1028  1.6546  1.0690
 6963SOL    HW232352   0.445   1.672   7.767 -0.4667  0.3803  0.2308
 6964SOL     OW32353   3.356   0.763   4.804  0.7811  0.0113  0.3500
 6964SOL    HW132354   3.379   0.685   4.753  3.0250  0.9734 -0.1125
 6964SOL    HW232355   3.315   0.823   4.741  3.0488 -0.6399 -1.7619
 6965SOL     OW32356   2.125   3.288   8.318 -0.3109  0.0274  0.9679
 6965SOL    HW132357   2.111   3.194   8.330 -0.8684  0.1922  1.5707
 6965SOL    HW232358   2.187   3.308   8.388  0.9627 -1.1569  0.1683
 6966SOL     OW32359   4.490   1.528   4.553  0.0683  0.1405 -0.5253
 6966SOL    HW132360   4.557   1.516   4.621 -1.5612  0.5854  1.1592
 6966SOL    HW232361   4.470   1.621   4.567  1.2611  0.5171 -1.3081
 6967SOL     OW32362   0.835   3.034   8.433  0.1663  0.3610  0.3291
 6967SOL    HW132363   0.773   2.999   8.369 -1.6940  3.0904  0.6600
 6967SOL    HW232364   0.846   2.963   8.496 -0.0815 -1.1982 -1.3689
 6968SOL     OW32365   2.502   1.548   1.421  0.2345  0.2098 -0.4605
 6968SOL    HW132366   2.559   1.623   1.405  0.2648 -0.1829 -2.2813
 6968SOL    HW232367   2.519   1.523   1.512 -0.8140  1.4414  0.0756
 6969SOL     OW32368   4.453   4.073   3.468  0.6240  0.1676  0.1119
 6969SOL    HW132369   4.369   4.036   3.439  0.8466 -1.0179  0.9793
 6969SOL    HW232370   4.434   4.105   3.556 -1.0455 -0.3703 -0.0426
 6970SOL     OW32371   1.464   1.769   3.528 -0.2310 -0.0709  0.1655
 6970SOL    HW132372   1.403   1.698   3.547 -0.4354 -0.2694 -1.2377
 6970SOL    HW232373   1.518   1.781   3.606 -1.1604 -4.4888  1.4900
 6971SOL     OW32374   0.102   0.203   5.457  0.0461  0.6303  0.9763
 6971SOL    HW132375   0.122   0.175   5.368  2.2749 -1.6426  2.1919
 6971SOL    HW232376   0.173   0.265   5.473  1.1517 -1.0771  2.7716
 6972SOL     OW32377   2.395   2.992   8.590 -0.2118 -0.7154 -0.2447
 6972SOL    HW132378   2.406   2.950   8.676 -2.2818 -1.3682 -0.2965
 6972SOL    HW232379   2.367   2.920   8.533 -0.0819 -1.9993  1.3188
 6973SOL     OW32380   1.507   0.350   9.545 -0.0126  0.1205 -0.3759
 6973SOL    HW132381   1.505   0.262   9.583  0.4192 -0.0185 -0.6850
 6973SOL    HW232382   1.521   0.401   9.625  0.2139 -1.6776  0.7435
 6974SOL     OW32383   3.158   3.975   1.854 -0.1893 -0.6462 -0.1000
 6974SOL    HW132384   3.193   3.956   1.941  3.4500  0.8325 -1.2578
 6974SOL    HW232385   3.099   3.901   1.836  1.4883 -2.7464  2.9254
 6975SOL     OW32386   3.404   4.603   7.837 -0.9066 -0.8053 -0.0667
 6975SOL    HW132387   3.322   4.592   7.886 -1.6404  2.0529 -0.6468
 6975SOL    HW232388   3.395   4.690   7.798  2.1418 -0.4250  0.0874
 6976SOL     OW32389   3.857   1.125   2.258  0.2258 -0.0821  0.2708
 6976SOL    HW132390   3.908   1.147   2.180  1.3054  0.2118  1.0623
 6976SOL    HW232391   3.766   1.132   2.227 -1.0941 -2.7407  3.5028
 6977SOL     OW32392   0.835   0.515   6.276  0.6748 -0.0384  0.4822
 6977SOL    HW132393   0.838   0.457   6.199 -0.9219 -1.1942  1.2882
 6977SOL    HW232394   0.761   0.569   6.247  0.2042 -0.3669  1.0890
 6978SOL     OW32395   3.837   2.930  11.591 -1.1956  0.0646 -0.4099
 6978SOL    HW132396   3.835   2.990  11.516  1.2296  0.3313 -0.2635
 6978SOL    HW232397   3.801   2.849  11.555 -1.0114 -0.4243  0.5166
 6979SOL     OW32398   3.654   2.801   5.948 -0.0821  0.1088 -0.3180
 6979SOL    HW132399   3.645   2.854   6.028  0.4354 -1.3460  0.7027
 6979SOL    HW232400   3.645   2.872   5.885 -2.4921  0.6897  0.6511
 6980SOL     OW32401   0.319   1.702   7.342 -0.0132 -0.2687 -0.0299
 6980SOL    HW132402   0.347   1.649   7.417 -0.5311 -0.7328 -0.1687
 6980SOL    HW232403   0.403   1.710   7.296  0.3564 -1.7660  0.3833
 6981SOL     OW32404   3.368   3.022   5.824 -0.0942  0.2412 -0.0381
 6981SOL    HW132405   3.295   3.010   5.885  2.7024 -0.1426  3.2385
 6981SOL    HW232406   3.428   3.066   5.885  2.1041 -0.0793 -1.9689
 6982SOL     OW32407   0.645   0.389   2.356  0.7425 -0.3755 -0.1693
 6982SOL    HW132408   0.560   0.427   2.380 -0.5308 -1.8917 -2.3385
 6982SOL    HW232409   0.617   0.303   2.326  0.7363 -0.8603  1.1927
 6983SOL     OW32410   2.350   0.292  13.586  0.2286 -0.2220 -0.0882
 6983SOL    HW132411   2.339   0.351  13.661  0.6004 -0.1911 -0.0612
 6983SOL    HW232412   2.257   0.270  13.576  0.1328 -0.1319  0.5818
 6984SOL     OW32413   4.559   2.718   8.166  0.0087 -0.1919  0.1436
 6984SOL    HW132414   4.589   2.633   8.134  1.4966  0.6805 -0.7948
 6984SOL    HW232415   4.605   2.719   8.251 -1.8960 -0.3403  1.1712
 6985SOL     OW32416   2.919   2.605   1.891  0.2505 -0.2424  0.1622
 6985SOL    HW132417   2.987   2.538   1.896  0.4389 -0.0236  0.5003
 6985SOL    HW232418   2.925   2.620   1.796 -0.5021 -0.4196  0.0847
 6986SOL     OW32419   1.288   3.598   0.908 -0.0137  0.8590 -0.1024
 6986SOL    HW132420   1.295   3.679   0.856 -0.4717  1.2591  0.4604
 6986SOL    HW232421   1.222   3.611   0.976  0.0468 -1.1842  0.3508
 6987SOL     OW32422   3.629   0.218   5.193  0.6089 -0.1211 -0.2407
 6987SOL    HW132423   3.721   0.239   5.176  0.4819 -1.1529 -2.2115
 6987SOL    HW232424   3.587   0.225   5.107 -0.1050 -2.1749 -0.0534
 6988SOL     OW32425   2.586   2.658  16.906 -0.8745  0.4957 -0.0885
 6988SOL    HW132426   2.566   2.572  16.942 -0.9306  1.2062  1.5373
 6988SOL    HW232427   2.663   2.685  16.957 -1.3893  3.4248 -0.8192
 6989SOL     OW32428   2.270   3.646  14.674  0.3018 -0.0311 -0.4061
 6989SOL    HW132429   2.223   3.651  14.591 -0.8226  1.7867  0.3523
 6989SOL    HW232430   2.338   3.711  14.659  1.0999 -0.8280 -0.2694
 6990SOL     OW32431   0.777   3.624   0.208  0.6685  0.1124 -0.3545
 6990SOL    HW132432   0.769   3.688   0.278 -0.5374 -1.9210  1.3622
 6990SOL    HW232433   0.765   3.543   0.258 -0.2874 -0.5875 -1.7180
 6991SOL     OW32434   2.196   3.701   0.716  0.2679 -0.2245  0.4667
 6991SOL    HW132435   2.108   3.671   0.736  0.4299  0.1296  1.7251
 6991SOL    HW232436   2.246   3.620   0.720  0.2033 -0.3138 -0.6606
 6992SOL     OW32437   3.965   3.445   8.978 -0.0980  0.0859  0.0862
 6992SOL    HW132438   3.983   3.368   8.924  2.3300  0.5707  0.1866
 6992SOL    HW232439   3.960   3.514   8.911 -1.1858 -0.5904 -0.5190
 6993SOL     OW32440   2.667   0.979   4.852 -0.0122  0.7017  0.1354
 6993SOL    HW132441   2.674   1.062   4.806 -0.1185  0.5409 -0.1739
 6993SOL    HW232442   2.755   0.942   4.848 -0.2255  0.3301 -1.0730
 6994SOL     OW32443   0.993   1.296  12.707 -0.2757  0.0784 -0.4894
 6994SOL    HW132444   0.993   1.359  12.636  1.7418  0.4379 -0.1962
 6994SOL    HW232445   0.946   1.221  12.671  0.0697 -0.0175 -0.7409
 6995SOL     OW32446   3.068   0.321   8.883 -0.0392  0.2215  0.7712
 6995SOL    HW132447   3.065   0.251   8.949  0.4936  0.9743  1.5996
 6995SOL    HW232448   3.126   0.377   8.935 -1.0019  1.2420  0.7450
 6996SOL     OW32449   1.858   0.734   8.055 -0.5883  0.5061 -0.0627
 6996SOL    HW132450   1.946   0.699   8.071 -0.6040 -1.0565 -3.3330
 6996SOL    HW232451   1.851   0.775   8.141  1.7921  3.0833 -1.1083
 6997SOL     OW32452   1.911   0.512   2.753  0.6461  0.4236 -0.3945
 6997SOL    HW132453   1.844   0.526   2.687 -0.6798  1.1126  1.0892
 6997SOL    HW232454   1.858   0.485   2.828 -0.1080  0.3897 -0.9428
 6998SOL     OW32455   1.501   0.745  17.001 -0.7778 -0.1091 -0.2375
 6998SOL    HW132456   1.407   0.754  16.990 -0.5885  1.5042 -0.5992
 6998SOL    HW232457   1.539   0.743  16.913  1.4496 -2.1927  0.7523
 6999SOL     OW32458   1.707   1.213  14.489 -0.2678 -0.3822  0.3636
 6999SOL    HW132459   1.614   1.226  14.472  0.0304 -0.1684 -1.1083
 6999SOL    HW232460   1.736   1.264  14.414  1.6110 -0.8278  0.7811
 7000SOL     OW32461   0.334   3.442   0.297  0.3872 -0.0687  0.1947
 7000SOL    HW132462   0.304   3.525   0.259  0.2038 -0.7355 -1.1197
 7000SOL    HW232463   0.417   3.427   0.252 -0.5962 -0.6448 -1.4501
 7001SOL     OW32464   1.340   0.767   7.306 -0.9199  0.8697  0.0217
 7001SOL    HW132465   1.260   0.725   7.274 -0.0818  1.2143 -2.5317
 7001SOL    HW232466   1.407   0.706   7.276 -0.7413  1.1853 -0.2279
 7002SOL     OW32467   3.677   4.562   4.889  0.2905  0.5910  0.6898
 7002SOL    HW132468   3.718   4.511   4.960  1.8083  0.8634  0.0110
 7002SOL    HW232469   3.627   4.623   4.944  0.4778  0.5336  0.9264
 7003SOL     OW32470   4.128   1.746   5.995 -0.4280  0.0906 -0.2856
 7003SOL    HW132471   4.099   1.709   6.078  0.9487 -1.9785 -0.7445
 7003SOL    HW232472   4.100   1.685   5.928 -2.2871 -0.0501  0.6307
 7004SOL     OW32473   4.376   2.690   4.512  0.0139  0.3653  0.0593
 7004SOL    HW132474   4.385   2.627   4.583 -1.3892  2.0310  1.7226
 7004SOL    HW232475   4.407   2.767   4.560 -2.0754  0.6044  1.0379
 7005SOL     OW32476   4.135   1.821  14.762  0.3600  0.3407  0.0967
 7005SOL    HW132477   4.173   1.769  14.691  0.5299  0.7460 -0.1123
 7005SOL    HW232478   4.193   1.894  14.745 -0.8685  1.0585 -1.0165
 7006SOL     OW32479   3.969   4.607  11.346 -0.1657  0.3356 -0.2003
 7006SOL    HW132480   3.940   4.547  11.415 -1.1828  2.1957  0.9750
 7006SOL    HW232481   3.961   4.552  11.268 -1.0958  0.6748 -0.3438
 7007SOL     OW32482   2.751   4.365  17.648  0.1288 -0.4276 -0.5825
 7007SOL    HW132483   2.833   4.359  17.697  0.3992 -3.6938 -1.4700
 7007SOL    HW232484   2.747   4.290  17.589 -0.6969  1.0109 -2.3460
 7008SOL     OW32485   0.698   0.318   5.334 -0.5235 -0.5229  0.0442
 7008SOL    HW132486   0.683   0.328   5.428 -0.4370 -0.6611  0.0724
 7008SOL    HW232487   0.792   0.307   5.325 -0.2398 -1.1112  3.6036
 7009SOL     OW32488   0.569   4.250   6.735  0.2428  0.2346 -0.1321
 7009SOL    HW132489   0.499   4.297   6.780 -1.6050  0.2503 -3.0419
 7009SOL    HW232490   0.528   4.247   6.648  1.3298 -0.4381 -0.6207
 7010SOL     OW32491   3.365   0.814  11.628 -0.1304  0.4425 -0.2922
 7010SOL    HW132492   3.377   0.729  11.671 -0.2379  1.1126  1.0586
 7010SOL    HW232493   3.359   0.869  11.706 -0.9149 -1.6531  1.1090
 7011SOL     OW32494   0.872   4.391   9.453  0.2344  0.4557 -0.2063
 7011SOL    HW132495   0.953   4.339   9.458  1.3603  2.2913  0.5245
 7011SOL    HW232496   0.899   4.479   9.426  1.7791  0.2785  0.7537
 7012SOL     OW32497   2.974   0.709   9.279 -0.3438  0.2408 -0.2760
 7012SOL    HW132498   2.928   0.731   9.198 -2.1905  2.1588  1.3090
 7012SOL    HW232499   2.927   0.763   9.342 -1.4968 -2.5692  1.2763
 7013SOL     OW32500   2.884   3.844  17.327  0.2515  0.0037 -0.3031
 7013SOL    HW132501   2.871   3.925  17.279  0.1173 -1.2728 -2.3976
 7013SOL    HW232502   2.829   3.855  17.405  2.3792  0.0781  1.2075
 7014SOL     OW32503   2.392   3.720   6.496 -0.3779 -0.0277 -0.2344
 7014SOL    HW132504   2.401   3.809   6.462  0.4419  0.1824  0.5141
 7014SOL    HW232505   2.480   3.703   6.529 -0.9136 -2.2247  0.0192
 7015SOL     OW32506   4.264   1.986   6.946 -0.0421 -0.0545  0.1936
 7015SOL    HW132507   4.256   2.002   7.040 -2.0147 -0.7876  0.1470
 7015SOL    HW232508   4.199   1.917   6.931 -0.2799  0.3445 -0.6434
 7016SOL     OW32509   4.081   0.042   3.404 -0.0074  0.1809 -0.0518
 7016SOL    HW132510   3.999   0.011   3.366  1.1487 -2.1620 -0.6804
 7016SOL    HW232511   4.105   0.120   3.356  1.1752 -0.5327 -0.6214
 7017SOL     OW32512   4.702   3.374   1.815  0.1318 -0.1288 -0.3967
 7017SOL    HW132513   4.649   3.453   1.812  0.8802  0.4356  1.3030
 7017SOL    HW232514   4.652   3.335   1.887 -1.5244  3.8258  0.5659
 7018SOL     OW32515   1.756   3.828   2.394  0.5600 -0.3048  0.0381
 7018SOL    HW132516   1.730   3.741   2.364  2.9774 -0.9461 -0.2619
 7018SOL    HW232517   1.707   3.828   2.476  2.2192  1.1165  1.0349
 7019SOL     OW32518   1.638   2.232   7.109 -0.4301  0.1233 -0.1876
 7019SOL    HW132519   1.699   2.187   7.050 -1.9811 -1.2482 -0.7543
 7019SOL    HW232520   1.603   2.299   7.050  1.2062  0.9085 -0.2497
 7020SOL     OW32521   3.961   2.841  13.512  0.5091 -0.7895  0.4791
 7020SOL    HW132522   3.964   2.775  13.443  0.3762 -0.0793 -0.2102
 7020SOL    HW232523   4.002   2.783  13.576  0.5573 -3.2478 -1.7851
 7021SOL     OW32524   1.042   2.129   5.437  0.0156 -0.0544 -0.8780
 7021SOL    HW132525   1.057   2.036   5.420  0.0327 -0.4295  1.2102
 7021SOL    HW232526   1.072   2.178   5.360 -0.9174 -1.4968 -2.1537
 7022SOL     OW32527   1.683   1.082   2.197  0.5644  0.2810 -0.6467
 7022SOL    HW132528   1.716   1.071   2.108 -1.1689 -1.6083 -1.0550
 7022SOL    HW232529   1.756   1.050   2.251 -0.8864 -0.8260  0.6815
 7023SOL     OW32530   4.714   4.518   6.865 -0.1067 -0.0630  0.4050
 7023SOL    HW132531   0.057   4.453   6.870 -0.9542 -0.9553  0.8089
 7023SOL    HW232532   4.724   4.570   6.785  0.1878 -0.9568 -0.1410
 7024SOL     OW32533   0.860   3.042   8.858 -0.0513 -0.6064 -0.8666
 7024SOL    HW132534   0.793   3.101   8.895  0.3616  0.6639 -2.1599
 7024SOL    HW232535   0.926   3.110   8.840 -0.4327 -0.1354 -0.5063
 7025SOL     OW32536   0.444   0.928  12.974  0.1759  0.2433 -0.2669
 7025SOL    HW132537   0.389   0.851  12.987 -0.5858  0.9441  0.6708
 7025SOL    HW232538   0.396   1.009  12.990 -0.1286 -0.3459  1.8292
 7026SOL     OW32539   1.831   4.103   7.559  0.3507 -0.3732 -0.2161
 7026SOL    HW132540   1.881   4.145   7.628  0.2345  1.5246 -1.2678
 7026SOL    HW232541   1.854   4.158   7.484  0.3233 -0.4786 -0.3024
 7027SOL     OW32542   0.617   3.614   6.244  0.5831 -0.0747  0.0796
 7027SOL    HW132543   0.683   3.665   6.198 -0.4724  0.7131 -0.5837
 7027SOL    HW232544   0.650   3.524   6.238 -0.3389 -0.4832  1.0151
 7028SOL     OW32545   2.726   1.755   0.370 -0.2668  0.0970  0.3105
 7028SOL    HW132546   2.667   1.740   0.444 -1.1137  0.3734 -0.3210
 7028SOL    HW232547   2.723   1.851   0.361  1.7422  0.2252  0.8937
 7029SOL     OW32548   1.205   2.354  16.128 -0.1014 -0.0452 -0.1937
 7029SOL    HW132549   1.170   2.442  16.117 -0.9680 -0.0905  2.2386
 7029SOL    HW232550   1.130   2.317  16.175 -0.0091  1.4704  1.1081
 7030SOL     OW32551   1.707   0.717  16.416 -0.0041 -0.0322  0.0373
 7030SOL    HW132552   1.614   0.734  16.401  0.1391  0.6379 -0.1162
 7030SOL    HW232553   1.733   0.695  16.326 -1.6506 -1.4012 -0.0961
 7031SOL     OW32554   3.898   2.542   9.783 -0.3016 -0.0788  0.2840
 7031SOL    HW132555   3.966   2.602   9.752 -2.0134  0.9915 -1.3917
 7031SOL    HW232556   3.870   2.586   9.864 -0.3555  1.2498 -0.4560
 7032SOL     OW32557   3.900   4.175   0.243  0.5924 -0.3713 -0.2291
 7032SOL    HW132558   3.886   4.257   0.197 -0.5727 -1.0330 -1.0451
 7032SOL    HW232559   3.857   4.194   0.326  0.2936 -0.2575 -0.4109
 7033SOL     OW32560   4.041   3.510   4.966 -0.4469  0.0180 -0.0330
 7033SOL    HW132561   4.080   3.456   5.035  2.3597  0.0803 -1.5737
 7033SOL    HW232562   4.038   3.603   4.988 -1.0875 -0.4999  2.0863
 7034SOL     OW32563   4.188   0.546   4.902 -0.5019 -0.1281  0.4975
 7034SOL    HW132564   4.180   0.460   4.862  0.7316  0.1752 -0.4087
 7034SOL    HW232565   4.137   0.529   4.981  1.1872  0.5953  1.7472
 7035SOL     OW32566   2.864   2.410  14.918  0.1042 -0.2545 -0.1981
 7035SOL    HW132567   2.806   2.470  14.965  0.1260  0.5707 -1.2353
 7035SOL    HW232568   2.798   2.364  14.867 -0.3419 -0.0655  0.2115
 7036SOL     OW32569   3.670   0.470   6.124  0.6849 -0.6716 -0.4714
 7036SOL    HW132570   3.762   0.470   6.098  1.4425 -1.9081  2.1613
 7036SOL    HW232571   3.639   0.514   6.045 -1.8340 -1.9628 -0.1889
 7037SOL     OW32572   3.802   4.509  14.591  0.4225 -0.2677 -0.0657
 7037SOL    HW132573   3.843   4.595  14.600 -0.5009  0.1074  0.6639
 7037SOL    HW232574   3.869   4.443  14.606  0.2003 -0.3300  0.6518
 7038SOL     OW32575   4.480   2.433   9.198 -0.1873 -0.9040 -0.4449
 7038SOL    HW132576   4.503   2.341   9.187 -1.8715 -1.2599 -1.0755
 7038SOL    HW232577   4.501   2.466   9.285 -0.7030 -0.1750 -0.5941
 7039SOL     OW32578   0.936   0.160  12.873 -0.0057 -0.1555  0.2287
 7039SOL    HW132579   0.852   0.170  12.830  0.3776 -2.3761 -1.0285
 7039SOL    HW232580   0.963   0.072  12.849  0.3538  0.0995 -0.3145
 7040SOL     OW32581   4.589   1.058   7.633  0.1906 -0.2527 -0.4574
 7040SOL    HW132582   4.591   0.993   7.563  1.9833 -2.1651  1.3870
 7040SOL    HW232583   4.663   1.028   7.685 -0.3696 -1.8767 -0.6025
 7041SOL     OW32584   0.971   4.572  10.245  0.1344  1.1846 -0.5611
 7041SOL    HW132585   1.016   4.630  10.306 -0.5462  1.8762 -0.7207
 7041SOL    HW232586   0.880   4.587  10.270  0.6146  1.3655  1.0403
 7042SOL     OW32587   2.371   1.878  13.175 -0.1861 -0.2350  0.3067
 7042SOL    HW132588   2.337   1.799  13.216 -1.2409  0.3381  0.5348
 7042SOL    HW232589   2.454   1.875  13.221 -0.5750 -0.2436  1.0071
 7043SOL     OW32590   0.533   2.712   1.879 -0.1750  0.1470  0.0620
 7043SOL    HW132591   0.549   2.618   1.869  1.0735  0.3761 -0.0623
 7043SOL    HW232592   0.566   2.746   1.796 -0.9372 -0.4258 -0.4773
 7044SOL     OW32593   2.318   1.456   8.027  0.0772  0.0502 -0.3137
 7044SOL    HW132594   2.264   1.380   8.045 -0.8850  0.3327 -1.9790
 7044SOL    HW232595   2.394   1.458   8.086  0.4681 -0.2367 -0.8034
 7045SOL     OW32596   4.684   4.714   7.858 -0.1746  0.2662 -0.1341
 7045SOL    HW132597   4.618   0.002   7.791  1.1170  1.1828 -1.2033
 7045SOL    HW232598   0.031   0.033   7.819 -0.6968  1.4803  0.3172
 7046SOL     OW32599   3.636   4.590   6.140 -0.5874  0.1377  0.5092
 7046SOL    HW132600   3.668   4.514   6.092  1.4720  0.7239  0.9542
 7046SOL    HW232601   3.685   4.662   6.101 -0.1278 -0.1718  0.5157
 7047SOL     OW32602   4.714   0.352   1.111 -0.3482  0.4033  0.5564
 7047SOL    HW132603   0.019   0.372   1.198  3.2566  1.3560 -1.0015
 7047SOL    HW232604   0.065   0.312   1.074 -1.2797 -0.2138 -0.7747
 7048SOL     OW32605   2.417   2.097  11.415 -0.3813 -0.0247  0.0421
 7048SOL    HW132606   2.510   2.083  11.400 -0.1619 -0.1554  1.5455
 7048SOL    HW232607   2.380   2.055  11.337  1.9782  2.3847 -2.3938
 7049SOL     OW32608   4.607   3.324   8.975 -0.4951  0.2537 -0.3481
 7049SOL    HW132609   4.537   3.332   9.040  0.9703 -0.2749  1.2980
 7049SOL    HW232610   4.574   3.264   8.908  0.2371 -0.6370  0.0754
 7050SOL     OW32611   2.781   0.541   6.127 -0.2942 -0.1518  0.2401
 7050SOL    HW132612   2.799   0.588   6.046 -1.2190 -0.1831  0.0126
 7050SOL    HW232613   2.856   0.482   6.134 -0.7365 -0.7584 -0.1565
 7051SOL     OW32614   4.389   0.785  11.717  0.1242  0.2963  0.4690
 7051SOL    HW132615   4.434   0.869  11.712  1.3933 -0.3330  1.0880
 7051SOL    HW232616   4.431   0.735  11.647 -0.9028 -1.0147  0.7963
 7052SOL     OW32617   0.805   2.740   4.091 -0.2591 -0.2777  0.1234
 7052SOL    HW132618   0.888   2.692   4.090  0.1779  0.5150 -2.4618
 7052SOL    HW232619   0.815   2.819   4.037 -2.5466  0.9112  1.4487
 7053SOL     OW32620   1.727   0.153   2.473  0.0698 -0.3063 -0.9774
 7053SOL    HW132621   1.755   0.159   2.564 -0.9605  2.8933 -0.8697
 7053SOL    HW232622   1.646   0.203   2.484  0.4688  0.1568 -0.1802
 7054SOL     OW32623   2.292   2.861   0.785  0.2631 -0.1329  0.1924
 7054SOL    HW132624   2.213   2.901   0.748 -0.2848  0.6105  2.1480
 7054SOL    HW232625   2.251   2.777   0.805  0.6420  0.2724  2.6813
 7055SOL     OW32626   3.330   2.831   9.506 -0.8655  0.7250  0.2551
 7055SOL    HW132627   3.292   2.745   9.526 -0.1129  0.2785 -0.2275
 7055SOL    HW232628   3.365   2.820   9.418  0.4393  1.4366  0.6871
 7056SOL     OW32629   3.145   1.578   0.978  0.4678  0.4238 -0.6336
 7056SOL    HW132630   3.207   1.583   0.905  0.1387 -1.4206 -1.0271
 7056SOL    HW232631   3.208   1.562   1.048  0.9492  1.9496 -0.7143
 7057SOL     OW32632   0.278   3.145   6.769  0.1230 -0.0770  0.0609
 7057SOL    HW132633   0.301   3.218   6.826  2.2940 -1.0927  0.4724
 7057SOL    HW232634   0.351   3.084   6.763 -1.2493 -1.6821 -0.6288
 7058SOL     OW32635   3.338   3.674   7.476  0.4135 -0.2092  0.1407
 7058SOL    HW132636   3.269   3.639   7.533  0.4386 -0.8377 -0.2141
 7058SOL    HW232637   3.415   3.624   7.502 -0.0772 -0.5964  0.8510
 7059SOL     OW32638   3.528   2.897   2.832  0.1356 -0.3189 -0.3262
 7059SOL    HW132639   3.607   2.951   2.834 -0.2539  0.1687  1.5667
 7059SOL    HW232640   3.537   2.868   2.741  0.8008 -2.1878  0.3422
 7060SOL     OW32641   3.662   0.102   2.013  0.0997  0.3030  0.5441
 7060SOL    HW132642   3.596   0.038   1.986  1.7889 -0.2842 -2.2587
 7060SOL    HW232643   3.745   0.067   1.978 -1.5006 -2.6529 -0.2556
 7061SOL     OW32644   2.399   0.044   8.591  0.2308  0.1582 -0.0938
 7061SOL    HW132645   2.394   0.042   8.495 -1.2274 -1.0443  0.0200
 7061SOL    HW232646   2.473   0.104   8.599  2.9473 -3.0927 -0.6383
 7062SOL     OW32647   1.019   2.985   7.343 -0.9252 -0.4549 -0.1952
 7062SOL    HW132648   1.050   2.979   7.252  0.8949  0.2852  0.3781
 7062SOL    HW232649   1.099   2.954   7.387 -0.6177 -0.7693 -0.9691
 7063SOL     OW32650   2.785   2.011   2.959 -0.0884  0.2539  0.4111
 7063SOL    HW132651   2.743   1.964   2.886 -0.6126  0.6764  0.4400
 7063SOL    HW232652   2.861   1.956   2.977  1.7258  1.6751 -2.9287
 7064SOL     OW32653   1.233   1.642   5.112 -0.2009  0.0660 -0.1393
 7064SOL    HW132654   1.276   1.719   5.074  0.0837  0.0569  0.1640
 7064SOL    HW232655   1.308   1.607   5.160 -3.0572 -1.2008  3.3574
 7065SOL     OW32656   0.040   4.182  16.654  0.1131  0.0117 -0.0971
 7065SOL    HW132657   0.070   4.212  16.740  1.5119 -0.5703 -0.3745
 7065SOL    HW232658   0.107   4.230  16.604  0.7088 -0.9233 -0.1856
 7066SOL     OW32659   1.770   3.709   3.811  0.5146  0.0894 -0.1649
 7066SOL    HW132660   1.683   3.723   3.848  0.6079 -0.9423  0.4581
 7066SOL    HW232661   1.754   3.636   3.752 -1.7334 -1.4240  2.3201
 7067SOL     OW32662   1.058   0.734   5.958 -0.0660  0.5116  0.1990
 7067SOL    HW132663   1.058   0.814   6.010 -1.0955 -0.0891  1.1165
 7067SOL    HW232664   1.151   0.741   5.936 -0.4356  0.5796 -1.3798
 7068SOL     OW32665   0.507   2.786   8.882 -0.8422 -0.5153 -0.6733
 7068SOL    HW132666   0.499   2.758   8.973  0.0370  1.5664  0.0544
 7068SOL    HW232667   0.420   2.825   8.875 -0.6832 -0.0894 -0.2727
 7069SOL     OW32668   1.813   4.101   7.005  0.2106 -0.5141  0.3599
 7069SOL    HW132669   1.736   4.052   7.034 -0.0992 -0.4180 -0.2875
 7069SOL    HW232670   1.821   4.064   6.917  0.2360  0.8420 -0.2167
 7070SOL     OW32671   0.770   3.148   0.598 -0.3277 -0.2964 -1.0467
 7070SOL    HW132672   0.818   3.083   0.650 -1.2464  0.0077  0.1896
 7070SOL    HW232673   0.826   3.226   0.603 -0.1584 -0.4672 -0.1813
 7071SOL     OW32674   2.066   0.091   7.295  0.1228  0.6742  0.6700
 7071SOL    HW132675   2.070   0.187   7.296 -2.1554  0.7821 -0.3173
 7071SOL    HW232676   2.014   0.072   7.217 -0.1250  2.0201  0.5005
 7072SOL     OW32677   1.203   2.851   5.542 -1.0412 -1.1128 -0.2016
 7072SOL    HW132678   1.283   2.851   5.594 -1.3616 -0.4069  0.2897
 7072SOL    HW232679   1.160   2.931   5.571 -1.3943 -0.3991 -2.6887
 7073SOL     OW32680   2.903   3.896   4.684  0.2738  0.1540 -0.3979
 7073SOL    HW132681   2.901   3.815   4.633 -0.7547 -0.1410  0.1031
 7073SOL    HW232682   2.864   3.955   4.620 -1.2236 -1.1565 -0.6998
 7074SOL     OW32683   2.100   3.221   2.065  0.3529  0.3117  0.4292
 7074SOL    HW132684   2.022   3.216   2.120 -0.1136 -2.1721 -0.4482
 7074SOL    HW232685   2.160   3.159   2.106 -0.6821 -2.1634 -1.8282
 7075SOL     OW32686   0.066   3.019   4.139 -0.6335  0.0633 -0.0034
 7075SOL    HW132687   0.011   2.941   4.145  0.5763 -0.9961 -2.3933
 7075SOL    HW232688   0.030   3.063   4.062  1.7409  0.3924 -0.9319
 7076SOL     OW32689   0.599   3.326   5.173 -0.8492  0.0888 -0.4722
 7076SOL    HW132690   0.517   3.278   5.177 -1.4890  1.3088  0.8389
 7076SOL    HW232691   0.610   3.331   5.078  3.3574 -2.4029 -0.1153
 7077SOL     OW32692   1.919   0.932  12.586 -0.1432 -0.2783 -0.4092
 7077SOL    HW132693   1.912   0.880  12.506  0.8810 -0.5413 -0.3350
 7077SOL    HW232694   1.825   0.931  12.605 -0.9567  2.2562 -4.2753
 7078SOL     OW32695   3.315   3.065   2.315  0.0869 -0.2815 -0.0959
 7078SOL    HW132696   3.253   3.060   2.241 -1.0402  1.4013  0.7422
 7078SOL    HW232697   3.375   3.134   2.288  0.0900 -0.3726 -0.3264
 7079SOL     OW32698   4.577   4.174  11.368  0.1039 -0.3291  0.6045
 7079SOL    HW132699   4.592   4.200  11.277  0.9268 -2.4492  0.1152
 7079SOL    HW232700   4.483   4.180  11.353 -0.2152  1.2423  3.3502
 7080SOL     OW32701   0.544   3.982   4.093 -0.7848  0.2213  0.3703
 7080SOL    HW132702   0.501   3.899   4.073  1.2861 -1.3665  2.5056
 7080SOL    HW232703   0.632   3.982   4.055 -0.6001 -0.9917  0.8016
 7081SOL     OW32704   0.619   1.334   8.609 -0.6450 -0.6745  0.1186
 7081SOL    HW132705   0.662   1.348   8.525 -2.4777 -0.5176 -0.7987
 7081SOL    HW232706   0.538   1.381   8.586 -0.2296 -0.4013 -0.8020
 7082SOL     OW32707   0.877   4.381   8.593 -0.1764  0.3589  0.3577
 7082SOL    HW132708   0.855   4.312   8.656 -2.0967 -0.7022 -1.4331
 7082SOL    HW232709   0.855   4.454   8.650 -3.0999 -0.8384  0.8016
 7083SOL     OW32710   0.799   0.094   8.695  0.4083 -0.3103  0.2115
 7083SOL    HW132711   0.763   0.182   8.695 -0.5746 -0.7064 -0.3738
 7083SOL    HW232712   0.872   0.120   8.640 -1.1752  1.3007 -1.1291
 7084SOL     OW32713   3.476   1.343   4.429 -0.2396 -0.5222 -0.4298
 7084SOL    HW132714   3.482   1.430   4.391  2.8178 -0.5823 -0.0576
 7084SOL    HW232715   3.569   1.319   4.432 -0.8774 -2.7695  1.1091
 7085SOL     OW32716   1.431   0.385   4.095  0.4401 -0.1726  0.6898
 7085SOL    HW132717   1.378   0.464   4.090 -0.2340 -0.5225  2.4224
 7085SOL    HW232718   1.510   0.416   4.139  0.1791 -0.0734  1.0905
 7086SOL     OW32719   1.671   4.044   8.717 -0.1879 -0.3334 -0.1671
 7086SOL    HW132720   1.665   4.083   8.805 -0.1202 -1.6954  0.4325
 7086SOL    HW232721   1.577   4.053   8.698 -0.1290  2.6715  0.9122
 7087SOL     OW32722   2.761   2.262  15.509  0.7860 -0.7289  0.6261
 7087SOL    HW132723   2.670   2.290  15.509  1.9611  2.9881 -1.9558
 7087SOL    HW232724   2.755   2.174  15.470 -1.7287 -0.3627  0.1860
 7088SOL     OW32725   3.881   2.656  17.156  0.0410  0.3608  0.2842
 7088SOL    HW132726   3.878   2.601  17.077  0.2261 -0.8010  1.0813
 7088SOL    HW232727   3.820   2.609  17.213  0.2188  0.2293  0.3646
 7089SOL     OW32728   1.366   2.064  10.396 -0.1537 -0.3400  0.0964
 7089SOL    HW132729   1.414   2.098  10.472  0.6435 -4.3216  1.3653
 7089SOL    HW232730   1.414   2.108  10.327 -1.6131  1.5722  0.2870
 7090SOL     OW32731   3.820   3.182   8.276 -0.1013 -0.2709 -0.6368
 7090SOL    HW132732   3.765   3.165   8.200 -1.7825 -0.4321  0.6113
 7090SOL    HW232733   3.904   3.203   8.235  0.8735 -0.8958  1.0483
 7091SOL     OW32734   4.454   0.888   7.460  0.0671  0.1088 -0.9624
 7091SOL    HW132735   4.421   0.977   7.443  0.3833  1.3017  4.4609
 7091SOL    HW232736   4.507   0.860   7.386  0.9043 -1.3292  0.1835
 7092SOL     OW32737   4.537   3.824  14.530 -0.3242  0.7082 -0.0989
 7092SOL    HW132738   4.468   3.826  14.464 -0.4648  2.0850  0.1095
 7092SOL    HW232739   4.523   3.744  14.581  0.2285  0.4485 -0.3416
 7093SOL     OW32740   2.408   4.556   5.502 -0.3515  0.3191  0.3555
 7093SOL    HW132741   2.390   4.593   5.588  1.3161 -0.6507  1.1310
 7093SOL    HW232742   2.441   4.633   5.456  1.8811 -1.1465 -0.4900
 7094SOL     OW32743   2.784   2.558   7.285  0.4504 -0.5389 -0.5296
 7094SOL    HW132744   2.818   2.524   7.202  1.0894  1.4397 -1.0773
 7094SOL    HW232745   2.765   2.652   7.279  1.6228 -0.3238 -0.8127
 7095SOL     OW32746   0.412   4.284  10.591 -0.2468  0.5326  0.2774
 7095SOL    HW132747   0.495   4.244  10.565 -0.0167  0.5349  1.0277
 7095SOL    HW232748   0.423   4.343  10.665  0.2207  0.3925  0.3153
 7096SOL     OW32749   0.223   1.241  14.524 -0.4811  0.0117 -0.1969
 7096SOL    HW132750   0.160   1.210  14.459 -0.8593  3.3266 -1.4454
 7096SOL    HW232751   0.208   1.335  14.511 -0.6302 -0.3077 -2.2501
 7097SOL     OW32752   0.456   1.579   4.432 -1.1527  0.5603  0.0551
 7097SOL    HW132753   0.444   1.582   4.526 -0.9219  0.2874  0.0908
 7097SOL    HW232754   0.499   1.665   4.433  1.5282 -0.8489  1.7124
 7098SOL     OW32755   1.642   0.949  16.127 -0.1827  0.1540  0.0179
 7098SOL    HW132756   1.703   0.981  16.061  1.5185  1.7856  2.3538
 7098SOL    HW232757   1.676   0.862  16.148 -1.5484 -0.5059 -0.5229
 7099SOL     OW32758   1.984   0.779  10.725  0.1876  0.4418 -0.5856
 7099SOL    HW132759   1.889   0.789  10.732 -0.0989 -0.0048 -3.4674
 7099SOL    HW232760   2.021   0.861  10.758  0.4691 -0.8057  2.1203
 7100SOL     OW32761   1.668   0.897   3.920 -0.3339 -0.0390  0.0641
 7100SOL    HW132762   1.658   0.979   3.872  0.2804  1.3494  2.3129
 7100SOL    HW232763   1.749   0.863   3.881 -0.8416 -0.8218 -0.3066
 7101SOL     OW32764   3.746   4.719  13.542  0.7491 -0.2554 -0.5086
 7101SOL    HW132765   3.667   4.666  13.548 -0.5442  1.7526  0.3379
 7101SOL    HW232766   3.800   4.689  13.469  1.3954 -1.5319  0.5057
 7102SOL     OW32767   1.116   4.663   7.660 -0.1219 -0.5748 -0.6425
 7102SOL    HW132768   1.181   4.650   7.729  0.9378  1.1808 -1.3026
 7102SOL    HW232769   1.054   4.596   7.688 -0.8433  0.9332  1.3972
 7103SOL     OW32770   2.418   2.538   3.200 -1.0984 -0.6236  0.3550
 7103SOL    HW132771   2.381   2.498   3.279  1.3839  1.9846  2.8188
 7103SOL    HW232772   2.421   2.633   3.206 -0.7102 -0.5077 -1.6895
 7104SOL     OW32773   1.493   4.282   7.664  0.0611 -0.0514 -0.0720
 7104SOL    HW132774   1.528   4.236   7.587  0.5933 -3.2065  2.0413
 7104SOL    HW232775   1.473   4.369   7.631 -0.0947  0.3509  1.0981
 7105SOL     OW32776   3.988   1.680   8.589 -0.1138 -0.4288 -0.6819
 7105SOL    HW132777   4.012   1.724   8.507 -0.0462 -1.2621 -1.1123
 7105SOL    HW232778   4.080   1.658   8.604  0.2855  0.8840 -1.2037
 7106SOL     OW32779   0.616   2.882   5.477  0.6181 -0.0691  0.3680
 7106SOL    HW132780   0.627   2.936   5.556 -2.0044  1.0064  0.0056
 7106SOL    HW232781   0.596   2.949   5.412 -1.2217 -1.7316 -0.7820
 7107SOL     OW32782   0.260   1.360   4.306 -0.4336  0.5587 -0.2223
 7107SOL    HW132783   0.329   1.424   4.318  0.5757 -0.1753 -2.0171
 7107SOL    HW232784   0.198   1.419   4.263 -1.2162  0.5931  0.9820
 7108SOL     OW32785   0.412   3.507   9.023 -0.2836  0.4257 -0.5257
 7108SOL    HW132786   0.336   3.550   9.063  0.3818  0.3226  0.8521
 7108SOL    HW232787   0.432   3.574   8.957 -0.2356  0.5730 -0.3610
 7109SOL     OW32788   2.180   4.415   9.518  0.0625  0.7105 -0.6031
 7109SOL    HW132789   2.163   4.340   9.461  0.8775 -1.1984  1.6563
 7109SOL    HW232790   2.232   4.371   9.586  0.3356  1.0356 -0.6013
 7110SOL     OW32791   3.744   2.034   9.063 -0.5877  0.0005  0.6202
 7110SOL    HW132792   3.686   1.995   8.997 -0.4207 -0.5413  0.7998
 7110SOL    HW232793   3.685   2.065   9.132  1.1443  0.7582  1.7540
 7111SOL     OW32794   3.014   0.452  15.204 -0.3704  0.3638  0.3091
 7111SOL    HW132795   2.959   0.375  15.220 -0.1367 -0.2299 -1.7420
 7111SOL    HW232796   2.955   0.517  15.166  0.3516  0.7533 -0.1377
 7112SOL     OW32797   1.595   4.212   6.041 -0.5863  0.5371 -0.3533
 7112SOL    HW132798   1.660   4.162   6.092 -2.6879 -0.1764  1.6466
 7112SOL    HW232799   1.561   4.136   5.994 -0.3257  0.7543 -0.8832
 7113SOL     OW32800   4.270   2.945   2.959 -0.3134 -0.4751 -0.0479
 7113SOL    HW132801   4.268   2.949   3.055 -1.2030  2.1826 -0.1763
 7113SOL    HW232802   4.352   2.992   2.947  0.2732 -1.1634  1.2248
 7114SOL     OW32803   0.110   3.896   7.778  0.1381  0.1459  0.2871
 7114SOL    HW132804   0.040   3.886   7.843 -0.4629 -1.1081 -0.5528
 7114SOL    HW232805   0.061   3.913   7.697  0.1234  0.6076  0.3899
 7115SOL     OW32806   1.761   0.631  11.528  0.0368 -0.0358 -0.0832
 7115SOL    HW132807   1.809   0.581  11.594  0.1375 -0.0198 -0.1444
 7115SOL    HW232808   1.673   0.596  11.537  1.2261 -2.5561  1.8181
 7116SOL     OW32809   0.351   3.175   4.033  0.7539  0.1600  0.2514
 7116SOL    HW132810   0.380   3.175   3.942  1.0070  0.0456  0.3294
 7116SOL    HW232811   0.268   3.221   4.029  1.5474  1.3791 -2.6298
 7117SOL     OW32812   0.629   2.910   2.100 -0.3304  0.0973  0.1596
 7117SOL    HW132813   0.610   2.823   2.064  1.5313  0.2744 -1.2577
 7117SOL    HW232814   0.539   2.933   2.124 -1.4531 -2.2756 -1.7633
 7118SOL     OW32815   3.275   2.526   1.970  0.4390 -0.4043 -0.3100
 7118SOL    HW132816   3.239   2.572   1.894  1.4451  1.3912  0.3050
 7118SOL    HW232817   3.354   2.575   1.994  0.0096 -0.1889  0.6549
 7119SOL     OW32818   1.184   1.138  14.484  0.5763  0.4252 -0.4045
 7119SOL    HW132819   1.181   1.064  14.545  0.3952  0.0963 -0.8107
 7119SOL    HW232820   1.190   1.083  14.406  0.7756  1.7895 -1.3589
 7120SOL     OW32821   3.308   0.138   3.896 -0.3956 -0.2745  0.3564
 7120SOL    HW132822   3.292   0.164   3.987  0.1435 -0.8361  0.6049
 7120SOL    HW232823   3.297   0.044   3.903 -0.5113 -0.2395  0.6470
 7121SOL     OW32824   4.649   2.108   0.059  0.7080  0.7553 -0.4920
 7121SOL    HW132825   4.637   2.192   0.104 -0.5005  0.8717 -1.0405
 7121SOL    HW232826   4.653   2.142  17.680  0.7577  1.3590 -0.2637
 7122SOL     OW32827   4.430   3.902   7.274  0.0644  0.1903  0.6815
 7122SOL    HW132828   4.378   3.859   7.206  0.6244  1.2504 -0.4275
 7122SOL    HW232829   4.424   3.994   7.248 -3.1904  0.5752  2.7389
 7123SOL     OW32830   1.453   0.113   8.745  0.2180 -0.2902  0.4896
 7123SOL    HW132831   1.451   0.207   8.725  1.3152 -1.0867 -3.2065
 7123SOL    HW232832   1.466   0.113   8.840  1.0737  2.1136  0.3841
 7124SOL     OW32833   3.834   3.549   4.545 -0.5037 -0.3647 -0.5550
 7124SOL    HW132834   3.883   3.628   4.519 -2.1844  0.3639 -1.5471
 7124SOL    HW232835   3.890   3.497   4.602  1.1037  1.9231 -0.0347
 7125SOL     OW32836   2.698   2.293   3.530 -0.0000  0.2261 -0.6925
 7125SOL    HW132837   2.771   2.298   3.468  2.7071  3.7134  2.8497
 7125SOL    HW232838   2.687   2.197   3.528  0.7964  0.1077  1.3180
 7126SOL     OW32839   1.117   4.683   2.338  0.6696 -0.2893 -0.3754
 7126SOL    HW132840   1.046   0.006   2.377  0.1891 -0.5523 -0.9080
 7126SOL    HW232841   1.109   4.700   2.245 -1.0491  2.2491  0.2420
 7127SOL     OW32842   4.702   3.899  10.199  0.0156 -0.5984 -0.6768
 7127SOL    HW132843   0.010   3.812  10.180  2.8551  0.1056  1.4211
 7127SOL    HW232844   4.662   3.920  10.114  1.4269  3.3446 -0.3536
 7128SOL     OW32845   3.896   2.421  16.425  0.3432  0.0516  0.1593
 7128SOL    HW132846   3.876   2.336  16.464  4.0439 -1.0225 -0.3386
 7128SOL    HW232847   3.825   2.438  16.363  0.7221  0.2369 -0.2279
 7129SOL     OW32848   2.069   3.463   8.035 -0.1498  0.3664  0.0352
 7129SOL    HW132849   2.079   3.558   8.033  0.7722  0.2581 -0.1716
 7129SOL    HW232850   2.154   3.431   8.065  0.2900 -0.5199 -2.1852
 7130SOL     OW32851   0.617   4.168   2.351  0.2943 -0.1883 -0.4459
 7130SOL    HW132852   0.638   4.076   2.364  1.0390  0.3627  2.2787
 7130SOL    HW232853   0.604   4.174   2.256 -3.3652 -1.6743 -0.0241
 7131SOL     OW32854   0.257   2.886   8.909  0.2689 -0.3294 -0.2611
 7131SOL    HW132855   0.235   2.979   8.919  1.7727  0.1217 -1.0223
 7131SOL    HW232856   0.263   2.853   8.999  1.6121  0.4358 -0.0729
 7132SOL     OW32857   3.357   1.935   8.997 -1.0210 -0.3424 -0.0932
 7132SOL    HW132858   3.318   1.865   9.050 -1.1681 -0.1611  0.0371
 7132SOL    HW232859   3.294   1.927   8.926  0.9356 -0.4463 -1.8099
 7133SOL     OW32860   3.176   0.982   7.861 -0.2544  1.1625  0.4439
 7133SOL    HW132861   3.261   0.957   7.898 -0.0943 -0.6176 -1.1026
 7133SOL    HW232862   3.206   1.054   7.805  0.7310  1.2028  1.0240
 7134SOL     OW32863   1.130   2.751  15.214  0.2934  0.3244 -0.0710
 7134SOL    HW132864   1.103   2.839  15.187 -1.6921 -0.7100 -1.4479
 7134SOL    HW232865   1.223   2.761  15.237  0.3404  1.1309 -0.6072
 7135SOL     OW32866   3.867   0.206   0.649 -0.7820  0.7950  0.1651
 7135SOL    HW132867   3.936   0.155   0.608 -0.5013  0.4759  1.0441
 7135SOL    HW232868   3.873   0.290   0.604 -0.4313  0.4413 -0.4470
 7136SOL     OW32869   2.206   3.410   1.649 -0.3099 -0.1221  0.4485
 7136SOL    HW132870   2.225   3.503   1.661 -1.1849  0.2031 -0.6913
 7136SOL    HW232871   2.205   3.385   1.742  0.9704  0.4779  0.6259
 7137SOL     OW32872   3.643   0.024  15.843 -0.1688 -0.1423 -0.3155
 7137SOL    HW132873   3.705   4.725  15.910 -1.1242  1.0108  1.0033
 7137SOL    HW232874   3.555   0.015  15.879  0.0675 -0.5096  0.1710
 7138SOL     OW32875   1.422   0.054   1.931 -0.2694 -0.0382 -0.2770
 7138SOL    HW132876   1.354   0.099   1.881 -1.1857  0.0779  1.0980
 7138SOL    HW232877   1.479   0.012   1.866 -0.6525 -1.5069  0.3363
 7139SOL     OW32878   4.115   3.574   6.967 -0.3250 -0.1596  0.1162
 7139SOL    HW132879   4.044   3.577   6.903  0.7436  0.3853 -1.0602
 7139SOL    HW232880   4.107   3.482   6.991  0.3522  0.0928  1.3132
 7140SOL     OW32881   4.616   4.201   9.716 -0.2425 -0.0873  0.5441
 7140SOL    HW132882   4.574   4.192   9.801 -0.2001 -0.6339  0.5051
 7140SOL    HW232883   4.695   4.251   9.733  0.2704 -0.3815 -0.9747
 7141SOL     OW32884   2.247   3.343   9.248  0.1168 -0.1500  0.4977
 7141SOL    HW132885   2.340   3.321   9.253 -0.1587 -0.9374  2.2945
 7141SOL    HW232886   2.210   3.258   9.271  1.3618 -1.1470 -1.1871
 7142SOL     OW32887   0.186   1.216  15.988 -0.6079  0.3496  0.3078
 7142SOL    HW132888   0.090   1.215  15.994 -0.6638  2.2428 -0.2872
 7142SOL    HW232889   0.195   1.290  15.928  0.7191  0.0812  0.1973
 7143SOL     OW32890   0.022   2.078   2.473 -0.5074  0.8613 -0.1271
 7143SOL    HW132891   0.086   2.147   2.490  1.3300 -0.5107 -1.5026
 7143SOL    HW232892   0.043   2.005   2.530 -3.8498 -0.4809 -0.6134
 7144SOL     OW32893   1.842   1.915   1.922  0.2781 -0.3018  0.7788
 7144SOL    HW132894   1.829   1.863   1.843  1.3545  1.1389 -0.3587
 7144SOL    HW232895   1.806   1.850   1.983 -0.2738 -0.0881  0.6789
 7145SOL     OW32896   4.447   0.362   6.652 -0.2002 -0.3193  0.2100
 7145SOL    HW132897   4.525   0.375   6.599  0.7812  0.9401  1.9487
 7145SOL    HW232898   4.409   0.449   6.649 -2.4656 -1.2987  0.9348
 7146SOL     OW32899   1.620   3.977   4.423  0.8302 -0.1360  0.4567
 7146SOL    HW132900   1.553   3.959   4.357 -0.0966  0.9714  1.0979
 7146SOL    HW232901   1.700   3.983   4.370 -0.2072  1.5262 -0.9167
 7147SOL     OW32902   3.655   4.349   0.258  0.0316 -0.0673  0.3292
 7147SOL    HW132903   3.679   4.262   0.225  0.2761  0.6523 -1.3872
 7147SOL    HW232904   3.679   4.340   0.350  1.6172  1.8152  0.0994
 7148SOL     OW32905   1.779   4.588   8.737 -0.4419 -0.1316  0.0742
 7148SOL    HW132906   1.861   4.623   8.702  0.7519 -1.0022  1.9929
 7148SOL    HW232907   1.806   4.566   8.826  1.4786  1.5076 -0.1108
 7149SOL     OW32908   2.268   0.659   0.516  0.0273 -0.2116  0.5834
 7149SOL    HW132909   2.210   0.586   0.496  0.0721 -0.0586 -0.1035
 7149SOL    HW232910   2.356   0.634   0.489 -0.1466  0.2058 -0.3822
 7150SOL     OW32911   3.147   1.289   6.588  0.0983  0.3284 -0.0418
 7150SOL    HW132912   3.160   1.325   6.676 -0.8254  2.1060 -0.6332
 7150SOL    HW232913   3.094   1.355   6.544 -0.6669 -1.2760 -1.5197
 7151SOL     OW32914   3.127   2.992  17.532  0.6453  0.2352  0.3488
 7151SOL    HW132915   3.217   2.972  17.560  0.5367  1.3321  1.4787
 7151SOL    HW232916   3.137   3.081  17.499  1.5035  0.1056  0.2647
 7152SOL     OW32917   3.376   2.523  17.078 -0.2548 -0.1683 -0.2979
 7152SOL    HW132918   3.426   2.448  17.110  0.6304 -0.4220 -2.2597
 7152SOL    HW232919   3.366   2.508  16.984 -0.8291  0.1620 -0.2908
 7153SOL     OW32920   4.224   0.034   0.911 -0.1673 -0.4424 -0.7149
 7153SOL    HW132921   4.265   0.008   0.829  1.1818 -0.6837  0.0491
 7153SOL    HW232922   4.133   0.023   0.881  0.1966  0.2237 -2.0700
 7154SOL     OW32923   0.380   2.532  10.840  0.2470  0.8100 -0.3941
 7154SOL    HW132924   0.369   2.608  10.782  0.7759  0.4946 -0.9175
 7154SOL    HW232925   0.421   2.478  10.772  2.2518  0.0227  1.4283
 7155SOL     OW32926   2.729   3.706   5.230 -0.7953 -0.3253 -0.2362
 7155SOL    HW132927   2.805   3.730   5.283 -0.2990  1.2468 -1.6710
 7155SOL    HW232928   2.740   3.765   5.155 -0.2680 -0.7025 -0.4604
 7156SOL     OW32929   3.753   0.684   7.495  0.1538 -0.0923 -0.1314
 7156SOL    HW132930   3.719   0.771   7.511  1.6899  1.0460 -2.9731
 7156SOL    HW232931   3.705   0.672   7.413 -0.3134  1.5951 -0.0902
 7157SOL     OW32932   0.700   2.744   4.729 -0.1045  0.1295 -0.0586
 7157SOL    HW132933   0.723   2.820   4.676 -0.6014  0.0560 -0.3834
 7157SOL    HW232934   0.768   2.684   4.698  0.2543 -0.0755  1.1293
 7158SOL     OW32935   1.563   4.409   4.375  0.4126 -0.1118 -0.1392
 7158SOL    HW132936   1.552   4.392   4.281 -3.1877 -2.3891  0.7428
 7158SOL    HW232937   1.472   4.420   4.400  0.4677 -1.2857  0.5364
 7159SOL     OW32938   0.281   2.544  13.678 -0.1845  0.3508 -0.1680
 7159SOL    HW132939   0.189   2.524  13.695 -0.3822  1.8802  0.5559
 7159SOL    HW232940   0.290   2.609  13.608 -2.1576 -1.5793 -2.1957
 7160SOL     OW32941   1.363   1.414   4.346  0.3915 -0.2837 -0.5270
 7160SOL    HW132942   1.389   1.354   4.416 -1.0797 -0.3110  0.0020
 7160SOL    HW232943   1.280   1.373   4.320  0.1040  0.7513 -1.2399
 7161SOL     OW32944   2.331   0.281  11.561  0.6972  0.1776  0.3680
 7161SOL    HW132945   2.310   0.188  11.557 -0.1260  0.4425 -1.4689
 7161SOL    HW232946   2.416   0.277  11.518  0.7868  0.3835  0.5249
 7162SOL     OW32947   0.481   1.030   5.780  0.1448 -0.1220 -0.2841
 7162SOL    HW132948   0.492   1.112   5.731  0.0883 -1.7413 -2.9999
 7162SOL    HW232949   0.451   1.074   5.860  1.3541 -0.2107  0.2139
 7163SOL     OW32950   3.515   2.528  15.166 -0.0124 -0.3829  0.6018
 7163SOL    HW132951   3.499   2.621  15.156  1.0378 -0.2018  0.5562
 7163SOL    HW232952   3.434   2.510  15.214 -0.2034 -1.7339 -0.2329
 7164SOL     OW32953   3.668   3.157   5.791 -0.6501  0.3337  0.8439
 7164SOL    HW132954   3.738   3.117   5.842  0.2022  0.1826 -0.4471
 7164SOL    HW232955   3.704   3.129   5.707 -2.7342 -0.2209  0.1201
 7165SOL     OW32956   0.100   0.105   2.032 -0.6724 -0.0776  0.3513
 7165SOL    HW132957   0.187   0.134   2.061 -1.4501  1.7272  0.9060
 7165SOL    HW232958   0.042   0.136   2.102 -0.6078 -2.2147  1.3419
 7166SOL     OW32959   4.724   2.581   6.286 -0.3700 -0.2261 -0.3013
 7166SOL    HW132960   0.091   2.590   6.274 -0.6196 -0.7403 -2.6728
 7166SOL    HW232961   4.698   2.667   6.253  2.7226  1.7142  2.3834
 7167SOL     OW32962   0.011   1.144   2.135  0.5437  0.1062  0.2330
 7167SOL    HW132963   0.086   1.113   2.187  0.9388 -0.3688 -0.6265
 7167SOL    HW232964   4.724   1.069   2.078 -2.3113  1.6953 -1.1598
 7168SOL     OW32965   1.294   1.210   6.828 -0.1397  0.0001 -0.2977
 7168SOL    HW132966   1.273   1.156   6.904  1.3969  1.8854  1.4851
 7168SOL    HW232967   1.274   1.148   6.758 -2.0265  1.9243 -1.4861
 7169SOL     OW32968   2.572   2.023   2.153  0.4292 -0.2400  0.7320
 7169SOL    HW132969   2.593   2.067   2.070  0.3257  1.3109  1.5370
 7169SOL    HW232970   2.607   2.082   2.219  2.1236 -1.2099  0.6976
 7170SOL     OW32971   3.013   3.497   2.501  0.1049 -0.0579 -0.0098
 7170SOL    HW132972   3.018   3.578   2.552 -1.0160 -1.1788  1.8949
 7170SOL    HW232973   2.939   3.455   2.546 -0.0932 -0.0748 -0.3527
 7171SOL     OW32974   3.700   1.341  15.128  0.1230 -0.4459  0.5156
 7171SOL    HW132975   3.640   1.415  15.118 -0.4852 -0.9334  0.5375
 7171SOL    HW232976   3.666   1.309  15.211 -1.1919 -1.2002 -0.3172
 7172SOL     OW32977   1.444   0.461   2.016  0.0862 -0.3003 -0.2391
 7172SOL    HW132978   1.400   0.444   2.099 -0.8680 -0.1183 -0.7014
 7172SOL    HW232979   1.496   0.381   2.006  0.5988  0.0029  0.0308
 7173SOL     OW32980   2.436   2.425   4.543 -0.1374 -0.3090 -0.6062
 7173SOL    HW132981   2.365   2.392   4.488 -0.1206  0.4262 -1.0612
 7173SOL    HW232982   2.498   2.358   4.515  0.4988  0.7049 -1.5879
 7174SOL     OW32983   0.061   3.494   7.207  0.4276 -0.4588 -0.5075
 7174SOL    HW132984   0.062   3.588   7.191 -0.7343 -0.5071 -0.8624
 7174SOL    HW232985   0.133   3.480   7.145  0.9441  0.2000 -0.0665
 7175SOL     OW32986   2.969   0.883  15.196 -0.4636 -0.1732  0.3259
 7175SOL    HW132987   3.059   0.883  15.162 -1.0845 -1.5721 -1.3021
 7175SOL    HW232988   2.989   0.821  15.266 -1.6701 -0.4052  0.4554
 7176SOL     OW32989   2.583   3.306   6.501  0.5074  0.6794  0.3988
 7176SOL    HW132990   2.663   3.256   6.483 -0.3150  0.0451 -1.4334
 7176SOL    HW232991   2.515   3.259   6.453  1.7543  1.7239 -2.4042
 7177SOL     OW32992   3.913   0.198  14.585  0.5272  0.1304  0.0178
 7177SOL    HW132993   3.989   0.255  14.600  0.0688  0.3617  1.4597
 7177SOL    HW232994   3.955   0.124  14.629  0.2993  0.1654  0.2911
 7178SOL     OW32995   1.345   0.658   5.650 -0.0239  0.3069 -0.2981
 7178SOL    HW132996   1.370   0.699   5.733 -0.3230 -0.2216  0.0533
 7178SOL    HW232997   1.337   0.567   5.677 -0.4293  0.8757  1.5085
 7179SOL     OW32998   3.335   3.278   3.057  0.0400 -0.1000  0.3331
 7179SOL    HW132999   3.431   3.276   3.053  0.0554  1.6363 -0.1572
 7179SOL    HW233000   3.329   3.295   3.151  0.2055  1.9545 -0.0182
 7180SOL     OW33001   1.281   0.426   2.285  0.7573 -0.3488  0.6147
 7180SOL    HW133002   1.339   0.365   2.330  0.9772  0.1283  0.9742
 7180SOL    HW233003   1.199   0.378   2.273  0.9388 -0.6838  0.7342
 7181SOL     OW33004   0.469   0.819   9.144  0.0759 -0.2901  0.7188
 7181SOL    HW133005   0.477   0.820   9.239  1.0297 -0.6658  0.6428
 7181SOL    HW233006   0.397   0.758   9.131  0.5584 -0.5531 -0.7433
 7182SOL     OW33007   3.361   2.692  11.794  0.0326  0.2498  0.2484
 7182SOL    HW133008   3.305   2.739  11.855  0.8865  1.3202  0.2187
 7182SOL    HW233009   3.321   2.607  11.811  1.5127 -0.5952 -0.4935
 7183SOL     OW33010   3.296   4.434  17.017  0.0184  0.2060 -0.1371
 7183SOL    HW133011   3.238   4.360  16.998 -0.8485  0.5119  1.3479
 7183SOL    HW233012   3.269   4.496  16.950 -3.3732 -0.3414  0.7216
 7184SOL     OW33013   2.253   3.004   2.707  0.7683  0.3552 -0.4126
 7184SOL    HW133014   2.226   2.933   2.764  2.6660 -0.8505 -1.0258
 7184SOL    HW233015   2.209   2.987   2.623 -0.1370  1.9420 -0.2566
 7185SOL     OW33016   4.392   0.149  16.865 -0.2858 -0.5713  0.0685
 7185SOL    HW133017   4.408   0.226  16.919 -0.2834 -0.8887  0.5194
 7185SOL    HW233018   4.342   0.095  16.926 -0.5518  0.4593  0.7480
 7186SOL     OW33019   2.531   0.967   9.380  0.0652 -0.4754 -0.0946
 7186SOL    HW133020   2.465   0.898   9.374 -0.6850  0.5679 -3.6089
 7186SOL    HW233021   2.559   0.961   9.471 -2.3900 -2.7505  0.5287
 7187SOL     OW33022   1.765   0.278   0.892 -0.5734  0.8607  0.7352
 7187SOL    HW133023   1.829   0.220   0.932 -0.2760  0.9389  0.3796
 7187SOL    HW233024   1.765   0.250   0.800 -0.6907 -2.3902  1.7454
 7188SOL     OW33025   3.195   3.718   6.035 -0.2256 -0.3371  0.3586
 7188SOL    HW133026   3.226   3.779   5.968  0.4007 -0.2735  0.7021
 7188SOL    HW233027   3.250   3.643   6.015 -1.6791 -1.5972  1.0876
 7189SOL     OW33028   4.603   2.134  16.404  0.7697  0.1059  0.4186
 7189SOL    HW133029   4.534   2.144  16.470  1.8424  1.7751  1.2703
 7189SOL    HW233030   4.666   2.205  16.416  1.2923  0.1220 -2.4645
 7190SOL     OW33031   3.925   4.453   5.687 -0.4959 -0.3782  0.4879
 7190SOL    HW133032   3.845   4.487   5.648 -0.2761  1.4145  1.5952
 7190SOL    HW233033   3.941   4.375   5.634  0.5232  0.2617 -0.1391
 7191SOL     OW33034   4.155   4.508   2.216  0.1235  0.0372 -0.0737
 7191SOL    HW133035   4.070   4.490   2.176  0.1277 -0.8723  0.3355
 7191SOL    HW233036   4.208   4.445   2.166  1.6391  0.4061  1.0600
 7192SOL     OW33037   2.084   3.025   8.327  0.6209 -0.1357  0.8881
 7192SOL    HW133038   2.150   2.955   8.324  2.1212  1.3618 -0.7362
 7192SOL    HW233039   2.009   2.967   8.345 -1.1258  1.9187  0.1706
 7193SOL     OW33040   0.099   0.348   6.821 -0.0684  0.4677 -0.4546
 7193SOL    HW133041   0.028   0.287   6.838 -1.9661  2.3942 -1.5282
 7193SOL    HW233042   0.137   0.352   6.909 -0.1313  0.3066 -0.4201
 7194SOL     OW33043   3.330   3.147  10.262  0.0755  0.0164  0.2172
 7194SOL    HW133044   3.313   3.111  10.174 -0.1431  0.4860  0.0689
 7194SOL    HW233045   3.337   3.238  10.233 -0.4636 -0.3236 -0.9792
 7195SOL     OW33046   4.132   3.339   7.903 -0.3497 -0.3496 -0.0785
 7195SOL    HW133047   4.066   3.311   7.840 -0.7821 -0.1877  0.3002
 7195SOL    HW233048   4.207   3.282   7.890 -0.7802 -0.9663  0.1136
 7196SOL     OW33049   4.158   2.787   5.858  0.3686  0.4048  0.6171
 7196SOL    HW133050   4.107   2.855   5.901  0.3884  1.7898 -1.5907
 7196SOL    HW233051   4.126   2.798   5.769  2.9866 -1.7823 -0.6250
 7197SOL     OW33052   4.648   0.464   6.465 -0.0485  0.2927  0.0003
 7197SOL    HW133053   4.651   0.552   6.503  1.4661 -1.0602  3.0495
 7197SOL    HW233054   4.593   0.476   6.388  1.8232 -1.5463 -1.6363
 7198SOL     OW33055   1.534   1.608   1.829 -0.2299 -0.1269  0.5769
 7198SOL    HW133056   1.532   1.512   1.827  0.8068 -0.1726  1.4395
 7198SOL    HW233057   1.566   1.629   1.741 -2.8096  1.2737 -0.0325
 7199SOL     OW33058   3.910   3.234  11.530  0.0975  0.2903 -0.2453
 7199SOL    HW133059   3.850   3.285  11.476 -0.8712 -0.1900  0.3847
 7199SOL    HW233060   3.907   3.157  11.473  0.9265 -0.0778  0.2120
 7200SOL     OW33061   3.392   3.807   8.938 -0.6636 -0.3678 -0.0103
 7200SOL    HW133062   3.401   3.809   8.843 -0.6062 -1.3935 -0.0239
 7200SOL    HW233063   3.421   3.897   8.955 -3.3337  0.6583 -0.8667
 7201SOL     OW33064   2.510   1.457   5.070 -0.1352  0.3224 -0.0875
 7201SOL    HW133065   2.419   1.486   5.081  0.3295  1.4169  0.8466
 7201SOL    HW233066   2.555   1.495   5.145  0.7262 -1.5476  0.3298
 7202SOL     OW33067   0.359   3.294   8.151 -0.0323  0.5617  0.4822
 7202SOL    HW133068   0.441   3.335   8.181 -0.5050  1.4176  0.5956
 7202SOL    HW233069   0.291   3.311   8.215  0.1784 -2.0252  1.3916
 7203SOL     OW33070   1.662   0.402   5.583  0.5624  0.7310 -0.7150
 7203SOL    HW133071   1.692   0.422   5.494 -1.8492  0.4280 -1.5837
 7203SOL    HW233072   1.725   0.451   5.636  0.6631 -0.4550  0.2506
 7204SOL     OW33073   2.755   1.562  14.851 -0.3792  0.5920 -0.1901
 7204SOL    HW133074   2.772   1.608  14.769 -1.3175  0.1638 -0.6202
 7204SOL    HW233075   2.730   1.636  14.907  0.0241  0.0341  0.7287
 7205SOL     OW33076   2.438   0.321   8.557 -0.4277 -0.2594  0.2101
 7205SOL    HW133077   2.370   0.379   8.591 -1.7115 -0.0780 -2.6661
 7205SOL    HW233078   2.518   0.336   8.608 -0.4254  3.2891 -0.8201
 7206SOL     OW33079   2.360   3.387   6.052  0.1393  0.5345 -0.1511
 7206SOL    HW133080   2.423   3.430   6.110  0.9662  1.6100 -1.8485
 7206SOL    HW233081   2.335   3.463   6.000  1.7087  0.8360 -0.4437
 7207SOL     OW33082   0.799   1.962   9.005  0.0049  0.1761  0.3337
 7207SOL    HW133083   0.788   2.053   9.033  3.1662  0.9142 -0.8140
 7207SOL    HW233084   0.753   1.962   8.920  2.6509 -0.7034 -1.0846
 7208SOL     OW33085   2.147   2.572   4.253 -0.2331  0.1861  0.1287
 7208SOL    HW133086   2.061   2.560   4.213  0.2743 -0.2340 -0.8626
 7208SOL    HW233087   2.174   2.483   4.279  0.0823 -0.3252 -1.8845
 7209SOL     OW33088   3.106   2.917   7.009  0.0960  0.0036  0.0835
 7209SOL    HW133089   3.100   2.821   7.000  0.9083  0.1189 -1.7074
 7209SOL    HW233090   3.038   2.949   6.950 -0.9042  0.3728  1.4554
 7210SOL     OW33091   1.976   4.460   4.762 -0.1229 -0.5613  0.7958
 7210SOL    HW133092   1.903   4.462   4.699  0.5212  0.4580  0.0945
 7210SOL    HW233093   1.935   4.407   4.831  0.1338 -0.3626  1.1001
 7211SOL     OW33094   0.213   4.156   3.519 -0.0426 -0.2414  0.0949
 7211SOL    HW133095   0.147   4.215   3.485  1.2133  1.0658 -0.0700
 7211SOL    HW233096   0.235   4.207   3.597 -1.0043  0.4716 -0.1091
 7212SOL     OW33097   3.209   2.482  11.843  0.0675 -0.0587 -0.0452
 7212SOL    HW133098   3.117   2.505  11.829  0.2969  0.2489 -1.0452
 7212SOL    HW233099   3.196   2.447  11.931 -0.2234 -2.1672 -0.9178
 7213SOL     OW33100   4.123   0.942   0.565 -0.0957 -0.0855 -0.3476
 7213SOL    HW133101   4.169   0.859   0.577  1.7436  1.3369  2.3875
 7213SOL    HW233102   4.198   0.998   0.550 -2.4138  3.4734  1.4455
 7214SOL     OW33103   2.563   3.761   7.913 -0.1264  0.2074 -0.3200
 7214SOL    HW133104   2.651   3.741   7.944 -0.4212 -0.0581  0.3434
 7214SOL    HW233105   2.513   3.728   7.988 -1.5485  0.6399 -1.0765
 7215SOL     OW33106   2.784   3.005   2.791 -0.7478 -0.2091 -0.5725
 7215SOL    HW133107   2.691   3.022   2.777  0.0108  3.0084 -1.6152
 7215SOL    HW233108   2.820   3.012   2.702 -1.2662  0.8705 -0.6958
 7216SOL     OW33109   1.438   1.509   9.881 -0.1897 -0.0194 -0.0133
 7216SOL    HW133110   1.456   1.519   9.788 -0.0391 -0.1184  0.0053
 7216SOL    HW233111   1.455   1.415   9.891 -0.3709  0.0517  0.9732
 7217SOL     OW33112   0.862   0.869   8.073  0.3384  0.0403 -0.4234
 7217SOL    HW133113   0.944   0.826   8.049  0.7424  1.0961 -0.9632
 7217SOL    HW233114   0.809   0.858   7.995 -0.3073 -1.3509  0.2080
 7218SOL     OW33115   0.165   1.395  15.325  0.1400 -0.2785 -0.1631
 7218SOL    HW133116   0.214   1.461  15.277 -0.2966  0.4986  0.4537
 7218SOL    HW233117   0.232   1.327  15.331 -1.1610 -1.7732 -2.7246
 7219SOL     OW33118   2.283   4.268   6.259  0.8266  0.3084 -0.3327
 7219SOL    HW133119   2.315   4.301   6.176 -2.7745  1.1911 -1.3886
 7219SOL    HW233120   2.271   4.178   6.229  1.4715  0.2875 -0.5298
 7220SOL     OW33121   1.812   1.264   9.310  0.0347  0.5327 -0.5756
 7220SOL    HW133122   1.735   1.256   9.365 -0.6321  1.0983 -1.4323
 7220SOL    HW233123   1.846   1.175   9.312 -1.4116  0.0518  1.9901
 7221SOL     OW33124   2.088   2.083   3.184  0.5599 -0.5462  0.2588
 7221SOL    HW133125   2.081   2.060   3.277  1.7349  0.5801  0.6268
 7221SOL    HW233126   2.031   2.012   3.156  1.7133 -1.2482 -0.2981
 7222SOL     OW33127   3.415   4.366   8.951  0.0474 -0.5487 -0.5221
 7222SOL    HW133128   3.506   4.346   8.974  0.3489 -0.2875 -1.5290
 7222SOL    HW233129   3.424   4.412   8.868  0.3898  0.4654  0.0788
 7223SOL     OW33130   2.036   3.272  16.536  0.3770 -0.2994  0.4852
 7223SOL    HW133131   2.103   3.339  16.554 -0.8292  1.2140 -0.6382
 7223SOL    HW233132   2.022   3.239  16.624  0.5130 -1.0848  0.2129
 7224SOL     OW33133   3.757   2.472  12.818  0.3219  0.3730 -0.2789
 7224SOL    HW133134   3.789   2.538  12.879 -0.4524  0.8029 -0.3296
 7224SOL    HW233135   3.804   2.394  12.844  1.2691  0.1488 -2.6286
 7225SOL     OW33136   1.394   1.053  16.106 -0.7814 -0.5641  0.2409
 7225SOL    HW133137   1.356   0.968  16.128 -1.9819 -0.6008 -1.9361
 7225SOL    HW233138   1.482   1.036  16.140 -0.1866  0.8713 -0.5913
 7226SOL     OW33139   4.137   3.177   2.851 -0.2351 -0.0836  0.0875
 7226SOL    HW133140   4.090   3.113   2.904 -0.6122  0.3968  0.3314
 7226SOL    HW233141   4.223   3.142   2.875 -0.0360  0.9570  0.8681
 7227SOL     OW33142   1.794   1.938  11.546  0.4271  0.4043  0.1724
 7227SOL    HW133143   1.746   1.937  11.628  0.8592  1.3584  0.4380
 7227SOL    HW233144   1.878   1.977  11.570  1.4337 -1.3592 -0.4825
 7228SOL     OW33145   1.554   2.249   5.686  0.5160  0.6596 -0.2392
 7228SOL    HW133146   1.623   2.281   5.744 -0.8975 -0.9842  2.3355
 7228SOL    HW233147   1.554   2.322   5.624 -0.4838  0.2455 -0.7408
 7229SOL     OW33148   2.461   2.942  14.757  0.0625 -0.6169 -0.5659
 7229SOL    HW133149   2.415   2.920  14.676 -3.2948 -0.0836  1.1671
 7229SOL    HW233150   2.464   3.037  14.747  2.9540 -0.7917 -1.1653
 7230SOL     OW33151   3.690   3.679  12.145 -0.2225  0.5335  0.2386
 7230SOL    HW133152   3.690   3.686  12.240  1.6147  1.2511  0.1768
 7230SOL    HW233153   3.697   3.584  12.138 -2.6930  0.1586  2.4970
 7231SOL     OW33154   2.172   2.222  11.815  0.3368 -0.0922  0.5272
 7231SOL    HW133155   2.232   2.155  11.781  0.5017 -0.5014  1.6260
 7231SOL    HW233156   2.240   2.279  11.850 -0.0932  0.3194  0.6974
 7232SOL     OW33157   3.050   1.091   4.913  0.0695  0.2624 -0.1205
 7232SOL    HW133158   3.022   1.147   4.841 -3.3426 -1.7422 -0.3359
 7232SOL    HW233159   3.024   1.010   4.870 -3.1369  1.3588 -0.2117
 7233SOL     OW33160   2.894   4.327  14.424  0.2800 -0.4962  0.1302
 7233SOL    HW133161   2.968   4.289  14.472 -0.3631 -1.3613  0.4378
 7233SOL    HW233162   2.928   4.337  14.335  0.9266 -2.0209  0.2162
 7234SOL     OW33163   1.890   4.037   8.592 -0.1666 -0.2589  0.8868
 7234SOL    HW133164   1.803   4.053   8.629  1.5656  0.6140  4.6224
 7234SOL    HW233165   1.942   4.014   8.669  1.3420  0.3702  0.0698
 7235SOL     OW33166   1.320   1.069   4.556  0.1357 -0.8314 -0.7577
 7235SOL    HW133167   1.342   1.043   4.467  0.9756  3.2775 -1.7488
 7235SOL    HW233168   1.395   1.129   4.558 -0.3305 -0.2693  0.2644
 7236SOL     OW33169   2.605   3.276   5.443 -0.0686  0.2554 -0.0831
 7236SOL    HW133170   2.618   3.340   5.513 -1.4502 -0.9314  1.2604
 7236SOL    HW233171   2.670   3.213   5.474  0.3267  0.6899 -0.0218
 7237SOL     OW33172   1.880   3.753  10.656 -0.2867 -0.6941  0.5828
 7237SOL    HW133173   1.923   3.671  10.629  1.3993  0.0154  1.1115
 7237SOL    HW233174   1.856   3.733  10.747  0.9213 -1.3677  0.7555
 7238SOL     OW33175   3.750   3.280   9.496 -0.1402  0.0152 -0.0074
 7238SOL    HW133176   3.743   3.286   9.591  0.6056  0.3307  0.0293
 7238SOL    HW233177   3.731   3.367   9.461 -1.2671 -1.0870 -2.1526
 7239SOL     OW33178   2.119   3.864   5.069 -0.3817 -0.0898 -0.3903
 7239SOL    HW133179   2.193   3.874   5.128 -1.0268  0.3601  0.3340
 7239SOL    HW233180   2.138   3.777   5.034  0.2211 -0.1342  0.0459
 7240SOL     OW33181   2.531   0.326   6.419 -0.4684  0.6693 -0.0846
 7240SOL    HW133182   2.558   0.341   6.328  0.4268  0.5759  0.1682
 7240SOL    HW233183   2.468   0.398   6.422 -1.3703 -0.2093  2.2357
 7241SOL     OW33184   2.508   2.965   5.803 -0.2911 -0.4480  0.2166
 7241SOL    HW133185   2.525   2.981   5.896  0.0588  0.8062 -0.0645
 7241SOL    HW233186   2.450   2.889   5.802  0.6837 -1.1880  0.5527
 7242SOL     OW33187   2.642   2.992  15.697 -0.7262  0.4999 -0.1862
 7242SOL    HW133188   2.711   2.925  15.692  0.7689  2.1311 -1.2757
 7242SOL    HW233189   2.689   3.065  15.737  0.0953 -1.2417  2.0306
 7243SOL     OW33190   2.067   3.025  16.054 -0.3817 -0.3365 -0.5355
 7243SOL    HW133191   1.996   2.960  16.058 -1.7467  1.0277 -2.0386
 7243SOL    HW233192   2.100   3.020  16.143  2.6596  0.9559 -1.6133
 7244SOL     OW33193   1.766   0.246   3.705  0.1437 -0.5111  0.3221
 7244SOL    HW133194   1.841   0.188   3.694  1.1299  1.0038 -0.8922
 7244SOL    HW233195   1.785   0.306   3.633  2.4094 -0.5671  0.8731
 7245SOL     OW33196   1.882   3.520   4.579 -0.5597  0.1370  0.1556
 7245SOL    HW133197   1.909   3.523   4.671 -1.2393  1.0670  0.3268
 7245SOL    HW233198   1.880   3.427   4.558  0.7368  0.5326 -1.6972
 7246SOL     OW33199   2.217   3.510   3.938  0.3799  0.0452  0.0411
 7246SOL    HW133200   2.191   3.419   3.926 -0.0409  0.2494 -0.5759
 7246SOL    HW233201   2.139   3.550   3.975  1.5951  1.8620  0.6535
 7247SOL     OW33202   1.504   0.667   1.097  0.4424 -0.3697 -0.3348
 7247SOL    HW133203   1.587   0.652   1.052  0.0009 -1.1085 -0.8902
 7247SOL    HW233204   1.469   0.579   1.105 -1.0004  0.0941 -1.6073
 7248SOL     OW33205   4.506   0.724   7.669 -0.5829  0.0832 -0.0979
 7248SOL    HW133206   4.504   0.773   7.587 -2.5316 -0.0979 -0.1570
 7248SOL    HW233207   4.477   0.644   7.627 -0.0714 -0.6658  0.9901
 7249SOL     OW33208   3.521   2.104   7.333 -0.3446 -0.1303  1.0013
 7249SOL    HW133209   3.574   2.171   7.290 -1.2191 -0.6336 -0.8488
 7249SOL    HW233210   3.465   2.145   7.400 -1.0820  0.5982 -0.0544
 7250SOL     OW33211   1.898   0.544  11.949 -0.3331  0.4097 -0.4024
 7250SOL    HW133212   1.923   0.573  11.862  0.1406  0.2911 -0.3065
 7250SOL    HW233213   1.966   0.476  11.945  1.5172  2.1904  1.1389
 7251SOL     OW33214   0.594   1.169   6.991  0.5834 -0.5630 -0.7620
 7251SOL    HW133215   0.558   1.080   7.000 -0.0759 -0.1753  0.3751
 7251SOL    HW233216   0.576   1.203   6.903 -2.1152 -1.1848 -0.4734
 7252SOL     OW33217   3.216   0.254   2.475 -0.3752 -0.2608 -0.0595
 7252SOL    HW133218   3.284   0.222   2.416 -0.8735  0.9402 -1.2885
 7252SOL    HW233219   3.136   0.225   2.432  1.3060 -2.3368 -1.8184
 7253SOL     OW33220   2.645   3.673   2.942 -0.2936 -0.4795 -0.2306
 7253SOL    HW133221   2.673   3.747   2.995 -0.2780 -0.2595 -0.5471
 7253SOL    HW233222   2.653   3.700   2.851 -0.0334  2.8710  0.8107
 7254SOL     OW33223   3.151   4.396   7.204 -0.6978 -0.0353  0.2090
 7254SOL    HW133224   3.149   4.425   7.113  2.3422 -1.5764 -0.3723
 7254SOL    HW233225   3.179   4.306   7.185 -2.4363 -0.0836 -2.1847
 7255SOL     OW33226   3.795   0.008   5.649 -0.3743  0.0643 -0.2859
 7255SOL    HW133227   3.861   0.029   5.582  2.6073  0.3119  2.7331
 7255SOL    HW233228   3.718   0.046   5.607 -0.4696  0.7238  0.4972
 7256SOL     OW33229   3.844   2.644  13.026 -0.0010  0.0310 -0.3167
 7256SOL    HW133230   3.914   2.584  13.053  2.0137  2.7511  0.5810
 7256SOL    HW233231   3.764   2.617  13.070  0.5642 -0.8461  0.1638
 7257SOL     OW33232   2.503   2.054  12.976  0.0520 -0.3012  0.4813
 7257SOL    HW133233   2.492   2.017  12.889 -2.3635  2.8917 -0.5821
 7257SOL    HW233234   2.547   2.136  12.953 -1.0385  0.2815  0.4693
 7258SOL     OW33235   4.065   4.649   5.802 -0.4977 -0.1851  0.1751
 7258SOL    HW133236   3.992   4.591   5.778 -1.5547  0.4286  1.9122
 7258SOL    HW233237   4.121   4.628   5.727  0.3846  1.7414  0.2993
 7259SOL     OW33238   1.568   3.990   7.554  0.3404 -0.0859  0.1181
 7259SOL    HW133239   1.543   3.969   7.644 -2.8384  0.2718 -0.6976
 7259SOL    HW233240   1.659   4.017   7.571  0.2255 -0.1141  0.7932
 7260SOL     OW33241   3.023   2.808  13.025  0.2951 -0.0579 -0.4583
 7260SOL    HW133242   2.991   2.866  12.955  0.4668  1.2105  0.5224
 7260SOL    HW233243   3.100   2.775  12.978 -0.0518  1.2982 -1.9827
 7261SOL     OW33244   2.350   0.739  17.673 -0.1646  0.7246 -0.2693
 7261SOL    HW133245   2.420   0.792   0.002 -1.6840  2.7858 -0.3656
 7261SOL    HW233246   2.299   0.718   0.041 -0.3663 -0.6354 -0.7757
 7262SOL     OW33247   3.531   3.063  14.909 -0.6255  0.2151 -0.2077
 7262SOL    HW133248   3.436   3.058  14.897 -0.5591  2.8454 -1.8645
 7262SOL    HW233249   3.557   2.972  14.925  1.6683  0.7464 -0.9417
 7263SOL     OW33250   2.484   0.638   5.186 -0.3725  0.2179 -0.3000
 7263SOL    HW133251   2.424   0.684   5.245  1.7482  2.4132  0.1279
 7263SOL    HW233252   2.447   0.658   5.100 -0.3892 -1.5175 -0.7003
 7264SOL     OW33253   4.621   0.803   2.359 -0.3146 -0.2993 -0.0733
 7264SOL    HW133254   4.558   0.764   2.298 -0.8451 -0.0147  0.2899
 7264SOL    HW233255   4.568   0.824   2.435  1.5135  1.9930  0.5588
 7265SOL     OW33256   0.555   3.719   1.005 -0.0308 -0.3792  0.3799
 7265SOL    HW133257   0.641   3.680   1.023  0.3821  1.7697  3.0112
 7265SOL    HW233258   0.560   3.764   0.921 -0.6753 -1.2431 -0.1120
 7266SOL     OW33259   3.804   1.887   0.835  0.1373  0.0412  0.6419
 7266SOL    HW133260   3.853   1.842   0.904  2.7669  1.0296 -0.5683
 7266SOL    HW233261   3.818   1.832   0.758  2.7185  1.3433  0.1603
 7267SOL     OW33262   0.395   0.884   5.382  0.4153 -0.0046 -0.1429
 7267SOL    HW133263   0.389   0.961   5.325  1.2589 -1.2573 -1.9181
 7267SOL    HW233264   0.353   0.917   5.461  0.3355  0.2546 -0.2931
 7268SOL     OW33265   1.542   4.090   1.094 -0.4237 -0.0330  0.4592
 7268SOL    HW133266   1.560   3.998   1.079 -0.9763 -0.1202  0.3364
 7268SOL    HW233267   1.611   4.122   1.152 -0.3830  0.0711  0.3551
 7269SOL     OW33268   3.918   3.139   3.166  0.1145  0.1622 -0.1666
 7269SOL    HW133269   3.827   3.117   3.185  0.3747 -0.8340 -0.0699
 7269SOL    HW233270   3.916   3.234   3.154  1.2007  0.1896 -0.1241
 7270SOL     OW33271   2.027   4.286   8.956  0.0558 -0.0835  0.3689
 7270SOL    HW133272   2.101   4.276   8.897 -0.7317 -0.9101 -0.4649
 7270SOL    HW233273   1.966   4.214   8.939 -0.1512 -0.0812  1.0898
 7271SOL     OW33274   0.651   2.614   7.847  0.3045 -0.4400  0.6342
 7271SOL    HW133275   0.568   2.661   7.839  1.0392  0.6442 -0.6620
 7271SOL    HW233276   0.667   2.624   7.941  0.6164  0.0897  0.5276
 7272SOL     OW33277   2.825   4.001   7.039  0.2861  0.2596  0.0224
 7272SOL    HW133278   2.751   3.943   7.056  0.5608  0.2761  1.2806
 7272SOL    HW233279   2.839   4.037   7.127 -0.7980 -0.0973  0.3374
 7273SOL     OW33280   3.034   0.527   2.041 -0.3447  0.3640 -0.6127
 7273SOL    HW133281   2.956   0.576   2.015 -0.8844 -0.4810 -0.5975
 7273SOL    HW233282   3.031   0.536   2.137 -0.1943  1.3251 -0.6938
 7274SOL     OW33283   0.783   3.300   7.817  0.4330  0.5489  0.1617
 7274SOL    HW133284   0.837   3.275   7.893  3.0694 -0.2366 -1.9781
 7274SOL    HW233285   0.739   3.218   7.797  1.9661 -0.5105  1.0972
 7275SOL     OW33286   0.604   4.469  15.431  0.1468 -0.3213  0.2601
 7275SOL    HW133287   0.675   4.484  15.494  0.4770 -3.4061  0.6177
 7275SOL    HW233288   0.522   4.493  15.476 -1.7770 -3.6076 -1.5027
 7276SOL     OW33289   1.104   0.031  10.420  0.2664 -0.9109  0.1547
 7276SOL    HW133290   1.160   0.095  10.375 -0.5489 -0.2539  0.0868
 7276SOL    HW233291   1.094   0.074  10.505 -1.0381  1.0967 -1.0359
 7277SOL     OW33292   3.327   3.653   4.679 -0.1387  0.2076  0.0359
 7277SOL    HW133293   3.309   3.733   4.729  0.6190  0.8812 -0.7783
 7277SOL    HW233294   3.238   3.623   4.661 -0.5327 -0.4287  3.0487
 7278SOL     OW33295   3.341   1.230   3.481 -0.0641 -0.1269  0.0943
 7278SOL    HW133296   3.280   1.253   3.411 -1.2496  0.7604  1.4068
 7278SOL    HW233297   3.312   1.281   3.557  2.5673  1.3410  0.1295
 7279SOL     OW33298   1.132   2.393  13.592 -0.3840  0.4800 -0.1249
 7279SOL    HW133299   1.181   2.329  13.645 -1.0685 -0.3221 -0.4671
 7279SOL    HW233300   1.174   2.468  13.634  0.2775 -0.5367  1.0288
 7280SOL     OW33301   1.401   0.238   3.397 -0.3101 -0.5389  0.1611
 7280SOL    HW133302   1.496   0.227   3.391 -0.2751 -0.8130  1.3353
 7280SOL    HW233303   1.387   0.283   3.480  2.6104 -0.4644  0.6138
 7281SOL     OW33304   1.028   1.954  10.615  0.2607 -0.1847 -0.8600
 7281SOL    HW133305   0.998   1.979  10.703  0.2684  0.2259 -0.9760
 7281SOL    HW233306   0.944   1.980  10.575  0.3150 -0.7167 -1.3109
 7282SOL     OW33307   1.714   4.653  16.032 -0.3726 -0.5951  0.2876
 7282SOL    HW133308   1.678   4.629  16.118 -0.8127 -2.8483 -0.5254
 7282SOL    HW233309   1.769   4.727  16.057 -0.6583 -0.4805  0.5691
 7283SOL     OW33310   0.884   2.618   2.755  0.5014  0.2813 -0.5578
 7283SOL    HW133311   0.842   2.653   2.677 -0.6574 -0.8111 -0.4182
 7283SOL    HW233312   0.968   2.661   2.738  1.0094 -0.2917  0.4993
 7284SOL     OW33313   0.536   2.063   2.197 -0.5464 -0.1258  0.1041
 7284SOL    HW133314   0.602   2.073   2.266 -1.3834  1.1334  0.7350
 7284SOL    HW233315   0.449   2.061   2.239  0.1351  1.5769  1.6399
 7285SOL     OW33316   2.475   0.527   0.346  0.0644 -0.2027  0.5035
 7285SOL    HW133317   2.551   0.501   0.397 -0.0974  0.6343  1.1625
 7285SOL    HW233318   2.507   0.604   0.300  0.7650 -0.3313  0.7872
 7286SOL     OW33319   0.823   1.090  12.910  0.0904  0.1801  0.4952
 7286SOL    HW133320   0.794   1.002  12.886  1.7289 -0.5725  1.2185
 7286SOL    HW233321   0.745   1.144  12.922  0.3749  0.7419 -0.2129
 7287SOL     OW33322   3.517   1.367   5.467  0.7536  0.1748  0.0445
 7287SOL    HW133323   3.472   1.449   5.486  1.3710 -0.0436  2.3476
 7287SOL    HW233324   3.480   1.313   5.537  1.2460 -1.7835 -1.1794
 7288SOL     OW33325   4.216   1.295   3.605  0.4713 -0.1135 -0.0916
 7288SOL    HW133326   4.242   1.387   3.593  3.0766 -0.6988  1.2278
 7288SOL    HW233327   4.136   1.300   3.551  0.7967 -1.0070 -0.6581
 7289SOL     OW33328   1.980   0.818  14.672 -0.1838 -0.0215  0.7056
 7289SOL    HW133329   1.957   0.885  14.608 -1.8682 -0.6761  0.6307
 7289SOL    HW233330   2.074   0.840  14.670 -0.5862  1.6135 -0.0731
 7290SOL     OW33331   0.586   2.502   1.510 -0.4531  0.2430 -0.1300
 7290SOL    HW133332   0.519   2.516   1.577 -1.3366 -2.5440 -0.4473
 7290SOL    HW233333   0.594   2.406   1.515 -0.3065  0.1660 -1.7216
 7291SOL     OW33334   0.972   2.232  16.265 -0.0253 -0.4089  0.5380
 7291SOL    HW133335   0.981   2.148  16.222 -0.2536 -0.3080  0.2959
 7291SOL    HW233336   1.013   2.214  16.350 -2.4979  0.7699  1.9973
 7292SOL     OW33337   4.404   1.163   7.426  0.9414 -0.5680  0.2143
 7292SOL    HW133338   4.466   1.188   7.494  1.7478  1.1338 -1.1542
 7292SOL    HW233339   4.320   1.193   7.460  0.3306 -1.1597 -0.7564
 7293SOL     OW33340   4.345   2.988  12.248  0.0562  0.1287 -0.4058
 7293SOL    HW133341   4.314   3.078  12.257 -2.3616 -0.6548 -0.8297
 7293SOL    HW233342   4.284   2.960  12.180  0.7803 -2.8064  0.1475
 7294SOL     OW33343   1.524   0.430  15.653  0.2175  0.1086  0.0846
 7294SOL    HW133344   1.603   0.477  15.677 -0.5885  1.2612  0.4686
 7294SOL    HW233345   1.533   0.440  15.558  1.5362  0.3319  0.2321
 7295SOL     OW33346   4.710   0.420   1.379  0.0269 -0.3022  0.2874
 7295SOL    HW133347   4.645   0.482   1.346 -1.0585 -0.1749  2.6580
 7295SOL    HW233348   4.671   0.381   1.457  1.1569 -1.6042  0.2118
 7296SOL     OW33349   1.122   0.547   8.874 -0.5167  0.4763 -0.5231
 7296SOL    HW133350   1.132   0.565   8.967  0.4268 -0.2580 -0.4790
 7296SOL    HW233351   1.141   0.453   8.871  0.0779  0.6594 -2.8574
 7297SOL     OW33352   0.769   3.585  12.146  0.6877 -0.0259  0.3143
 7297SOL    HW133353   0.792   3.537  12.226 -1.8829  0.8214  1.5579
 7297SOL    HW233354   0.693   3.635  12.177  0.8985  0.5800 -0.1533
 7298SOL     OW33355   4.315   4.246  11.330  0.2337  0.0162 -0.5742
 7298SOL    HW133356   4.259   4.319  11.356 -0.6608 -0.1995 -1.8496
 7298SOL    HW233357   4.252   4.174  11.321  1.0063 -0.6858 -0.3533
 7299SOL     OW33358   2.649   4.248   1.925 -0.0841  0.2501  0.4458
 7299SOL    HW133359   2.709   4.321   1.912 -0.4472  0.2610 -1.2349
 7299SOL    HW233360   2.669   4.221   2.015  0.5327  1.9322  0.7976
 7300SOL     OW33361   2.266   0.914   7.544 -0.0979 -0.0070 -0.2957
 7300SOL    HW133362   2.309   0.893   7.627  0.0378 -0.8068 -0.5668
 7300SOL    HW233363   2.338   0.946   7.490  0.4521 -2.1987 -0.8624
 7301SOL     OW33364   4.157   0.994   9.236 -0.2508  0.4852 -0.1772
 7301SOL    HW133365   4.165   1.067   9.175  1.1222  0.7746  0.3536
 7301SOL    HW233366   4.064   1.007   9.256 -0.6964 -1.0523 -1.2871
 7302SOL     OW33367   3.416   2.605  17.375  0.6226 -0.3538 -0.0495
 7302SOL    HW133368   3.330   2.646  17.388  0.3314 -0.4251 -1.7786
 7302SOL    HW233369   3.390   2.528  17.425 -0.0589 -1.9359 -2.8757
 7303SOL     OW33370   4.159   3.461   3.491 -0.1365 -0.5347  0.2628
 7303SOL    HW133371   4.158   3.529   3.423 -0.3992 -1.1719 -0.3670
 7303SOL    HW233372   4.096   3.497   3.553 -2.0063 -1.9057 -0.8597
 7304SOL     OW33373   1.776   4.273  16.415 -0.4654 -0.1874 -0.3335
 7304SOL    HW133374   1.772   4.317  16.500 -1.2832  0.0259 -0.4829
 7304SOL    HW233375   1.691   4.229  16.413 -1.0057  0.8764 -0.7382
 7305SOL     OW33376   0.832   0.233   1.425 -0.6519  0.9429  0.2407
 7305SOL    HW133377   0.793   0.300   1.369 -0.9329  2.3374  2.1071
 7305SOL    HW233378   0.888   0.290   1.477  0.9834  1.2087 -1.8297
 7306SOL     OW33379   0.161   3.382   3.997 -0.0237 -1.0320 -0.5801
 7306SOL    HW133380   0.164   3.438   4.074 -0.8381 -2.3117  0.3983
 7306SOL    HW233381   0.190   3.442   3.928 -1.8379  0.2798 -0.2135
 7307SOL     OW33382   0.050   2.244  14.802  0.0900 -0.4160  0.3419
 7307SOL    HW133383   0.122   2.185  14.824  0.4632 -0.1301 -0.1340
 7307SOL    HW233384   0.097   2.302  14.742  1.4184 -0.4500  1.3413
 7308SOL     OW33385   3.936   2.912   4.377 -0.8491  0.2945  0.1221
 7308SOL    HW133386   3.995   2.850   4.420 -1.3897  0.9574  1.7935
 7308SOL    HW233387   3.860   2.896   4.432 -2.5766 -1.4016 -2.7510
 7309SOL     OW33388   2.405   3.302   6.944  0.2717  0.3893  0.3018
 7309SOL    HW133389   2.432   3.271   7.030 -1.0768  0.8755  0.8922
 7309SOL    HW233390   2.344   3.365   6.983 -0.1489 -0.3992  0.8954
 7310SOL     OW33391   0.381   2.586   3.526  0.0589 -0.5929 -0.3774
 7310SOL    HW133392   0.325   2.606   3.451 -0.0561  1.0066  0.1292
 7310SOL    HW233393   0.351   2.497   3.546 -2.6945  0.3931 -0.1441
 7311SOL     OW33394   2.787   2.980   1.435  0.5480  0.8069 -0.0063
 7311SOL    HW133395   2.849   2.929   1.487 -0.0936  0.8341  0.7948
 7311SOL    HW233396   2.759   3.040   1.504 -1.9537 -1.6879  1.1320
 7312SOL     OW33397   2.753   1.252   5.104  0.8552  0.6273 -0.1241
 7312SOL    HW133398   2.761   1.275   5.011  0.2463  1.2227 -0.0224
 7312SOL    HW233399   2.785   1.330   5.149  1.5941 -0.2501  0.8823
 7313SOL     OW33400   3.131   4.539   6.967  0.1285  0.6931 -0.1165
 7313SOL    HW133401   3.071   4.610   6.990  0.6884  0.9147  0.6628
 7313SOL    HW233402   3.102   4.502   6.883  0.2703 -1.0744  0.6106
 7314SOL     OW33403   1.235   2.284  15.173  0.9725  0.1367  0.1271
 7314SOL    HW133404   1.177   2.269  15.247 -0.1379  0.8316 -0.5939
 7314SOL    HW233405   1.315   2.318  15.213  1.4106  0.2876 -0.8598
 7315SOL     OW33406   3.868   1.172   9.804 -0.0804  0.5534 -0.1958
 7315SOL    HW133407   3.940   1.161   9.865  0.8679  0.8298 -1.2674
 7315SOL    HW233408   3.808   1.127   9.863  0.9740  1.3994  1.5122
 7316SOL     OW33409   2.569   3.519   2.399  0.3009  0.5425 -0.1989
 7316SOL    HW133410   2.546   3.611   2.415  3.2792  0.8638  2.2044
 7316SOL    HW233411   2.519   3.477   2.468 -1.6512 -0.2091 -2.0425
 7317SOL     OW33412   1.850   1.051   1.568 -0.1572  0.2410  0.2157
 7317SOL    HW133413   1.765   1.040   1.610  1.5875 -0.7934  3.4488
 7317SOL    HW233414   1.822   1.075   1.480  0.9063  1.3563  0.1801
 7318SOL     OW33415   2.056   3.031   3.223 -0.0364  0.0703 -0.4009
 7318SOL    HW133416   2.000   3.023   3.301 -0.4920 -1.4274 -0.8850
 7318SOL    HW233417   1.994   2.982   3.169 -2.1803  1.6573  0.5794
 7319SOL     OW33418   3.520   3.147   8.447 -0.3323  0.0491 -0.3601
 7319SOL    HW133419   3.577   3.080   8.409 -0.9858 -0.5931 -0.2010
 7319SOL    HW233420   3.439   3.098   8.433 -0.2355  0.0721 -1.0120
 7320SOL     OW33421   0.080   0.318   4.617  0.3080 -0.3255 -0.1555
 7320SOL    HW133422   0.001   0.348   4.663  0.4545  0.8934 -0.7182
 7320SOL    HW233423   0.111   0.246   4.673  2.4883 -0.1068 -1.1032
 7321SOL     OW33424   2.822   0.770   6.978 -0.4160 -0.0768  0.2171
 7321SOL    HW133425   2.777   0.730   6.904 -0.7176  1.8544 -0.6406
 7321SOL    HW233426   2.834   0.857   6.940  0.9706 -1.3677 -2.2672
 7322SOL     OW33427   0.835   0.247   7.362 -0.3229 -0.7306 -0.5627
 7322SOL    HW133428   0.796   0.332   7.383  0.3901  0.0822 -2.5220
 7322SOL    HW233429   0.895   0.220   7.431 -0.2785 -0.6981 -0.5885
 7323SOL     OW33430   4.108   2.171  12.702  0.7059  0.0471  0.1194
 7323SOL    HW133431   4.153   2.093  12.670 -1.0456 -1.9800  2.6142
 7323SOL    HW233432   4.078   2.210  12.620 -1.6181  0.2629  1.0827
 7324SOL     OW33433   0.873   1.427  12.947  0.6440  0.0895  0.2562
 7324SOL    HW133434   0.948   1.478  12.918 -0.6447  1.5232 -0.5493
 7324SOL    HW233435   0.868   1.350  12.890  0.7611  0.9623 -0.9250
 7325SOL     OW33436   3.836   1.911   5.698 -0.4738 -0.0089 -0.4748
 7325SOL    HW133437   3.896   1.948   5.763 -0.9921 -0.3298  0.1833
 7325SOL    HW233438   3.789   1.992   5.677  1.6288  1.7598  1.5746
 7326SOL     OW33439   1.372   2.490  12.540 -0.4195  0.7861 -0.1403
 7326SOL    HW133440   1.392   2.441  12.460  0.8824 -3.6480  2.8749
 7326SOL    HW233441   1.443   2.554  12.532  1.1451 -0.6431  2.2173
 7327SOL     OW33442   1.265   1.426   7.853  0.4276 -0.4559  0.4575
 7327SOL    HW133443   1.198   1.483   7.890 -0.4978  0.8221 -3.2584
 7327SOL    HW233444   1.288   1.479   7.777  1.1458  0.7684  1.5388
 7328SOL     OW33445   1.037   0.283   2.252  0.4391  0.1981  1.3949
 7328SOL    HW133446   1.016   0.233   2.331  1.6468  0.6560  1.9964
 7328SOL    HW233447   0.982   0.240   2.187  0.2173  1.9317  0.4293
 7329SOL     OW33448   4.346   3.530   9.823  0.0811  0.5329  0.7428
 7329SOL    HW133449   4.431   3.550   9.783  0.2730  1.1404  1.4422
 7329SOL    HW233450   4.366   3.466   9.892 -0.5494 -0.2772  0.1700
 7330SOL     OW33451   4.174   1.743   3.516  0.0474  0.4975 -0.3864
 7330SOL    HW133452   4.210   1.680   3.578 -0.4182  0.8688  0.2704
 7330SOL    HW233453   4.168   1.693   3.435 -1.5980 -0.2211  0.1649
 7331SOL     OW33454   3.120   2.552  12.269 -0.4082  0.7818  0.0527
 7331SOL    HW133455   3.101   2.509  12.353 -1.8938  4.0989  1.4152
 7331SOL    HW233456   3.075   2.504  12.200  1.6488 -0.7962 -0.1826
 7332SOL     OW33457   2.621   4.272  15.695  0.1313 -0.5804 -0.0658
 7332SOL    HW133458   2.564   4.257  15.770 -1.8547  0.0792 -1.4532
 7332SOL    HW233459   2.637   4.366  15.702  0.0599 -0.4589 -1.6408
 7333SOL     OW33460   2.973   1.764  15.162  0.0790 -0.1455  0.1221
 7333SOL    HW133461   3.002   1.854  15.179  1.7438 -0.0039 -3.4036
 7333SOL    HW233462   2.888   1.780  15.204 -0.0236  1.7158 -0.8077
 7334SOL     OW33463   1.994   3.600   4.080 -0.5604 -0.0633 -0.0827
 7334SOL    HW133464   1.962   3.636   4.163  0.1170 -0.6424  0.4353
 7334SOL    HW233465   1.938   3.522   4.079  0.3571 -0.7410  1.0716
 7335SOL     OW33466   0.081   3.758   9.129  0.2966 -0.5233 -0.2936
 7335SOL    HW133467   0.014   3.738   9.194  0.5069  1.8015  0.6434
 7335SOL    HW233468   0.129   3.836   9.158  0.7925 -1.4049  1.2586
 7336SOL     OW33469   2.256   3.793   2.392 -0.4079 -0.5037  0.2989
 7336SOL    HW133470   2.221   3.765   2.477 -1.3727 -0.4042 -0.0675
 7336SOL    HW233471   2.211   3.877   2.398  0.1616 -0.2868  1.5005
 7337SOL     OW33472   2.305   4.251   5.046  0.1125 -0.3068  0.2956
 7337SOL    HW133473   2.329   4.218   4.959  2.6383 -0.2035  0.9645
 7337SOL    HW233474   2.273   4.336   5.015  1.3546 -0.1633 -0.5653
 7338SOL     OW33475   1.806   0.792   2.611  0.2669  0.0351 -0.0134
 7338SOL    HW133476   1.890   0.798   2.567 -1.4604  2.2733 -2.9782
 7338SOL    HW233477   1.766   0.708   2.590 -0.1960  0.8259 -2.2942
 7339SOL     OW33478   1.900   0.865  13.300  0.1995 -0.3785  0.0087
 7339SOL    HW133479   1.848   0.789  13.323  0.1569  0.1844  1.7173
 7339SOL    HW233480   1.913   0.834  13.210  1.6382 -0.3066  0.1943
 7340SOL     OW33481   2.164   1.803   7.451  0.2585  0.7051  0.4928
 7340SOL    HW133482   2.222   1.798   7.376  0.4688  0.5208  0.6682
 7340SOL    HW233483   2.078   1.782   7.414  0.7262  0.6913 -0.5799
 7341SOL     OW33484   1.737   4.481  11.135 -0.3173  0.2567 -0.2775
 7341SOL    HW133485   1.708   4.535  11.062  1.2885 -0.3260 -1.3487
 7341SOL    HW233486   1.693   4.529  11.205  1.0438  0.1876  0.6313
 7342SOL     OW33487   3.708   1.171   5.001 -0.5630 -0.1636 -0.2729
 7342SOL    HW133488   3.785   1.210   4.960 -0.3861 -2.1743 -1.8702
 7342SOL    HW233489   3.662   1.139   4.923  0.4385 -1.5067 -0.3112
 7343SOL     OW33490   3.237   3.462   8.106 -0.0826 -0.9133 -0.0998
 7343SOL    HW133491   3.201   3.549   8.127 -0.7270 -1.3767  0.7113
 7343SOL    HW233492   3.317   3.479   8.056  0.3948 -0.8575  0.6915
 7344SOL     OW33493   0.613   3.300   2.949 -0.1889  0.3744  0.9090
 7344SOL    HW133494   0.665   3.329   3.024 -0.9940  2.3634  0.7039
 7344SOL    HW233495   0.683   3.280   2.886 -1.4171 -1.0570  0.0030
 7345SOL     OW33496   1.931   1.928   8.652 -0.0034  0.2838  0.3378
 7345SOL    HW133497   1.873   1.929   8.728 -0.9917  2.1300 -0.4366
 7345SOL    HW233498   1.932   1.833   8.642  0.7099  0.3864 -0.6135
 7346SOL     OW33499   3.465   2.721  14.526 -0.3227 -0.1823 -0.0520
 7346SOL    HW133500   3.537   2.665  14.497 -0.2811 -0.9423  1.4801
 7346SOL    HW233501   3.385   2.676  14.501  0.1601 -1.3600  0.5128
 7347SOL     OW33502   3.863   4.471   4.660  0.4029 -0.1736 -0.1469
 7347SOL    HW133503   3.818   4.544   4.703  0.8016  0.3142 -0.5559
 7347SOL    HW233504   3.852   4.400   4.723 -1.9930 -0.0170 -0.3930
 7348SOL     OW33505   1.008   3.098  16.651  0.1280 -0.1973 -0.6887
 7348SOL    HW133506   0.954   3.133  16.723 -1.1887 -0.6860 -1.4276
 7348SOL    HW233507   1.011   3.174  16.593 -0.0875  1.1274  1.0365
 7349SOL     OW33508   4.241   1.664   4.821  0.1990 -0.4645  0.3184
 7349SOL    HW133509   4.291   1.691   4.744 -2.9884  0.4769 -1.4235
 7349SOL    HW233510   4.255   1.747   4.868 -2.7690 -1.2992  2.6729
 7350SOL     OW33511   3.949   2.651   4.659 -0.3865  0.4450 -0.1813
 7350SOL    HW133512   4.014   2.709   4.620  2.1379 -2.0874  0.1983
 7350SOL    HW233513   3.921   2.699   4.736  2.6927  0.2437  1.0783
 7351SOL     OW33514   3.965   1.164   5.914 -0.5746  0.6957 -0.1080
 7351SOL    HW133515   3.915   1.094   5.956 -1.8308  1.0903 -0.9407
 7351SOL    HW233516   3.909   1.241   5.920 -0.1627  1.0941 -1.3774
 7352SOL     OW33517   2.516   3.532   6.203  0.0323 -0.1247 -0.1739
 7352SOL    HW133518   2.582   3.534   6.272 -0.5568  0.7778  0.3612
 7352SOL    HW233519   2.584   3.524   6.136 -0.9349  0.4422 -1.2172
 7353SOL     OW33520   3.865   1.740  14.782  0.1597 -0.0864  0.0497
 7353SOL    HW133521   3.800   1.803  14.752  0.3045 -1.0154 -2.2075
 7353SOL    HW233522   3.942   1.791  14.756  2.4770 -2.6344  1.9131
 7354SOL     OW33523   2.155   2.305   0.650 -0.7328  0.6593  0.1412
 7354SOL    HW133524   2.186   2.233   0.705  0.8335 -0.1423 -1.8051
 7354SOL    HW233525   2.063   2.311   0.674 -1.0240  0.7287 -0.9802
 7355SOL     OW33526   3.866   4.117   6.263  0.0544 -0.1134  0.1915
 7355SOL    HW133527   3.924   4.157   6.197 -1.1893 -1.5758 -1.7638
 7355SOL    HW233528   3.900   4.155   6.344  0.0289 -4.6390  2.3356
 7356SOL     OW33529   0.039   0.337   2.279  0.1413  0.3131  0.7099
 7356SOL    HW133530   4.694   0.349   2.216 -1.7205  0.5510  2.8976
 7356SOL    HW233531   0.101   0.397   2.238  0.8773 -0.2913  0.9471
 7357SOL     OW33532   2.156   2.739   5.943  0.7157 -0.0993  0.3150
 7357SOL    HW133533   2.211   2.786   6.006  3.0515 -1.1174 -0.9322
 7357SOL    HW233534   2.192   2.769   5.859  1.7924 -0.9767  0.4618
 7358SOL     OW33535   0.025   0.165   5.019  0.4181  0.2005 -0.1712
 7358SOL    HW133536   0.092   0.147   5.086 -1.0728  0.3563  1.3532
 7358SOL    HW233537   4.717   0.076   5.010  0.7714  0.0252  0.1761
 7359SOL     OW33538   0.498   1.142   7.537  0.1061 -0.4149  0.6577
 7359SOL    HW133539   0.571   1.194   7.569 -1.5534  1.5164  1.2636
 7359SOL    HW233540   0.451   1.122   7.618 -0.6690  0.0385  0.3266
 7360SOL     OW33541   0.896   2.479   5.081 -0.2395  0.4686 -0.5253
 7360SOL    HW133542   0.976   2.475   5.028 -0.8591 -0.5562 -1.3952
 7360SOL    HW233543   0.868   2.388   5.080  0.0273  0.3786  0.9535
 7361SOL     OW33544   2.862   0.121   1.587  0.1801  0.4210  0.1248
 7361SOL    HW133545   2.870   0.174   1.508 -1.6748 -0.5681 -0.7515
 7361SOL    HW233546   2.766   0.117   1.591  0.0824  0.6567 -2.2809
 7362SOL     OW33547   3.010   1.600   2.797  0.3953 -0.0145 -0.3086
 7362SOL    HW133548   3.072   1.644   2.739  2.1531 -0.7199  1.0226
 7362SOL    HW233549   3.042   1.510   2.789  2.5096  0.5287  2.0185
 7363SOL     OW33550   0.282   4.012  13.446  0.3395 -0.4054  0.1157
 7363SOL    HW133551   0.264   4.096  13.403  1.2425  0.4986  1.5307
 7363SOL    HW233552   0.275   3.956  13.369 -0.3668  3.2696 -2.4862
 7364SOL     OW33553   4.300   2.267   0.792  0.6954 -0.6960 -0.4853
 7364SOL    HW133554   4.230   2.219   0.748 -0.5686  1.2169 -0.5454
 7364SOL    HW233555   4.371   2.259   0.729  1.7077  2.4474  0.2723
 7365SOL     OW33556   1.070   0.638   3.411  0.4776 -0.1612 -1.0486
 7365SOL    HW133557   1.134   0.586   3.460  0.3582  2.6611  2.0930
 7365SOL    HW233558   1.009   0.663   3.480 -0.3542  0.2992 -1.9521
 7366SOL     OW33559   4.130   0.784   2.147 -0.1407  0.5720  0.1450
 7366SOL    HW133560   4.193   0.752   2.082 -0.2899  1.4483 -0.4344
 7366SOL    HW233561   4.052   0.768   2.093  1.6988  0.8533 -2.6284
 7367SOL     OW33562   3.752   0.472   4.923 -0.2269 -0.2511  0.0979
 7367SOL    HW133563   3.741   0.563   4.898 -0.3926 -0.0245  0.9956
 7367SOL    HW233564   3.661   0.455   4.949  0.7280 -1.2130  2.8295
 7368SOL     OW33565   0.892   2.976  10.812  0.0839  0.2944 -0.3532
 7368SOL    HW133566   0.798   2.973  10.796  0.0275  2.1219 -0.3273
 7368SOL    HW233567   0.891   3.059  10.860  2.0776 -1.1841  2.2520
 7369SOL     OW33568   2.642   2.719   8.539  0.2352  0.4923 -0.0847
 7369SOL    HW133569   2.645   2.649   8.604  0.2404  0.3566 -0.2320
 7369SOL    HW233570   2.671   2.783   8.604 -0.4304 -0.4716  1.1610
 7370SOL     OW33571   2.707   2.145   9.206 -0.0470  0.3529 -0.2954
 7370SOL    HW133572   2.661   2.060   9.210  1.6333 -0.6122 -1.3995
 7370SOL    HW233573   2.784   2.114   9.158  0.8155  1.0100  0.6741
 7371SOL     OW33574   3.768   2.249  16.113  0.0850 -0.0582 -0.3142
 7371SOL    HW133575   3.759   2.331  16.161  2.2445  0.1935 -0.3400
 7371SOL    HW233576   3.798   2.290  16.031 -2.4288  3.1195  0.3832
 7372SOL     OW33577   3.287   3.745   9.422 -0.1864 -0.4150  0.3407
 7372SOL    HW133578   3.277   3.651   9.435 -0.9693 -0.4099 -0.1954
 7372SOL    HW233579   3.355   3.743   9.355 -0.4568 -0.8839  0.0829
 7373SOL     OW33580   3.777   3.329   9.751  0.4029  0.1873  0.8940
 7373SOL    HW133581   3.806   3.365   9.835 -1.2042  2.0657  0.6636
 7373SOL    HW233582   3.795   3.236   9.762  1.7140 -0.1072 -3.8210
 7374SOL     OW33583   1.535   3.168   8.668  0.5084 -0.0806 -0.6794
 7374SOL    HW133584   1.544   3.205   8.756 -1.2548 -1.0149 -0.1084
 7374SOL    HW233585   1.462   3.106   8.673 -0.0779  0.6650 -0.0739
 7375SOL     OW33586   2.888   2.354   3.323 -0.2045 -0.1929 -0.1898
 7375SOL    HW133587   2.832   2.410   3.269  0.0374 -0.1148 -0.3571
 7375SOL    HW233588   2.885   2.266   3.287  1.5027  0.3309 -1.5784
 7376SOL     OW33589   1.730   3.428   1.447 -0.0807 -0.1260  0.6465
 7376SOL    HW133590   1.683   3.500   1.489 -0.2752  1.3478 -2.0905
 7376SOL    HW233591   1.769   3.378   1.519 -1.9357 -0.9391  1.0693
 7377SOL     OW33592   0.282   2.146   8.528 -0.0519 -0.2055  0.2091
 7377SOL    HW133593   0.241   2.149   8.614 -0.9887  0.3378 -0.2513
 7377SOL    HW233594   0.217   2.100   8.474 -1.7923  1.8909  0.5270
 7378SOL     OW33595   0.462   3.677   8.496 -0.0633  0.3592 -0.1261
 7378SOL    HW133596   0.503   3.749   8.449  0.4485  0.8743  1.1071
 7378SOL    HW233597   0.417   3.715   8.572  2.1061 -1.2703  1.9963
 7379SOL     OW33598   2.407   4.583   1.736  0.0752  0.1525 -0.1051
 7379SOL    HW133599   2.400   4.488   1.747  1.3684  0.1845  1.0394
 7379SOL    HW233600   2.404   4.624   1.823  0.3338  0.4626 -0.2421
 7380SOL     OW33601   2.864   3.350   4.514 -0.3544 -0.3604  0.0190
 7380SOL    HW133602   2.866   3.291   4.439  1.0219 -0.7428  0.3569
 7380SOL    HW233603   2.927   3.418   4.490 -0.2550 -0.5697 -0.3118
 7381SOL     OW33604   4.422   1.651  15.597  0.7286 -0.9123 -0.1867
 7381SOL    HW133605   4.358   1.722  15.586  0.5003 -1.1934 -0.6724
 7381SOL    HW233606   4.501   1.703  15.609  0.5285 -0.0537 -2.4808
 7382SOL     OW33607   3.279   0.004   3.524 -0.0528  0.0636  0.2130
 7382SOL    HW133608   3.253   4.679   3.449 -1.6648 -3.4026  3.1785
 7382SOL    HW233609   3.317   4.674   3.590 -0.6848  1.1823  1.5541
 7383SOL     OW33610   1.881   3.995   7.895 -0.2175  0.1378 -0.1410
 7383SOL    HW133611   1.927   4.073   7.927  0.0511  0.6458 -1.7453
 7383SOL    HW233612   1.797   4.041   7.893 -0.5641 -0.4501  0.8705
 7384SOL     OW33613   2.664   2.948   7.694 -0.3382 -0.3331 -0.5664
 7384SOL    HW133614   2.726   2.879   7.714  2.3027  1.5148 -2.3378
 7384SOL    HW233615   2.596   2.932   7.759 -0.1745  0.5364 -0.1773
 7385SOL     OW33616   3.463   1.228  10.051 -0.2354 -0.2678  0.4113
 7385SOL    HW133617   3.513   1.158  10.008 -0.0691  0.7318 -1.0048
 7385SOL    HW233618   3.376   1.186  10.050 -0.1567 -0.3880 -0.6109
 7386SOL     OW33619   4.338   2.216   1.642  0.9037 -0.4795 -0.1628
 7386SOL    HW133620   4.342   2.257   1.555 -0.2073 -0.3094 -0.1410
 7386SOL    HW233621   4.431   2.218   1.665  0.9807 -1.3806 -0.4279
 7387SOL     OW33622   0.616   2.162   1.940  0.1876  0.2265  0.3342
 7387SOL    HW133623   0.594   2.155   2.033 -2.6327 -0.4526 -0.3943
 7387SOL    HW233624   0.692   2.103   1.936  0.2415  0.3422 -0.3211
 7388SOL     OW33625   1.504   4.277   1.788  0.0075 -0.1177 -0.1309
 7388SOL    HW133626   1.436   4.343   1.798  1.1203  1.0348 -0.1878
 7388SOL    HW233627   1.504   4.260   1.694 -1.8382  0.0458 -0.1615
 7389SOL     OW33628   3.293   4.618   6.526  0.0636  0.1935 -0.5678
 7389SOL    HW133629   3.331   4.588   6.608  0.4504 -1.9908 -1.5523
 7389SOL    HW233630   3.362   4.601   6.461 -0.8824 -1.4720 -1.1283
 7390SOL     OW33631   3.719   3.993   4.663 -0.1614 -0.4382 -0.4276
 7390SOL    HW133632   3.695   4.055   4.594 -2.8992 -1.1109 -0.0586
 7390SOL    HW233633   3.675   3.914   4.632  2.0109 -1.3200 -1.3022
 7391SOL     OW33634   2.266   0.445   5.668  0.0195  0.2743 -0.4822
 7391SOL    HW133635   2.270   0.351   5.684  0.7621  0.3582 -0.1560
 7391SOL    HW233636   2.265   0.448   5.572 -1.6487  2.7405 -0.3889
 7392SOL     OW33637   0.273   4.180   7.356  0.0260  0.4104 -0.6319
 7392SOL    HW133638   0.309   4.127   7.286  0.2011 -1.0154  0.5348
 7392SOL    HW233639   0.179   4.164   7.355  0.1547 -0.3595  0.0749
 7393SOL     OW33640   1.166   4.409   7.146 -0.1314  0.2531 -0.5582
 7393SOL    HW133641   1.128   4.496   7.161  3.5519  1.8797 -0.6005
 7393SOL    HW233642   1.186   4.386   7.236  1.3632 -1.6920 -1.3735
 7394SOL     OW33643   2.567   4.252   8.184 -0.6716 -0.1417 -0.2405
 7394SOL    HW133644   2.546   4.313   8.254  1.8954  1.2034 -0.6443
 7394SOL    HW233645   2.480   4.234   8.147 -1.2490  0.9658  0.6060
 7395SOL     OW33646   0.360   0.296   7.047  0.1294 -0.3019 -0.0459
 7395SOL    HW133647   0.339   0.316   7.138  1.4022 -2.1828  0.6582
 7395SOL    HW233648   0.306   0.217   7.039 -0.7478  0.3791 -0.9375
 7396SOL     OW33649   0.691   1.910   2.632  0.4111 -0.7487  0.2364
 7396SOL    HW133650   0.670   2.003   2.644  0.3714 -0.5575 -1.3884
 7396SOL    HW233651   0.616   1.858   2.603  0.1484 -1.5397  2.3228
 7397SOL     OW33652   3.005   4.095  12.681 -0.1079  0.5680 -0.9375
 7397SOL    HW133653   3.054   4.127  12.756  0.1288 -0.1938 -0.7708
 7397SOL    HW233654   3.059   4.018  12.663  1.6283  1.6410 -0.3030
 7398SOL     OW33655   2.181   3.624   7.417 -0.5489 -0.2056  0.5650
 7398SOL    HW133656   2.154   3.691   7.480 -2.0319  1.0929 -1.4434
 7398SOL    HW233657   2.200   3.553   7.478  1.1381 -3.0621 -3.3206
 7399SOL     OW33658   0.757   4.197   8.764  0.6886 -0.1910 -0.4651
 7399SOL    HW133659   0.699   4.124   8.782  0.1387  0.3504 -0.0524
 7399SOL    HW233660   0.781   4.220   8.853  0.5975  1.9561 -0.9916
 7400SOL     OW33661   0.656   0.708   4.846  0.0807 -0.0767 -0.1337
 7400SOL    HW133662   0.732   0.678   4.895  0.2885 -1.9664 -1.6220
 7400SOL    HW233663   0.700   0.749   4.771 -1.2810  1.0220 -0.3285
 7401SOL     OW33664   1.413   3.640   7.722  0.2411 -0.1025  0.6475
 7401SOL    HW133665   1.327   3.653   7.761  0.8247  0.4856  1.7632
 7401SOL    HW233666   1.444   3.731   7.725  1.0988 -0.4584  2.5647
 7402SOL     OW33667   4.031   4.344   5.905 -0.4875 -0.2963 -0.4241
 7402SOL    HW133668   3.996   4.412   5.847  0.5443  1.9497  1.6155
 7402SOL    HW233669   4.125   4.361   5.900  0.0186 -2.4800  1.8887
 7403SOL     OW33670   0.742   0.936   8.867 -0.7450 -0.2855  0.0443
 7403SOL    HW133671   0.825   0.904   8.902 -0.8943 -0.7458 -0.0235
 7403SOL    HW233672   0.761   1.025   8.836 -0.5234  0.3317  1.9812
 7404SOL     OW33673   0.321   3.972  11.728 -0.2928 -0.1635  0.1305
 7404SOL    HW133674   0.399   4.020  11.701 -0.9043 -0.0110 -1.4067
 7404SOL    HW233675   0.259   4.023  11.674  0.2083  1.1253  0.7706
 7405SOL     OW33676   3.550   1.733   0.773 -0.5290  0.3472 -0.0541
 7405SOL    HW133677   3.624   1.786   0.802  0.7411 -0.6524 -1.4923
 7405SOL    HW233678   3.539   1.772   0.686 -0.0559 -1.5784 -0.9704
 7406SOL     OW33679   2.275   0.955   8.537 -0.2598 -0.0265  0.3884
 7406SOL    HW133680   2.190   0.922   8.565 -0.4509 -0.1484 -0.3320
 7406SOL    HW233681   2.337   0.899   8.584  2.1234  1.4947 -0.9662
 7407SOL     OW33682   3.862   4.663   5.252  0.7731 -0.7021 -0.7862
 7407SOL    HW133683   3.891   4.643   5.341  1.9656 -1.1236 -1.2685
 7407SOL    HW233684   3.930   4.722   5.217  0.6007  1.8218  3.1771
 7408SOL     OW33685   4.150   3.994   8.130 -0.4538  0.1186 -0.0847
 7408SOL    HW133686   4.125   3.933   8.199  0.1072  1.9686  1.7598
 7408SOL    HW233687   4.147   3.936   8.054 -2.7240 -0.5701  0.5384
 7409SOL     OW33688   3.603   3.630   2.164  0.0654  0.1126  0.1681
 7409SOL    HW133689   3.675   3.690   2.144 -0.4753  0.2867 -1.2867
 7409SOL    HW233690   3.575   3.660   2.250 -2.9796 -0.7578 -0.5339
 7410SOL     OW33691   1.211   0.066   4.662 -0.1688  0.0004  0.8756
 7410SOL    HW133692   1.242   0.153   4.685  0.2171  0.0390  0.1935
 7410SOL    HW233693   1.116   0.078   4.654  0.1385  1.5340 -0.4867
 7411SOL     OW33694   4.014   0.503   3.939  0.6114 -0.2996 -0.2765
 7411SOL    HW133695   3.989   0.594   3.923  1.1467 -0.0469  0.2989
 7411SOL    HW233696   3.925   0.469   3.943  0.5419 -0.3044 -1.8286
 7412SOL     OW33697   0.859   2.722  11.579  0.4848  0.0827  0.4212
 7412SOL    HW133698   0.840   2.642  11.628 -1.0903 -1.0007 -1.9618
 7412SOL    HW233699   0.879   2.770  11.660  2.0783  0.4597 -0.2055
 7413SOL     OW33700   1.705   4.383   7.075 -0.1034 -0.0113 -0.1493
 7413SOL    HW133701   1.799   4.368   7.080 -0.1743 -0.6900 -0.7929
 7413SOL    HW233702   1.679   4.301   7.033 -0.2028  0.3516 -0.7999
 7414SOL     OW33703   0.168   2.813   4.819 -0.0527  0.8016 -0.3417
 7414SOL    HW133704   0.176   2.772   4.905  2.3716  0.2644 -0.8224
 7414SOL    HW233705   0.104   2.755   4.779  1.0542 -1.8860  1.8362
 7415SOL     OW33706   4.311   0.125  13.969 -0.2047  0.9720  0.2253
 7415SOL    HW133707   4.281   0.159  13.885 -1.2879  1.6496  0.8858
 7415SOL    HW233708   4.250   0.167  14.030  0.7918  1.6694  0.7366
 7416SOL     OW33709   1.705   3.256   3.719 -0.2957  0.0298 -0.3473
 7416SOL    HW133710   1.679   3.197   3.648 -1.5590  0.1271  0.0228
 7416SOL    HW233711   1.799   3.241   3.724 -0.6287 -1.4718  1.3876
 7417SOL     OW33712   0.527   2.034   3.496  0.5272  0.1866  0.0763
 7417SOL    HW133713   0.613   2.041   3.537  1.0680 -1.1444 -0.8291
 7417SOL    HW233714   0.511   2.124   3.468 -0.9203  0.3394  1.3673
 7418SOL     OW33715   1.347   1.494  13.782 -0.2841  0.0861  0.3753
 7418SOL    HW133716   1.325   1.431  13.714 -0.4430  0.5483  0.0025
 7418SOL    HW233717   1.276   1.473  13.843  0.3284 -3.6670 -0.1994
 7419SOL     OW33718   1.242   0.233   6.568  0.6539 -0.7223 -0.1812
 7419SOL    HW133719   1.226   0.306   6.628  1.7576  1.7953 -2.9279
 7419SOL    HW233720   1.304   0.272   6.506  2.4809 -1.2140  1.3476
 7420SOL     OW33721   4.139   0.048   5.243 -0.2021 -0.1584  0.0789
 7420SOL    HW133722   4.203   4.707   5.224 -0.4376 -0.1934 -0.5998
 7420SOL    HW233723   4.169   0.109   5.175 -2.0104 -0.6754 -1.1779
 7421SOL     OW33724   2.144   0.543   1.644  0.8571 -0.3292 -0.5608
 7421SOL    HW133725   2.065   0.490   1.655  3.2076 -3.4145  1.2922
 7421SOL    HW233726   2.104   0.629   1.627  0.4949  0.3552  3.9153
 7422SOL     OW33727   2.741   2.586  12.280 -0.0325  0.7530 -0.6488
 7422SOL    HW133728   2.697   2.671  12.280  1.5589  1.5964  1.7719
 7422SOL    HW233729   2.702   2.558  12.198 -0.8673 -2.3834  0.8021
 7423SOL     OW33730   1.575   3.527   4.184 -0.7096  0.3913  0.4037
 7423SOL    HW133731   1.615   3.485   4.108 -0.3315  0.0787  0.7749
 7423SOL    HW233732   1.574   3.453   4.245 -1.3668  2.2482  2.6335
 7424SOL     OW33733   1.418   2.355   4.840 -0.3614 -0.2924 -0.5844
 7424SOL    HW133734   1.478   2.401   4.899  1.7774 -0.9434 -2.2412
 7424SOL    HW233735   1.465   2.271   4.847  0.2545  0.1495  0.6593
 7425SOL     OW33736   3.434   1.092   7.069 -0.8447 -0.1725 -0.0957
 7425SOL    HW133737   3.358   1.117   7.122 -0.2601  0.1755  0.5780
 7425SOL    HW233738   3.395   1.081   6.982 -0.7579  1.4848 -0.3501
 7426SOL     OW33739   2.190   2.137  13.291  0.1867  0.3213 -0.5741
 7426SOL    HW133740   2.182   2.080  13.368 -0.8121  2.1661  0.6920
 7426SOL    HW233741   2.143   2.217  13.313 -0.3583 -0.4505  1.0687
 7427SOL     OW33742   2.497   2.502   3.507  0.3385  0.0445  0.5488
 7427SOL    HW133743   2.573   2.451   3.482  1.7490  1.4204  1.9846
 7427SOL    HW233744   2.426   2.438   3.507  0.7106 -0.3685  0.5058
 7428SOL     OW33745   0.638   2.419   7.132  0.0148  0.1543 -0.5184
 7428SOL    HW133746   0.698   2.493   7.117 -1.5588  1.4655 -0.3961
 7428SOL    HW233747   0.686   2.356   7.186 -1.8230 -0.3531  0.5076
 7429SOL     OW33748   0.843   4.292   4.532  0.2642 -0.1409 -0.3415
 7429SOL    HW133749   0.781   4.347   4.486  0.1080 -0.2877 -0.3061
 7429SOL    HW233750   0.915   4.281   4.469 -1.5999 -0.8218 -2.3352
 7430SOL     OW33751   2.084   2.106   4.390  0.3489  0.2620  0.0854
 7430SOL    HW133752   2.156   2.043   4.387 -1.3683 -1.7579  1.1334
 7430SOL    HW233753   2.056   2.101   4.481 -0.9199  0.2748 -0.2987
 7431SOL     OW33754   1.099   4.585   8.942 -0.3239 -0.2781 -0.0381
 7431SOL    HW133755   1.022   4.539   8.974 -1.2460 -0.2978 -2.2783
 7431SOL    HW233756   1.134   4.614   9.026 -2.0674 -0.6620  0.8305
 7432SOL     OW33757   3.885   4.100  15.637  0.6168 -0.2881 -0.4465
 7432SOL    HW133758   3.860   4.181  15.592 -0.2160  0.9559  2.2955
 7432SOL    HW233759   3.815   4.087  15.701  0.4004 -0.4838 -0.7239
 7433SOL     OW33760   1.429   2.677   9.973  0.2974 -0.2784  0.1283
 7433SOL    HW133761   1.416   2.689   9.879  0.7345  0.3627  0.1514
 7433SOL    HW233762   1.346   2.632   9.992 -1.5109  1.5931 -3.2984
 7434SOL     OW33763   0.901   4.711   1.435 -0.3239  0.3943  0.5518
 7434SOL    HW133764   0.907   4.696   1.341 -0.7630  1.4553  0.3560
 7434SOL    HW233765   0.887   0.078   1.437 -0.1249  0.4351 -0.1775
 7435SOL     OW33766   3.478   4.179   2.425 -0.0991 -0.5799  0.3560
 7435SOL    HW133767   3.501   4.199   2.334 -2.3088  2.4352  0.4193
 7435SOL    HW233768   3.568   4.175   2.458  1.0785  1.1696 -2.6483
 7436SOL     OW33769   2.640   3.397  15.172  0.2035  0.3291  0.1571
 7436SOL    HW133770   2.594   3.441  15.245 -0.6587  2.6728 -1.8002
 7436SOL    HW233771   2.703   3.466  15.153  0.0124  0.9064  1.5695
 7437SOL     OW33772   2.737   1.701   0.078 -0.0491 -0.1835 -0.2893
 7437SOL    HW133773   2.714   1.772   0.139 -0.5255  0.6982 -1.4816
 7437SOL    HW233774   2.818   1.666   0.116  0.2818  1.8582  0.8936
 7438SOL     OW33775   0.258   0.377   5.285  0.3239 -0.4640 -0.3814
 7438SOL    HW133776   0.316   0.386   5.209  0.2064 -0.1928 -0.4359
 7438SOL    HW233777   0.289   0.447   5.342 -0.6082 -0.5637  0.2411
 7439SOL     OW33778   0.352   3.607   7.869  0.2003 -0.2799 -0.1706
 7439SOL    HW133779   0.329   3.520   7.903  2.3741 -1.6408 -2.1232
 7439SOL    HW233780   0.277   3.638   7.819  0.8411 -0.5805 -1.3085
 7440SOL     OW33781   0.146   2.757   8.690  0.3253  0.0770  0.2383
 7440SOL    HW133782   0.115   2.696   8.757 -2.7354  0.4575 -0.8100
 7440SOL    HW233783   0.182   2.824   8.748  1.1274  0.8122 -1.1363
 7441SOL     OW33784   0.813   4.547   8.789 -0.3450 -0.5837 -0.3590
 7441SOL    HW133785   0.816   4.532   8.884  4.1932 -1.8568 -0.7170
 7441SOL    HW233786   0.827   4.641   8.777  1.4402 -0.7779  0.2943
 7442SOL     OW33787   3.990   0.080   8.043  0.2272  0.5858  0.2404
 7442SOL    HW133788   4.013   0.080   8.136 -3.3128 -0.0037  1.1239
 7442SOL    HW233789   4.068   0.044   8.001  0.6505  0.9940  0.6727
 7443SOL     OW33790   3.902   2.028   8.590 -0.0639 -0.8727 -0.1985
 7443SOL    HW133791   3.997   2.022   8.597 -0.0584  0.7371  1.0431
 7443SOL    HW233792   3.889   2.082   8.668  0.9472 -0.6186 -0.2035
 7444SOL     OW33793   1.147   1.628  11.611 -0.3912  0.0152  0.1793
 7444SOL    HW133794   1.091   1.563  11.567 -1.8737  1.6684 -0.4052
 7444SOL    HW233795   1.200   1.660  11.538 -2.6151  0.6360 -1.1762
 7445SOL     OW33796   2.479   3.128  15.513  0.2646  0.6314 -0.3132
 7445SOL    HW133797   2.525   3.076  15.578 -0.4220  2.0271  1.2871
 7445SOL    HW233798   2.446   3.193  15.575  1.1880 -0.0204  0.8670
 7446SOL     OW33799   2.277   2.139  10.588  0.5708 -0.0547  0.3992
 7446SOL    HW133800   2.276   2.102  10.500 -2.5194  1.8932 -0.3686
 7446SOL    HW233801   2.274   2.231  10.563  1.0063 -0.0312  0.4238
 7447SOL     OW33802   0.011   3.133   8.032  0.4449 -0.0328 -0.9308
 7447SOL    HW133803   0.033   3.111   8.123 -2.8207 -0.5552 -0.2602
 7447SOL    HW233804   4.706   3.222   8.043  0.1342 -0.0937 -1.3446
 7448SOL     OW33805   2.553   0.586   9.982 -1.0206  0.2855 -0.3790
 7448SOL    HW133806   2.537   0.541   9.899 -0.1797  0.0452 -0.4163
 7448SOL    HW233807   2.561   0.521  10.052  0.0406  1.5423  0.6715
 7449SOL     OW33808   3.923   2.974   1.330 -0.6789 -0.4481 -0.0606
 7449SOL    HW133809   3.837   2.936   1.352  0.0563 -0.8156  2.1600
 7449SOL    HW233810   3.931   2.958   1.236  0.6753  0.4165 -0.0833
 7450SOL     OW33811   4.396   4.186   6.521 -0.1440 -0.1059  0.8651
 7450SOL    HW133812   4.486   4.218   6.516 -0.5036  0.7306 -0.1601
 7450SOL    HW233813   4.399   4.124   6.594 -0.7571  0.2059  1.1531
 7451SOL     OW33814   2.404   2.456   4.812  0.3538  0.1640 -0.0675
 7451SOL    HW133815   2.425   2.449   4.719 -0.4814 -1.2680 -0.1427
 7451SOL    HW233816   2.439   2.372   4.842 -0.3353  0.0342  0.3683
 7452SOL     OW33817   0.520   4.412   8.131 -0.0088  0.6211  0.2422
 7452SOL    HW133818   0.512   4.385   8.222  1.6073 -2.0826 -0.4021
 7452SOL    HW233819   0.615   4.418   8.120  0.1612  0.7233  1.7455
 7453SOL     OW33820   1.718   2.084   6.203 -0.2478  0.2424 -0.0347
 7453SOL    HW133821   1.687   1.998   6.232 -1.8840  0.9329  0.2994
 7453SOL    HW233822   1.667   2.132   6.268 -0.1993 -0.1198  0.2716
 7454SOL     OW33823   2.342   0.586   2.846  0.0923  0.2000  0.7737
 7454SOL    HW133824   2.305   0.673   2.862  0.2613  0.4669 -0.2391
 7454SOL    HW233825   2.378   0.560   2.930  0.9768  0.0485  0.3476
 7455SOL     OW33826   0.586   1.904  12.921 -0.6210  0.4502  0.2788
 7455SOL    HW133827   0.578   1.873  13.011 -1.9291  0.5250  0.1873
 7455SOL    HW233828   0.497   1.935  12.903 -0.1980  0.2646 -2.1539
 7456SOL     OW33829   2.283   1.433  17.321 -1.0679  0.3811  0.1576
 7456SOL    HW133830   2.308   1.520  17.352 -1.0368 -0.2955  2.0548
 7456SOL    HW233831   2.321   1.438  17.233  0.4528  0.9505  0.8482
 7457SOL     OW33832   4.078   2.828   9.756 -0.3471 -0.1892 -0.0723
 7457SOL    HW133833   4.104   2.840   9.665 -0.8766 -0.1738 -0.2193
 7457SOL    HW233834   4.157   2.853   9.804  1.0223 -1.7295 -1.4866
 7458SOL     OW33835   0.794   3.714  10.570  0.6024  0.2047 -0.0884
 7458SOL    HW133836   0.791   3.634  10.623  1.6268  0.5222  0.4447
 7458SOL    HW233837   0.881   3.744  10.593 -0.4135  2.5737  0.6078
 7459SOL     OW33838   1.540   1.344   1.800  0.4396  0.0417 -0.0778
 7459SOL    HW133839   1.512   1.270   1.853  2.1668 -1.0134 -0.6474
 7459SOL    HW233840   1.634   1.352   1.818  0.3471  0.5214  0.1769
 7460SOL     OW33841   0.395   3.628  12.602 -0.3447 -0.6471 -0.0216
 7460SOL    HW133842   0.414   3.709  12.555  0.6941 -1.4464 -0.9896
 7460SOL    HW233843   0.392   3.667  12.690  1.7958  0.7789 -0.5828
 7461SOL     OW33844   2.462   0.644   1.826 -0.1915  0.0652 -0.0690
 7461SOL    HW133845   2.432   0.693   1.903 -0.3447 -1.3111  0.7523
 7461SOL    HW233846   2.524   0.577   1.855  1.2489  0.2916 -2.6918
 7462SOL     OW33847   3.722   3.600  10.545 -0.6347  0.2435  0.1908
 7462SOL    HW133848   3.700   3.679  10.594 -0.4470  1.4201 -1.6485
 7462SOL    HW233849   3.788   3.562  10.603 -0.5209  0.4612  0.2017
 7463SOL     OW33850   2.476   2.594   2.777 -0.1946 -0.0068 -0.1488
 7463SOL    HW133851   2.429   2.655   2.720  1.1104 -0.4990 -1.7931
 7463SOL    HW233852   2.411   2.526   2.788  0.5973 -0.6702  0.4195
 7464SOL     OW33853   4.123   2.494   0.803  0.1750 -0.2860 -0.3517
 7464SOL    HW133854   4.187   2.429   0.775  0.6086  0.3629 -0.8640
 7464SOL    HW233855   4.102   2.538   0.721  0.3370 -1.2473 -0.9097
 7465SOL     OW33856   0.161   1.243   1.878 -0.4869  0.4343  0.0062
 7465SOL    HW133857   0.189   1.153   1.894 -1.6989 -0.0044 -0.3742
 7465SOL    HW233858   0.122   1.229   1.792 -0.5233 -1.5333  0.3435
 7466SOL     OW33859   1.531   4.329   2.066  0.3226 -0.0680  0.1275
 7466SOL    HW133860   1.595   4.258   2.062  1.3763  0.8763  0.5707
 7466SOL    HW233861   1.474   4.296   1.997 -0.1989 -0.2754  0.6514
 7467SOL     OW33862   1.669   2.260  16.267 -0.2738 -0.3612  0.7249
 7467SOL    HW133863   1.574   2.264  16.280 -0.0896  0.6153  1.8296
 7467SOL    HW233864   1.688   2.171  16.297 -0.6150 -0.6535  0.0737
 7468SOL     OW33865   2.403   1.994   8.775 -0.4487 -0.3487  0.1728
 7468SOL    HW133866   2.429   1.972   8.865 -1.2684  0.1807  0.5342
 7468SOL    HW233867   2.417   1.906   8.739 -0.4127 -0.9391  1.6376
 7469SOL     OW33868   3.363   4.684   5.991  0.3953 -0.1604  0.0188
 7469SOL    HW133869   3.394   4.693   5.901  0.6965 -1.4803 -0.0152
 7469SOL    HW233870   3.443   4.700   6.041  0.9761  1.4457 -1.4112
 7470SOL     OW33871   3.240   2.420   9.813  0.1431 -0.1044 -0.5015
 7470SOL    HW133872   3.210   2.428   9.723 -0.7026  1.8730 -0.0601
 7470SOL    HW233873   3.313   2.483   9.810 -0.3917  0.6017  1.2885
 7471SOL     OW33874   4.154   4.242   2.635 -0.8013 -0.5761 -0.0854
 7471SOL    HW133875   4.147   4.242   2.730 -0.5137 -1.3412 -0.0692
 7471SOL    HW233876   4.177   4.335   2.632 -1.8633 -0.2954  0.6522
 7472SOL     OW33877   0.342   3.072   9.488  0.3807  0.2070 -0.0300
 7472SOL    HW133878   0.373   3.151   9.445 -1.1401  0.4097 -0.7302
 7472SOL    HW233879   0.290   3.032   9.418  0.4262 -1.8295  1.0926
 7473SOL     OW33880   0.621   1.442  15.290  0.2944  0.2146 -0.1964
 7473SOL    HW133881   0.589   1.352  15.296 -0.4969  0.6429  2.3418
 7473SOL    HW233882   0.604   1.476  15.378 -3.0284 -1.9026 -0.0074
 7474SOL     OW33883   1.553   3.399   2.450  0.0404  0.2361  0.6975
 7474SOL    HW133884   1.593   3.450   2.380 -0.0719  0.0047  0.4657
 7474SOL    HW233885   1.466   3.378   2.415  0.9248 -0.1383 -1.2771
 7475SOL     OW33886   1.898   2.430   3.537 -0.2655 -0.0671 -0.2305
 7475SOL    HW133887   1.906   2.424   3.632  2.1675  0.0540 -0.4275
 7475SOL    HW233888   1.838   2.357   3.522 -1.5832  0.8490  0.6433
 7476SOL     OW33889   2.971   2.303   8.713  0.1837 -0.3142  0.1653
 7476SOL    HW133890   3.010   2.387   8.691 -2.5843  0.4513 -1.8113
 7476SOL    HW233891   3.046   2.254   8.745 -0.9172 -0.0036  3.2655
 7477SOL     OW33892   2.139   0.279   8.402 -0.3885  0.4129 -0.3738
 7477SOL    HW133893   2.067   0.310   8.346 -0.0799  0.5980 -0.6644
 7477SOL    HW233894   2.212   0.274   8.341 -1.0830 -1.3939 -1.0578
 7478SOL     OW33895   2.923   2.860   5.909 -0.5879  0.2420  0.2269
 7478SOL    HW133896   2.854   2.807   5.869 -0.3208  1.4151 -1.8379
 7478SOL    HW233897   2.911   2.947   5.870 -1.3450 -0.3187 -0.7764
 7479SOL     OW33898   2.725   3.522  10.988  0.4756  0.4544 -0.3892
 7479SOL    HW133899   2.770   3.605  10.972 -1.0084  1.2490 -0.4402
 7479SOL    HW233900   2.801   3.465  10.977  2.4371  2.4708  2.7796
 7480SOL     OW33901   0.823   0.706   9.329 -0.3697 -0.2321 -0.5633
 7480SOL    HW133902   0.775   0.701   9.246 -2.1233 -0.2028  0.4549
 7480SOL    HW233903   0.844   0.613   9.341 -0.1313 -0.0775  0.1589
 7481SOL     OW33904   0.292   3.090   7.197 -0.4423  0.6671 -0.2332
 7481SOL    HW133905   0.382   3.103   7.165 -0.5115 -0.1510 -0.7691
 7481SOL    HW233906   0.284   3.172   7.245  3.2817  1.2606 -0.6209
 7482SOL     OW33907   3.820   1.630   3.505  0.1528  0.3557 -0.3697
 7482SOL    HW133908   3.729   1.608   3.485  0.5469 -1.9123  0.3010
 7482SOL    HW233909   3.832   1.691   3.432 -1.6418 -1.9030 -2.5364
 7483SOL     OW33910   3.516   4.348   5.129  0.2110 -0.0912  0.6603
 7483SOL    HW133911   3.588   4.410   5.143  2.0613 -2.4660  1.7424
 7483SOL    HW233912   3.512   4.360   5.035  0.2075  0.3096  0.7133
 7484SOL     OW33913   3.787   0.913   4.589  0.6066 -0.1175 -0.3557
 7484SOL    HW133914   3.869   0.930   4.543  0.8137 -0.8578 -0.2548
 7484SOL    HW233915   3.731   0.978   4.547  2.9841  2.9637  1.2424
 7485SOL     OW33916   1.718   2.613   7.446 -0.2737 -0.7412  0.4075
 7485SOL    HW133917   1.802   2.647   7.415 -1.5876  2.3869  0.2503
 7485SOL    HW233918   1.726   2.523   7.416  0.2843 -1.2313  2.0304
 7486SOL     OW33919   4.301   1.516   9.056 -0.4696  0.1067  0.0873
 7486SOL    HW133920   4.226   1.545   9.005 -0.3896  0.1181 -0.0241
 7486SOL    HW233921   4.357   1.574   9.004  0.1389  0.9563  1.6766
 7487SOL     OW33922   4.230   1.831   4.006 -0.0621 -0.0419  0.1368
 7487SOL    HW133923   4.213   1.919   4.040 -1.5290 -0.0163 -0.6328
 7487SOL    HW233924   4.208   1.837   3.913 -2.1400  0.2703  0.6320
 7488SOL     OW33925   0.619   4.425   5.871  0.1323  0.2685 -0.2156
 7488SOL    HW133926   0.665   4.492   5.921  0.5878 -1.0132  1.0802
 7488SOL    HW233927   0.692   4.365   5.856 -0.1668 -0.9529  3.3169
 7489SOL     OW33928   4.635   1.608   2.236  0.0985 -0.3550  0.2970
 7489SOL    HW133929   4.708   1.658   2.271 -0.3107 -0.1478  0.8534
 7489SOL    HW233930   4.557   1.652   2.272 -0.3769 -1.4331  0.5768
 7490SOL     OW33931   2.951   2.330   7.660  0.1832 -0.0359 -0.4395
 7490SOL    HW133932   3.021   2.310   7.598 -1.4882 -1.2104 -1.9249
 7490SOL    HW233933   2.903   2.398   7.613 -1.0109 -1.2288 -0.9449
 7491SOL     OW33934   3.873   3.059  11.329  0.0773  0.6927  0.2776
 7491SOL    HW133935   3.949   3.026  11.281 -0.3870  0.0738 -0.0285
 7491SOL    HW233936   3.805   3.051  11.262  0.1836 -2.0360  0.4945
 7492SOL     OW33937   0.017   1.973   3.407 -0.1452  0.5949  0.4252
 7492SOL    HW133938   0.100   1.952   3.365  0.0508  0.6173  0.8041
 7492SOL    HW233939   0.017   2.067   3.386  0.1820  0.6593  0.7057
 7493SOL     OW33940   0.986   2.608  12.899 -0.4100  0.6041 -0.3299
 7493SOL    HW133941   1.007   2.526  12.943 -0.2560  0.4912 -0.6205
 7493SOL    HW233942   0.973   2.669  12.972  0.4043 -1.1387  1.2964
 7494SOL     OW33943   0.962   0.551   7.591  0.3846  0.1157 -0.2572
 7494SOL    HW133944   0.971   0.646   7.591 -0.1370  0.1677 -0.2555
 7494SOL    HW233945   0.880   0.538   7.544  0.6974 -2.1611 -0.1728
 7495SOL     OW33946   3.722   2.462  13.863 -0.1414  0.0795 -0.1349
 7495SOL    HW133947   3.775   2.393  13.903 -0.0133 -1.5791 -3.1928
 7495SOL    HW233948   3.645   2.416  13.828 -0.9102  0.1324  1.4821
 7496SOL     OW33949   2.101   1.949  14.185  0.2426 -0.0577 -0.2241
 7496SOL    HW133950   2.099   1.975  14.277  2.0888  1.6954 -0.6907
 7496SOL    HW233951   2.077   1.857  14.189 -2.0997  0.5455 -0.0861
 7497SOL     OW33952   4.399   3.120   8.922 -0.1012  0.9503 -0.0827
 7497SOL    HW133953   4.447   3.038   8.928  0.0688  1.1125  0.8321
 7497SOL    HW233954   4.364   3.117   9.011  0.7155  0.6173  0.2346
 7498SOL     OW33955   3.998   0.359   6.744  0.3591 -0.1441  0.0628
 7498SOL    HW133956   4.024   0.379   6.654  1.2254 -3.0117 -0.3345
 7498SOL    HW233957   4.072   0.389   6.796 -0.5954  1.4975  0.4730
 7499SOL     OW33958   1.924   0.578   2.140  0.3587 -0.5006  0.6513
 7499SOL    HW133959   2.010   0.579   2.096 -0.3417  0.0563 -0.7180
 7499SOL    HW233960   1.939   0.645   2.207 -1.1596  1.6726 -1.1569
 7500SOL     OW33961   3.356   0.012   1.238 -0.0965 -0.1397 -0.4447
 7500SOL    HW133962   3.274   0.025   1.285  0.5463  2.4505 -0.0207
 7500SOL    HW233963   3.392   0.101   1.241 -1.5813  0.4733 -0.8746
 7501SOL     OW33964   4.339   0.817   6.526  0.6549 -0.6416  0.5321
 7501SOL    HW133965   4.341   0.880   6.598 -2.3896 -0.6725  0.6514
 7501SOL    HW233966   4.363   0.881   6.459 -0.3060 -1.6415 -0.7860
 7502SOL     OW33967   2.607   3.448  13.554  0.2925  0.2302  0.3120
 7502SOL    HW133968   2.686   3.453  13.608  1.5303  1.3607 -1.6288
 7502SOL    HW233969   2.624   3.513  13.486 -1.2287  0.5752  0.2677
 7503SOL     OW33970   4.582   1.795   2.754  0.2553  0.3744  0.4553
 7503SOL    HW133971   4.648   1.727   2.769  1.0723  1.2664  0.9738
 7503SOL    HW233972   4.510   1.744   2.718 -0.8866 -0.1315  3.4028
 7504SOL     OW33973   4.677   1.372   6.158 -0.9575 -0.0861 -0.5628
 7504SOL    HW133974   0.004   1.352   6.082 -0.2223 -1.2337  0.2701
 7504SOL    HW233975   4.717   1.458   6.172 -0.2723 -0.1347 -2.1855
 7505SOL     OW33976   4.201   0.952   0.863  0.1536  0.6379 -0.4542
 7505SOL    HW133977   4.156   1.000   0.932 -1.4020 -0.0414 -0.9931
 7505SOL    HW233978   4.142   0.961   0.788 -0.3689 -0.7635 -0.2002
 7506SOL     OW33979   3.273   3.827   3.055 -0.4839  0.2451  0.0465
 7506SOL    HW133980   3.334   3.758   3.081  0.1532  1.5724  2.0489
 7506SOL    HW233981   3.288   3.891   3.124  0.6358  1.0003 -0.9052
 7507SOL     OW33982   3.022   4.172   0.971 -0.0484  0.2246 -0.3829
 7507SOL    HW133983   3.053   4.109   0.906 -2.1241 -2.9266  1.7373
 7507SOL    HW233984   3.093   4.201   1.028 -0.7774  1.2087  0.0211
 7508SOL     OW33985   4.185   0.507   5.904 -0.7107 -0.6065 -0.1952
 7508SOL    HW133986   4.150   0.546   5.824 -0.1769  0.5497  0.1305
 7508SOL    HW233987   4.278   0.526   5.895 -0.6318 -1.3646 -0.9689
 7509SOL     OW33988   2.993   4.238   3.034 -0.6981  0.0760 -0.0467
 7509SOL    HW133989   2.903   4.270   3.040 -0.9218 -0.0391 -2.6698
 7509SOL    HW233990   3.027   4.293   3.105 -0.1359  0.8927 -0.9422
 7510SOL     OW33991   3.889   2.960   6.608 -0.7531 -0.1471 -0.6885
 7510SOL    HW133992   3.967   2.927   6.563 -0.0538  2.0502 -1.0466
 7510SOL    HW233993   3.925   2.955   6.697  0.6949 -1.2582 -1.3314
 7511SOL     OW33994   0.747   1.455   2.810 -0.0782 -0.2359 -0.0593
 7511SOL    HW133995   0.720   1.537   2.853 -0.8621 -0.1069 -0.8190
 7511SOL    HW233996   0.815   1.501   2.760 -2.1205  2.1236 -0.6601
 7512SOL     OW33997   4.654   3.244   3.564 -0.2575 -0.3812 -0.4921
 7512SOL    HW133998   4.603   3.185   3.508 -0.2031  0.9122 -1.9008
 7512SOL    HW233999   4.588   3.266   3.629  1.1834  0.2694  0.7635
 7513SOL     OW34000   2.790   0.900  15.548 -0.3545  0.4373 -0.1932
 7513SOL    HW134001   2.759   0.984  15.515  1.9199  1.3063 -0.1239
 7513SOL    HW234002   2.835   0.928  15.628 -1.2588  0.6204  0.2539
 7514SOL     OW34003   3.529   1.167   4.801  0.3647  0.6368 -0.3037
 7514SOL    HW134004   3.504   1.196   4.713  1.8864  1.6709 -0.4051
 7514SOL    HW234005   3.447   1.162   4.849  0.4188 -1.2482 -0.3935
 7515SOL     OW34006   2.398   2.220   0.449  0.0708 -0.3621  0.1186
 7515SOL    HW134007   2.445   2.290   0.403 -0.6713 -1.4711 -2.3059
 7515SOL    HW234008   2.310   2.258   0.454 -0.1672 -1.0082  0.8485
 7516SOL     OW34009   0.529   3.093   8.677 -0.3931 -1.0364  0.2218
 7516SOL    HW134010   0.477   3.017   8.653 -1.5215 -0.2302  0.1299
 7516SOL    HW234011   0.580   3.097   8.595  0.5855  0.4459  0.8949
 7517SOL     OW34012   4.470   0.732   9.348  0.2018 -0.2584  0.3428
 7517SOL    HW134013   4.392   0.783   9.368 -0.6633 -1.5485  0.2306
 7517SOL    HW234014   4.537   0.783   9.394 -0.0662 -1.2499  1.8313
 7518SOL     OW34015   1.530   2.687   2.466  0.3223 -0.5399 -0.6193
 7518SOL    HW134016   1.585   2.694   2.543 -0.3354  0.1179 -0.2051
 7518SOL    HW234017   1.455   2.746   2.473  1.5230  1.0982 -1.4560
 7519SOL     OW34018   4.483   2.154   5.683 -0.3896 -0.1850  0.3455
 7519SOL    HW134019   4.523   2.133   5.767  0.8584 -1.3817 -0.5342
 7519SOL    HW234020   4.398   2.111   5.688 -1.8957  2.7251 -0.1036
 7520SOL     OW34021   1.916   4.436   6.352 -0.2559  0.3385  0.2924
 7520SOL    HW134022   1.825   4.446   6.379 -0.2690  0.9782  0.0157
 7520SOL    HW234023   1.916   4.508   6.289 -2.3623 -0.1011 -0.2130
 7521SOL     OW34024   1.160   3.638   3.495 -0.1295 -1.0612 -0.6921
 7521SOL    HW134025   1.144   3.554   3.537 -1.3236 -1.3125 -1.6580
 7521SOL    HW234026   1.093   3.640   3.427 -1.9972 -1.0987  1.1259
 7522SOL     OW34027   3.186   3.032   3.090  0.0057  0.1415  0.0854
 7522SOL    HW134028   3.136   2.964   3.046  3.7668 -2.5359  0.0010
 7522SOL    HW234029   3.231   3.078   3.019  1.2032 -1.1452  0.0124
 7523SOL     OW34030   3.120   0.604   2.681 -0.3521  0.2413 -0.3004
 7523SOL    HW134031   3.216   0.609   2.675 -0.5589  1.5060 -2.8434
 7523SOL    HW234032   3.099   0.555   2.602  1.7892 -0.1543 -0.6329
 7524SOL     OW34033   1.749   2.782   3.641 -0.3310  0.2380  0.1839
 7524SOL    HW134034   1.792   2.734   3.570  0.5266  0.1070  0.7953
 7524SOL    HW234035   1.777   2.744   3.724 -0.3999  0.6111  0.3758
 7525SOL     OW34036   1.865   2.348   8.324  0.0167 -0.6404 -0.5988
 7525SOL    HW134037   1.826   2.278   8.376 -0.3587  0.0461  0.0502
 7525SOL    HW234038   1.956   2.328   8.344  0.5665  2.1396 -0.2764
 7526SOL     OW34039   3.157   1.060   3.723 -0.2382 -0.0473 -0.2974
 7526SOL    HW134040   3.108   1.140   3.703 -0.4978 -0.4034 -1.1029
 7526SOL    HW234041   3.154   0.993   3.654 -0.2500 -0.9386  0.5588
 7527SOL     OW34042   0.066   2.772   3.419 -0.1718 -0.3049  0.0507
 7527SOL    HW134043   0.016   2.696   3.450 -0.2861 -0.0149  0.5832
 7527SOL    HW234044   0.131   2.729   3.363 -1.7819 -2.6376 -0.0434
 7528SOL     OW34045   0.097   3.501   4.336 -0.1707 -0.2458 -0.1524
 7528SOL    HW134046   0.036   3.430   4.356 -1.0001  0.6734  0.5997
 7528SOL    HW234047   0.166   3.479   4.398 -0.8054 -2.9727 -0.4077
 7529SOL     OW34048   1.317   3.346   5.877 -0.0119 -0.3713  0.0141
 7529SOL    HW134049   1.278   3.432   5.863 -1.3560 -1.2487 -1.5858
 7529SOL    HW234050   1.241   3.299   5.910  0.1363 -1.0920 -0.6813
 7530SOL     OW34051   3.444   0.386  15.025 -0.3397 -0.3475 -0.0012
 7530SOL    HW134052   3.536   0.408  15.038 -0.5504  0.8202 -0.4299
 7530SOL    HW234053   3.462   0.345  14.940  1.8050 -1.3909  0.9617
 7531SOL     OW34054   2.791   3.657   8.018  0.4378  0.0174  0.7223
 7531SOL    HW134055   2.770   3.623   8.105 -2.3769  1.3473  0.5681
 7531SOL    HW234056   2.797   3.575   7.970  1.2593  0.8436 -0.5954
 7532SOL     OW34057   2.680   1.800   1.404  0.1217  0.4247  0.0814
 7532SOL    HW134058   2.597   1.825   1.363  1.4166  1.8518 -1.6907
 7532SOL    HW234059   2.747   1.830   1.342 -0.2446 -0.5466 -0.8016
 7533SOL     OW34060   4.510   1.360   4.914  0.2091 -0.5005 -0.0085
 7533SOL    HW134061   4.497   1.286   4.974  0.9688 -0.0166  0.7516
 7533SOL    HW234062   4.521   1.426   4.982 -0.5844  1.5421 -1.9035
 7534SOL     OW34063   3.948   1.274   4.215 -0.0607  0.4207 -0.1285
 7534SOL    HW134064   4.008   1.224   4.160 -2.3710 -0.5847 -1.7471
 7534SOL    HW234065   3.997   1.354   4.235 -0.1754  0.1120  1.3768
 7535SOL     OW34066   3.625   2.478   0.920 -0.5071 -0.7876  0.2516
 7535SOL    HW134067   3.612   2.389   0.887 -1.7080 -0.1341 -1.0091
 7535SOL    HW234068   3.663   2.456   1.005  1.2715  2.3978  0.2505
 7536SOL     OW34069   3.840   0.555   3.530  0.2841 -0.8923  0.4978
 7536SOL    HW134070   3.810   0.573   3.619  2.2678 -0.9901  1.1778
 7536SOL    HW234071   3.753   0.571   3.492  0.9076 -1.6269 -1.2518
 7537SOL     OW34072   4.584   1.366   8.903  0.0876  0.2178 -0.2949
 7537SOL    HW134073   4.612   1.363   8.811 -0.3617 -0.1689 -0.4196
 7537SOL    HW234074   4.524   1.292   8.913  0.4940  0.0382  0.7806
 7538SOL     OW34075   1.328   1.014   4.301  0.3265 -0.2711  0.1003
 7538SOL    HW134076   1.413   0.983   4.270  0.4847  0.1409  0.1339
 7538SOL    HW234077   1.301   1.069   4.228  1.4032 -2.2735 -1.8128
 7539SOL     OW34078   2.499   2.998   4.507 -0.2119 -0.4416  0.8664
 7539SOL    HW134079   2.505   2.913   4.463 -1.0278 -0.2798  0.4438
 7539SOL    HW234080   2.579   2.997   4.559  0.7139  1.3719 -0.5147
 7540SOL     OW34081   2.205   2.552  12.927 -0.2866  0.4967  0.1808
 7540SOL    HW134082   2.292   2.587  12.909 -0.6362  0.9389 -0.6322
 7540SOL    HW234083   2.176   2.621  12.987  0.8694  1.6219 -0.5409
 7541SOL     OW34084   3.261   0.342   9.790  0.5075 -0.0955  0.1982
 7541SOL    HW134085   3.237   0.392   9.712 -0.6025 -3.2174 -1.4511
 7541SOL    HW234086   3.310   0.402   9.846 -0.7486 -0.4862  1.6920
 7542SOL     OW34087   4.425   2.873   8.810 -0.6008 -0.3960  0.6371
 7542SOL    HW134088   4.452   2.863   8.901  1.2193  1.0358  0.2563
 7542SOL    HW234089   4.336   2.838   8.809 -1.4371  1.7235  1.4910
 7543SOL     OW34090   2.453   2.075   1.124  0.4874  0.0816  0.1264
 7543SOL    HW134091   2.422   1.990   1.093 -0.4341  0.6015 -0.3483
 7543SOL    HW234092   2.374   2.126   1.108  0.8499  0.3160 -0.9398
 7544SOL     OW34093   4.367   0.920   2.549  0.6177  0.2845  0.8654
 7544SOL    HW134094   4.314   0.840   2.543 -1.0552  1.3451  1.3871
 7544SOL    HW234095   4.321   0.978   2.489  0.2326 -1.1564 -0.2542
 7545SOL     OW34096   1.549   1.070   5.497 -0.3208 -0.6635 -0.4543
 7545SOL    HW134097   1.463   1.045   5.532  0.5378  0.1821  2.2476
 7545SOL    HW234098   1.533   1.091   5.405  0.0626  1.0744 -0.1198
 7546SOL     OW34099   3.094   0.966   5.876  0.7892 -1.0740 -0.0243
 7546SOL    HW134100   3.141   1.027   5.933 -0.8063  0.2872 -0.1538
 7546SOL    HW234101   3.094   0.891   5.935 -0.5274  1.2970  3.0054
 7547SOL     OW34102   0.964   1.205  14.241 -0.7652 -0.5631 -0.4960
 7547SOL    HW134103   1.050   1.167  14.261  0.6697  2.4929 -0.8522
 7547SOL    HW234104   0.971   1.291  14.283  2.8356 -0.8130 -0.6105
 7548SOL     OW34105   4.599   4.100   7.066 -0.5677 -0.1997  0.3982
 7548SOL    HW134106   4.509   4.134   7.068 -0.9485 -1.2075  0.5029
 7548SOL    HW234107   4.576   4.015   7.029 -0.0211  0.7573 -2.1551
 7549SOL     OW34108   1.056   1.804   7.578  0.2051  0.7007  0.2234
 7549SOL    HW134109   1.017   1.745   7.514  1.9103 -0.3559  0.1842
 7549SOL    HW234110   1.138   1.823   7.534  0.0338 -1.7022 -1.1324
 7550SOL     OW34111   1.873   3.207  10.460 -0.2003 -0.6983 -0.2018
 7550SOL    HW134112   1.846   3.208  10.552 -0.9360  3.1578 -0.4654
 7550SOL    HW234113   1.787   3.203  10.419 -0.1543 -4.4949  0.0904
 7551SOL     OW34114   2.009   2.408   2.711  0.0216 -0.1051  0.9759
 7551SOL    HW134115   1.957   2.366   2.642  0.1354  0.5410  0.4959
 7551SOL    HW234116   1.963   2.490   2.726 -2.4848 -1.3002 -0.0325
 7552SOL     OW34117   2.899   0.111   3.872  0.3449 -0.1838  0.2347
 7552SOL    HW134118   2.954   0.140   3.800 -1.1551  0.4600 -0.6335
 7552SOL    HW234119   2.934   0.023   3.860  0.6504  0.0579 -0.6342
 7553SOL     OW34120   1.264   1.882   6.979  0.6042 -0.6369 -0.2056
 7553SOL    HW134121   1.331   1.945   7.004 -0.5645  0.5686 -0.1129
 7553SOL    HW234122   1.320   1.812   6.945  1.8421 -0.5069  1.5598
 7554SOL     OW34123   1.867   3.768  12.860 -0.7512 -0.6887 -0.2462
 7554SOL    HW134124   1.958   3.748  12.837 -1.7773 -1.2240 -3.8715
 7554SOL    HW234125   1.845   3.804  12.774 -1.4473  0.3757  0.3935
 7555SOL     OW34126   0.852   0.837   5.358  0.7184 -0.8912  0.8325
 7555SOL    HW134127   0.781   0.774   5.351 -0.9273  1.0468  0.3302
 7555SOL    HW234128   0.919   0.797   5.415  3.0626  0.6339 -0.8656
 7556SOL     OW34129   2.999   2.823   1.249  0.1856 -0.1640 -0.4901
 7556SOL    HW134130   3.051   2.795   1.324 -1.0240  0.3891  0.5708
 7556SOL    HW234131   2.937   2.882   1.292  0.4165  0.0345 -0.4285
 7557SOL     OW34132   3.610   4.104   0.398  0.2287 -0.2975 -0.1143
 7557SOL    HW134133   3.585   4.034   0.459  0.1576 -0.2529 -0.0917
 7557SOL    HW234134   3.684   4.142   0.444  0.7997  0.3746 -1.6097
 7558SOL     OW34135   2.824   2.114   2.289 -0.1923 -0.9111 -0.1494
 7558SOL    HW134136   2.799   2.099   2.380 -2.4753  1.3258 -0.4112
 7558SOL    HW234137   2.811   2.025   2.256 -2.4404 -0.6776  0.1622
 7559SOL     OW34138   4.385   1.503   6.726 -0.0602 -0.4719  0.6219
 7559SOL    HW134139   4.411   1.558   6.653  2.5045  0.0650  1.9127
 7559SOL    HW234140   4.291   1.492   6.714 -0.0305  1.6783 -1.5548
 7560SOL     OW34141   1.259   3.775   6.788  0.0142  0.3654  0.2704
 7560SOL    HW134142   1.238   3.836   6.858 -1.2709 -1.0353  1.1074
 7560SOL    HW234143   1.275   3.690   6.830  0.8189  1.3115  1.8430
 7561SOL     OW34144   1.386   4.084   8.705 -0.3112  0.0063 -0.2924
 7561SOL    HW134145   1.298   4.080   8.744  0.0162 -0.8975  0.3384
 7561SOL    HW234146   1.376   4.158   8.644  0.3179 -0.3428 -0.8243
 7562SOL     OW34147   3.552   1.766  11.285 -0.1772 -0.2711  0.3589
 7562SOL    HW134148   3.645   1.785  11.273 -0.4395  2.1357  2.0984
 7562SOL    HW234149   3.562   1.717  11.366  0.7485 -0.1630  0.3069
 7563SOL     OW34150   1.162   1.462   6.132  0.7532 -0.1519 -0.2770
 7563SOL    HW134151   1.109   1.391   6.167 -0.2568  1.2362  0.9989
 7563SOL    HW234152   1.235   1.468   6.194  0.8929 -0.4500 -0.4122
 7564SOL     OW34153   2.732   3.456  12.286 -0.0130 -0.6109  0.3405
 7564SOL    HW134154   2.797   3.406  12.335  0.1604  0.2195  0.9526
 7564SOL    HW234155   2.668   3.485  12.351  0.2029  1.5094 -0.3912
 7565SOL     OW34156   3.329   2.024  10.188  0.7967 -0.6356 -0.3298
 7565SOL    HW134157   3.257   2.086  10.184  0.8557 -0.3914  2.2612
 7565SOL    HW234158   3.292   1.957  10.246 -0.0540 -0.4135 -0.6195
 7566SOL     OW34159   0.565   2.138   4.710 -0.4031 -0.1700 -0.4064
 7566SOL    HW134160   0.515   2.181   4.640 -1.4322 -0.8795 -0.1060
 7566SOL    HW234161   0.489   2.109   4.760 -0.0939 -1.8120 -0.9183
 7567SOL     OW34162   1.193   3.327   2.726 -0.2410  0.4227  0.0140
 7567SOL    HW134163   1.179   3.387   2.653 -3.4247  0.2716  0.4896
 7567SOL    HW234164   1.259   3.272   2.684 -1.9093 -1.5364 -0.0746
 7568SOL     OW34165   2.046   2.462   1.882 -0.0833  0.2517  0.3396
 7568SOL    HW134166   2.066   2.546   1.923  0.6155  0.9995 -1.5205
 7568SOL    HW234167   2.029   2.412   1.962  0.8223 -0.7808 -0.1042
 7569SOL     OW34168   1.471   2.089   5.936 -0.4340 -0.4809  0.2857
 7569SOL    HW134169   1.459   2.157   5.869 -1.9249 -0.6655  0.3757
 7569SOL    HW234170   1.527   2.032   5.883  0.1145  0.1387  0.1837
 7570SOL     OW34171   0.822   3.931   7.820 -0.1942 -0.2758 -0.2900
 7570SOL    HW134172   0.733   3.907   7.795 -0.4208 -0.6442  0.8311
 7570SOL    HW234173   0.863   3.846   7.838  1.0970  0.4599  0.2168
 7571SOL     OW34174   2.216   3.598   4.978 -0.3309  0.3526 -0.9133
 7571SOL    HW134175   2.218   3.507   5.006  0.0646  0.8256  0.5622
 7571SOL    HW234176   2.290   3.642   5.018 -1.0044 -0.8810  1.6644
 7572SOL     OW34177   4.646   2.013   5.457  0.2629  0.6613  0.6701
 7572SOL    HW134178   4.601   2.034   5.375 -1.3346 -2.3522  0.7826
 7572SOL    HW234179   4.593   2.067   5.516 -2.0094 -0.7323 -0.1070
 7573SOL     OW34180   4.335   0.948   3.354 -0.2304  0.1456  0.5756
 7573SOL    HW134181   4.267   0.963   3.420 -2.0844  0.4059 -1.4057
 7573SOL    HW234182   4.364   0.864   3.390  0.7809 -0.1098 -0.8703
 7574SOL     OW34183   3.480   2.496  15.935  0.2090 -0.4387 -0.3808
 7574SOL    HW134184   3.449   2.427  15.994 -1.9764 -0.0373 -1.0628
 7574SOL    HW234185   3.403   2.553  15.934 -0.2662 -1.1056 -1.2235
 7575SOL     OW34186   2.032   0.119   3.431  0.0371  1.3579  0.3415
 7575SOL    HW134187   2.044   0.040   3.378  0.4738  1.0161  0.9525
 7575SOL    HW234188   2.036   0.190   3.366  0.2126  1.0784  0.0483
 7576SOL     OW34189   1.182   0.228   7.049 -0.0418  0.1198 -0.4181
 7576SOL    HW134190   1.201   0.231   7.143 -1.2238 -0.0100 -0.1684
 7576SOL    HW234191   1.227   0.145   7.033  0.7584  0.3983  0.4297
 7577SOL     OW34192   2.091   3.003   3.800 -0.1039 -0.1743  0.1767
 7577SOL    HW134193   2.157   2.968   3.859  1.8656 -0.8664 -2.4547
 7577SOL    HW234194   2.133   2.983   3.716  0.1178 -0.3652  0.3349
 7578SOL     OW34195   4.368   1.558   2.366  0.3711 -0.1541  0.1001
 7578SOL    HW134196   4.313   1.617   2.316  1.9804 -0.2388 -1.7476
 7578SOL    HW234197   4.393   1.496   2.298  1.5453 -1.4795  1.7128
 7579SOL     OW34198   2.591   3.856   7.091 -0.5078 -0.4388  0.6214
 7579SOL    HW134199   2.596   3.829   7.183  1.3822  1.9891  1.2273
 7579SOL    HW234200   2.500   3.885   7.089 -1.1854 -2.6388  0.1207
 7580SOL     OW34201   0.479   4.202   6.102 -0.5791 -0.6221 -0.0930
 7580SOL    HW134202   0.394   4.162   6.120 -0.7389 -0.4038 -0.3623
 7580SOL    HW234203   0.539   4.128   6.093  1.4070  1.0633 -0.6648
 7581SOL     OW34204   2.882   0.839   4.236 -0.1515 -0.4215 -0.2141
 7581SOL    HW134205   2.950   0.905   4.251 -1.9571  1.2324  0.6882
 7581SOL    HW234206   2.841   0.883   4.161  1.0106  2.4836  0.8687
 7582SOL     OW34207   3.091   1.440   7.562 -0.3591  0.3245 -0.3934
 7582SOL    HW134208   3.075   1.346   7.576 -0.6302  0.6393  1.2821
 7582SOL    HW234209   3.000   1.470   7.566  0.3211  2.0674  1.3397
 7583SOL     OW34210   2.669   2.209   7.872 -0.4280 -0.2423 -0.2176
 7583SOL    HW134211   2.658   2.219   7.778  1.3707  0.4605 -0.3292
 7583SOL    HW234212   2.575   2.220   7.890 -0.1236 -0.4388  1.5660
 7584SOL     OW34213   2.666   4.648   6.526 -0.5892 -0.2741 -0.5422
 7584SOL    HW134214   2.756   4.656   6.494  0.3167 -1.3833  1.7265
 7584SOL    HW234215   2.688   4.600   6.606  3.4611 -0.8972 -2.0308
 7585SOL     OW34216   1.123   1.267   0.039 -0.0799  0.1905 -0.2548
 7585SOL    HW134217   1.086   1.328   0.103 -0.9068 -0.5335 -0.0431
 7585SOL    HW234218   1.201   1.317   0.017  0.9834 -2.5520 -2.7220
 7586SOL     OW34219   0.146   0.709   4.869  0.2539  0.6928  0.0804
 7586SOL    HW134220   0.085   0.782   4.863 -2.5359 -1.7819 -1.5810
 7586SOL    HW234221   0.225   0.742   4.825  0.9109  1.2188  1.6437
 7587SOL     OW34222   4.394   4.583   0.027  0.0329  0.0251 -0.3014
 7587SOL    HW134223   4.318   4.585   0.085  0.0402 -0.2037 -0.2822
 7587SOL    HW234224   4.448   4.654   0.060 -0.5978  0.8973 -1.1425
 7588SOL     OW34225   0.988   3.548   5.682  0.5393 -0.4483 -0.1222
 7588SOL    HW134226   0.980   3.467   5.632 -0.9310 -1.5908  1.9658
 7588SOL    HW234227   0.959   3.611   5.615 -0.4028 -1.2222 -0.4420
 7589SOL     OW34228   3.275   1.694   9.102  0.2967  0.0585 -0.0683
 7589SOL    HW134229   3.310   1.629   9.163  0.6355  1.1430  0.8884
 7589SOL    HW234230   3.260   1.640   9.025 -0.5480 -0.3469  0.3677
 7590SOL     OW34231   4.230   3.471   3.760 -0.5013 -0.4241  0.0379
 7590SOL    HW134232   4.141   3.436   3.750 -0.5882  0.1213 -1.0851
 7590SOL    HW234233   4.220   3.561   3.730 -1.3590 -0.5779 -0.1212
 7591SOL     OW34234   1.369   2.234  11.280 -0.2341 -0.6606  0.3369
 7591SOL    HW134235   1.336   2.297  11.344  2.9478  2.3560 -0.9926
 7591SOL    HW234236   1.295   2.178  11.255 -1.9441  0.8146  2.0235
 7592SOL     OW34237   4.339   0.332   3.274 -0.2009  0.1176  0.6813
 7592SOL    HW134238   4.323   0.422   3.247  0.8899 -0.6703 -2.6097
 7592SOL    HW234239   4.288   0.319   3.354 -0.7381  1.9453  0.6268
 7593SOL     OW34240   3.769   3.095   0.830 -0.2776  0.1323  0.1821
 7593SOL    HW134241   3.697   3.084   0.768 -1.2155 -1.1847  1.5083
 7593SOL    HW234242   3.716   3.125   0.904 -0.5431  0.2755 -0.0638
 7594SOL     OW34243   0.020   0.554   3.291  0.3056 -0.7755 -0.2212
 7594SOL    HW134244   0.058   0.471   3.319 -0.6383 -1.0798  0.1673
 7594SOL    HW234245   4.667   0.531   3.243  0.1620 -0.3813 -0.1713
 7595SOL     OW34246   3.911   0.466   0.599 -0.1094  0.0360 -0.5512
 7595SOL    HW134247   3.958   0.529   0.544  0.0158  0.0708 -0.4067
 7595SOL    HW234248   3.849   0.526   0.640 -1.1040 -1.4324  0.0851
 7596SOL     OW34249   3.686   2.508  16.209 -0.2324  0.5810 -0.3937
 7596SOL    HW134250   3.676   2.547  16.122  3.2887 -0.9969 -1.5174
 7596SOL    HW234251   3.597   2.514  16.243 -0.6085  0.6770 -1.3978
 7597SOL     OW34252   1.525   0.351   5.230 -0.1581 -0.3522  0.1739
 7597SOL    HW134253   1.596   0.406   5.194  0.0621  0.5068  1.9406
 7597SOL    HW234254   1.494   0.402   5.305  1.2381  0.3309  0.2952
 7598SOL     OW34255   3.527   3.540   8.579  0.6159 -0.0650  0.2600
 7598SOL    HW134256   3.535   3.493   8.497 -0.8585 -0.4264  0.3152
 7598SOL    HW234257   3.620   3.532   8.599  0.5165  1.2450  1.2449
 7599SOL     OW34258   3.769   2.248   5.263 -0.5001  0.1337 -0.2135
 7599SOL    HW134259   3.830   2.254   5.190 -1.6745  0.9750 -1.1175
 7599SOL    HW234260   3.808   2.173   5.309 -2.5647 -0.4300  0.6314
 7600SOL     OW34261   4.580   4.605   5.330 -0.2024  0.2104 -0.0286
 7600SOL    HW134262   4.593   4.597   5.236  0.9724 -0.7723  0.2040
 7600SOL    HW234263   4.618   4.521   5.358 -1.1822  0.3615  1.7110
 7601SOL     OW34264   1.344   2.378   7.123 -0.2578  0.3031 -0.1059
 7601SOL    HW134265   1.335   2.332   7.206  2.0915 -2.2217 -1.2431
 7601SOL    HW234266   1.407   2.448   7.142 -0.7222  0.8319 -0.4805
 7602SOL     OW34267   2.102   3.193   4.787  0.1986 -0.1033  0.4210
 7602SOL    HW134268   2.191   3.228   4.785 -0.4823  1.7107  2.0757
 7602SOL    HW234269   2.113   3.106   4.749 -0.8844 -0.0892  0.0697
 7603SOL     OW34270   1.056   2.794   8.372 -0.0357 -0.1121 -0.0595
 7603SOL    HW134271   0.982   2.804   8.432 -1.7823  0.0830 -2.2577
 7603SOL    HW234272   1.080   2.704   8.394  1.7736  0.1263 -1.0094
 7604SOL     OW34273   0.233   3.693   0.187  0.4121 -0.5341 -0.0572
 7604SOL    HW134274   0.324   3.704   0.160  0.6741 -0.0830  1.0026
 7604SOL    HW234275   0.198   3.775   0.151 -0.3553 -1.1851 -0.8076
 7605SOL     OW34276   1.234   0.750   0.009  0.0747  0.1775  0.3024
 7605SOL    HW134277   1.238   0.832  17.669  0.1483  0.0455  0.0938
 7605SOL    HW234278   1.138   0.751   0.017  0.0376  0.4379 -0.1502
 7606SOL     OW34279   1.651   2.302   6.404  0.0989 -0.5962 -0.1840
 7606SOL    HW134280   1.655   2.376   6.465  1.2268 -0.9514  0.1694
 7606SOL    HW234281   1.658   2.349   6.321 -2.6713 -0.1747 -0.1870
 7607SOL     OW34282   0.996   4.621   9.498  0.0946  0.1267 -0.6650
 7607SOL    HW134283   1.001   4.561   9.572 -0.9800  0.0954 -0.6132
 7607SOL    HW234284   0.972   4.701   9.546 -1.0353 -1.9356  2.1727
 7608SOL     OW34285   4.660   0.800   5.927  0.1115  0.4790 -0.0022
 7608SOL    HW134286   4.701   0.786   5.841 -1.5551 -0.4592 -0.6418
 7608SOL    HW234287   4.698   0.722   5.969 -0.4074  0.8216  1.0813
 7609SOL     OW34288   0.608   1.359   8.983  0.0294  0.6470  0.5333
 7609SOL    HW134289   0.682   1.416   8.964  2.4796 -2.4194  0.8314
 7609SOL    HW234290   0.647   1.283   9.027  1.3451  0.3766 -1.0984
 7610SOL     OW34291   0.021   4.090   9.369 -0.4674 -0.4159 -0.2546
 7610SOL    HW134292   4.657   4.068   9.387  0.8434 -4.6972  1.1621
 7610SOL    HW234293   0.062   4.056   9.449 -0.8667  0.0776  0.1621
 7611SOL     OW34294   2.339   0.785   9.267 -0.8736 -0.3420 -0.1297
 7611SOL    HW134295   2.291   0.800   9.185  0.2980  1.6306 -0.4350
 7611SOL    HW234296   2.270   0.735   9.312 -1.1154  0.8609  0.8158
 7612SOL     OW34297   2.588   2.823  13.489 -0.1195  0.6384 -0.2254
 7612SOL    HW134298   2.562   2.865  13.407 -0.4736  2.1102  0.6213
 7612SOL    HW234299   2.594   2.737  13.448  0.1341 -0.7109  2.6299
 7613SOL     OW34300   1.361   2.351   1.630 -0.7843  0.0201 -0.1962
 7613SOL    HW134301   1.345   2.393   1.715 -1.7051 -1.7576  0.5282
 7613SOL    HW234302   1.452   2.374   1.615 -0.3669  0.7245  3.2723
 7614SOL     OW34303   0.811   4.610  12.857  0.1334  0.7378  0.2214
 7614SOL    HW134304   0.764   4.540  12.810  1.0280  0.1414  0.2132
 7614SOL    HW234305   0.772   4.681  12.806  1.1780 -0.4593 -2.2752
 7615SOL     OW34306   3.730   4.342   8.394 -0.7492  0.0403 -0.4390
 7615SOL    HW134307   3.642   4.330   8.360 -0.6915 -0.9234 -0.2392
 7615SOL    HW234308   3.774   4.293   8.325  0.7144  2.5548 -1.2734
 7616SOL     OW34309   3.525   3.949   6.123  0.7749  0.2052 -0.6313
 7616SOL    HW134310   3.574   3.879   6.081 -0.0122 -0.3162 -0.6631
 7616SOL    HW234311   3.436   3.954   6.089  0.4175  1.4747  0.4714
 7617SOL     OW34312   3.336   2.407  10.354 -0.3255  0.2620 -0.7690
 7617SOL    HW134313   3.300   2.483  10.400  0.5259 -0.7704  1.5860
 7617SOL    HW234314   3.302   2.427  10.267 -0.6458 -0.4544 -0.8099
 7618SOL     OW34315   4.639   2.956   9.319 -0.0974 -0.4973  0.3159
 7618SOL    HW134316   4.590   2.908   9.252  0.7397 -0.5711 -0.2405
 7618SOL    HW234317   4.568   2.991   9.373  0.9821 -0.1763  1.5245
 7619SOL     OW34318   3.750   2.191   4.485  0.1394 -0.1937 -0.3759
 7619SOL    HW134319   3.683   2.141   4.440 -2.2253  2.3619  0.2719
 7619SOL    HW234320   3.817   2.194   4.417 -0.4048 -1.6299 -0.9704
 7620SOL     OW34321   1.592   2.209  14.069 -0.7399  0.0885  0.3111
 7620SOL    HW134322   1.635   2.284  14.110 -0.8853  0.3007  0.0822
 7620SOL    HW234323   1.625   2.129  14.110  1.7700  0.7143 -0.4882
 7621SOL     OW34324   1.729   1.042   6.369  0.5005  0.1840  0.1238
 7621SOL    HW134325   1.720   0.995   6.452  0.7746  0.1859  0.1546
 7621SOL    HW234326   1.773   1.122   6.395 -1.4873  0.7285  1.7920
 7622SOL     OW34327   1.201   4.559   8.320  0.1373 -0.0487  0.8282
 7622SOL    HW134328   1.219   4.601   8.405 -2.3570  1.9043  0.3824
 7622SOL    HW234329   1.154   4.479   8.342  1.6040 -1.1582 -0.0678
 7623SOL     OW34330   3.366   2.642   1.341  0.1598 -0.7036  0.4869
 7623SOL    HW134331   3.359   2.599   1.256  1.3024 -2.4015  1.2680
 7623SOL    HW234332   3.387   2.734   1.323 -1.2615 -0.8974 -2.2521
 7624SOL     OW34333   2.882   1.092  13.889  0.0017  0.0112 -0.7572
 7624SOL    HW134334   2.931   1.084  13.807  2.6292  1.7949  0.6239
 7624SOL    HW234335   2.841   1.174  13.861 -1.0521  0.7596  2.8860
 7625SOL     OW34336   1.160   3.184   7.793 -0.6933  0.0698 -0.1070
 7625SOL    HW134337   1.243   3.205   7.750 -1.3022 -1.8114 -2.2099
 7625SOL    HW234338   1.161   3.240   7.871  0.6513 -2.1993  1.5225
 7626SOL     OW34339   1.775   2.931   7.458  0.2653 -0.1502  0.3085
 7626SOL    HW134340   1.711   2.938   7.529 -0.8123  1.0420 -0.7910
 7626SOL    HW234341   1.745   2.857   7.405  0.4576 -0.6373  0.8732
 7627SOL     OW34342   2.683   0.864   7.694 -0.1827 -0.3378 -0.5693
 7627SOL    HW134343   2.751   0.804   7.726  0.0950 -0.1939 -0.8866
 7627SOL    HW234344   2.697   0.863   7.599  0.8463 -2.6072 -0.3780
 7628SOL     OW34345   2.313   3.312   3.593 -0.6722  0.6215 -0.2206
 7628SOL    HW134346   2.313   3.226   3.551  2.5404  0.1276  0.8298
 7628SOL    HW234347   2.351   3.296   3.679 -0.1542 -0.4269 -0.6379
 7629SOL     OW34348   2.837   3.428   3.439 -0.4512  0.3271 -0.1647
 7629SOL    HW134349   2.844   3.438   3.344  0.3481  1.2335  0.0021
 7629SOL    HW234350   2.770   3.489   3.470 -0.9039  0.1879 -0.8639
 7630SOL     OW34351   3.385   0.914   8.013  0.4440  0.0147  0.5863
 7630SOL    HW134352   3.479   0.899   7.999  0.3724  1.3541 -1.3696
 7630SOL    HW234353   3.383   0.928   8.108 -0.3321  1.0946  0.4119
 7631SOL     OW34354   3.291   3.696  12.387  0.1873 -0.1817  0.2395
 7631SOL    HW134355   3.303   3.785  12.418 -1.1761 -0.6150  1.9780
 7631SOL    HW234356   3.223   3.671  12.450  0.6704 -1.3609  0.3055
 7632SOL     OW34357   0.320   4.481   9.340 -0.5477 -0.2147 -0.1697
 7632SOL    HW134358   0.307   4.399   9.292  1.0215  0.0023 -0.9748
 7632SOL    HW234359   0.415   4.469   9.340 -0.4884  0.2448  0.4686
 7633SOL     OW34360   4.589   3.210   3.180  0.1050 -0.2186  0.2847
 7633SOL    HW134361   4.629   3.151   3.244  2.2132 -0.3964 -1.2173
 7633SOL    HW234362   4.669   3.251   3.148 -0.1850  0.4053  0.3471
 7634SOL     OW34363   2.824   1.098  15.238  0.4964  0.7100 -0.1223
 7634SOL    HW134364   2.805   1.122  15.148 -1.3833 -0.3344  0.0016
 7634SOL    HW234365   2.890   1.029  15.229  1.0813  0.8510  3.0252
 7635SOL     OW34366   3.460   1.501   2.126  0.2920  0.7809 -0.4520
 7635SOL    HW134367   3.490   1.494   2.035  0.2455 -0.0471 -0.4069
 7635SOL    HW234368   3.415   1.419   2.149 -0.1579  0.6388 -1.8020
 7636SOL     OW34369   3.625   4.690   4.660  0.2009 -0.0181  0.2560
 7636SOL    HW134370   3.656   0.042   4.703 -0.5508 -1.2190  2.9941
 7636SOL    HW234371   3.628   4.629   4.733  1.3754 -2.4585 -1.8511
 7637SOL     OW34372   0.394   0.590  13.126 -0.3629  0.0748 -0.2038
 7637SOL    HW134373   0.330   0.590  13.198 -0.1174  0.1761  0.0159
 7637SOL    HW234374   0.340   0.618  13.052 -0.8823 -0.2816  0.0352
 7638SOL     OW34375   4.488   3.882   6.976  0.2759  0.1579  0.4352
 7638SOL    HW134376   4.411   3.838   7.013 -0.2914  2.5332  2.0951
 7638SOL    HW234377   4.534   3.809   6.935 -2.9765 -0.8307 -1.4899
 7639SOL     OW34378   0.197   2.154   2.062  0.1844  0.4090  0.3836
 7639SOL    HW134379   0.250   2.133   2.139 -1.6300 -0.3754  1.4094
 7639SOL    HW234380   0.263   2.165   1.994 -0.4851  0.5522 -0.2452
 7640SOL     OW34381   1.335   0.936   5.600 -0.3456 -0.5174 -0.2007
 7640SOL    HW134382   1.329   0.843   5.619  2.0878 -0.8970 -1.2897
 7640SOL    HW234383   1.301   0.940   5.511  1.9937  1.7837 -1.0086
 7641SOL     OW34384   3.037   2.606   3.750 -0.7974  0.1034  0.6321
 7641SOL    HW134385   2.978   2.538   3.716 -1.3956  0.3799  1.1090
 7641SOL    HW234386   3.118   2.595   3.701 -1.9498 -0.0756 -1.2382
 7642SOL     OW34387   1.067   0.276  16.713 -0.5053 -0.0291 -0.0363
 7642SOL    HW134388   1.071   0.251  16.806  1.4291 -0.3959 -0.2258
 7642SOL    HW234389   0.981   0.246  16.682 -1.4767  0.2028  2.3508
 7643SOL     OW34390   3.309   1.463   5.250 -0.0776 -0.1711 -0.4256
 7643SOL    HW134391   3.385   1.406   5.236 -1.0518 -1.4377 -0.5718
 7643SOL    HW234392   3.327   1.510   5.332  0.9991 -0.4879 -0.4818
 7644SOL     OW34393   0.926   4.031  11.688  0.7960  0.0048  0.3958
 7644SOL    HW134394   1.021   4.038  11.692  0.7332  1.0119 -0.0133
 7644SOL    HW234395   0.923   3.967  11.616  1.0539  1.0789 -0.5604
 7645SOL     OW34396   4.566   2.134   1.007 -0.5278 -0.5506 -0.0603
 7645SOL    HW134397   4.562   2.207   0.946  2.0164  0.4818  1.0460
 7645SOL    HW234398   4.625   2.073   0.961 -0.1555  2.4452 -3.5525
 7646SOL     OW34399   3.194   3.583   8.460  0.5676 -0.2453  0.2645
 7646SOL    HW134400   3.247   3.507   8.437  0.5671  0.7737 -3.1281
 7646SOL    HW234401   3.190   3.632   8.378  0.4710 -2.6378 -1.1570
 7647SOL     OW34402   1.100   3.884   8.391  0.9471 -0.3919  0.1807
 7647SOL    HW134403   1.118   3.894   8.485 -1.7522  0.8622  0.5874
 7647SOL    HW234404   1.004   3.887   8.395  0.9529 -0.4579  0.3907
 7648SOL     OW34405   0.572   0.419  12.988  0.7420 -0.2903  0.3966
 7648SOL    HW134406   0.521   0.495  13.017 -1.4116 -0.5842 -2.6830
 7648SOL    HW234407   0.564   0.420  12.893 -0.5401 -0.4079  0.5059
 7649SOL     OW34408   4.703   2.148  15.794  0.2420 -0.1122  0.7104
 7649SOL    HW134409   0.011   2.153  15.882  1.1782 -2.0336  0.4519
 7649SOL    HW234410   4.712   2.238  15.762 -0.9801 -0.5916 -1.0134
 7650SOL     OW34411   3.702   3.239   8.719 -0.9422 -0.0503 -0.0030
 7650SOL    HW134412   3.737   3.328   8.719 -0.2326 -0.3384 -1.7771
 7650SOL    HW234413   3.756   3.201   8.651 -1.0959 -1.7089  0.7989
 7651SOL     OW34414   3.126   2.935   0.360 -0.6548 -0.4927  0.1400
 7651SOL    HW134415   3.048   2.987   0.341  1.1542  2.2359  0.1680
 7651SOL    HW234416   3.190   2.959   0.293 -0.3895 -0.1126  0.5204
 7652SOL     OW34417   1.598   3.576   1.661 -0.2526  0.6512 -0.2242
 7652SOL    HW134418   1.533   3.505   1.649  0.5520  0.0562 -1.0861
 7652SOL    HW234419   1.542   3.632   1.715 -1.9198 -0.3106 -0.9323
 7653SOL     OW34420   1.464   4.355  16.386 -0.2843  0.2008 -0.3607
 7653SOL    HW134421   1.474   4.387  16.297 -0.0836 -0.3930 -0.5528
 7653SOL    HW234422   1.488   4.436  16.431 -3.0979  2.0275 -2.1580
 7654SOL     OW34423   1.764   2.593   8.358  0.2649  0.4176 -0.4680
 7654SOL    HW134424   1.796   2.510   8.322 -0.5152  0.0738 -0.3584
 7654SOL    HW234425   1.670   2.579   8.350  0.0149  1.6951  0.2218
 7655SOL     OW34426   0.743   2.196   8.645  0.0962 -0.1648  0.2885
 7655SOL    HW134427   0.726   2.125   8.708  0.4434 -0.5891 -0.0913
 7655SOL    HW234428   0.674   2.169   8.585 -2.1337 -1.8752  3.5778
 7656SOL     OW34429   2.141   1.200   0.939 -0.8815  0.4609  0.8103
 7656SOL    HW134430   2.197   1.248   0.878 -0.3359 -1.1385  0.0755
 7656SOL    HW234431   2.155   1.244   1.023  2.4329 -1.1915  1.0833
 7657SOL     OW34432   1.113   4.027   8.804  0.0092  0.1361  0.1809
 7657SOL    HW134433   1.029   4.067   8.784 -0.8170  0.8197  5.2540
 7657SOL    HW234434   1.130   4.061   8.892  0.6977 -3.4917  1.4473
 7658SOL     OW34435   3.074   3.630   6.772 -0.2988  0.7810  0.1936
 7658SOL    HW134436   3.054   3.706   6.826  1.4531 -0.3515  2.4499
 7658SOL    HW234437   2.984   3.600   6.756  0.2026 -1.0658  0.7492
 7659SOL     OW34438   0.641   3.038   3.754 -0.3110  0.4888 -0.3705
 7659SOL    HW134439   0.549   3.066   3.756 -0.2730  0.8990 -3.9452
 7659SOL    HW234440   0.693   3.114   3.727  0.3660 -0.0693 -0.6381
 7660SOL     OW34441   1.280   3.854   5.272 -0.0953  0.0623  0.5070
 7660SOL    HW134442   1.240   3.786   5.327 -0.1385  0.2331  0.6840
 7660SOL    HW234443   1.276   3.805   5.189 -0.2550  2.3827 -0.8572
 7661SOL     OW34444   4.351   2.974  11.335 -0.2074 -0.0603  0.3570
 7661SOL    HW134445   4.356   2.905  11.268 -0.1601  1.5831 -1.3233
 7661SOL    HW234446   4.358   2.907  11.404  0.2951 -3.0233 -2.5507
 7662SOL     OW34447   2.748   1.812   3.668 -0.6576  0.2048 -0.1346
 7662SOL    HW134448   2.675   1.756   3.641 -1.4384  1.5335 -0.8202
 7662SOL    HW234449   2.786   1.753   3.732  3.6112  0.1411 -2.7520
 7663SOL     OW34450   0.574   3.059   8.285  0.3556 -0.1474  0.1289
 7663SOL    HW134451   0.548   3.069   8.194  0.6688 -0.0661  0.0468
 7663SOL    HW234452   0.494   3.062   8.337 -0.2666  2.0492 -0.9476
 7664SOL     OW34453   3.582   2.654  16.939  0.2133 -0.2721 -0.2488
 7664SOL    HW134454   3.554   2.669  16.848 -2.6498 -0.9960  0.5198
 7664SOL    HW234455   3.654   2.591  16.935  2.4247  2.3400 -2.1305
 7665SOL     OW34456   1.452   2.820  17.570  0.6018 -0.6474  0.0607
 7665SOL    HW134457   1.458   2.876  17.493  0.0982  1.9459  1.9178
 7665SOL    HW234458   1.450   2.881  17.643  0.4185 -0.2141 -0.3074
 7666SOL     OW34459   1.461   2.659   7.513 -0.5943  0.6761 -0.0180
 7666SOL    HW134460   1.448   2.703   7.597  1.0953 -0.1505  0.6723
 7666SOL    HW234461   1.543   2.689   7.473 -0.1871 -0.1430  0.1942
 7667SOL     OW34462   0.834   4.422   1.272 -0.1162 -0.0635 -0.3430
 7667SOL    HW134463   0.792   4.393   1.353 -0.6618 -0.6988 -0.8517
 7667SOL    HW234464   0.928   4.413   1.289 -0.1439 -1.3753 -0.8442
 7668SOL     OW34465   4.141   1.846   8.993  0.4040  0.3698 -0.0883
 7668SOL    HW134466   4.057   1.828   9.036 -0.5097  0.1427 -1.9877
 7668SOL    HW234467   4.160   1.759   8.957  0.8459  1.0548 -1.5084
 7669SOL     OW34468   0.939   3.232  10.953  0.4825  0.5791 -0.1236
 7669SOL    HW134469   1.013   3.274  10.910  0.2852  0.8626 -0.1873
 7669SOL    HW234470   0.969   3.222  11.043  0.5640  1.3015 -0.0730
 7670SOL     OW34471   1.117   3.571   1.164  0.3419 -0.2171  0.1852
 7670SOL    HW134472   1.185   3.563   1.230 -1.0697 -2.1126  1.4079
 7670SOL    HW234473   1.105   3.483   1.129 -1.7322  0.3494 -0.5359
 7671SOL     OW34474   2.536   0.836   5.875  0.1287 -0.4578 -0.0331
 7671SOL    HW134475   2.503   0.876   5.955 -0.7439 -0.1105 -0.5640
 7671SOL    HW234476   2.559   0.748   5.905 -0.5744 -0.1487  1.4060
 7672SOL     OW34477   1.979   1.585   3.020  0.7633  0.0074  0.0539
 7672SOL    HW134478   1.917   1.538   3.076 -0.3948  1.0097 -0.3987
 7672SOL    HW234479   1.936   1.593   2.936 -1.6450 -1.6353  1.1305
 7673SOL     OW34480   2.948   2.501  14.589  1.3375  0.0188  0.1597
 7673SOL    HW134481   2.922   2.514  14.497  3.5314 -0.8195 -0.5704
 7673SOL    HW234482   2.927   2.409  14.606 -0.3866 -0.1560 -2.8513
 7674SOL     OW34483   4.050   0.981   4.967 -0.0165  0.5977  0.3587
 7674SOL    HW134484   4.057   0.945   5.055  0.0088 -2.1812 -0.7779
 7674SOL    HW234485   3.964   0.944   4.946  0.1631  0.5198 -0.2190
 7675SOL     OW34486   1.923   2.831   2.089  0.6211 -0.2658  0.0725
 7675SOL    HW134487   1.971   2.799   2.166  0.9835  3.2597  1.3249
 7675SOL    HW234488   1.834   2.809   2.119  0.6341 -0.1214  0.2176
 7676SOL     OW34489   2.552   1.317   3.392  0.0809  0.0634  0.3107
 7676SOL    HW134490   2.591   1.275   3.316 -0.3286  0.2998 -0.0330
 7676SOL    HW234491   2.522   1.391   3.339 -1.2981 -2.2888 -2.2061
 7677SOL     OW34492   2.879   3.626   3.172 -0.1274  0.0215  0.2063
 7677SOL    HW134493   2.789   3.648   3.196 -0.8486 -3.3290  0.5903
 7677SOL    HW234494   2.879   3.623   3.077 -1.4698  0.4881  0.1887
 7678SOL     OW34495   1.007   3.266   5.598  0.3684  0.3182 -0.7349
 7678SOL    HW134496   1.058   3.190   5.570  1.0559  0.7881 -0.7533
 7678SOL    HW234497   0.925   3.255   5.550  0.2793 -2.0705 -0.0386
 7679SOL     OW34498   0.562   0.255   4.571  0.1625 -0.6307  0.0964
 7679SOL    HW134499   0.578   0.220   4.659  0.5181 -0.9603 -0.1028
 7679SOL    HW234500   0.638   0.312   4.561 -1.2275  1.3536  0.8951
 7680SOL     OW34501   3.609   3.808   7.823 -0.0090 -0.1757 -0.3997
 7680SOL    HW134502   3.646   3.740   7.768  2.1196 -0.0465  0.8505
 7680SOL    HW234503   3.637   3.885   7.773  1.8122 -1.1524 -0.8820
 7681SOL     OW34504   0.594   2.750   1.603  0.0825 -0.0554 -0.3727
 7681SOL    HW134505   0.675   2.791   1.573  0.6679 -0.3090  0.8588
 7681SOL    HW234506   0.595   2.667   1.556 -0.6649  0.8052 -1.9207
 7682SOL     OW34507   0.806   0.978  17.586 -0.2312 -0.0520 -0.2539
 7682SOL    HW134508   0.881   1.022  17.547 -0.9425 -0.3176 -1.9312
 7682SOL    HW234509   0.752   0.976  17.506  0.6627  1.0209 -0.8904
 7683SOL     OW34510   2.828   4.567   7.485  0.4719 -0.0549  0.1502
 7683SOL    HW134511   2.739   4.552   7.519  0.4876 -0.2091  0.1266
 7683SOL    HW234512   2.835   4.501   7.416 -0.4587 -2.4089  2.2802
 7684SOL     OW34513   0.293   3.099  10.841  0.2083 -0.3682 -0.1465
 7684SOL    HW134514   0.315   3.167  10.904 -0.7776 -0.5970  0.4462
 7684SOL    HW234515   0.322   3.142  10.760  1.9051 -0.4278  0.4243
 7685SOL     OW34516   4.325   2.402   6.123  0.4125 -0.1637 -0.0813
 7685SOL    HW134517   4.237   2.406   6.085  0.9961  0.4774 -1.3718
 7685SOL    HW234518   4.371   2.464   6.067  1.7687  1.0732  2.4376
 7686SOL     OW34519   2.743   2.871   1.943  0.4911 -0.4227  0.0589
 7686SOL    HW134520   2.693   2.846   2.021 -0.2518 -0.1899 -0.3419
 7686SOL    HW234521   2.771   2.786   1.908  1.2040  0.4620 -1.5339
 7687SOL     OW34522   1.434   2.925  14.094 -0.2091  0.0161 -0.4423
 7687SOL    HW134523   1.441   2.948  14.187  0.8014 -0.4293 -0.4158
 7687SOL    HW234524   1.481   2.842  14.090  1.8211  1.2059 -0.8520
 7688SOL     OW34525   2.885   2.284   5.831  0.1151 -0.3576 -0.1262
 7688SOL    HW134526   2.869   2.253   5.742  2.6820  3.6947 -2.0474
 7688SOL    HW234527   2.964   2.230   5.839  0.0439  0.2170  4.2435
 7689SOL     OW34528   1.755   3.594  15.681  0.4087  0.5026 -0.4839
 7689SOL    HW134529   1.815   3.578  15.608  0.0272 -1.6440 -0.3182
 7689SOL    HW234530   1.819   3.622  15.748 -0.8233 -2.5633  1.9815
 7690SOL     OW34531   1.058   0.352   4.431  0.7186 -0.1758  0.4686
 7690SOL    HW134532   1.038   0.416   4.363 -1.2490  0.6361  1.8112
 7690SOL    HW234533   1.144   0.319   4.406 -0.0968 -1.7139 -0.3133
 7691SOL     OW34534   0.994   3.571   4.065  0.3242 -0.0036  0.3344
 7691SOL    HW134535   0.968   3.506   4.131 -5.3789  1.0093 -0.8941
 7691SOL    HW234536   0.998   3.652   4.117  2.1583  0.5837 -0.7301
 7692SOL     OW34537   0.157   2.702   1.114 -0.0604  0.4973 -0.2847
 7692SOL    HW134538   0.142   2.752   1.194 -0.7376  1.0428 -0.7558
 7692SOL    HW234539   0.243   2.738   1.090  0.9510 -0.8680  1.2681
 7693SOL     OW34540   0.174   0.920   1.369  0.4256  0.2211 -0.6331
 7693SOL    HW134541   0.215   0.984   1.310 -0.7836  0.2323 -1.4774
 7693SOL    HW234542   0.122   0.871   1.305  0.1937 -0.4889  0.1119
 7694SOL     OW34543   1.394   0.832   9.611 -0.0992  0.3275  0.0766
 7694SOL    HW134544   1.391   0.923   9.583  1.4837  0.2703 -0.2825
 7694SOL    HW234545   1.407   0.832   9.706  0.5168 -0.9906 -0.0071
 7695SOL     OW34546   4.422   3.429   4.264  0.1252  0.0746 -0.3976
 7695SOL    HW134547   4.491   3.366   4.283  0.1641 -0.6547 -3.0576
 7695SOL    HW234548   4.358   3.414   4.334 -1.8895 -0.0602 -2.2354
 7696SOL     OW34549   1.918   1.868  10.152  0.2570  0.2969  0.4598
 7696SOL    HW134550   1.852   1.936  10.166 -0.3993 -0.4447  0.9759
 7696SOL    HW234551   1.885   1.824  10.073  0.9994  0.4988  0.0359
 7697SOL     OW34552   2.321   2.370   1.408  0.3117 -0.1722  0.3569
 7697SOL    HW134553   2.371   2.383   1.488 -2.8186  0.1362  2.2399
 7697SOL    HW234554   2.233   2.383   1.441 -0.2988 -2.9280 -0.1621
 7698SOL     OW34555   2.907   1.816   9.262  0.3428 -0.1133 -0.1838
 7698SOL    HW134556   2.895   1.824   9.168 -1.2215 -0.4380 -0.0118
 7698SOL    HW234557   3.000   1.796   9.272  0.4245 -0.6067 -1.8931
 7699SOL     OW34558   4.010   0.012   5.491  0.3687  0.0548  0.3714
 7699SOL    HW134559   4.075   0.057   5.437  1.4919 -0.3218  1.3978
 7699SOL    HW234560   4.062   4.673   5.537  0.3180 -1.9963 -2.5237
 7700SOL     OW34561   3.186   2.439   5.553 -0.2911  0.3008  0.2909
 7700SOL    HW134562   3.229   2.433   5.468  1.6429  1.6324  1.1737
 7700SOL    HW234563   3.094   2.465   5.543 -0.2425  0.2086 -0.3951
 7701SOL     OW34564   1.620   4.580   2.642 -0.7940  0.4622 -0.5396
 7701SOL    HW134565   1.592   4.672   2.646 -1.5169  0.2922 -1.6786
 7701SOL    HW234566   1.652   4.558   2.730 -0.0606  0.9964 -0.6735
 7702SOL     OW34567   4.335   1.259   8.001  0.0757 -0.3110 -0.1112
 7702SOL    HW134568   4.352   1.190   7.937 -1.9790 -2.4197  1.6777
 7702SOL    HW234569   4.387   1.332   7.966  0.6090 -0.7182 -0.1653
 7703SOL     OW34570   2.182   2.622   3.434 -0.2719  0.0053  0.0496
 7703SOL    HW134571   2.217   2.667   3.510 -0.8174  0.8954 -0.2222
 7703SOL    HW234572   2.220   2.671   3.360  0.7250  0.2970  0.7671
 7704SOL     OW34573   0.493   3.771  11.817  0.8438 -0.0048  0.3109
 7704SOL    HW134574   0.530   3.770  11.729 -1.0829 -0.4569 -0.4792
 7704SOL    HW234575   0.408   3.811  11.801  0.3764  0.1096  3.0650
 7705SOL     OW34576   3.211   0.184   6.611  0.7096 -0.2453  0.2988
 7705SOL    HW134577   3.290   0.130   6.606 -0.1529 -1.3908 -0.8992
 7705SOL    HW234578   3.247   0.268   6.639  1.7345 -0.9222  1.0364
 7706SOL     OW34579   2.544   0.073  13.149  0.1130 -0.2912 -0.4449
 7706SOL    HW134580   2.526   4.710  13.123  0.1558 -0.1176 -1.0823
 7706SOL    HW234581   2.471   0.127  13.122 -0.7722 -0.8795  0.7674
 7707SOL     OW34582   4.285   1.841   7.555 -0.1677  0.1524  0.1193
 7707SOL    HW134583   4.321   1.775   7.495 -0.1021 -0.4036  0.7598
 7707SOL    HW234584   4.199   1.798   7.557 -0.3739  0.6095  1.2285
 7708SOL     OW34585   0.414   2.322   4.541  0.4398 -0.1195  0.3904
 7708SOL    HW134586   0.450   2.411   4.541  1.5181 -0.5560 -0.4383
 7708SOL    HW234587   0.337   2.340   4.594  0.0979  1.0641 -0.5195
 7709SOL     OW34588   1.542   0.504  11.476  0.0556 -0.1179  0.3061
 7709SOL    HW134589   1.529   0.410  11.487  2.9678 -0.5273  0.1244
 7709SOL    HW234590   1.526   0.510  11.382  0.1854 -0.6143  0.2529
 7710SOL     OW34591   3.700   0.637   3.759 -0.0363  0.4948 -0.5057
 7710SOL    HW134592   3.688   0.684   3.841  0.2128 -2.7365  1.4024
 7710SOL    HW234593   3.644   0.684   3.698  0.7359 -0.8691 -2.2804
 7711SOL     OW34594   4.067   1.567   1.980  0.1011  0.3701 -0.1350
 7711SOL    HW134595   4.010   1.527   2.046  2.9594  0.6375  2.5343
 7711SOL    HW234596   4.145   1.585   2.033 -0.2704 -1.2511  1.0052
 7712SOL     OW34597   0.016   3.148  15.350  0.0029 -0.0208 -0.3792
 7712SOL    HW134598   0.041   3.119  15.262  0.1056  0.0453 -0.3716
 7712SOL    HW234599   4.669   3.089  15.365  0.5804 -0.9751 -1.2792
 7713SOL     OW34600   4.094   0.719   7.909 -0.3789  0.4708  0.1409
 7713SOL    HW134601   4.097   0.796   7.966 -1.2250  2.3347 -2.3327
 7713SOL    HW234602   4.186   0.705   7.887 -1.2774  0.3784 -3.4550
 7714SOL     OW34603   1.183   0.292  14.357 -0.0782  0.0259  0.2206
 7714SOL    HW134604   1.197   0.303  14.451  0.2700 -0.4053  0.2200
 7714SOL    HW234605   1.237   0.215  14.337  0.7469  0.7000 -0.1178
 7715SOL     OW34606   2.934   4.390   3.554  0.1633 -0.6206  0.1540
 7715SOL    HW134607   3.016   4.403   3.601 -0.7362  1.7843  1.0706
 7715SOL    HW234608   2.901   4.343   3.630 -0.7701  0.0758  0.1836
 7716SOL     OW34609   4.242   4.374   7.238  0.0133 -0.0712  0.1051
 7716SOL    HW134610   4.195   4.421   7.307  0.8989  1.7375 -0.5164
 7716SOL    HW234611   4.247   4.441   7.169  0.4784 -0.7424 -0.5140
 7717SOL     OW34612   1.974   2.555   5.993  0.0202  0.1825  0.3163
 7717SOL    HW134613   2.051   2.612   5.990 -0.0320  0.4322  3.1126
 7717SOL    HW234614   1.993   2.495   6.065 -2.7888  0.9360  1.7026
 7718SOL     OW34615   4.170   4.620  10.382  0.5128 -0.4655  0.0811
 7718SOL    HW134616   4.168   4.659  10.470  0.1807  1.0432 -0.5892
 7718SOL    HW234617   4.143   4.701  10.339 -2.8978 -1.3498  0.5578
 7719SOL     OW34618   2.541   3.283   8.662  0.1435 -0.0274 -0.6088
 7719SOL    HW134619   2.572   3.192   8.667  0.1707  0.0441  0.4772
 7719SOL    HW234620   2.623   3.332   8.663 -0.4492  0.9828 -1.3745
 7720SOL     OW34621   1.329   3.002   2.867  0.3740  0.2804  0.7211
 7720SOL    HW134622   1.261   3.015   2.933 -2.4845 -2.8309 -1.5764
 7720SOL    HW234623   1.324   2.907   2.853 -2.4729  0.8102 -1.9974
 7721SOL     OW34624   3.312   2.709  16.195  0.8723  0.2743 -0.1466
 7721SOL    HW134625   3.253   2.733  16.124 -1.0029 -1.2456  0.8970
 7721SOL    HW234626   3.389   2.755  16.162 -1.3912  3.3338 -1.1258
 7722SOL     OW34627   4.447   2.307   7.839  0.1136  0.3670  0.3338
 7722SOL    HW134628   4.405   2.393   7.852 -0.0459  0.1569  1.1821
 7722SOL    HW234629   4.429   2.298   7.745 -2.3871 -0.1766  0.8501
 7723SOL     OW34630   3.283   1.370   4.218 -0.5988  0.4107  0.4831
 7723SOL    HW134631   3.351   1.331   4.273 -0.0190 -2.3864 -2.2370
 7723SOL    HW234632   3.267   1.293   4.163 -2.8369  1.2083  0.0190
 7724SOL     OW34633   4.168   4.575  14.135  0.3895  0.3223 -0.3630
 7724SOL    HW134634   4.136   4.623  14.211  0.4808  0.7799 -0.6095
 7724SOL    HW234635   4.105   4.503  14.131  1.4465 -0.4708 -2.9554
 7725SOL     OW34636   0.405   0.078  11.162  0.7530 -0.5956  0.0667
 7725SOL    HW134637   0.483   0.061  11.214  1.7164 -0.4703 -1.3211
 7725SOL    HW234638   0.418   0.154  11.106  1.5393  0.5417  1.8177
 7726SOL     OW34639   1.130   1.309   9.597 -0.2389  0.3748  0.4756
 7726SOL    HW134640   1.114   1.264   9.680  2.3424  0.1352  0.8494
 7726SOL    HW234641   1.158   1.389   9.642 -0.0277  0.7921 -0.4014
 7727SOL     OW34642   4.566   0.352  15.326 -0.1262  0.7898  0.2041
 7727SOL    HW134643   4.571   0.259  15.349 -1.7153  0.5129 -0.5079
 7727SOL    HW234644   4.569   0.351  15.230 -1.6950 -0.8285  0.1768
 7728SOL     OW34645   3.476   0.180  14.550  0.1644  0.3082  0.0307
 7728SOL    HW134646   3.444   0.252  14.605  0.9223 -0.6373  1.6949
 7728SOL    HW234647   3.452   0.111  14.612  3.2756  0.9058  1.8748
 7729SOL     OW34648   1.654   4.197  10.072 -0.6131  0.2017 -0.5183
 7729SOL    HW134649   1.565   4.225  10.050  0.7690  3.7227 -1.5535
 7729SOL    HW234650   1.673   4.111  10.034 -0.2208 -0.6268  1.5647
 7730SOL     OW34651   0.374   1.873   6.583  0.0409  0.2121  0.5720
 7730SOL    HW134652   0.401   1.822   6.659 -0.6202 -0.8826  0.0676
 7730SOL    HW234653   0.343   1.947   6.634 -0.8409  1.4532 -1.7635
 7731SOL     OW34654   1.333   4.612  10.133 -0.5000 -0.3659  0.2414
 7731SOL    HW134655   1.300   4.585  10.218 -0.1351  1.4872  0.9657
 7731SOL    HW234656   1.371   4.529  10.103 -1.3751 -1.3337  1.8139
 7732SOL     OW34657   1.093   1.558   2.730 -0.2121  0.3154 -0.0287
 7732SOL    HW134658   1.145   1.534   2.654 -1.2368  0.9420 -0.9296
 7732SOL    HW234659   1.022   1.613   2.697 -0.3291 -0.3048 -0.7916
 7733SOL     OW34660   1.443   3.930  10.133 -0.0441  0.2507  0.5326
 7733SOL    HW134661   1.430   3.850  10.082 -0.3608  1.2991 -1.0101
 7733SOL    HW234662   1.511   3.969  10.078 -0.0004  1.2654  1.2969
 7734SOL     OW34663   3.351   1.970   3.991 -0.5570 -0.5360 -0.2679
 7734SOL    HW134664   3.440   1.991   3.962 -0.1315 -1.0988  0.6412
 7734SOL    HW234665   3.364   1.914   4.067 -0.1037 -2.1046 -1.4966
 7735SOL     OW34666   3.437   0.371   9.153 -0.1148 -0.1124  0.3622
 7735SOL    HW134667   3.439   0.298   9.215  0.9796 -0.6805 -0.3308
 7735SOL    HW234668   3.485   0.338   9.077 -0.6538 -0.7179  0.2886
 7736SOL     OW34669   4.039   4.518   6.220 -0.0746 -0.6070  0.0836
 7736SOL    HW134670   3.988   4.505   6.300  0.1148 -0.0298  0.2963
 7736SOL    HW234671   4.042   4.613   6.232 -2.9896 -0.4351 -0.5250
 7737SOL     OW34672   3.591   1.314  11.966 -0.6385  0.2940  0.1648
 7737SOL    HW134673   3.625   1.397  12.000  0.3678  1.3602 -3.4993
 7737SOL    HW234674   3.547   1.339  11.885  0.5807 -0.5816 -0.7595
 7738SOL     OW34675   0.314   1.791   4.249 -0.2704  0.5942  0.6129
 7738SOL    HW134676   0.391   1.776   4.303  1.7899  2.4476 -1.8340
 7738SOL    HW234677   0.345   1.793   4.159 -1.3897 -0.1609  0.2087
 7739SOL     OW34678   1.214   2.124   0.662 -0.4331  0.7648 -0.5975
 7739SOL    HW134679   1.268   2.156   0.590 -0.0162 -0.1424 -0.6938
 7739SOL    HW234680   1.269   2.046   0.674 -1.1949  0.5526  1.4909
 7740SOL     OW34681   3.163   1.355   3.320 -0.2009  0.5545 -0.0588
 7740SOL    HW134682   3.121   1.413   3.256 -0.5892 -0.3671 -0.6472
 7740SOL    HW234683   3.093   1.357   3.385 -0.4299 -0.9113 -0.2585
 7741SOL     OW34684   2.320   1.316  11.412  0.1003 -0.2351 -0.1075
 7741SOL    HW134685   2.280   1.352  11.491  0.1011 -1.9689  0.6775
 7741SOL    HW234686   2.245   1.309  11.353  1.3142 -1.5158 -1.5095
 7742SOL     OW34687   2.450   2.629   6.517 -0.4067 -0.3269 -0.5022
 7742SOL    HW134688   2.429   2.621   6.610  1.3545 -2.1465 -0.2818
 7742SOL    HW234689   2.493   2.714   6.524  1.4170 -1.3220  0.2412
 7743SOL     OW34690   2.544   3.660  11.275  0.3287 -0.0064  0.1721
 7743SOL    HW134691   2.494   3.695  11.348  2.4322  2.3133  0.5199
 7743SOL    HW234692   2.635   3.672  11.301  0.1346 -1.5285  1.5637
 7744SOL     OW34693   0.823   2.510   8.650  0.1879  0.8833 -0.0256
 7744SOL    HW134694   0.892   2.449   8.625  0.5599  0.3114  2.3945
 7744SOL    HW234695   0.843   2.510   8.744  1.8593 -0.6761 -0.3940
 7745SOL     OW34696   3.115   0.883   0.128  0.2318 -0.3141  0.4597
 7745SOL    HW134697   3.091   0.928   0.209 -2.3582 -2.8732  1.0976
 7745SOL    HW234698   3.063   0.802   0.127  0.9701 -0.7762 -0.7015
 7746SOL     OW34699   3.004   0.467   3.717 -0.4193  0.4712 -0.8778
 7746SOL    HW134700   3.057   0.515   3.654  0.0777  0.5906 -0.3640
 7746SOL    HW234701   3.049   0.385   3.735  1.2498  1.1346 -2.0665
 7747SOL     OW34702   2.438   2.529   5.647 -0.2756  0.0515 -0.2998
 7747SOL    HW134703   2.484   2.452   5.682 -0.6268  0.6980  1.5656
 7747SOL    HW234704   2.361   2.487   5.607 -0.7687  0.0256  0.6855
 7748SOL     OW34705   3.656   1.052   8.204 -0.3259 -0.2089 -0.1569
 7748SOL    HW134706   3.631   1.132   8.158  0.1407 -0.2900 -0.5508
 7748SOL    HW234707   3.660   0.991   8.131 -2.1993 -0.4083 -0.1053
 7749SOL     OW34708   0.953   0.691  14.229 -0.1238  0.1816 -0.4328
 7749SOL    HW134709   0.873   0.639  14.222  1.4483 -2.6043  2.3379
 7749SOL    HW234710   0.940   0.746  14.306 -0.2017 -0.3870 -0.0401
 7750SOL     OW34711   3.369   4.574  16.726 -0.1651  0.0941 -0.1373
 7750SOL    HW134712   3.366   4.483  16.696 -0.3864  0.4212 -1.1266
 7750SOL    HW234713   3.369   4.627  16.646  0.7857 -0.4183 -0.4843
 7751SOL     OW34714   2.881   3.946  16.156 -0.1106 -0.3290  0.2523
 7751SOL    HW134715   2.787   3.937  16.173 -0.3153  0.6965 -0.3303
 7751SOL    HW234716   2.891   3.996  16.075 -1.4328 -1.8527 -0.8562
 7752SOL     OW34717   4.668   2.379   8.485  0.1505 -0.2563 -0.3836
 7752SOL    HW134718   0.028   2.411   8.459 -0.6481 -0.0092 -2.7659
 7752SOL    HW234719   4.618   2.460   8.489 -0.9174 -0.8236 -2.2993
 7753SOL     OW34720   0.197   2.625   1.714 -1.0335 -0.2947  0.0705
 7753SOL    HW134721   0.259   2.692   1.683  0.1165 -1.1997  0.4439
 7753SOL    HW234722   0.235   2.547   1.674 -1.9213 -0.4522 -0.4735
 7754SOL     OW34723   0.924   1.149   9.534 -0.2373 -0.3273 -0.0104
 7754SOL    HW134724   0.975   1.077   9.496 -2.0290 -0.8704 -1.3901
 7754SOL    HW234725   0.995   1.212   9.540 -3.4101  3.2844 -0.7648
 7755SOL     OW34726   2.139   0.222  12.193 -0.7755 -0.0395  0.0215
 7755SOL    HW134727   2.181   0.173  12.123  0.1011 -0.5303  0.9018
 7755SOL    HW234728   2.087   0.153  12.234 -0.3126 -1.1491 -1.2818
 7756SOL     OW34729   1.034   2.166  12.804  0.2761  0.3298 -0.2768
 7756SOL    HW134730   1.115   2.198  12.765  0.2464  1.0144  0.2324
 7756SOL    HW234731   1.067   2.110  12.875  0.4877 -1.4923 -1.8156
 7757SOL     OW34732   0.113   3.809  14.739  0.5287  0.3779  0.2381
 7757SOL    HW134733   0.080   3.798  14.829  1.2359  0.7190  0.5355
 7757SOL    HW234734   0.205   3.794  14.760  0.4187 -0.7278 -0.0676
 7758SOL     OW34735   1.927   0.810  12.313 -0.2843  0.1317 -0.2571
 7758SOL    HW134736   1.893   0.723  12.333 -2.5477  0.6183 -2.0375
 7758SOL    HW234737   2.021   0.798  12.328 -0.3499  2.0906  1.8733
 7759SOL     OW34738   2.903   3.928   4.295  0.0563 -0.4908 -0.0403
 7759SOL    HW134739   2.917   3.841   4.258 -0.5001 -1.0176  0.9766
 7759SOL    HW234740   2.868   3.974   4.219 -1.2172  0.4931  1.1409
 7760SOL     OW34741   1.988   0.159   0.438 -0.5153 -0.0762 -0.2752
 7760SOL    HW134742   2.023   0.248   0.442 -0.9663  0.1252 -0.7333
 7760SOL    HW234743   1.924   0.171   0.368 -0.7605  0.6587  0.0745
 7761SOL     OW34744   1.283   1.099   2.879  0.2482 -0.0665 -0.2955
 7761SOL    HW134745   1.303   1.183   2.836  1.2148  0.4017  1.0771
 7761SOL    HW234746   1.266   1.053   2.797  1.1046  0.2833 -0.6768
 7762SOL     OW34747   1.288   2.459   3.034 -0.0729 -0.1092  0.5419
 7762SOL    HW134748   1.281   2.446   3.129  0.0003  1.6108  0.7972
 7762SOL    HW234749   1.372   2.414   3.022 -0.6538 -1.5079  1.6769
 7763SOL     OW34750   4.671   2.124   4.001  0.1455  0.1977  0.3235
 7763SOL    HW134751   4.687   2.218   4.012  1.1168 -0.1569  1.9517
 7763SOL    HW234752   0.018   2.088   4.049  0.6698  0.4450 -0.2879
 7764SOL     OW34753   4.193   0.245  13.731 -0.2607 -0.4425 -0.3501
 7764SOL    HW134754   4.143   0.309  13.681  0.5385  0.2617 -0.2577
 7764SOL    HW234755   4.153   0.170  13.688 -3.0555  0.8805 -0.0252
 7765SOL     OW34756   1.034   4.530   6.370  0.0445  0.4476  0.3675
 7765SOL    HW134757   0.943   4.555   6.383 -0.0314 -0.1280  0.9469
 7765SOL    HW234758   1.025   4.462   6.303 -1.6158  2.0240 -0.9805
 7766SOL     OW34759   3.269   1.014   0.753  0.5800 -0.1405 -0.2335
 7766SOL    HW134760   3.200   0.986   0.812  1.2505 -0.9441  0.1790
 7766SOL    HW234761   3.266   0.945   0.686 -0.5215  0.4760 -0.8128
 7767SOL     OW34762   3.336   3.085   6.231  0.2955 -0.1618  0.0985
 7767SOL    HW134763   3.312   3.153   6.295  0.1254  0.0146 -0.1519
 7767SOL    HW234764   3.296   3.005   6.264  1.8432 -0.5184  1.1453
 7768SOL     OW34765   4.052   4.549   7.682 -0.1996 -0.2324 -0.5671
 7768SOL    HW134766   4.085   4.542   7.772  1.8823  0.2727 -1.3136
 7768SOL    HW234767   3.969   4.504   7.698 -0.1472  0.5474  2.0117
 7769SOL     OW34768   4.222   2.167  10.643 -0.0375  0.2866  0.2173
 7769SOL    HW134769   4.164   2.185  10.717 -0.9483 -0.0728 -0.4166
 7769SOL    HW234770   4.162   2.172  10.568  0.0529 -0.6199  0.0862
 7770SOL     OW34771   2.472   0.268   1.383  0.2859 -0.2703  0.1450
 7770SOL    HW134772   2.527   0.259   1.460  0.6733  1.0270  0.0243
 7770SOL    HW234773   2.444   0.360   1.392  1.9081  0.4442 -2.0372
 7771SOL     OW34774   0.538   4.032   3.510  0.2024 -0.5839  0.5210
 7771SOL    HW134775   0.543   3.989   3.424  1.1694  0.0962  0.2368
 7771SOL    HW234776   0.629   4.062   3.507  0.3567 -1.2388 -1.5928
 7772SOL     OW34777   4.117   2.664  15.210 -0.2105  0.6167 -0.0891
 7772SOL    HW134778   4.022   2.675  15.212 -0.1484  1.2825 -0.6971
 7772SOL    HW234779   4.115   2.572  15.186  0.7272  0.5299  0.1831
 7773SOL     OW34780   3.172   2.083   1.085  0.0538 -0.6100 -0.5166
 7773SOL    HW134781   3.234   2.026   1.130 -2.2433 -2.1226  0.7469
 7773SOL    HW234782   3.146   2.131   1.163 -1.0962 -0.6986 -0.8497
 7774SOL     OW34783   3.071   3.270  17.465 -0.6808  0.1546  0.3593
 7774SOL    HW134784   3.158   3.306  17.448 -1.4805  2.0105  0.1901
 7774SOL    HW234785   3.021   3.314  17.397  0.5323 -1.7314 -1.7318
 7775SOL     OW34786   1.755   3.561   3.571 -0.4218 -0.3061 -0.1223
 7775SOL    HW134787   1.840   3.599   3.548 -0.4096 -0.3718 -0.1852
 7775SOL    HW234788   1.774   3.468   3.582  2.8439  0.0645 -2.5956
 7776SOL     OW34789   3.391   3.789  17.247  0.0975  0.3012  0.1330
 7776SOL    HW134790   3.431   3.846  17.181 -2.2038 -2.1953 -3.4357
 7776SOL    HW234791   3.438   3.818  17.325  1.4243 -1.1941 -0.1149
 7777SOL     OW34792   1.493   1.111   5.239 -0.2364 -0.3000  0.0988
 7777SOL    HW134793   1.425   1.176   5.221  1.8139  2.3228  1.7440
 7777SOL    HW234794   1.547   1.119   5.161  0.8851 -3.1527  0.5750
 7778SOL     OW34795   4.503   1.825   4.086 -0.1062  0.0901 -0.5608
 7778SOL    HW134796   4.544   1.873   4.014  0.5405 -0.2837 -0.4389
 7778SOL    HW234797   4.410   1.838   4.067 -0.4392 -2.3948 -0.7107
 7779SOL     OW34798   0.816   1.330   3.567  0.1830 -0.5310  0.6301
 7779SOL    HW134799   0.787   1.339   3.476 -1.2360  0.6357  1.2042
 7779SOL    HW234800   0.752   1.377   3.621 -0.9277  0.8286 -1.8418
 7780SOL     OW34801   2.895   3.029   2.568  0.1058 -0.0832  0.2344
 7780SOL    HW134802   2.878   3.070   2.484  2.5014 -1.1226 -0.7376
 7780SOL    HW234803   2.985   3.053   2.587  0.1781  0.8787 -1.3676
 7781SOL     OW34804   1.807   3.777   6.891  0.0040  0.4035  0.6494
 7781SOL    HW134805   1.785   3.776   6.984 -0.6618  1.6907  0.5042
 7781SOL    HW234806   1.808   3.685   6.865 -0.1310 -0.3834  3.4095
 7782SOL     OW34807   1.097   0.320   8.486 -0.2075  0.1532  0.0987
 7782SOL    HW134808   1.054   0.365   8.559  1.9637  0.7069  1.0424
 7782SOL    HW234809   1.048   0.238   8.483 -1.3185  0.8135  0.0441
 7783SOL     OW34810   0.866   2.916   3.877 -0.1272 -0.4343  0.4431
 7783SOL    HW134811   0.809   2.992   3.883 -0.2343 -0.6430  1.9537
 7783SOL    HW234812   0.947   2.944   3.833 -0.8371  2.9322  1.3092
 7784SOL     OW34813   2.484   2.175   4.772 -0.1721  1.0909 -0.7064
 7784SOL    HW134814   2.575   2.199   4.754 -0.1701  2.9066  1.8084
 7784SOL    HW234815   2.503   2.117   4.846 -1.6728 -0.1320 -1.2808
 7785SOL     OW34816   3.003   4.664   0.089 -0.0468 -0.3629  0.0980
 7785SOL    HW134817   2.956   4.608   0.151 -0.6610 -0.2958 -0.3105
 7785SOL    HW234818   3.038   4.604   0.023  1.3865  0.4311  0.1376
 7786SOL     OW34819   0.574   0.695   2.832  0.0751 -0.2389  0.7694
 7786SOL    HW134820   0.667   0.710   2.844  0.5809 -0.6332 -2.5278
 7786SOL    HW234821   0.542   0.785   2.822 -0.6149 -0.4150  1.3641
 7787SOL     OW34822   2.410   1.844   6.579 -0.3153  0.2860 -0.0022
 7787SOL    HW134823   2.390   1.931   6.545  0.6852  0.4268 -0.2274
 7787SOL    HW234824   2.379   1.849   6.670 -2.0520 -1.4910 -0.4976
 7788SOL     OW34825   3.805   4.203  14.609  0.1511  0.3739 -0.8171
 7788SOL    HW134826   3.885   4.257  14.606 -0.3126  1.1573  1.0504
 7788SOL    HW234827   3.828   4.134  14.671  0.6894 -0.1232 -1.5713
 7789SOL     OW34828   0.084   2.598   5.485 -0.6964 -0.2068  0.0988
 7789SOL    HW134829   0.123   2.519   5.523  1.8846  0.9159 -0.2454
 7789SOL    HW234830   0.154   2.636   5.432 -0.6549  0.1358  0.4032
 7790SOL     OW34831   3.974   1.874   4.719 -0.0919 -0.4753  0.4712
 7790SOL    HW134832   3.940   1.786   4.709  0.4211 -0.4106 -1.8595
 7790SOL    HW234833   3.994   1.893   4.627 -1.2844 -2.5445 -0.2175
 7791SOL     OW34834   3.525   2.115  10.635 -0.2920 -0.4180  0.2391
 7791SOL    HW134835   3.524   2.020  10.635  0.7340 -0.4554 -3.3577
 7791SOL    HW234836   3.438   2.118  10.675 -0.0381  0.2429  0.7443
 7792SOL     OW34837   3.869   2.404   1.564 -0.4428  0.7535 -0.0405
 7792SOL    HW134838   3.896   2.325   1.518 -0.4246 -0.4237  2.0068
 7792SOL    HW234839   3.953   2.448   1.573  0.2305 -1.3347  3.4886
 7793SOL     OW34840   1.489   3.126   6.142 -0.2377  0.0594  0.1083
 7793SOL    HW134841   1.530   3.211   6.157 -0.2103  0.0440  0.1214
 7793SOL    HW234842   1.529   3.067   6.207 -0.2581 -0.1977 -0.1099
 7794SOL     OW34843   4.074   4.429  12.241 -0.2280 -0.3007 -0.0840
 7794SOL    HW134844   4.115   4.453  12.157 -1.5830 -1.3046 -1.0257
 7794SOL    HW234845   4.145   4.455  12.299 -0.1293  2.6282 -1.4747
 7795SOL     OW34846   4.209   3.662   8.416  0.6137  0.8745  0.2513
 7795SOL    HW134847   4.146   3.639   8.347  1.7770 -0.4712 -0.3836
 7795SOL    HW234848   4.193   3.585   8.471 -1.8589  0.1923 -1.4320
 7796SOL     OW34849   1.666   3.077  13.294 -0.0412 -0.2459 -0.4293
 7796SOL    HW134850   1.585   3.050  13.338 -0.0395  0.1102 -0.2046
 7796SOL    HW234851   1.657   3.025  13.215 -3.8241 -2.1882  1.2525
 7797SOL     OW34852   3.563   2.534  10.707  0.1619 -0.8701 -0.3932
 7797SOL    HW134853   3.601   2.482  10.637  0.8525 -0.2346 -0.4851
 7797SOL    HW234854   3.608   2.618  10.699  0.5309 -1.1163 -0.8643
 7798SOL     OW34855   3.550   2.163   6.584 -0.6737  0.4120  0.0932
 7798SOL    HW134856   3.628   2.119   6.552 -0.9411  1.1044 -1.5318
 7798SOL    HW234857   3.533   2.216   6.505  1.3942  0.7164 -0.1299
 7799SOL     OW34858   1.708   2.853   7.743 -0.3934 -0.2145 -0.4468
 7799SOL    HW134859   1.652   2.930   7.743  0.3241  0.3025 -0.5141
 7799SOL    HW234860   1.791   2.900   7.751  0.3356 -1.3686 -1.3068
 7800SOL     OW34861   0.565   4.562  11.166  0.1563  0.0106 -0.1399
 7800SOL    HW134862   0.621   4.555  11.244  0.5655  0.5216 -0.3886
 7800SOL    HW234863   0.533   4.476  11.136  0.8848 -0.2152 -0.2905
 7801SOL     OW34864   3.522   1.827   4.143  0.2748  0.2633  0.2257
 7801SOL    HW134865   3.601   1.825   4.090  0.5979 -0.4888  0.7281
 7801SOL    HW234866   3.501   1.734   4.140  0.7818  0.2641 -2.7564
 7802SOL     OW34867   3.393   1.839   8.340 -0.2187  0.9339 -0.4975
 7802SOL    HW134868   3.321   1.847   8.276 -1.1424 -3.1670  0.0515
 7802SOL    HW234869   3.466   1.802   8.290 -0.8616 -1.4276  0.3472
 7803SOL     OW34870   0.063   2.883   0.545  0.4412 -0.4243 -0.3367
 7803SOL    HW134871   4.710   2.931   0.567 -1.3631 -1.8092 -3.7763
 7803SOL    HW234872   0.022   2.804   0.510 -1.8761  0.8431 -0.5078
 7804SOL     OW34873   2.775   1.168  13.602 -0.1658 -0.1618  0.0355
 7804SOL    HW134874   2.757   1.188  13.510  0.0589  0.6780  0.1754
 7804SOL    HW234875   2.869   1.149  13.599  0.1217  1.2250  0.1407
 7805SOL     OW34876   3.744   1.668   1.686 -0.2226 -0.2287  0.0791
 7805SOL    HW134877   3.649   1.672   1.676 -0.3177 -0.4567  0.9215
 7805SOL    HW234878   3.760   1.587   1.637 -0.1809  0.8526 -1.7121
 7806SOL     OW34879   2.751   0.632   1.448 -0.4442  0.3701 -0.2784
 7806SOL    HW134880   2.701   0.708   1.476 -1.1471 -0.4469  0.7144
 7806SOL    HW234881   2.804   0.676   1.382  0.6841 -0.9881 -0.2760
 7807SOL     OW34882   2.267   4.253   7.983  0.2830  0.2379 -0.7861
 7807SOL    HW134883   2.236   4.255   8.073  0.9763 -0.0434 -0.5457
 7807SOL    HW234884   2.240   4.338   7.949  1.2530  0.7110 -0.3488
 7808SOL     OW34885   1.573   2.255  12.424  0.1892  0.0594  0.5089
 7808SOL    HW134886   1.594   2.278  12.515 -2.4651  1.8906  0.6431
 7808SOL    HW234887   1.614   2.168  12.421  0.0494  0.0065  0.1349
 7809SOL     OW34888   4.505   3.519   7.756  0.3571  0.4345  0.2328
 7809SOL    HW134889   4.573   3.460   7.724  1.6845  2.7024 -1.1207
 7809SOL    HW234890   4.441   3.499   7.688  0.6741 -0.8218  0.3192
 7810SOL     OW34891   1.756   2.775   4.431  0.5666 -0.0960 -0.4586
 7810SOL    HW134892   1.720   2.706   4.486  0.2825 -0.6194 -1.3151
 7810SOL    HW234893   1.847   2.745   4.431  0.8236  0.6704  0.7232
 7811SOL     OW34894   0.203   3.033   6.123 -0.4583 -0.3391  0.6494
 7811SOL    HW134895   0.261   3.109   6.126  0.8067 -1.3439  1.2883
 7811SOL    HW234896   0.269   2.965   6.124 -0.9603 -0.8204  0.9064
 7812SOL     OW34897   0.814   4.351   5.501  0.1313  0.4567  0.4717
 7812SOL    HW134898   0.722   4.378   5.507 -0.3256 -0.7908 -0.7994
 7812SOL    HW234899   0.845   4.352   5.592  0.1542  0.1165  0.4654
 7813SOL     OW34900   0.674   2.170  15.469  0.3185  0.4837  0.0483
 7813SOL    HW134901   0.713   2.133  15.548 -0.7556 -0.4597  0.1358
 7813SOL    HW234902   0.720   2.254  15.463 -0.6871  1.1790  2.2020
 7814SOL     OW34903   0.499   1.674   5.793 -0.4960 -0.1652  0.1912
 7814SOL    HW134904   0.593   1.674   5.814 -0.4724  0.2015  0.0882
 7814SOL    HW234905   0.462   1.757   5.821  1.4493  0.8847 -0.3930
 7815SOL     OW34906   3.702   3.728   8.830 -0.2433  0.2123  0.2683
 7815SOL    HW134907   3.656   3.788   8.771  1.7094  0.4985 -0.9844
 7815SOL    HW234908   3.767   3.683   8.775  0.9853 -0.9134  2.6490
 7816SOL     OW34909   0.101   0.527  13.256  0.1036 -0.1267 -0.2755
 7816SOL    HW134910   0.051   0.506  13.177  0.1621 -0.6765 -0.1680
 7816SOL    HW234911   0.100   0.444  13.304  1.3338  0.3682  0.5958
 7817SOL     OW34912   4.495   3.290   1.287 -0.3016  0.3559 -0.6772
 7817SOL    HW134913   4.528   3.201   1.283 -1.2669 -0.0556  0.7190
 7817SOL    HW234914   4.464   3.296   1.377 -0.2238  1.7665 -0.7424
 7818SOL     OW34915   1.865   3.767   7.218 -0.0109  0.3016  0.4678
 7818SOL    HW134916   1.817   3.779   7.300  0.9464 -0.4130  1.1358
 7818SOL    HW234917   1.899   3.855   7.204  0.1469 -0.0517 -1.3381
 7819SOL     OW34918   1.479   0.300   0.846 -0.7269 -0.3815 -0.0019
 7819SOL    HW134919   1.573   0.283   0.853 -0.4160  1.8788  1.2801
 7819SOL    HW234920   1.446   0.304   0.936  2.3979 -1.8256  1.2049
 7820SOL     OW34921   1.937   2.702   1.509  0.1261 -0.0022  0.1733
 7820SOL    HW134922   1.854   2.694   1.555 -0.0699 -0.5970 -0.2722
 7820SOL    HW234923   2.004   2.692   1.577  1.1605 -1.9472 -1.0936
 7821SOL     OW34924   3.924   1.733   5.087 -0.1369 -0.5040 -0.4841
 7821SOL    HW134925   3.895   1.759   5.175  1.7603 -0.8889  0.2405
 7821SOL    HW234926   3.850   1.676   5.063  0.5030 -0.6469 -2.0884
 7822SOL     OW34927   0.683   0.838   8.395  0.1730 -0.4611  0.1594
 7822SOL    HW134928   0.771   0.809   8.370 -0.4007 -0.4917 -1.8833
 7822SOL    HW234929   0.680   0.806   8.485 -1.2232 -0.9874 -0.0760
 7823SOL     OW34930   1.480   0.912   5.004 -0.4938 -0.2512  0.5387
 7823SOL    HW134931   1.389   0.919   5.033 -0.6396 -2.5923  0.6168
 7823SOL    HW234932   1.462   0.898   4.911 -0.2563 -0.7380  0.5719
 7824SOL     OW34933   1.492   0.689   2.173  0.2144 -0.1170  0.1300
 7824SOL    HW134934   1.412   0.642   2.193 -0.0213  0.1899 -0.0888
 7824SOL    HW234935   1.555   0.678   2.244  0.4261  0.7912  0.0825
 7825SOL     OW34936   3.575   4.092   4.461 -0.0642 -0.4201 -0.5472
 7825SOL    HW134937   3.556   4.174   4.417  0.4699 -0.1253 -0.2323
 7825SOL    HW234938   3.516   4.025   4.427 -0.1451 -0.8254  0.3731
 7826SOL     OW34939   1.379   3.095  14.692  0.2090  0.1599 -0.3013
 7826SOL    HW134940   1.423   3.017  14.725 -0.6204 -0.2574 -0.1857
 7826SOL    HW234941   1.387   3.153  14.769 -0.1925  1.8705 -1.5469
 7827SOL     OW34942   3.548   2.021   4.341 -0.4761 -0.2683 -0.4551
 7827SOL    HW134943   3.549   1.957   4.270 -0.2251 -0.1612 -0.5447
 7827SOL    HW234944   3.465   2.065   4.324 -1.7581 -2.4511  0.1229
 7828SOL     OW34945   4.688   4.045   4.906  0.4190 -0.1519 -0.3702
 7828SOL    HW134946   4.617   3.982   4.911  1.3271 -1.0687  1.0248
 7828SOL    HW234947   4.691   4.078   4.996  3.2108 -0.3885 -0.3883
 7829SOL     OW34948   0.646   3.225   8.914 -0.3466  0.8260 -0.0994
 7829SOL    HW134949   0.570   3.235   8.971  1.1699  1.1378  1.8579
 7829SOL    HW234950   0.621   3.177   8.835  0.9385 -2.1691  1.3189
 7830SOL     OW34951   1.089   0.857   9.671 -0.6688 -0.3876 -0.4379
 7830SOL    HW134952   1.143   0.845   9.749 -3.0535 -2.3304  0.9023
 7830SOL    HW234953   1.008   0.899   9.698  0.3872  1.9053 -0.8257
 7831SOL     OW34954   0.600   3.669   3.798 -0.1367 -0.4481  0.2272
 7831SOL    HW134955   0.651   3.690   3.719  0.0277 -0.1760  0.4010
 7831SOL    HW234956   0.664   3.694   3.866  0.5974 -0.4063 -0.4754
 7832SOL     OW34957   1.535   2.083   1.905  0.0447  0.1008 -0.1092
 7832SOL    HW134958   1.527   2.175   1.881  1.3548  0.0844 -0.6645
 7832SOL    HW234959   1.615   2.055   1.859  0.3526 -1.9983  1.6964
 7833SOL     OW34960   0.809   3.696   6.065 -0.2732  0.4140 -0.1280
 7833SOL    HW134961   0.883   3.722   6.010 -1.2280  2.3770 -0.4758
 7833SOL    HW234962   0.761   3.644   6.000 -0.2793  0.0181  0.1944
 7834SOL     OW34963   2.995   1.677  10.597 -0.3806  0.1002 -0.3169
 7834SOL    HW134964   2.953   1.643  10.676  0.6585  0.2087  0.2862
 7834SOL    HW234965   3.051   1.747  10.629 -1.1937  0.3720  0.5186
 7835SOL     OW34966   4.378   3.821   8.828  0.2488  0.2381  0.3615
 7835SOL    HW134967   4.379   3.899   8.883  1.8240 -1.3236  2.5300
 7835SOL    HW234968   4.471   3.833   8.809 -0.3225  2.9963 -0.6735
 7836SOL     OW34969   0.544   0.203   3.683  0.2925 -0.0421 -0.4130
 7836SOL    HW134970   0.456   0.227   3.712  0.2811  0.2359 -0.6728
 7836SOL    HW234971   0.570   0.272   3.621 -2.2042  1.1052 -0.2089
 7837SOL     OW34972   0.489   4.505  15.178  0.1862 -0.1148 -0.0450
 7837SOL    HW134973   0.535   4.438  15.127 -3.4291 -2.5082 -0.1574
 7837SOL    HW234974   0.537   4.502  15.261  0.9180 -0.6753 -0.4807
 7838SOL     OW34975   4.299   3.732  13.986  0.3574  0.1093  0.3999
 7838SOL    HW134976   4.376   3.684  13.957 -1.8239 -2.2738 -1.3464
 7838SOL    HW234977   4.225   3.686  13.948  0.9582 -0.1957 -0.3794
 7839SOL     OW34978   2.671   4.454   9.978  0.8758 -0.0355 -0.1794
 7839SOL    HW134979   2.657   4.361   9.993  0.8289 -0.3975 -2.4784
 7839SOL    HW234980   2.614   4.456   9.901  0.1432  0.4749  0.3767
 7840SOL     OW34981   0.688   0.002  16.736 -0.3004  0.1654 -0.6128
 7840SOL    HW134982   0.691   4.720  16.641  0.3680  1.9688 -0.7771
 7840SOL    HW234983   0.694   4.641  16.772 -0.5884  0.6962  0.7502
 7841SOL     OW34984   1.999   4.266  14.158 -0.5974 -0.6475 -0.1150
 7841SOL    HW134985   1.905   4.251  14.166 -0.9662  1.1780 -1.0696
 7841SOL    HW234986   2.022   4.179  14.191  0.8030 -0.0769  0.4044
 7842SOL     OW34987   3.450   0.167   9.392 -0.3000  0.2874  0.2497
 7842SOL    HW134988   3.496   0.095   9.435 -0.8972  0.0927  0.5738
 7842SOL    HW234989   3.486   0.245   9.433  0.2878 -0.2527  0.7597
 7843SOL     OW34990   0.853   1.436  15.136  0.2482 -0.1185 -0.9466
 7843SOL    HW134991   0.797   1.379  15.083 -1.5208  1.5404 -0.8795
 7843SOL    HW234992   0.781   1.465  15.192 -0.6975 -0.5430 -1.9402
 7844SOL     OW34993   1.001   1.827   4.716 -0.4824  0.0949  0.3513
 7844SOL    HW134994   1.043   1.912   4.708  0.4332 -0.4376 -0.4547
 7844SOL    HW234995   1.069   1.766   4.742 -1.1801 -1.8894 -2.4315
 7845SOL     OW34996   1.435   0.298  15.217  0.1118  0.0278 -0.3852
 7845SOL    HW134997   1.422   0.225  15.277  1.0600  0.9580  0.9646
 7845SOL    HW234998   1.528   0.302  15.196  0.4934  1.0209  1.3966
 7846SOL     OW34999   3.722   1.593   4.946 -0.0085 -0.3349 -0.4823
 7846SOL    HW135000   3.676   1.625   5.023 -1.6522 -0.6602 -1.3313
 7846SOL    HW235001   3.690   1.503   4.941  2.4619 -1.1383 -2.1708
 7847SOL     OW35002   1.697   2.531   6.255  0.5759 -0.2841 -0.3179
 7847SOL    HW135003   1.691   2.614   6.302 -0.7958 -0.0676 -0.8839
 7847SOL    HW235004   1.769   2.570   6.206  1.1775  0.7078  1.3691
 7848SOL     OW35005   2.833   2.931   8.037 -0.0580  0.0349  0.0046
 7848SOL    HW135006   2.763   2.943   8.101 -0.1835 -0.2311 -0.0835
 7848SOL    HW235007   2.801   2.858   7.984 -2.5685  1.0096  0.1827
 7849SOL     OW35008   3.499   4.079   5.354  0.3230  0.1045  0.6839
 7849SOL    HW135009   3.529   3.988   5.365 -0.5049 -0.1954  0.4674
 7849SOL    HW235010   3.439   4.069   5.280  0.2220 -0.3586  0.8225
 7850SOL     OW35011   0.582   0.592   1.565  0.1407  0.5464 -0.6122
 7850SOL    HW135012   0.635   0.576   1.643 -2.0909  2.7935  1.3631
 7850SOL    HW235013   0.533   0.510   1.557  0.3384  0.6057 -2.4399
 7851SOL     OW35014   2.146   4.318   3.083  0.1608 -0.0104 -0.1657
 7851SOL    HW135015   2.166   4.350   2.995  1.6011 -2.7069 -0.7925
 7851SOL    HW235016   2.208   4.246   3.077  0.6443  0.5203 -1.7254
 7852SOL     OW35017   4.313   4.683   4.507 -0.6001 -0.4305  0.4046
 7852SOL    HW135018   4.234   0.009   4.518  0.6151  1.4510  0.0025
 7852SOL    HW235019   4.280   4.597   4.534 -1.1802 -0.6961 -1.1209
 7853SOL     OW35020   3.380   4.304   2.640  0.3995  0.1176 -0.7457
 7853SOL    HW135021   3.397   4.269   2.552  1.7313 -0.2710 -0.3405
 7853SOL    HW235022   3.454   4.266   2.686 -0.3136  0.5413  0.7261
 7854SOL     OW35023   2.072   2.054   7.589 -0.0507  0.2947  0.2562
 7854SOL    HW135024   2.087   1.959   7.584  0.5420  0.4996 -1.4447
 7854SOL    HW235025   2.147   2.092   7.545  0.1188 -3.2044 -2.4928
 7855SOL     OW35026   2.165   3.322  12.326 -0.1465  0.3720 -0.1591
 7855SOL    HW135027   2.116   3.345  12.405  1.0985 -0.1066  0.7416
 7855SOL    HW235028   2.226   3.395  12.321 -0.6782  0.8218 -0.0854
 7856SOL     OW35029   0.059   4.346  10.315 -0.2963 -0.5913  0.8144
 7856SOL    HW135030   4.726   4.400  10.264 -0.6856 -1.3597  0.4519
 7856SOL    HW235031   0.014   4.264  10.294  0.9423 -1.0834  0.1242
 7857SOL     OW35032   0.519   3.250   5.570 -0.2447  0.6152  0.0134
 7857SOL    HW135033   0.540   3.335   5.534  1.9168 -0.1106 -0.3949
 7857SOL    HW235034   0.442   3.276   5.621  0.8070  3.0736  0.3443
 7858SOL     OW35035   2.836   3.253   6.120  0.1486 -0.7647 -0.1609
 7858SOL    HW135036   2.921   3.291   6.100 -1.5574  1.9889 -2.0220
 7858SOL    HW235037   2.778   3.322   6.089 -1.6345 -0.7401  3.2161
 7859SOL     OW35038   0.169   1.633   9.005  0.2493  0.2305 -0.0953
 7859SOL    HW135039   0.229   1.568   9.043 -1.6474 -2.0775 -1.0069
 7859SOL    HW235040   0.090   1.613   9.054  0.2066  0.5907 -0.0190
 7860SOL     OW35041   3.164   4.142   5.114 -0.2277 -0.5017  0.3711
 7860SOL    HW135042   3.174   4.049   5.135 -0.5529 -1.1326 -2.2505
 7860SOL    HW235043   3.216   4.147   5.034 -1.7217 -0.5520 -0.6139
 7861SOL     OW35044   2.174   2.668   0.983 -0.5866 -0.4247 -0.1518
 7861SOL    HW135045   2.260   2.710   0.983 -1.1887  0.8386 -1.2129
 7861SOL    HW235046   2.181   2.602   0.914 -1.2393  0.7310 -1.3340
 7862SOL     OW35047   1.746   4.114   5.800 -0.2726  0.1958 -0.2121
 7862SOL    HW135048   1.707   4.180   5.857 -1.5999 -3.3179  2.9541
 7862SOL    HW235049   1.812   4.169   5.758  1.4556 -0.2507  1.9201
 7863SOL     OW35050   4.668   3.983  10.857 -0.1888 -0.3254 -0.1308
 7863SOL    HW135051   4.670   3.972  10.952 -1.9359 -1.7462 -0.2464
 7863SOL    HW235052   4.658   4.078  10.851  0.5894 -0.2816 -0.7678
 7864SOL     OW35053   0.468   1.136   1.619 -0.1350 -0.2957 -0.7162
 7864SOL    HW135054   0.396   1.083   1.585 -0.2434 -0.4612 -0.2327
 7864SOL    HW235055   0.473   1.211   1.560 -1.8582 -1.1707 -1.9794
 7865SOL     OW35056   1.144   4.405   5.021 -0.5193  0.2337  0.1072
 7865SOL    HW135057   1.216   4.343   5.028  0.2183  1.0411 -0.2288
 7865SOL    HW235058   1.086   4.366   5.086 -0.8113 -0.9187 -0.8550
 7866SOL     OW35059   1.315   2.441   6.443  0.2108  0.1421  0.2299
 7866SOL    HW135060   1.299   2.531   6.416  1.2127 -0.2266 -1.5530
 7866SOL    HW235061   1.345   2.412   6.357 -0.3021 -4.2741  1.5137
 7867SOL     OW35062   1.002   2.978  12.435 -0.7619 -0.4394 -0.3658
 7867SOL    HW135063   0.967   3.049  12.489  2.0583 -1.1302  2.3264
 7867SOL    HW235064   0.988   3.020  12.350  1.9001 -1.8155 -1.4742
 7868SOL     OW35065   3.012   0.903   0.857  0.1073 -0.6622  0.6463
 7868SOL    HW135066   2.957   0.932   0.784  0.8749 -0.9048 -0.0290
 7868SOL    HW235067   2.950   0.838   0.889  0.4549 -1.2870  0.0511
 7869SOL     OW35068   3.575   4.285   6.215 -0.2273 -0.5386 -0.4108
 7869SOL    HW135069   3.607   4.197   6.234 -0.1086 -0.4167 -0.0538
 7869SOL    HW235070   3.641   4.319   6.155  1.4054 -0.7806  1.2601
 7870SOL     OW35071   0.757   1.743   3.735 -0.0724 -0.1684 -0.2590
 7870SOL    HW135072   0.776   1.695   3.654 -0.9704 -0.1631 -0.4764
 7870SOL    HW235073   0.835   1.729   3.789 -0.9866 -0.2226  1.0399
 7871SOL     OW35074   4.500   1.579   5.652  0.3968  0.3333 -0.1563
 7871SOL    HW135075   4.522   1.503   5.599  1.3304  0.6594 -0.2270
 7871SOL    HW235076   4.405   1.569   5.644  0.4771 -1.3519  0.9884
 7872SOL     OW35077   4.430   3.539  16.406  0.1378 -0.5274  0.6392
 7872SOL    HW135078   4.335   3.529  16.419  0.3427 -1.4139  1.4019
 7872SOL    HW235079   4.469   3.508  16.487 -1.7055  1.0943  2.1514
 7873SOL     OW35080   3.224   0.041   2.826 -0.2150  0.3609  0.0969
 7873SOL    HW135081   3.188   0.129   2.812  2.2211  1.4557  0.6731
 7873SOL    HW235082   3.295   0.049   2.763 -1.3743 -2.7064 -1.5889
 7874SOL     OW35083   1.076   3.220   2.931 -0.5049  0.2218 -0.7399
 7874SOL    HW135084   1.104   3.273   2.857  1.6378  2.0462  1.3932
 7874SOL    HW235085   0.983   3.214   2.908 -0.8883 -2.7207  1.4414
 7875SOL     OW35086   3.040   1.936   0.724  0.2697 -0.1991  0.2580
 7875SOL    HW135087   3.111   1.891   0.678 -0.7348  1.5797 -2.9631
 7875SOL    HW235088   2.981   1.965   0.655  1.4366 -0.6646 -0.9297
 7876SOL     OW35089   1.034   2.829  16.719 -0.1562 -0.1672 -0.8097
 7876SOL    HW135090   0.975   2.837  16.794 -0.8977 -1.7751 -1.2227
 7876SOL    HW235091   1.015   2.914  16.681  0.3874  0.9103  1.3145
 7877SOL     OW35092   2.242   1.514   4.687 -0.5451  0.2938 -0.3823
 7877SOL    HW135093   2.199   1.552   4.764 -1.7684  0.1688 -1.0240
 7877SOL    HW235094   2.306   1.579   4.659 -0.0349  0.5028  1.2272
 7878SOL     OW35095   3.200   2.487  15.864  0.2179 -0.2963  0.7873
 7878SOL    HW135096   3.186   2.393  15.857 -2.0660  0.0079  1.3496
 7878SOL    HW235097   3.198   2.492  15.960 -0.7183 -1.0762  0.7990
 7879SOL     OW35098   3.356   1.573   6.044  0.0144  0.1687 -0.3647
 7879SOL    HW135099   3.429   1.591   5.985  0.8069 -0.5318  0.4188
 7879SOL    HW235100   3.374   1.483   6.070  1.5101  1.0465  1.6458
 7880SOL     OW35101   0.016   2.331   2.215  0.3211 -0.1409  0.2068
 7880SOL    HW135102   0.104   2.305   2.186 -0.4602 -0.3680 -1.9785
 7880SOL    HW235103   4.688   2.265   2.173  0.6216  0.2301 -0.7707
 7881SOL     OW35104   2.532   1.140   3.094 -0.3741  0.0095  0.5019
 7881SOL    HW135105   2.448   1.118   3.135 -0.9607 -0.5823 -1.0440
 7881SOL    HW235106   2.508   1.203   3.026 -2.7956  0.9023  2.1866
 7882SOL     OW35107   0.022   0.797   3.466  0.4257 -0.0259 -0.2499
 7882SOL    HW135108   0.013   0.727   3.401  2.3503  0.2467 -0.8195
 7882SOL    HW235109   4.687   0.865   3.442  1.4363  1.0773  0.2316
 7883SOL     OW35110   1.877   2.561   0.293  0.3361 -0.1851 -0.3443
 7883SOL    HW135111   1.885   2.520   0.379  0.7898 -1.6064 -1.0645
 7883SOL    HW235112   1.941   2.505   0.249  1.9034  0.7585  0.7258
 7884SOL     OW35113   4.520   3.257   6.740 -0.2209 -0.2663 -0.4755
 7884SOL    HW135114   4.595   3.197   6.731 -1.7607 -2.4300  1.2854
 7884SOL    HW235115   4.570   3.339   6.739  1.4192 -1.2383  3.9340
 7885SOL     OW35116   1.744   4.361   9.215  0.2587  0.0704 -0.6737
 7885SOL    HW135117   1.814   4.340   9.277 -0.3966 -2.0704 -0.6398
 7885SOL    HW235118   1.681   4.411   9.266  2.5267  1.2160  0.9902
 7886SOL     OW35119   0.597   3.165   0.925  0.1612 -0.3318  0.2713
 7886SOL    HW135120   0.689   3.183   0.908 -0.0014 -0.0594 -0.3250
 7886SOL    HW235121   0.581   3.099   0.858 -0.0627 -0.8690  0.8562
 7887SOL     OW35122   3.796   3.468  11.123 -0.5349  0.4714 -0.5849
 7887SOL    HW135123   3.837   3.554  11.129  1.6277 -0.5151 -1.5870
 7887SOL    HW235124   3.850   3.424  11.189 -0.8761  0.1039 -0.5472
 7888SOL     OW35125   1.664   1.669   4.083 -0.4823  0.3787 -0.0343
 7888SOL    HW135126   1.741   1.726   4.089 -1.9239  2.3715 -0.2763
 7888SOL    HW235127   1.611   1.696   4.158  0.1643  0.7400  0.2862
 7889SOL     OW35128   2.762   3.727  13.743  0.8581  0.2868 -0.0616
 7889SOL    HW135129   2.766   3.761  13.654 -0.8456  3.8632  1.2225
 7889SOL    HW235130   2.782   3.635  13.727 -0.6875  0.2240 -1.5604
 7890SOL     OW35131   1.076   3.839   6.573  0.3963  0.3367 -0.6155
 7890SOL    HW135132   1.141   3.892   6.527 -2.4468  1.5011 -3.2335
 7890SOL    HW235133   1.135   3.782   6.623 -0.3003 -0.2913 -0.5126
 7891SOL     OW35134   1.792   0.889   6.145  0.9259 -0.0853  0.1889
 7891SOL    HW135135   1.773   0.962   6.086  0.1304 -0.6944 -0.3161
 7891SOL    HW235136   1.781   0.933   6.230 -1.3154 -0.2504 -0.0027
 7892SOL     OW35137   0.951   3.983  17.699 -0.6368  0.5009  0.3469
 7892SOL    HW135138   0.921   4.048   0.051 -0.1972  0.8074  0.2431
 7892SOL    HW235139   0.902   4.008  17.620  0.4448  1.0107 -0.1732
 7893SOL     OW35140   0.510   0.839   1.446 -0.0571  0.1434  0.2503
 7893SOL    HW135141   0.429   0.819   1.399  0.5522  0.3491 -0.8906
 7893SOL    HW235142   0.545   0.750   1.445  0.8140  0.4687  2.2853
 7894SOL     OW35143   1.365   1.784   4.097  0.2477  0.2943 -0.1606
 7894SOL    HW135144   1.405   1.866   4.067 -1.2394  2.2060  3.2127
 7894SOL    HW235145   1.425   1.720   4.057 -0.0052 -0.0511  0.0096
 7895SOL     OW35146   0.557   4.017  11.590 -0.1926  0.2278 -0.2111
 7895SOL    HW135147   0.574   3.929  11.557 -0.1249  0.0164  0.3862
 7895SOL    HW235148   0.590   4.075  11.521  1.4338 -0.6902 -0.1851
 7896SOL     OW35149   0.056   2.522   3.722  0.2643 -0.0040  0.0981
 7896SOL    HW135150   0.030   2.546   3.633 -1.2769  2.4067  1.1915
 7896SOL    HW235151   4.705   2.469   3.742 -0.4380  0.5725 -1.1144
 7897SOL     OW35152   0.743   2.322   3.759  0.0018  0.0317 -0.3846
 7897SOL    HW135153   0.672   2.324   3.823 -0.3965  2.5276 -0.9191
 7897SOL    HW235154   0.726   2.407   3.719 -1.0969 -0.8787 -1.8798
 7898SOL     OW35155   4.081   2.527   6.346 -0.2261  0.2780 -0.1866
 7898SOL    HW135156   4.105   2.491   6.260  0.1895  2.5884 -1.0402
 7898SOL    HW235157   4.165   2.570   6.360 -0.4687  0.8432 -0.4369
 7899SOL     OW35158   1.481   2.063   2.662 -0.2128  0.7397  0.0277
 7899SOL    HW135159   1.569   2.036   2.690 -0.4438 -0.9706 -0.9551
 7899SOL    HW235160   1.464   2.112   2.743  0.5263  1.7512 -0.4129
 7900SOL     OW35161   4.674   3.637   5.025 -0.4971 -0.4106  0.0363
 7900SOL    HW135162   4.580   3.631   5.010 -0.4823 -0.9413  0.1400
 7900SOL    HW235163   4.703   3.639   4.934  0.0483  0.3195  0.2295
 7901SOL     OW35164   1.635   2.950  15.348  0.3285 -0.4497  0.0369
 7901SOL    HW135165   1.667   2.967  15.259 -0.6764  2.6814  0.2615
 7901SOL    HW235166   1.599   3.032  15.381 -0.9684 -0.6262 -0.9331
 7902SOL     OW35167   0.225   0.878   2.172 -0.3981 -0.4593  0.2090
 7902SOL    HW135168   0.247   0.911   2.085 -1.2919 -1.3574 -0.3523
 7902SOL    HW235169   0.172   0.801   2.154  0.4761 -1.4369  1.8554
 7903SOL     OW35170   1.314   4.247  11.694  0.0980 -0.1673  0.5714
 7903SOL    HW135171   1.406   4.231  11.675  0.1910 -2.0722  2.7301
 7903SOL    HW235172   1.327   4.298  11.774 -0.4717  0.7080  0.1154
 7904SOL     OW35173   0.335   0.862   4.334 -0.1431  0.6753  0.0463
 7904SOL    HW135174   0.381   0.944   4.315  0.0768  0.3439 -0.8341
 7904SOL    HW235175   0.407   0.816   4.376 -0.5786 -0.5955 -0.6066
 7905SOL     OW35176   4.075   4.476   9.004 -0.0719 -0.1920  0.1004
 7905SOL    HW135177   4.015   4.479   9.078  0.0280 -1.7494  0.2498
 7905SOL    HW235178   4.067   4.383   8.982  0.0231  0.0144 -0.8207
 7906SOL     OW35179   1.188   2.183   6.029 -0.1421 -0.2128  0.0032
 7906SOL    HW135180   1.209   2.117   6.096  3.6425  0.4403 -0.5707
 7906SOL    HW235181   1.155   2.124   5.960  1.7861 -2.8341  1.3267
 7907SOL     OW35182   1.724   1.830  10.984 -0.9405 -0.1584  0.0588
 7907SOL    HW135183   1.785   1.798  10.917  1.5041  3.1019  0.7473
 7907SOL    HW235184   1.781   1.856  11.055  0.1855  0.6939 -1.1641
 7908SOL     OW35185   1.697   0.347   1.163 -0.2279 -0.7476 -0.1692
 7908SOL    HW135186   1.703   0.348   1.067 -2.6305  0.8147 -0.3045
 7908SOL    HW235187   1.775   0.399   1.181 -0.3700 -1.1214  1.4935
 7909SOL     OW35188   3.654   3.184   4.085 -0.7193 -0.5285  0.0123
 7909SOL    HW135189   3.745   3.211   4.100 -0.8347  0.5345 -1.2063
 7909SOL    HW235190   3.632   3.163   4.176  0.7017 -2.0009  0.0035
 7910SOL     OW35191   4.092   3.808  17.426  0.3449 -0.0541  0.0411
 7910SOL    HW135192   4.013   3.766  17.394  1.5227 -2.1474 -0.1437
 7910SOL    HW235193   4.061   3.894  17.398  2.6425  0.9074  0.4006
 7911SOL     OW35194   1.952   3.100   2.663  0.1111  0.0800  0.0256
 7911SOL    HW135195   1.941   3.027   2.602 -0.9200 -1.3187  1.9033
 7911SOL    HW235196   1.890   3.081   2.733  0.7858 -0.3513  0.5020
 7912SOL     OW35197   3.361   2.605   2.283 -0.3851  0.3903 -0.1417
 7912SOL    HW135198   3.434   2.551   2.313 -1.7832 -1.8406 -0.8061
 7912SOL    HW235199   3.389   2.648   2.202 -1.1041  1.7490  0.3208
 7913SOL     OW35200   2.535   2.744   1.533 -0.0192  0.7257 -0.3478
 7913SOL    HW135201   2.606   2.743   1.469 -0.2658 -0.4483 -0.6106
 7913SOL    HW235202   2.456   2.734   1.480  0.2097  1.3505 -0.8036
 7914SOL     OW35203   2.090   4.692   3.196 -0.3722  0.9163 -0.0556
 7914SOL    HW135204   2.052   4.645   3.121  0.4428 -0.3451  0.3284
 7914SOL    HW235205   2.054   0.051   3.174 -1.7718  0.9632  2.4235
 7915SOL     OW35206   2.514   2.410   0.144  0.0782  0.0622 -0.5665
 7915SOL    HW135207   2.605   2.418   0.115  1.7014  0.4257  4.6268
 7915SOL    HW235208   2.527   2.418   0.238 -2.0099 -0.7478 -0.2163
 7916SOL     OW35209   0.701   2.903  15.977 -0.4382 -0.3249  0.1447
 7916SOL    HW135210   0.660   2.919  16.062  1.3098 -0.9636  1.1005
 7916SOL    HW235211   0.630   2.937  15.922 -2.3079 -2.2056  1.4232
 7917SOL     OW35212   1.451   3.033   6.989  0.0241  0.3211 -0.3054
 7917SOL    HW135213   1.490   2.990   6.914  1.5472  0.3712  0.4574
 7917SOL    HW235214   1.504   2.991   7.056  1.1565  1.2382 -0.6270
 7918SOL     OW35215   1.351   4.272   1.076 -0.3036  0.0044  0.7052
 7918SOL    HW135216   1.392   4.348   1.118 -1.1092  0.4339  0.7110
 7918SOL    HW235217   1.402   4.195   1.098  0.6120  0.1338 -0.9039
 7919SOL     OW35218   3.871   2.164  16.529 -0.0766  0.4011 -0.0352
 7919SOL    HW135219   3.953   2.119  16.550 -0.3266 -1.3450 -2.7812
 7919SOL    HW235220   3.836   2.093  16.474 -1.8625  1.0340  0.2775
 7920SOL     OW35221   3.322   0.676  15.944  0.0223  0.2541  0.3845
 7920SOL    HW135222   3.256   0.670  15.875  0.2886 -1.8344  0.3075
 7920SOL    HW235223   3.378   0.605  15.914 -0.3065  1.6689 -3.5990
 7921SOL     OW35224   0.896   4.575   3.117 -0.1030  0.1285 -0.4936
 7921SOL    HW135225   0.918   4.549   3.207 -0.4547 -1.4375 -0.8645
 7921SOL    HW235226   0.955   4.649   3.105  0.9995 -0.5794  0.6048
 7922SOL     OW35227   0.736   4.468   9.852  0.5009 -1.0383  0.3131
 7922SOL    HW135228   0.649   4.440   9.880  0.3274 -0.0533  0.7339
 7922SOL    HW235229   0.730   4.551   9.898 -0.1244  0.3229 -2.2127
 7923SOL     OW35230   1.033   1.594   9.986 -0.4485 -0.0827 -0.0385
 7923SOL    HW135231   0.965   1.527   9.991 -0.9049  0.3128 -1.0060
 7923SOL    HW235232   1.089   1.558  10.055 -2.9083 -1.1726  1.3693
 7924SOL     OW35233   2.596   1.990   8.195 -0.4385  0.1502 -0.1461
 7924SOL    HW135234   2.536   1.921   8.225 -0.6151  0.8151  1.0404
 7924SOL    HW235235   2.546   2.070   8.212 -2.2980 -0.7710 -1.2873
 7925SOL     OW35236   1.438   1.261   8.022 -0.1534 -0.5541  0.2640
 7925SOL    HW135237   1.384   1.304   7.956  1.1142 -1.4337 -1.3442
 7925SOL    HW235238   1.381   1.186   8.041  0.4739 -0.9045  0.7707
 7926SOL     OW35239   3.614   4.248   2.782 -0.3598 -0.0204  0.2455
 7926SOL    HW135240   3.625   4.157   2.755 -1.0372  0.2632 -0.9944
 7926SOL    HW235241   3.653   4.253   2.869 -2.9983  1.0767  1.3910
 7927SOL     OW35242   0.060   2.430   9.159 -0.0102 -0.0991  0.4736
 7927SOL    HW135243   0.131   2.371   9.181 -0.5690 -0.6575  0.7799
 7927SOL    HW235244   4.714   2.379   9.194  0.7997 -2.1178 -0.7943
 7928SOL     OW35245   0.740   3.364   3.209  0.1091  0.3329 -0.1914
 7928SOL    HW135246   0.776   3.278   3.185  1.1111  0.6691  0.1502
 7928SOL    HW235247   0.756   3.359   3.303  0.9398 -0.6014 -0.3778
 7929SOL     OW35248   1.256   0.382   1.625 -0.0087 -0.0660  0.3527
 7929SOL    HW135249   1.271   0.457   1.683 -0.0624  2.3793 -2.7598
 7929SOL    HW235250   1.241   0.315   1.691  0.1185 -0.2236  0.2191
 7930SOL     OW35251   0.274   4.128   2.974 -0.2495 -0.4381  0.5805
 7930SOL    HW135252   0.210   4.183   2.929  1.0440  1.2179  0.7458
 7930SOL    HW235253   0.247   4.142   3.065  0.9258 -1.8524  1.1577
 7931SOL     OW35254   3.695   3.081   2.450  0.5070 -0.2341  0.4072
 7931SOL    HW135255   3.674   3.067   2.357  1.9261 -2.6477  0.4453
 7931SOL    HW235256   3.780   3.122   2.438  1.1980 -1.3038  1.6959
 7932SOL     OW35257   4.227   1.355   9.672 -0.0905 -0.0538  0.3163
 7932SOL    HW135258   4.258   1.375   9.760 -0.2575 -0.4511  0.4666
 7932SOL    HW235259   4.274   1.424   9.625  0.2437 -0.8619 -0.5524
 7933SOL     OW35260   0.885   2.800   6.922  0.0380 -0.0832 -0.0363
 7933SOL    HW135261   0.859   2.744   6.848 -2.0695  0.2336  0.4664
 7933SOL    HW235262   0.961   2.840   6.879 -0.6953  0.7195 -0.5988
 7934SOL     OW35263   3.959   2.211   4.319 -0.3299 -0.2027  0.4749
 7934SOL    HW135264   3.892   2.194   4.253  0.0234 -0.2311  0.1274
 7934SOL    HW235265   3.974   2.301   4.293  0.4546 -0.3592  0.3959
 7935SOL     OW35266   1.148   2.545   2.429 -0.5892  0.0719 -0.5527
 7935SOL    HW135267   1.145   2.640   2.417  0.9315  0.2134  0.1748
 7935SOL    HW235268   1.067   2.522   2.383  0.5605  2.0558 -3.5983
 7936SOL     OW35269   2.070   4.569   3.884 -0.1133  0.2066  1.2180
 7936SOL    HW135270   2.081   4.592   3.976  3.8505  2.4109  0.1776
 7936SOL    HW235271   1.979   4.595   3.876  0.1146  0.6044 -0.0248
 7937SOL     OW35272   1.322   0.247   0.601  0.0845  0.7973  0.9117
 7937SOL    HW135273   1.340   0.153   0.603 -1.0910  0.5649  0.5359
 7937SOL    HW235274   1.385   0.283   0.664 -0.4556 -0.1341  1.9930
 7938SOL     OW35275   3.899   4.181   0.920 -0.6352  0.2825  0.1994
 7938SOL    HW135276   3.969   4.120   0.896 -0.3245 -0.8913  4.1311
 7938SOL    HW235277   3.947   4.263   0.935 -0.0021 -0.1368  0.4889
 7939SOL     OW35278   3.733   2.944  13.825  0.4068  0.0192  0.1630
 7939SOL    HW135279   3.764   2.978  13.908 -1.6053  0.1745  0.8599
 7939SOL    HW235280   3.756   2.852  13.815  0.7881  0.2971 -1.6277
 7940SOL     OW35281   3.368   4.374   8.185 -0.1940  0.0099 -0.3991
 7940SOL    HW135282   3.294   4.368   8.125  0.6832 -2.1755 -1.2674
 7940SOL    HW235283   3.367   4.465   8.214 -1.1845 -0.0742 -0.1683
 7941SOL     OW35284   1.561   1.333   2.170  0.1458 -0.2212  0.1559
 7941SOL    HW135285   1.607   1.250   2.183  1.1591  0.2660 -0.3367
 7941SOL    HW235286   1.614   1.370   2.100  2.0306 -0.5354  1.4115
 7942SOL     OW35287   1.398   0.846   4.744 -0.0464  0.1080  0.2975
 7942SOL    HW135288   1.387   0.924   4.689 -0.2585 -0.3415 -0.2934
 7942SOL    HW235289   1.312   0.807   4.727  0.1852 -0.5613  0.6562
 7943SOL     OW35290   3.871   3.525   3.581 -0.1196  0.1921  0.7258
 7943SOL    HW135291   3.827   3.592   3.633  0.0946  0.8917  0.0097
 7943SOL    HW235292   3.817   3.454   3.615 -1.8261  0.9077 -0.4586
 7944SOL     OW35293   3.312   2.118   5.918  0.0116  0.3508 -0.0608
 7944SOL    HW135294   3.393   2.076   5.890 -0.7799 -1.2559  0.0860
 7944SOL    HW235295   3.304   2.172   5.839  0.5092 -0.8069 -0.9004
 7945SOL     OW35296   0.113   3.683   0.484 -0.1139  0.7362  0.2672
 7945SOL    HW135297   0.134   3.766   0.440 -0.8211  0.1918 -1.0964
 7945SOL    HW235298   0.064   3.629   0.423 -1.0719  0.9741  0.8307
 7946SOL     OW35299   1.567   1.560  14.114  0.2182  0.6185 -0.0829
 7946SOL    HW135300   1.491   1.609  14.084  0.9106  0.1003 -2.6921
 7946SOL    HW235301   1.523   1.493  14.166  0.0799 -0.3967 -1.5178
 7947SOL     OW35302   0.135   1.450  15.840 -0.3695  0.1821 -0.3736
 7947SOL    HW135303   0.134   1.469  15.746 -0.0645 -4.4709 -1.3050
 7947SOL    HW235304   0.081   1.521  15.876 -0.6262  0.7785 -1.9424
 7948SOL     OW35305   2.316   3.853   3.998  0.6059  0.6294 -0.1114
 7948SOL    HW135306   2.346   3.762   3.991  1.3913  0.6857  2.6079
 7948SOL    HW235307   2.225   3.840   3.970  0.0222  1.2444  1.4839
 7949SOL     OW35308   1.559   0.681   6.499  0.0561  0.0965  0.4551
 7949SOL    HW135309   1.577   0.753   6.559  0.4900  0.3285  0.0466
 7949SOL    HW235310   1.596   0.710   6.415 -0.8782  1.9208  0.6683
 7950SOL     OW35311   0.921   4.366  11.965  0.1008 -0.3196 -0.5805
 7950SOL    HW135312   0.890   4.372  11.875 -2.1410 -0.9224  0.1226
 7950SOL    HW235313   0.883   4.443  12.008  0.3055  0.2432 -1.4273
 7951SOL     OW35314   1.023   3.776  12.248  0.3631  0.0499 -0.0805
 7951SOL    HW135315   1.091   3.734  12.301 -0.6827 -3.0488 -1.1923
 7951SOL    HW235316   1.061   3.863  12.241 -1.2779  0.6465 -1.7085
 7952SOL     OW35317   3.746   1.445   8.218 -0.2882 -0.7162 -0.0970
 7952SOL    HW135318   3.824   1.499   8.225 -2.3913  2.4135 -0.8861
 7952SOL    HW235319   3.744   1.402   8.303 -0.2174 -1.9060 -0.6972
 7953SOL     OW35320   0.477   1.178   3.676  0.3058  0.0909 -0.1573
 7953SOL    HW135321   0.448   1.229   3.751  0.2340  1.4699 -1.1289
 7953SOL    HW235322   0.571   1.193   3.669  0.0588  1.2150 -1.0956
 7954SOL     OW35323   0.712   2.350  16.875 -0.4102 -0.2428  0.3358
 7954SOL    HW135324   0.655   2.378  16.803 -0.0672 -0.7161 -0.1163
 7954SOL    HW235325   0.669   2.268  16.898 -1.7342 -0.2087 -2.0784
 7955SOL     OW35326   1.283   0.446   6.400 -0.0440  0.7043  0.3682
 7955SOL    HW135327   1.377   0.453   6.389 -0.0983  0.7555 -0.0591
 7955SOL    HW235328   1.253   0.396   6.324 -2.5889  0.9871  1.1776
 7956SOL     OW35329   0.392   1.067  11.391 -0.5445  0.4584 -0.8252
 7956SOL    HW135330   0.313   1.017  11.410 -1.1226  0.3372 -3.4674
 7956SOL    HW235331   0.392   1.061  11.295 -1.6796  0.1005 -0.8045
 7957SOL     OW35332   0.065   2.380   0.453 -0.4410  0.1641  0.5472
 7957SOL    HW135333   0.064   2.287   0.478 -1.2676 -0.2289 -0.9761
 7957SOL    HW235334   0.154   2.405   0.481  0.1870 -2.2252  0.6713
 7958SOL     OW35335   1.872   3.318   8.409  0.0988  0.7005  0.0110
 7958SOL    HW135336   1.842   3.390   8.353  0.8412 -1.7706 -3.5910
 7958SOL    HW235337   1.960   3.300   8.375 -0.2023  1.0342 -0.9596
 7959SOL     OW35338   1.407   2.394  12.242 -0.4872 -0.2872 -0.1974
 7959SOL    HW135339   1.466   2.438  12.181  0.0423 -0.5955  0.0997
 7959SOL    HW235340   1.459   2.319  12.271  2.2575  1.5379 -0.4127
 7960SOL     OW35341   2.053   3.788   3.904  0.1769 -0.1419 -0.1497
 7960SOL    HW135342   2.019   3.739   3.979 -1.6460  1.3783  0.0251
 7960SOL    HW235343   2.017   3.731   3.835 -0.6361  0.0814  0.0840
 7961SOL     OW35344   3.896   3.526  10.737  0.3084 -0.3124 -0.0170
 7961SOL    HW135345   3.931   3.438  10.750  0.8935 -0.1162 -0.2582
 7961SOL    HW235346   3.973   3.579  10.761  1.0366 -0.9646 -0.9409
 7962SOL     OW35347   3.871   2.830   9.260  0.3022 -0.1734  1.0366
 7962SOL    HW135348   3.907   2.900   9.206  1.4496 -2.0781 -0.6631
 7962SOL    HW235349   3.788   2.876   9.270  0.2234 -0.1460  0.3095
 7963SOL     OW35350   4.646   2.390   0.801  0.2058  0.0365 -0.0710
 7963SOL    HW135351   4.724   2.441   0.782  1.1419 -0.4995  2.3499
 7963SOL    HW235352   4.616   2.429   0.884 -1.4194  0.6161 -0.9277
 7964SOL     OW35353   0.716   0.050  14.309 -0.2588  0.5088  0.5119
 7964SOL    HW135354   0.801   0.068  14.350 -1.0166  1.7269  1.5794
 7964SOL    HW235355   0.654   0.040  14.382  0.0493  2.4796  1.0626
 7965SOL     OW35356   3.684   3.154   6.157  0.0584 -0.2931 -0.0114
 7965SOL    HW135357   3.717   3.107   6.234 -0.2357 -1.1255 -0.3909
 7965SOL    HW235358   3.767   3.189   6.125 -0.2092  0.3875  0.0483
 7966SOL     OW35359   0.442   2.220   6.197 -0.5608 -0.6217  0.0852
 7966SOL    HW135360   0.373   2.249   6.137  0.6118  0.6861 -0.6393
 7966SOL    HW235361   0.393   2.208   6.278  0.5794  1.1734  1.0429
 7967SOL     OW35362   4.609   3.971   9.959  0.2801  0.6165  0.4139
 7967SOL    HW135363   4.570   4.058   9.958 -1.3826 -0.1274  2.2157
 7967SOL    HW235364   4.549   3.933   9.895 -0.1768 -0.1564  1.3045
 7968SOL     OW35365   3.165   2.326   7.487 -0.0837 -0.0712  0.3873
 7968SOL    HW135366   3.178   2.329   7.392 -0.2809  0.5102  0.3803
 7968SOL    HW235367   3.240   2.374   7.522  0.4900  0.0763 -1.0380
 7969SOL     OW35368   0.101   3.091  10.608 -0.8084  0.4889 -0.1709
 7969SOL    HW135369   0.104   3.125  10.697  0.8967  2.2904 -0.9416
 7969SOL    HW235370   0.108   2.996  10.621  1.4625  0.4683 -1.6404
 7970SOL     OW35371   3.358   4.283   3.311  0.0079 -0.5806  0.0379
 7970SOL    HW135372   3.391   4.227   3.241 -1.1711 -0.7154 -0.4045
 7970SOL    HW235373   3.436   4.274   3.366  0.0830 -1.1446 -0.1668
 7971SOL     OW35374   2.575   2.264   8.316 -0.0223  0.0137 -0.1005
 7971SOL    HW135375   2.547   2.247   8.406 -0.5724 -0.9046 -0.4515
 7971SOL    HW235376   2.658   2.218   8.312 -0.5765 -1.1389  1.7928
 7972SOL     OW35377   4.072   3.218   8.887  0.1100 -0.0178  0.0873
 7972SOL    HW135378   4.046   3.158   8.817 -1.5277 -1.2476  1.7913
 7972SOL    HW235379   4.165   3.198   8.897  0.3681  0.9361 -0.3590
 7973SOL     OW35380   1.741   4.131  14.024 -0.2770  0.0133 -0.5102
 7973SOL    HW135381   1.762   4.038  14.035 -3.2247 -0.7141 -1.0434
 7973SOL    HW235382   1.652   4.128  14.060 -0.4385  1.7703 -0.7652
 7974SOL     OW35383   2.710   0.058   6.928  0.1800  0.0479 -0.3268
 7974SOL    HW135384   2.675   0.092   6.846 -0.8696 -1.9953 -0.7250
 7974SOL    HW235385   2.629   0.055   6.978  0.2890 -1.2987 -0.2420
 7975SOL     OW35386   4.594   3.344   2.083 -0.0563 -0.4214 -0.4647
 7975SOL    HW135387   4.506   3.382   2.089  0.3509  0.6248 -1.0942
 7975SOL    HW235388   4.636   3.383   2.160 -1.7002  2.8312 -1.1904
 7976SOL     OW35389   2.101   3.740   4.566 -0.1602  0.2502  0.3481
 7976SOL    HW135390   2.152   3.666   4.532  0.6212  1.8518 -1.9513
 7976SOL    HW235391   2.015   3.699   4.560 -0.5232  0.7422  2.4399
 7977SOL     OW35392   2.420   1.258   4.126  0.4438  0.1462 -0.7314
 7977SOL    HW135393   2.342   1.203   4.139  1.2093 -0.7224  0.1439
 7977SOL    HW235394   2.478   1.208   4.183  0.9723  1.4243 -0.1381
 7978SOL     OW35395   0.087   0.429   7.109 -0.7293  0.3579  0.2576
 7978SOL    HW135396   4.723   0.428   7.138 -1.1018  0.8920 -0.9140
 7978SOL    HW235397   0.113   0.516   7.139 -0.5512  0.8402 -1.2975
 7979SOL     OW35398   3.206   2.026   8.606  0.5709  0.4261 -0.2392
 7979SOL    HW135399   3.222   2.111   8.647  2.3224 -0.7323  1.4165
 7979SOL    HW235400   3.292   1.988   8.590  0.4709 -0.0289  0.3098
 7980SOL     OW35401   0.034   3.683  12.392 -0.2421  0.2644  0.1238
 7980SOL    HW135402   4.722   3.765  12.364 -5.0674 -1.4857  1.8822
 7980SOL    HW235403   0.115   3.703  12.346  0.9950  0.9946  2.6250
 7981SOL     OW35404   4.350   0.764   3.794 -0.1642  0.1096  0.2563
 7981SOL    HW135405   4.414   0.835   3.800  1.0204 -0.9421 -0.0294
 7981SOL    HW235406   4.334   0.760   3.889 -3.8910 -0.6643 -0.3982
 7982SOL     OW35407   0.497   0.883  13.660 -0.4352  0.3118 -0.9358
 7982SOL    HW135408   0.475   0.858  13.750  0.1965 -0.6685 -1.0473
 7982SOL    HW235409   0.451   0.813  13.615  0.4347  0.3900 -1.9341
 7983SOL     OW35410   0.255   4.041  11.062  0.2109  0.2352  0.3125
 7983SOL    HW135411   0.294   3.956  11.043 -0.5971 -0.0088 -0.2575
 7983SOL    HW235412   0.272   4.110  10.999  1.4934 -0.8092 -0.4716
 7984SOL     OW35413   3.065   0.118   3.069 -0.0696 -0.1543  0.2565
 7984SOL    HW135414   3.037   0.207   3.048 -1.3845 -0.7096 -0.3967
 7984SOL    HW235415   3.118   0.083   2.997  0.2148  2.5134 -0.8328
 7985SOL     OW35416   0.413   2.227   7.834 -0.3117  0.1399 -0.1650
 7985SOL    HW135417   0.414   2.175   7.914  1.4967  0.1145 -0.1920
 7985SOL    HW235418   0.507   2.245   7.839  0.0199 -0.9220 -2.3440
 7986SOL     OW35419   0.175   0.078   7.393 -0.4363  0.5070 -0.0923
 7986SOL    HW135420   0.109   0.044   7.332  0.4279 -2.0820  0.4272
 7986SOL    HW235421   0.232   0.004   7.412 -1.7822 -0.7725 -1.0875
 7987SOL     OW35422   2.550   4.007   3.873 -0.3751  0.0720 -0.2350
 7987SOL    HW135423   2.507   4.047   3.797  2.4860  2.8798 -0.3678
 7987SOL    HW235424   2.485   3.939   3.892  0.5734 -0.6095  0.5811
 7988SOL     OW35425   3.715   3.220  12.985 -0.1863  0.2946 -0.3103
 7988SOL    HW135426   3.680   3.131  12.993 -0.2813  0.4679  1.2782
 7988SOL    HW235427   3.783   3.214  13.052  0.2381  0.5578 -0.7227
 7989SOL     OW35428   1.958   4.277   4.055 -0.1427 -0.1567  0.2408
 7989SOL    HW135429   1.987   4.225   3.980  0.9524  4.3340 -2.4477
 7989SOL    HW235430   2.037   4.274   4.110  0.6372 -1.0067 -0.9392
 7990SOL     OW35431   3.029   0.479   1.095 -0.6109 -0.5335 -0.7113
 7990SOL    HW135432   3.067   0.514   1.176 -0.8612 -0.1181 -0.7752
 7990SOL    HW235433   3.103   0.428   1.063 -0.1547 -0.2895 -0.0346
 7991SOL     OW35434   4.265   2.950   0.482 -0.0973  0.7335  0.0218
 7991SOL    HW135435   4.243   3.026   0.429 -1.1621  1.5794  1.6998
 7991SOL    HW235436   4.179   2.919   0.510 -0.2715  1.8088  0.6535
 7992SOL     OW35437   2.823   1.837   1.176  0.2665 -0.2620  0.5604
 7992SOL    HW135438   2.760   1.788   1.123 -1.6719  2.3684  0.3906
 7992SOL    HW235439   2.873   1.884   1.109  1.2269 -2.2253 -0.0849
 7993SOL     OW35440   0.836   0.333  11.785  0.2820  0.5515 -1.0902
 7993SOL    HW135441   0.863   0.275  11.714  3.0207  1.8681 -1.1091
 7993SOL    HW235442   0.746   0.357  11.759  0.3061  1.5851 -0.2155
 7994SOL     OW35443   2.575   2.574  10.339  0.5381  0.3233  0.0461
 7994SOL    HW135444   2.608   2.607  10.255  1.5588 -2.7789 -0.7463
 7994SOL    HW235445   2.510   2.645  10.337  1.6023  1.2779 -0.7495
 7995SOL     OW35446   3.681   1.086   6.300 -0.7598  0.4919 -0.0651
 7995SOL    HW135447   3.640   1.072   6.385  2.6941 -1.1008  1.3375
 7995SOL    HW235448   3.601   1.089   6.246 -0.1278 -0.9653 -1.0890
 7996SOL     OW35449   4.144   4.119   7.415  0.3740 -0.2061 -0.6418
 7996SOL    HW135450   4.228   4.084   7.445  0.4384  3.8815  3.9518
 7996SOL    HW235451   4.174   4.184   7.351  2.9837 -1.9262 -1.1716
 7997SOL     OW35452   3.593   1.572   2.509  0.1003  0.4528 -0.2626
 7997SOL    HW135453   3.668   1.605   2.559  1.2163 -1.0246 -0.9445
 7997SOL    HW235454   3.609   1.478   2.505 -2.0725  0.1750 -2.0472
 7998SOL     OW35455   4.472   0.605   5.561  0.1329 -0.0177  0.9469
 7998SOL    HW135456   4.511   0.520   5.544 -1.9003 -0.9590  0.9851
 7998SOL    HW235457   4.473   0.606   5.657  0.6997  0.3081  0.9392
 7999SOL     OW35458   0.422   4.440   3.388 -1.0368  0.0847 -0.0678
 7999SOL    HW135459   0.469   4.402   3.462 -0.3306 -0.8155 -0.9821
 7999SOL    HW235460   0.473   4.410   3.313  0.0748  1.4797  0.1327
 8000SOL     OW35461   4.662   0.045   3.697 -0.5049 -0.1291  0.0991
 8000SOL    HW135462   4.592   0.109   3.687 -1.5309 -0.9437  2.1674
 8000SOL    HW235463   4.646   0.023   3.789  0.3020 -0.1404  0.2362
 8001SOL     OW35464   1.496   0.077   4.286  0.9322 -0.4996  0.0914
 8001SOL    HW135465   1.481   0.030   4.368 -2.5033  2.4712  1.1963
 8001SOL    HW235466   1.429   0.146   4.293 -0.0050 -1.4719  0.7428
 8002SOL     OW35467   0.140   3.173  15.023  0.2727  0.6979 -0.2189
 8002SOL    HW135468   0.159   3.095  15.074 -1.5072 -0.5487 -1.4446
 8002SOL    HW235469   0.100   3.239  15.079 -0.3697 -0.8013  1.0865
 8003SOL     OW35470   1.437   3.964   6.664  0.0978  0.0697 -0.5836
 8003SOL    HW135471   1.407   3.895   6.723 -2.5746  2.3865  0.7506
 8003SOL    HW235472   1.419   4.038   6.722  0.1198  0.6113 -1.2678
 8004SOL     OW35473   4.146   2.507   5.299 -0.0494 -0.2289  0.3479
 8004SOL    HW135474   4.093   2.586   5.308  1.8523  0.9224  1.3252
 8004SOL    HW235475   4.233   2.542   5.316  0.3055 -0.4205 -1.0437
 8005SOL     OW35476   1.748   3.636  16.244 -0.2729  0.1763 -0.2034
 8005SOL    HW135477   1.653   3.626  16.238 -0.1070 -0.1780 -2.3604
 8005SOL    HW235478   1.765   3.560  16.299 -0.8935 -1.2424 -1.9917
 8006SOL     OW35479   3.998   1.511  15.208 -0.1195 -0.4034 -0.0027
 8006SOL    HW135480   3.949   1.580  15.164  2.0667  1.9811  1.3329
 8006SOL    HW235481   3.989   1.442  15.142  2.6153  0.7066 -1.5062
 8007SOL     OW35482   1.190   0.639  12.672 -0.7329  0.0279 -0.5036
 8007SOL    HW135483   1.131   0.702  12.630  0.5874  1.7480  0.1935
 8007SOL    HW235484   1.148   0.609  12.753  2.1772  1.2485  1.4325
 8008SOL     OW35485   2.341   1.657   3.352  0.0897  0.3150 -0.5281
 8008SOL    HW135486   2.361   1.741   3.392  0.8865 -0.1681  0.1068
 8008SOL    HW235487   2.245   1.661   3.359  0.1909  0.0671  1.0289
 8009SOL     OW35488   2.271   2.753   1.371 -0.1747 -0.7036  0.7381
 8009SOL    HW135489   2.189   2.704   1.366 -0.8546  0.6771 -1.3749
 8009SOL    HW235490   2.313   2.739   1.287 -0.3728 -0.6973  0.6395
 8010SOL     OW35491   4.554   1.862  14.973  0.6425 -0.1998 -0.2931
 8010SOL    HW135492   4.625   1.903  14.924  1.2819  0.5728  1.2887
 8010SOL    HW235493   4.532   1.787  14.918  1.7167 -1.7231  1.3690
 8011SOL     OW35494   4.687   1.902  12.806  0.5407  1.0257 -0.4493
 8011SOL    HW135495   0.005   1.978  12.768  1.4744  0.9419  0.4790
 8011SOL    HW235496   4.709   1.828  12.750  0.6282  1.6003 -1.1687
 8012SOL     OW35497   4.610   4.569   8.705 -0.7894 -0.2017  0.2732
 8012SOL    HW135498   4.571   4.636   8.649 -1.8837 -1.6084 -0.6443
 8012SOL    HW235499   4.700   4.563   8.672 -0.3161 -0.7847  1.6711
 8013SOL     OW35500   0.834   2.587   7.074 -0.0254  0.2402 -0.8120
 8013SOL    HW135501   0.811   2.670   7.033 -0.5873  1.2218  1.4919
 8013SOL    HW235502   0.900   2.550   7.015  0.6381  0.7091 -0.3576
 8014SOL     OW35503   1.178   0.412   6.782  0.3129  0.5858  0.0555
 8014SOL    HW135504   1.267   0.448   6.780  1.6379 -2.5967  2.1212
 8014SOL    HW235505   1.183   0.353   6.857 -1.1473 -0.8831 -1.0125
 8015SOL     OW35506   2.561   4.032  15.591  0.2254  0.0754 -0.1357
 8015SOL    HW135507   2.575   4.066  15.503 -1.7679 -2.2963 -1.3519
 8015SOL    HW235508   2.569   4.118  15.634 -0.8087 -0.0071  0.2164
 8016SOL     OW35509   1.371   4.013   4.845 -0.4120 -0.4401 -0.1075
 8016SOL    HW135510   1.361   3.925   4.881  0.6118 -0.7588 -0.5988
 8016SOL    HW235511   1.397   4.000   4.754 -0.1647  1.0930 -0.2600
 8017SOL     OW35512   1.867   4.301   7.344  0.5995  0.4897  0.5438
 8017SOL    HW135513   1.942   4.282   7.286  0.9896  2.3003  0.4383
 8017SOL    HW235514   1.872   4.395   7.361  0.8491  0.4624  0.6233
 8018SOL     OW35515   1.355   2.283   5.290 -0.1795  0.9726  0.6817
 8018SOL    HW135516   1.404   2.365   5.288 -2.2358  2.1747  0.1873
 8018SOL    HW235517   1.418   2.227   5.337 -0.8755 -0.4618 -0.0993
 8019SOL     OW35518   1.235   1.376   5.386 -0.1498 -0.2790 -0.3496
 8019SOL    HW135519   1.186   1.366   5.305 -0.9528  1.4434 -0.0790
 8019SOL    HW235520   1.192   1.309   5.439  1.7721 -1.8310 -0.7225
 8020SOL     OW35521   3.300   3.869   4.849  0.0581 -0.2842  0.2402
 8020SOL    HW135522   3.248   3.935   4.803 -0.6495 -0.5911  0.6166
 8020SOL    HW235523   3.345   3.932   4.906 -2.0756  2.3947 -0.9924
 8021SOL     OW35524   1.079   3.725   0.247 -0.1929  0.1569 -0.7169
 8021SOL    HW135525   1.006   3.727   0.309  1.4728 -0.1238  1.2653
 8021SOL    HW235526   1.139   3.777   0.301 -0.6916 -0.2075  0.1959
 8022SOL     OW35527   2.689   1.186   8.667  0.1653 -0.0775 -0.5173
 8022SOL    HW135528   2.605   1.184   8.623 -0.3994  3.0310  0.4316
 8022SOL    HW235529   2.743   1.113   8.638 -0.1904  0.3922 -2.3114
 8023SOL     OW35530   3.223   0.016  16.863  0.0634  0.1269 -0.4861
 8023SOL    HW135531   3.271   4.681  16.809  0.8139  0.8905 -0.7076
 8023SOL    HW235532   3.299   0.074  16.870  0.1705 -0.3488  2.3023
 8024SOL     OW35533   4.633   2.888   5.065 -0.4414 -0.4745 -0.8961
 8024SOL    HW135534   4.699   2.927   5.123 -1.6147 -0.3503  0.3530
 8024SOL    HW235535   4.666   2.801   5.043 -1.1240 -1.3387  1.5584
 8025SOL     OW35536   3.515   4.074   7.045  0.6467  0.0789 -0.1496
 8025SOL    HW135537   3.487   4.038   6.961 -1.5035  0.3511  0.4625
 8025SOL    HW235538   3.520   3.996   7.101 -1.1146  0.6196  0.7558
 8026SOL     OW35539   0.434   2.051   7.392 -0.3826  0.4197  0.2962
 8026SOL    HW135540   0.364   1.986   7.384  0.6413 -0.7057  0.5539
 8026SOL    HW235541   0.404   2.095   7.471 -0.4095 -1.0631  1.1239
 8027SOL     OW35542   2.562   3.841   9.057  0.0672 -0.4839 -0.0548
 8027SOL    HW135543   2.489   3.893   9.092 -0.5588 -1.4435  0.0574
 8027SOL    HW235544   2.575   3.780   9.130  0.1391 -0.5905 -0.1581
 8028SOL     OW35545   4.629   2.197   2.018  0.1191 -0.8781 -0.4614
 8028SOL    HW135546   4.614   2.156   1.933  1.7512 -1.0151 -0.6796
 8028SOL    HW235547   4.722   2.178   2.032  0.2185  1.4203  2.0857
 8029SOL     OW35548   3.993   4.261   3.647  0.4469  0.4575  0.4429
 8029SOL    HW135549   3.993   4.255   3.743  1.0275 -1.0687  0.3552
 8029SOL    HW235550   3.980   4.167   3.631 -1.5063  0.9708 -1.0620
 8030SOL     OW35551   2.758   4.404  12.270  0.3214 -0.2680  0.5929
 8030SOL    HW135552   2.835   4.358  12.303  0.8520 -0.1318 -0.4831
 8030SOL    HW235553   2.693   4.342  12.304  0.4240 -1.3264 -1.1240
 8031SOL     OW35554   4.640   4.125  11.823  0.0306 -0.9470  0.0694
 8031SOL    HW135555   4.664   4.209  11.861  1.0883 -0.6098 -1.3496
 8031SOL    HW235556   4.693   4.061  11.873 -0.4614 -0.2741  1.4503
 8032SOL     OW35557   1.220   2.469   5.836  0.0806  0.0985 -0.3098
 8032SOL    HW135558   1.258   2.444   5.752 -1.8120 -1.5606 -0.6613
 8032SOL    HW235559   1.233   2.386   5.882 -0.5846  0.4739  0.5594
 8033SOL     OW35560   1.437   0.974   7.740  0.7673 -0.1075  0.3974
 8033SOL    HW135561   1.454   0.974   7.645  0.2092  2.0203  0.3022
 8033SOL    HW235562   1.376   0.900   7.734 -1.7210  1.7262  3.2273
 8034SOL     OW35563   2.556   2.316   5.796 -0.7197 -0.1911 -0.1530
 8034SOL    HW135564   2.617   2.243   5.788  2.3681  2.2877  0.8718
 8034SOL    HW235565   2.486   2.278   5.849 -2.8808  0.7699 -2.3068
 8035SOL     OW35566   2.497   3.878   8.363  0.4132  0.3672 -0.6929
 8035SOL    HW135567   2.555   3.933   8.310  1.4108 -0.0298 -0.0136
 8035SOL    HW235568   2.457   3.955   8.405 -1.2034 -0.8944  0.0484
 8036SOL     OW35569   4.262   3.831   3.094 -0.0070  0.0819  0.4738
 8036SOL    HW135570   4.352   3.811   3.121 -0.2289 -1.6830 -0.1293
 8036SOL    HW235571   4.239   3.751   3.048  2.5386 -1.2268  1.4435
 8037SOL     OW35572   4.724   0.011  12.094  0.0022 -0.0713 -0.0796
 8037SOL    HW135573   0.009   4.703  12.006 -1.2156  0.3721 -0.4175
 8037SOL    HW235574   0.055   4.686  12.150 -0.1682 -0.0919  0.0782
 8038SOL     OW35575   2.078   1.927  13.434 -0.3113  0.2247  0.8577
 8038SOL    HW135576   2.106   1.903  13.345 -0.8559  0.8925  0.5125
 8038SOL    HW235577   1.983   1.918  13.434 -0.0797 -2.2926  0.8556
 8039SOL     OW35578   0.599   3.352  16.951  0.0912  0.2944  0.9648
 8039SOL    HW135579   0.538   3.349  16.877 -0.2391  1.2854  1.2003
 8039SOL    HW235580   0.541   3.362  17.026 -2.0379  0.0558 -0.6318
 8040SOL     OW35581   3.081   2.090   2.167  0.0999 -0.2076  0.2337
 8040SOL    HW135582   2.993   2.099   2.203 -0.6584 -0.6453 -1.4743
 8040SOL    HW235583   3.076   2.153   2.095 -1.5858 -0.9459 -0.3049
 8041SOL     OW35584   1.693   4.629  13.422  0.1649 -0.1451  0.2512
 8041SOL    HW135585   1.752   4.609  13.349 -1.1804  1.9650 -1.4454
 8041SOL    HW235586   1.756   4.587  13.481 -1.6119 -1.2603  1.3678
 8042SOL     OW35587   2.405   1.342   6.773 -0.2835  0.2185  0.0004
 8042SOL    HW135588   2.384   1.420   6.721  2.3482  1.3758  0.6254
 8042SOL    HW235589   2.322   1.303   6.798  0.9332 -1.0579  2.0237
 8043SOL     OW35590   2.282   2.185   7.456 -0.2268  0.4508  0.1037
 8043SOL    HW135591   2.355   2.124   7.463  0.7493  1.4145 -2.0492
 8043SOL    HW235592   2.316   2.253   7.398 -0.3411  0.8296  0.4768
 8044SOL     OW35593   2.244   3.473   6.640 -0.1068 -0.1575  0.3553
 8044SOL    HW135594   2.308   3.506   6.704 -0.1882  1.3667 -0.3376
 8044SOL    HW235595   2.203   3.399   6.685 -0.9997 -0.1709 -0.4835
 8045SOL     OW35596   1.251   4.112   2.940  0.5045 -0.4714 -0.1814
 8045SOL    HW135597   1.346   4.105   2.927  0.3829 -1.4174 -0.5475
 8045SOL    HW235598   1.221   4.130   2.851  1.6406  2.3060 -0.0251
 8046SOL     OW35599   2.502   3.967   5.204 -0.7678 -0.0476  0.3073
 8046SOL    HW135600   2.520   4.061   5.198 -0.5588 -0.1392 -0.5695
 8046SOL    HW235601   2.414   3.965   5.242 -0.6523  0.8283  0.6212
 8047SOL     OW35602   1.723   4.427   5.983  0.6423  0.0976 -0.1746
 8047SOL    HW135603   1.670   4.495   6.024 -0.1353  0.0005 -1.0266
 8047SOL    HW235604   1.700   4.345   6.026  1.7097  0.0322  0.2804
 8048SOL     OW35605   2.094   1.007   1.274 -0.2021  0.2237  0.0992
 8048SOL    HW135606   2.013   1.057   1.259 -0.9166 -0.3029  2.2320
 8048SOL    HW235607   2.107   1.013   1.368  0.2343  4.2964 -0.2437
 8049SOL     OW35608   3.640   1.041  12.012  0.4306  0.3119 -0.6055
 8049SOL    HW135609   3.715   1.024  12.069 -0.9362 -0.0936  1.0952
 8049SOL    HW235610   3.658   1.134  11.998  2.3279  0.2870  1.6972
 8050SOL     OW35611   0.632   0.874   9.629 -0.6932  0.0271  0.6347
 8050SOL    HW135612   0.599   0.816   9.697 -1.3944 -0.1434  0.1470
 8050SOL    HW235613   0.707   0.918   9.669 -0.3955 -0.0107  0.1258
 8051SOL     OW35614   2.328   2.772  16.153  0.0362 -0.1789  0.0653
 8051SOL    HW135615   2.325   2.852  16.204 -1.7123  1.6185 -2.8335
 8051SOL    HW235616   2.241   2.750  16.185 -0.2713  0.6698 -0.1853
 8052SOL     OW35617   1.786   4.714  14.688 -0.0665  0.0469  0.3174
 8052SOL    HW135618   1.866   4.667  14.665 -0.1172 -0.2876  0.8371
 8052SOL    HW235619   1.724   4.650  14.724 -0.1845 -0.3395 -0.5724
 8053SOL     OW35620   0.953   1.003   1.487  0.0059 -0.5935  0.5226
 8053SOL    HW135621   0.870   0.989   1.532  1.0590 -0.6186  2.4415
 8053SOL    HW235622   0.974   1.089   1.522 -1.7038 -0.5175  1.3499
 8054SOL     OW35623   3.178   2.438   3.035 -0.2330  0.2050  0.1426
 8054SOL    HW135624   3.092   2.478   3.019  0.1718  0.5000 -1.3005
 8054SOL    HW235625   3.222   2.520   3.059 -0.2381  0.7542 -1.6965
 8055SOL     OW35626   1.036   3.224   5.247 -0.0631  0.3033  0.5813
 8055SOL    HW135627   1.099   3.154   5.231 -0.1961  0.3712 -0.2339
 8055SOL    HW235628   1.064   3.292   5.186 -0.3181 -0.8574 -0.8327
 8056SOL     OW35629   0.256   0.236  14.105  0.2400 -0.6258  0.2651
 8056SOL    HW135630   0.164   0.254  14.084  0.5843 -0.6537 -1.3229
 8056SOL    HW235631   0.281   0.295  14.176  0.8873  1.1252 -1.4174
 8057SOL     OW35632   3.652   3.744  13.297 -0.4113 -0.2401 -0.5340
 8057SOL    HW135633   3.657   3.816  13.360 -1.8522 -0.5647 -0.0420
 8057SOL    HW235634   3.690   3.783  13.218  0.9839 -0.6808 -0.0816
 8058SOL     OW35635   1.192   0.130   6.214 -0.0581 -0.1472  0.1763
 8058SOL    HW135636   1.118   0.119   6.273  1.0234 -0.2623  1.4961
 8058SOL    HW235637   1.238   0.046   6.219  1.0762  0.2675 -3.3729
 8059SOL     OW35638   4.391   0.108   2.310  0.1710 -0.3364  0.0117
 8059SOL    HW135639   4.486   0.103   2.297  0.3024  1.3012  0.2921
 8059SOL    HW235640   4.383   0.074   2.399  1.0094  1.2609  0.6977
 8060SOL     OW35641   1.205   3.543  13.960  0.0034 -0.2091  0.7609
 8060SOL    HW135642   1.140   3.488  14.005 -0.3949  1.2723  1.9869
 8060SOL    HW235643   1.164   3.561  13.875 -0.3117  0.1954  1.0041
 8061SOL     OW35644   0.416   4.687   0.190  0.1175 -0.1297 -0.5369
 8061SOL    HW135645   0.416   0.055   0.182  1.1356  0.0154  1.0495
 8061SOL    HW235646   0.346   4.667   0.129 -0.6393  2.4711 -0.5496
 8062SOL     OW35647   4.005   4.272   4.334 -0.1648  0.0411 -0.4512
 8062SOL    HW135648   4.044   4.204   4.278  0.7316 -0.6315  0.9915
 8062SOL    HW235649   4.067   4.342   4.317 -0.6305 -0.2037 -3.1665
 8063SOL     OW35650   1.718   0.469  17.653  0.9607 -0.5489  0.0134
 8063SOL    HW135651   1.738   0.492  17.562  0.3079 -0.8542 -0.2047
 8063SOL    HW235652   1.630   0.435  17.638  1.1388 -0.8085 -0.4567
 8064SOL     OW35653   2.623   3.660   7.546  0.2351 -0.1010 -0.1061
 8064SOL    HW135654   2.577   3.584   7.582 -0.0857  0.2276  0.1760
 8064SOL    HW235655   2.574   3.728   7.593 -1.2835 -1.8934  0.9140
 8065SOL     OW35656   2.300   1.244   5.933  0.2548 -0.0791 -0.2918
 8065SOL    HW135657   2.326   1.156   5.960 -0.2990 -0.4346 -0.9289
 8065SOL    HW235658   2.254   1.224   5.852  0.9735 -1.6164 -0.3153
 8066SOL     OW35659   3.873   1.695   0.640  0.3213  0.0692 -0.1541
 8066SOL    HW135660   3.818   1.634   0.591 -1.2705 -0.7504  2.6769
 8066SOL    HW235661   3.943   1.704   0.576 -0.3712  1.1933 -0.7590
 8067SOL     OW35662   0.258   2.399  17.317  0.0973 -0.1484 -0.2528
 8067SOL    HW135663   0.249   2.492  17.296 -0.0390 -0.1842 -0.3558
 8067SOL    HW235664   0.169   2.371  17.339  0.5021 -1.5753 -0.4336
 8068SOL     OW35665   3.843   1.223  17.352 -0.0917  0.4031  0.1681
 8068SOL    HW135666   3.888   1.274  17.419 -0.8836  2.4127 -0.8609
 8068SOL    HW235667   3.878   1.253  17.269  0.3411 -4.8889 -1.5914
 8069SOL     OW35668   3.413   0.499   6.223  0.4758 -0.1452 -0.4364
 8069SOL    HW135669   3.425   0.594   6.225 -0.4930 -0.0859  2.4755
 8069SOL    HW235670   3.495   0.471   6.182  0.8101  0.2634 -0.0418
 8070SOL     OW35671   0.377   4.685   8.888  0.9492  0.9046  0.2673
 8070SOL    HW135672   0.290   4.724   8.888  1.2384  1.5570 -0.8468
 8070SOL    HW235673   0.414   4.701   8.801 -0.4347 -3.0023 -1.0366
 8071SOL     OW35674   3.265   4.576   4.895 -0.3294 -0.6179  0.0482
 8071SOL    HW135675   3.222   4.585   4.979 -1.1806 -1.2360 -0.3245
 8071SOL    HW235676   3.224   4.500   4.854 -0.5775 -0.4170 -0.0732
 8072SOL     OW35677   4.351   3.017   3.222  0.2201 -0.1279 -0.1442
 8072SOL    HW135678   4.394   2.931   3.230 -0.9502 -0.6340  0.7726
 8072SOL    HW235679   4.426   3.076   3.226  0.8334 -0.8493 -1.0589
 8073SOL     OW35680   1.144   0.349   7.572  0.0248 -0.1366  0.0384
 8073SOL    HW135681   1.090   0.274   7.598 -1.7637  0.3585 -2.2904
 8073SOL    HW235682   1.086   0.423   7.592 -1.0629 -0.9479 -0.1043
 8074SOL     OW35683   1.388   1.913   0.770 -0.6588  0.2092  0.7472
 8074SOL    HW135684   1.388   1.818   0.783 -0.9216  0.0766 -0.1978
 8074SOL    HW235685   1.469   1.926   0.820  0.6011 -3.5806 -0.2767
 8075SOL     OW35686   4.410   2.987   2.378  0.3584 -0.2946 -0.3049
 8075SOL    HW135687   4.478   3.053   2.395 -0.5966  0.6291 -0.0131
 8075SOL    HW235688   4.459   2.913   2.344 -1.5680 -2.0805  0.8206
 8076SOL     OW35689   1.240   1.200   5.979 -0.2567 -0.0806  0.5114
 8076SOL    HW135690   1.202   1.206   6.067 -1.8645  0.1999 -0.2116
 8076SOL    HW235691   1.159   1.203   5.929  0.9287 -0.9349 -1.4484
 8077SOL     OW35692   4.659   3.923  10.581 -0.3924 -0.3165 -0.1012
 8077SOL    HW135693   4.646   3.830  10.559  0.0585 -0.3102 -0.3986
 8077SOL    HW235694   4.647   3.907  10.675 -0.9735 -2.8013 -0.6004
 8078SOL     OW35695   0.873   1.328   6.495 -0.2457  0.1708  0.0242
 8078SOL    HW135696   0.846   1.245   6.535 -0.5013  0.8445  1.2666
 8078SOL    HW235697   0.808   1.384   6.538  0.3360  1.5045 -0.8462
 8079SOL     OW35698   4.507   2.417   3.160  0.3590 -0.6054 -0.1118
 8079SOL    HW135699   4.496   2.442   3.251 -0.6700  0.2474 -0.4732
 8079SOL    HW235700   4.419   2.399   3.126  0.7243  0.2472 -1.5014
 8080SOL     OW35701   3.021   2.052   6.415  0.3137 -0.1674 -0.1780
 8080SOL    HW135702   3.053   2.141   6.396  1.8018 -0.5013  0.7868
 8080SOL    HW235703   3.000   2.024   6.326 -0.8980  1.1439 -0.3233
 8081SOL     OW35704   0.116   3.312   3.106  0.2046 -0.3024 -0.6735
 8081SOL    HW135705   0.196   3.353   3.074  1.0902 -1.3495  0.1766
 8081SOL    HW235706   0.135   3.218   3.118 -0.5621 -0.3723 -0.0412
 8082SOL     OW35707   2.133   3.974   8.474 -0.3725 -0.3313 -0.2499
 8082SOL    HW135708   2.154   3.894   8.524  0.5934  0.6961  0.9865
 8082SOL    HW235709   2.056   4.011   8.517  1.1561 -1.2835  3.3371
 8083SOL     OW35710   1.747   1.702   3.260  0.7652  0.4366  0.7035
 8083SOL    HW135711   1.723   1.610   3.263 -1.6023  1.0077 -1.4444
 8083SOL    HW235712   1.739   1.719   3.354  0.2720 -0.8020  0.8874
 8084SOL     OW35713   4.241   3.048  16.458  0.3116  0.4811  0.6267
 8084SOL    HW135714   4.231   3.018  16.549  1.1676  0.4030  0.6904
 8084SOL    HW235715   4.194   2.982  16.408  0.1032 -0.5074  2.1083
 8085SOL     OW35716   0.272   2.128   7.615  0.0140  0.2182  0.0838
 8085SOL    HW135717   0.311   2.165   7.694 -1.7054  0.7235  0.6827
 8085SOL    HW235718   0.185   2.168   7.614 -0.1882 -0.1479  2.5951
 8086SOL     OW35719   1.831   0.420   7.420 -0.0535  0.5896  0.4759
 8086SOL    HW135720   1.812   0.390   7.332  0.6774  1.0081  0.1757
 8086SOL    HW235721   1.745   0.438   7.458 -0.3742 -2.2304  1.0724
 8087SOL     OW35722   0.754   0.599  13.394 -0.1085 -0.2165 -0.2119
 8087SOL    HW135723   0.686   0.617  13.459 -1.9822 -1.6296 -1.7792
 8087SOL    HW235724   0.721   0.652  13.321 -0.7774  0.7559  0.7951
 8088SOL     OW35725   2.175   0.997   5.221  0.3188 -0.5891 -0.3768
 8088SOL    HW135726   2.185   1.082   5.179 -1.6258  0.6712  1.6950
 8088SOL    HW235727   2.081   0.987   5.231  0.1174  0.5043 -1.2775
 8089SOL     OW35728   1.833   1.900  11.282  0.7883 -0.0163  0.2312
 8089SOL    HW135729   1.836   1.906  11.377  1.0949  0.9305  0.1616
 8089SOL    HW235730   1.846   1.987  11.245  0.6726 -0.7597 -1.5615
 8090SOL     OW35731   0.746   4.506  16.870 -0.4801 -0.1992 -0.4882
 8090SOL    HW135732   0.672   4.506  16.931  1.4804 -0.6517  1.8815
 8090SOL    HW235733   0.778   4.416  16.868 -3.4849 -1.2334 -1.5985
 8091SOL     OW35734   2.336   3.049   0.460  0.1244 -0.6014  0.0597
 8091SOL    HW135735   2.409   3.018   0.512  2.6969  3.6054 -1.0338
 8091SOL    HW235736   2.263   2.992   0.486 -0.6818  1.3601  2.0996
 8092SOL     OW35737   4.242   4.410  10.230 -0.3869  0.8645  0.4331
 8092SOL    HW135738   4.240   4.489  10.284 -1.7953  0.1359  1.4438
 8092SOL    HW235739   4.182   4.428  10.157 -0.2114  0.4867  0.1921
 8093SOL     OW35740   3.200   3.663   3.492 -0.1475 -0.0337 -0.1439
 8093SOL    HW135741   3.198   3.678   3.587  4.7691  0.0665 -0.0754
 8093SOL    HW235742   3.136   3.722   3.453  0.0319 -0.1756 -0.6438
 8094SOL     OW35743   3.084   2.664  10.801  0.7343  0.2292 -0.5004
 8094SOL    HW135744   3.067   2.590  10.742  0.2610  0.8542 -1.1530
 8094SOL    HW235745   2.993   2.694  10.811 -0.6251 -3.8010 -0.7540
 8095SOL     OW35746   1.076   1.722   8.725  0.1550 -0.2464 -0.0311
 8095SOL    HW135747   1.135   1.796   8.740 -2.8149  2.3921 -1.3810
 8095SOL    HW235748   1.035   1.720   8.811 -0.2271  3.7566 -0.1002
 8096SOL     OW35749   4.681   1.501   3.137 -0.1649  0.5851 -0.4295
 8096SOL    HW135750   4.660   1.506   3.044  0.7707 -0.5835 -0.7048
 8096SOL    HW235751   4.727   1.419   3.154  0.4172  0.8182 -0.8713
 8097SOL     OW35752   1.871   2.248   2.528 -0.4662  0.0012 -0.3592
 8097SOL    HW135753   1.810   2.178   2.505  1.5865 -2.0343  0.4981
 8097SOL    HW235754   1.856   2.304   2.451 -0.8338  1.7278  0.9787
 8098SOL     OW35755   0.478   4.248   1.678 -0.1076  0.0617  0.1477
 8098SOL    HW135756   0.474   4.157   1.650 -2.0185 -0.0597  0.8422
 8098SOL    HW235757   0.397   4.286   1.645  0.4453  1.5120  0.4245
 8099SOL     OW35758   0.137   0.164   0.793  0.2982 -0.2857 -0.3433
 8099SOL    HW135759   0.198   0.182   0.865 -0.6747 -1.4737  0.7747
 8099SOL    HW235760   0.176   0.088   0.751  0.5879 -0.9549  1.1233
 8100SOL     OW35761   2.404   2.391   6.980 -0.2518 -0.2049 -0.3837
 8100SOL    HW135762   2.451   2.343   6.912  2.9650 -0.0581  1.6860
 8100SOL    HW235763   2.458   2.381   7.059  0.9852  0.7082 -1.1073
 8101SOL     OW35764   4.112   0.929   3.522  0.1208 -0.3519  0.0143
 8101SOL    HW135765   4.074   0.842   3.537  1.0313  0.1461  5.0874
 8101SOL    HW235766   4.038   0.981   3.490 -0.3277 -1.7014 -1.1855
 8102SOL     OW35767   1.664   0.717   1.702 -0.0453  0.7081  0.3274
 8102SOL    HW135768   1.668   0.716   1.797 -0.8020 -0.2153  0.3440
 8102SOL    HW235769   1.622   0.800   1.678 -0.6936  0.2338 -0.1731
 8103SOL     OW35770   4.434   0.155   1.860 -1.1158 -0.4510 -0.3691
 8103SOL    HW135771   4.413   0.064   1.883  1.6690 -1.2496 -1.0150
 8103SOL    HW235772   4.524   0.140   1.832 -0.2250  0.3066  2.1297
 8104SOL     OW35773   1.121   3.362  11.119  0.0123  0.6053  0.2927
 8104SOL    HW135774   1.125   3.361  11.214  1.5844 -1.1220  0.2107
 8104SOL    HW235775   1.208   3.395  11.097  0.9805 -0.0003  3.2059
 8105SOL     OW35776   2.539   3.107   4.234  0.1871  0.2209  0.1259
 8105SOL    HW135777   2.519   3.102   4.327 -1.9019  1.2449 -0.2654
 8105SOL    HW235778   2.612   3.045   4.234  0.1216  0.1501  1.3740
 8106SOL     OW35779   1.664   1.763   6.538 -0.1441  0.4126  0.5438
 8106SOL    HW135780   1.749   1.804   6.524 -0.5252  0.1801 -2.3656
 8106SOL    HW235781   1.660   1.701   6.466 -2.8154 -0.5716  1.5346
 8107SOL     OW35782   3.858   3.134   5.524 -0.2264 -0.4417 -0.1956
 8107SOL    HW135783   3.867   3.108   5.432 -0.9623  0.8100 -0.6249
 8107SOL    HW235784   3.943   3.167   5.553 -1.2161  1.1493  0.9146
 8108SOL     OW35785   2.338   3.949   7.110  0.2917 -0.1320 -0.4669
 8108SOL    HW135786   2.314   3.944   7.017 -0.4434 -3.4558 -0.0969
 8108SOL    HW235787   2.335   4.044   7.125  0.2027  0.6044 -5.0003
 8109SOL     OW35788   2.854   1.243   6.283  0.5750  0.2393  0.2776
 8109SOL    HW135789   2.865   1.231   6.377  0.6508 -0.8897  0.1263
 8109SOL    HW235790   2.904   1.176   6.237  0.4676  0.1780  0.2510
 8110SOL     OW35791   2.235   0.180   6.311  0.2031  0.2691 -0.0735
 8110SOL    HW135792   2.277   0.135   6.385  0.7958 -0.1417 -0.6574
 8110SOL    HW235793   2.313   0.215   6.268 -1.3524  0.2534 -2.9234
 8111SOL     OW35794   3.774   1.809  16.707 -0.3804  0.7408 -0.6430
 8111SOL    HW135795   3.691   1.846  16.678 -0.7172  0.6982  0.2832
 8111SOL    HW235796   3.839   1.875  16.682  1.5939 -0.5577  1.0735
 8112SOL     OW35797   1.587   3.484   4.675  0.2742 -0.3692 -0.1806
 8112SOL    HW135798   1.637   3.560   4.646  1.8639 -0.7949  1.4777
 8112SOL    HW235799   1.635   3.409   4.639 -0.3145 -0.8698  0.0798
 8113SOL     OW35800   0.280   0.521   4.618 -0.3158  0.2366 -0.3108
 8113SOL    HW135801   0.226   0.599   4.626  2.4220  1.9554  1.4387
 8113SOL    HW235802   0.208   0.458   4.626 -0.0690 -0.5396 -4.4921
 8114SOL     OW35803   1.090   0.440   5.952  0.2818 -0.2945 -0.5325
 8114SOL    HW135804   1.076   0.535   5.951  0.8123 -0.2067  0.6124
 8114SOL    HW235805   0.998   0.420   5.969  0.6912  1.0834  3.2516
 8115SOL     OW35806   1.988   1.165   3.343 -0.4680  0.2426  0.3763
 8115SOL    HW135807   2.008   1.181   3.250 -2.8794  0.1044 -0.1610
 8115SOL    HW235808   1.904   1.210   3.336 -0.7045 -0.2851 -0.1774
 8116SOL     OW35809   2.971   1.476   6.475 -0.5315  0.0637 -0.3383
 8116SOL    HW135810   2.926   1.511   6.398 -0.4434 -0.1490 -0.4854
 8116SOL    HW235811   2.902   1.421   6.513  1.0851 -1.1843  0.7641
 8117SOL     OW35812   3.191   0.320   2.866 -0.3840 -0.2428  0.2975
 8117SOL    HW135813   3.251   0.336   2.939 -0.4911 -0.9959  0.5493
 8117SOL    HW235814   3.130   0.393   2.877 -0.6404 -0.3070 -0.7291
 8118SOL     OW35815   2.980   2.029  10.503  0.3827  0.2108 -0.5544
 8118SOL    HW135816   3.039   2.093  10.464 -0.4139  2.1020  1.3467
 8118SOL    HW235817   3.035   1.978  10.563 -0.0718 -2.8271 -2.7407
 8119SOL     OW35818   1.845   4.000   1.681  0.3109 -0.0525  0.1747
 8119SOL    HW135819   1.890   3.916   1.687  1.2008  0.5661  2.0894
 8119SOL    HW235820   1.917   4.061   1.668  0.1909  0.6653  2.7675
 8120SOL     OW35821   2.931   0.877   4.807 -0.4530  0.1738  0.3094
 8120SOL    HW135822   2.958   0.787   4.827  0.6630  0.5502  0.5080
 8120SOL    HW235823   2.958   0.879   4.715  0.0578 -0.5271  0.4364
 8121SOL     OW35824   2.476   3.225   7.409  0.0675 -0.3707  0.2439
 8121SOL    HW135825   2.464   3.310   7.367 -1.3474  0.3731  2.1329
 8121SOL    HW235826   2.390   3.196   7.439  0.3489 -1.0580  0.3909
 8122SOL     OW35827   2.391   0.419   6.996 -0.2394  0.0995 -0.6332
 8122SOL    HW135828   2.480   0.401   6.964 -0.1063  0.4738 -0.4850
 8122SOL    HW235829   2.347   0.335   7.001 -0.5388  0.2902 -0.0226
 8123SOL     OW35830   0.949   1.504   0.184 -0.3626 -0.5098  0.4108
 8123SOL    HW135831   0.961   1.456   0.266 -1.1970 -1.4681 -0.0120
 8123SOL    HW235832   0.901   1.582   0.210 -1.7439 -0.9745 -0.7141
 8124SOL     OW35833   0.143   1.993   8.366  0.6490 -0.2105  0.2828
 8124SOL    HW135834   0.115   1.973   8.277  0.4811 -0.0388  0.2981
 8124SOL    HW235835   0.137   1.906   8.406  2.6089 -0.3984  0.2098
 8125SOL     OW35836   4.072   0.330   8.242  0.0448 -0.4371 -0.1792
 8125SOL    HW135837   4.082   0.414   8.197 -0.7339 -0.6739 -0.7947
 8125SOL    HW235838   4.008   0.353   8.309  1.5151  1.9127  0.4453
 8126SOL     OW35839   3.556   2.516   6.588  0.1315 -0.2175 -0.6210
 8126SOL    HW135840   3.569   2.607   6.613  1.2486 -0.7202  0.6471
 8126SOL    HW235841   3.641   2.483   6.618 -0.1394 -0.4812 -0.1417
 8127SOL     OW35842   1.770   1.942   7.020 -0.1219 -0.5779 -0.2769
 8127SOL    HW135843   1.684   1.903   7.004 -0.8964  1.2439 -0.4325
 8127SOL    HW235844   1.761   1.958   7.114  2.6665 -0.4137 -0.0364
 8128SOL     OW35845   2.353   4.110   3.677  0.4160 -0.2317 -0.1067
 8128SOL    HW135846   2.371   4.041   3.613  0.9972 -0.6496  0.4962
 8128SOL    HW235847   2.258   4.117   3.668  0.5878  1.2799 -0.7693
 8129SOL     OW35848   2.815   2.383   9.307  0.2353 -0.1597 -0.0550
 8129SOL    HW135849   2.781   2.294   9.302  1.2531 -0.5131 -0.6357
 8129SOL    HW235850   2.848   2.391   9.218 -2.5565 -0.9554 -1.1650
 8130SOL     OW35851   0.624   4.568   4.887 -0.3217 -0.0732  0.1446
 8130SOL    HW135852   0.636   4.555   4.793 -2.7098 -0.1801 -0.1470
 8130SOL    HW235853   0.711   4.602   4.907  0.3817 -2.1265  0.6617
 8131SOL     OW35854   0.353   4.303  12.110  0.8199  0.2789  0.3089
 8131SOL    HW135855   0.269   4.261  12.093  0.3017  0.8600  1.3738
 8131SOL    HW235856   0.424   4.267  12.058 -0.1189 -0.0507 -0.7547
 8132SOL     OW35857   2.191   0.781   3.556  0.0612  0.0500  0.0685
 8132SOL    HW135858   2.151   0.695   3.547  1.3221 -0.4746 -0.6555
 8132SOL    HW235859   2.184   0.807   3.464 -0.4911  1.8849  0.6261
 8133SOL     OW35860   1.244   4.483   4.440 -0.1526 -0.3194 -0.3129
 8133SOL    HW135861   1.183   4.453   4.508 -0.6955  0.1204 -0.5994
 8133SOL    HW235862   1.182   4.511   4.372 -0.5137 -1.1521 -0.3211
 8134SOL     OW35863   2.750   0.957   6.391 -0.5399  0.2783  0.4271
 8134SOL    HW135864   2.775   1.010   6.467 -0.6583 -0.4986  1.0070
 8134SOL    HW235865   2.759   1.021   6.321  0.2540  0.4465  0.6855
 8135SOL     OW35866   0.590   4.066  12.329  0.1672  0.6728  0.2305
 8135SOL    HW135867   0.651   3.992  12.329 -1.7230 -0.8838  0.0882
 8135SOL    HW235868   0.644   4.138  12.296  2.9559 -0.2497  2.8856
 8136SOL     OW35869   4.648   0.753  17.540  0.1440  0.1433 -0.0714
 8136SOL    HW135870   4.723   0.722  17.489  1.7838  2.3512  1.0186
 8136SOL    HW235871   4.636   0.837  17.495  0.2306 -0.2606 -0.8495
 8137SOL     OW35872   4.168   2.858   8.221  0.3593 -0.1134 -0.1458
 8137SOL    HW135873   4.151   2.874   8.128  0.5302  1.7923  0.1617
 8137SOL    HW235874   4.264   2.854   8.221  0.2947 -1.7452  0.1767
 8138SOL     OW35875   0.750   2.749  11.337  0.0329  0.1261 -0.3706
 8138SOL    HW135876   0.798   2.684  11.285  0.1412 -1.1086  1.2927
 8138SOL    HW235877   0.782   2.744  11.427 -0.2434 -1.7354 -0.3782
 8139SOL     OW35878   3.850   0.282   3.541  0.5708  0.3820  0.3437
 8139SOL    HW135879   3.804   0.366   3.535 -0.3992 -0.0701  1.3620
 8139SOL    HW235880   3.892   0.286   3.627  1.3876 -1.3135  0.0139
 8140SOL     OW35881   0.099   3.610   9.681 -0.5965 -0.4228  0.6407
 8140SOL    HW135882   0.174   3.646   9.729 -0.6430  1.2590 -0.5510
 8140SOL    HW235883   0.139   3.529   9.650 -0.1001  0.5816 -1.3549
 8141SOL     OW35884   2.524   2.870   0.623 -0.7024  0.7069  0.0156
 8141SOL    HW135885   2.525   2.793   0.566 -1.1448  0.5933  0.1589
 8141SOL    HW235886   2.465   2.845   0.694 -0.2894  1.1057  0.4990
 8142SOL     OW35887   1.307   0.776   1.586  0.4535  0.6942 -0.2327
 8142SOL    HW135888   1.309   0.716   1.661  2.3113  0.7509 -0.2232
 8142SOL    HW235889   1.365   0.726   1.529  1.3537  0.2826  1.0417
 8143SOL     OW35890   3.497   4.638   7.317  0.5281 -0.6651 -0.2715
 8143SOL    HW135891   3.539   4.687   7.388 -1.3168 -0.3429  0.5996
 8143SOL    HW235892   3.557   4.568   7.292  2.6141  0.0450  2.7023
 8144SOL     OW35893   3.037   2.001  11.153  0.3339  0.6372 -0.2411
 8144SOL    HW135894   2.957   1.951  11.140  2.3047 -2.3228 -1.0405
 8144SOL    HW235895   3.075   1.962  11.232  0.9773 -1.8212 -1.7590
 8145SOL     OW35896   4.038   0.253   1.519 -0.0139  0.5483 -0.2770
 8145SOL    HW135897   4.004   0.339   1.541  0.8447  1.4740 -2.5591
 8145SOL    HW235898   4.033   0.249   1.423 -0.8999  2.0408 -0.2943
 8146SOL     OW35899   4.077   3.022  16.198 -0.1187 -0.4386 -0.0016
 8146SOL    HW135900   4.108   2.937  16.230 -1.3970 -0.5081  1.0994
 8146SOL    HW235901   4.153   3.076  16.178  0.2563 -1.8128 -2.2575
 8147SOL     OW35902   4.074   0.322   7.934  0.1302 -0.3409 -0.2272
 8147SOL    HW135903   4.118   0.263   7.872  0.6979  2.8286 -2.8167
 8147SOL    HW235904   4.048   0.259   8.001  1.6294 -0.2611  0.4184
 8148SOL     OW35905   0.791   3.825   0.409 -0.0884 -0.1742 -0.0494
 8148SOL    HW135906   0.786   3.834   0.504 -0.3275  0.0087 -0.0779
 8148SOL    HW235907   0.829   3.908   0.381  1.5711 -0.6244  0.9037
 8149SOL     OW35908   2.288   0.023  11.533 -0.3535  0.3451  0.1360
 8149SOL    HW135909   2.313   0.006  11.443 -1.5746 -2.5266  0.3424
 8149SOL    HW235910   2.284   4.661  11.568 -0.8624 -0.4026 -1.8458
 8150SOL     OW35911   3.254   0.627   1.942 -0.2506 -0.0462 -0.1329
 8150SOL    HW135912   3.169   0.597   1.973 -0.5041 -0.8491 -1.5802
 8150SOL    HW235913   3.271   0.567   1.869  1.9775  0.0212  0.3257
 8151SOL     OW35914   3.309   1.113   2.601  0.3352 -0.0263  0.2087
 8151SOL    HW135915   3.225   1.115   2.648 -0.3793 -3.7497 -0.8481
 8151SOL    HW235916   3.310   1.023   2.568  3.3759 -1.6642  4.8629
 8152SOL     OW35917   2.648   3.624  14.827 -0.2614 -0.0804  0.1904
 8152SOL    HW135918   2.574   3.585  14.874 -0.6635  1.6571  1.0095
 8152SOL    HW235919   2.704   3.626  14.905 -0.4339 -1.9739  0.3648
 8153SOL     OW35920   4.463   0.967   0.784 -0.2266  0.3192  0.3365
 8153SOL    HW135921   4.466   1.061   0.766  0.0941  0.1517 -0.4841
 8153SOL    HW235922   4.371   0.952   0.805  0.0732 -0.0410  1.4029
 8154SOL     OW35923   2.114   3.142   1.394  0.0517 -0.1723  0.0499
 8154SOL    HW135924   2.142   3.214   1.338  0.9698 -2.3717 -2.3071
 8154SOL    HW235925   2.062   3.195   1.454  1.0181 -0.3617  1.0523
 8155SOL     OW35926   4.172   2.401  11.755 -0.0724  0.0538 -0.3576
 8155SOL    HW135927   4.196   2.362  11.839  0.1017  1.8919  0.4416
 8155SOL    HW235928   4.107   2.462  11.788  1.0698  0.9751  0.2040
 8156SOL     OW35929   0.872   4.589   3.389  0.1825  0.5420 -0.4994
 8156SOL    HW135930   0.931   4.613   3.460 -1.0299 -0.8666  0.9787
 8156SOL    HW235931   0.835   4.508   3.422  0.6988  0.5532  0.1028
 8157SOL     OW35932   3.380   2.006   6.189  0.4467  0.0320  0.0896
 8157SOL    HW135933   3.349   2.042   6.106  0.2965 -0.5246 -0.1031
 8157SOL    HW235934   3.420   2.081   6.233 -0.1592  0.9889 -0.9995
 8158SOL     OW35935   2.517   3.383   2.945  0.1321 -0.4823 -0.1597
 8158SOL    HW135936   2.554   3.471   2.954 -1.4002  0.0913  0.5718
 8158SOL    HW235937   2.545   3.354   2.858 -1.2043 -1.5301 -0.2363
 8159SOL     OW35938   1.685   2.114   4.134 -0.5580 -0.5696 -0.4213
 8159SOL    HW135939   1.726   2.153   4.057  1.4061  1.0543  1.4290
 8159SOL    HW235940   1.764   2.081   4.177 -1.7472  0.2998  2.4681
 8160SOL     OW35941   1.648   3.863   2.077 -0.2388 -0.2408  0.0691
 8160SOL    HW135942   1.669   3.955   2.095 -2.6719  0.5079 -1.0301
 8160SOL    HW235943   1.566   3.854   2.125 -0.5765  0.8030 -0.2937
 8161SOL     OW35944   0.750   3.091  13.537 -0.7082 -0.0711 -0.3244
 8161SOL    HW135945   0.717   3.029  13.601 -0.2066  0.8984  0.8754
 8161SOL    HW235946   0.674   3.140  13.507 -0.6066  0.5998  0.5118
 8162SOL     OW35947   4.352   3.426   7.221 -0.4116  0.4030 -0.1799
 8162SOL    HW135948   4.376   3.385   7.138 -2.4495 -0.7707 -0.2117
 8162SOL    HW235949   4.328   3.348   7.272  1.7044 -0.0137  0.1711
 8163SOL     OW35950   4.337   3.650   9.410 -0.3817  0.1140  0.0727
 8163SOL    HW135951   4.364   3.576   9.464  0.9233 -0.2558 -1.0915
 8163SOL    HW235952   4.324   3.615   9.322  1.5097  0.4137 -0.3325
 8164SOL     OW35953   4.026   0.870   4.152 -0.1651 -0.3919  0.0156
 8164SOL    HW135954   4.092   0.931   4.183  0.3280 -0.5030 -0.8100
 8164SOL    HW235955   4.045   0.788   4.197  1.0452 -1.1609 -1.9113
 8165SOL     OW35956   2.995   3.726  13.183  0.6517 -0.0767 -0.1424
 8165SOL    HW135957   2.973   3.806  13.135  1.9825  0.9340  0.9507
 8165SOL    HW235958   2.988   3.763  13.271  2.5182 -0.6641  0.2469
 8166SOL     OW35959   3.038   1.550   3.149  0.0145 -0.0095 -0.1021
 8166SOL    HW135960   2.988   1.629   3.127  1.2600  0.9180  0.3747
 8166SOL    HW235961   3.013   1.490   3.078  1.5523 -0.8010  0.0478
 8167SOL     OW35962   1.559   4.381  15.865  0.6061 -0.3908 -0.0582
 8167SOL    HW135963   1.597   4.324  15.932  1.8507  4.5279  3.4247
 8167SOL    HW235964   1.519   4.312  15.812  0.7843 -0.2172 -0.4180
 8168SOL     OW35965   0.194   2.573  12.587  0.1967 -0.4313  0.2525
 8168SOL    HW135966   0.154   2.659  12.571 -0.8022 -1.1447 -1.0171
 8168SOL    HW235967   0.282   2.587  12.551 -0.5276 -1.7835 -2.0345
 8169SOL     OW35968   3.307   0.509   4.354 -0.5975 -0.6953 -0.2093
 8169SOL    HW135969   3.356   0.476   4.278 -1.1091 -0.8679 -0.4632
 8169SOL    HW235970   3.320   0.603   4.340 -0.8406 -0.4562  1.1745
 8170SOL     OW35971   4.540   1.489  12.518 -0.3876  0.7411  0.4268
 8170SOL    HW135972   4.452   1.480  12.482  0.8137 -2.3053 -1.8187
 8170SOL    HW235973   4.600   1.478  12.444 -0.1900  0.6846  0.5939
 8171SOL     OW35974   1.739   0.859   8.570 -0.1333  0.4970  0.0445
 8171SOL    HW135975   1.703   0.781   8.529 -1.2980  0.1739  1.6755
 8171SOL    HW235976   1.688   0.890   8.645 -1.3941 -1.1466 -0.1270
 8172SOL     OW35977   1.822   4.204   3.749  0.0867  0.3894 -0.2550
 8172SOL    HW135978   1.874   4.146   3.803 -0.0754  3.2136  2.9772
 8172SOL    HW235979   1.760   4.234   3.816 -2.0358  1.6977 -2.8026
 8173SOL     OW35980   3.774   4.633   7.985  0.3125 -0.0694 -0.0560
 8173SOL    HW135981   3.828   4.712   7.986 -1.8025  1.3728 -0.2151
 8173SOL    HW235982   3.822   4.586   8.053  0.5812 -0.3838 -0.4657
 8174SOL     OW35983   3.941   3.295   2.691 -0.3367 -0.1369 -0.2991
 8174SOL    HW135984   3.888   3.368   2.722  0.6825 -0.6078  2.6185
 8174SOL    HW235985   4.011   3.283   2.756 -0.4453 -1.6584 -0.4837
 8175SOL     OW35986   3.803   0.890   0.990 -0.0295  0.2230 -0.1058
 8175SOL    HW135987   3.811   0.795   1.004 -2.2941 -0.5578 -4.0603
 8175SOL    HW235988   3.868   0.902   0.921 -0.4620 -1.0774 -0.7441
 8176SOL     OW35989   0.174   3.304   0.879 -0.1117  0.3407 -0.5236
 8176SOL    HW135990   0.100   3.365   0.874  1.3041  2.1188  0.2082
 8176SOL    HW235991   0.192   3.303   0.973 -1.0740 -0.8085 -0.3481
 8177SOL     OW35992   4.590   0.489   8.344  0.2780  0.2766 -0.2069
 8177SOL    HW135993   4.573   0.539   8.263  1.5698 -0.7934 -1.1272
 8177SOL    HW235994   4.611   0.562   8.402 -1.1855 -1.1907  2.1571
 8178SOL     OW35995   2.805   4.139   7.654 -0.3549  0.1310 -0.0026
 8178SOL    HW135996   2.898   4.159   7.646 -0.1254  0.1388  2.4979
 8178SOL    HW235997   2.801   4.043   7.660 -3.6599  0.2662 -0.3973
 8179SOL     OW35998   0.522   1.705  11.980  0.1200 -0.4632  0.4350
 8179SOL    HW135999   0.512   1.688  11.886 -0.2608 -3.1854  0.9704
 8179SOL    HW236000   0.605   1.753  11.982  0.4365 -1.1657  3.7716
 8180SOL     OW36001   2.405   0.033  10.333 -0.1002 -0.3608 -0.1346
 8180SOL    HW136002   2.491   4.723  10.348  0.0033  0.8540  2.2980
 8180SOL    HW236003   2.423   0.063  10.244  0.0670 -0.1465 -0.0302
 8181SOL     OW36004   2.214   1.071   2.867 -0.0018 -0.1835  0.3913
 8181SOL    HW136005   2.175   1.048   2.783 -1.7574 -0.1143  1.2028
 8181SOL    HW236006   2.246   0.985   2.895 -1.1460 -1.5106 -2.4112
 8182SOL     OW36007   2.490   2.612  13.034 -0.3486 -0.2662  0.2415
 8182SOL    HW136008   2.562   2.567  12.989  0.8570 -0.0122  1.9409
 8182SOL    HW236009   2.536   2.640  13.113 -1.0988  2.1151 -0.1644
 8183SOL     OW36010   0.972   0.291   3.736 -0.0089 -0.9524  0.6925
 8183SOL    HW136011   1.031   0.320   3.805 -0.3188  1.1624  0.0815
 8183SOL    HW236012   0.894   0.340   3.763  0.5754  1.0272 -1.2144
 8184SOL     OW36013   0.627   3.367   8.221 -0.2705  0.4360 -0.1302
 8184SOL    HW136014   0.699   3.422   8.251  1.6606 -1.1401 -1.8741
 8184SOL    HW236015   0.566   3.395   8.289  0.5180 -1.1444  1.2289
 8185SOL     OW36016   2.489   0.073   5.400  0.1084 -0.2675 -0.0939
 8185SOL    HW136017   2.395   0.084   5.385 -0.0830 -2.8248 -0.7769
 8185SOL    HW236018   2.519   0.137   5.335  0.3034 -0.1910  0.0736
 8186SOL     OW36019   3.914   2.347   6.462  0.4163  0.1226  0.2605
 8186SOL    HW136020   3.849   2.345   6.392 -0.5605  1.1933  1.1267
 8186SOL    HW236021   3.977   2.412   6.431  1.2093 -2.0105 -2.5560
 8187SOL     OW36022   4.136   2.187   8.648  0.3666  0.6190 -0.7899
 8187SOL    HW136023   4.214   2.243   8.646  0.5357  0.4171  0.5396
 8187SOL    HW236024   4.167   2.099   8.667 -2.3827 -0.5238 -1.5269
 8188SOL     OW36025   1.540   4.475   9.414  0.2634  0.5884  0.5176
 8188SOL    HW136026   1.589   4.553   9.439 -0.2535  0.9718  0.3526
 8188SOL    HW236027   1.452   4.510   9.427  0.1555 -1.0879  4.3514
 8189SOL     OW36028   2.659   1.897   1.659  0.3468 -0.1864 -0.7457
 8189SOL    HW136029   2.674   1.875   1.567  1.6643  0.2718 -0.6468
 8189SOL    HW236030   2.661   1.813   1.705  0.9439  0.6049  0.6827
 8190SOL     OW36031   3.976   2.383  13.645 -0.5285 -0.0000 -0.2316
 8190SOL    HW136032   4.060   2.369  13.601 -0.1970  1.9824 -0.2527
 8190SOL    HW236033   4.003   2.412  13.733 -0.5321 -0.3214 -0.1238
 8191SOL     OW36034   1.756   2.729  10.349  0.4018  0.0212  0.0074
 8191SOL    HW136035   1.848   2.717  10.327 -0.1436  0.4761 -2.6162
 8191SOL    HW236036   1.714   2.729  10.263  3.4394  1.0026 -1.4776
 8192SOL     OW36037   0.072   2.828   4.475 -0.1719  0.2502 -0.3948
 8192SOL    HW136038   0.112   2.855   4.558 -0.3594 -0.7654  0.0195
 8192SOL    HW236039   0.145   2.783   4.431 -0.0415  0.9998 -0.9432
 8193SOL     OW36040   3.786   3.664  11.411 -0.2056  0.5043  0.2413
 8193SOL    HW136041   3.824   3.676  11.324 -1.9884  0.6213 -0.5267
 8193SOL    HW236042   3.752   3.753  11.420 -1.2125 -0.1885  3.3492
 8194SOL     OW36043   2.535   3.478  16.517 -0.2771  0.2143  0.0115
 8194SOL    HW136044   2.553   3.488  16.424  1.4937  0.2724  0.3733
 8194SOL    HW236045   2.538   3.568  16.549  1.9739  0.3682 -0.6744
 8195SOL     OW36046   1.314   4.137   4.025  0.2233  0.1958 -0.2497
 8195SOL    HW136047   1.391   4.095   3.985 -0.0109 -1.5095  1.0835
 8195SOL    HW236048   1.271   4.173   3.948 -0.1255  0.2269 -0.0393
 8196SOL     OW36049   0.507   3.885   9.093  0.0889  0.2277 -0.0619
 8196SOL    HW136050   0.493   3.935   9.174 -0.4813  0.5925 -0.3877
 8196SOL    HW236051   0.579   3.832   9.127  0.3555 -0.7668 -2.1957
 8197SOL     OW36052   0.360   3.664   3.092 -0.4534 -0.0839 -0.2263
 8197SOL    HW136053   0.281   3.651   3.145 -1.1729 -2.0221 -1.8035
 8197SOL    HW236054   0.421   3.688   3.163 -1.9657  0.3710  0.9160
 8198SOL     OW36055   3.263   1.386   5.806 -0.1575  0.2058  0.0993
 8198SOL    HW136056   3.238   1.435   5.884  2.7194  1.4928  0.2057
 8198SOL    HW236057   3.288   1.452   5.741  1.5362  0.0949  0.6188
 8199SOL     OW36058   3.157   1.626   6.610 -0.2433 -0.7325 -0.0967
 8199SOL    HW136059   3.166   1.709   6.563 -0.2395 -0.5904  0.1524
 8199SOL    HW236060   3.099   1.583   6.547 -1.7456 -0.2129  0.9306
 8200SOL     OW36061   4.364   4.471   0.308 -0.5882  0.4124  0.1483
 8200SOL    HW136062   4.303   4.401   0.284 -0.7235  0.8710 -0.8473
 8200SOL    HW236063   4.411   4.426   0.378 -0.4360  2.3524  1.2828
 8201SOL     OW36064   2.621   2.040   3.486 -0.0042  0.1631 -0.8385
 8201SOL    HW136065   2.635   1.954   3.447 -0.2388  0.6387 -1.9625
 8201SOL    HW236066   2.530   2.064   3.468 -0.3881 -0.2890  0.4885
 8202SOL     OW36067   4.649   1.577   7.202 -0.1963  0.1280  0.7956
 8202SOL    HW136068   4.622   1.587   7.111  2.6280  0.0954 -0.0424
 8202SOL    HW236069   0.007   1.617   7.186  0.1785 -1.2328 -0.5615
 8203SOL     OW36070   2.695   1.903   9.412  0.3404 -0.5501 -0.3771
 8203SOL    HW136071   2.667   1.827   9.463 -2.9539  2.0092  1.6712
 8203SOL    HW236072   2.775   1.876   9.368 -0.7235  1.0105 -3.2718
 8204SOL     OW36073   1.664   1.999   9.402 -0.1493  0.5200  0.0298
 8204SOL    HW136074   1.731   2.029   9.341 -0.0010 -0.7984 -0.4435
 8204SOL    HW236075   1.593   2.013   9.339 -1.3882 -1.6478  0.9502
 8205SOL     OW36076   3.400   0.405   6.825 -0.0990 -0.7345  0.8406
 8205SOL    HW136077   3.396   0.471   6.894  0.4541  0.6536 -0.4683
 8205SOL    HW236078   3.485   0.421   6.784  0.4789 -2.9917  1.1332
 8206SOL     OW36079   0.448   1.220   5.996  0.4599 -0.3453  0.3855
 8206SOL    HW136080   0.542   1.215   6.010  0.7288 -0.9814 -1.6699
 8206SOL    HW236081   0.443   1.307   5.958 -0.9070 -0.5226  0.1608
 8207SOL     OW36082   2.150   1.990   6.376  0.5279 -0.0556 -0.2020
 8207SOL    HW136083   2.139   2.052   6.448  0.7039  0.6409 -0.7730
 8207SOL    HW236084   2.156   2.057   6.308 -0.0342  0.4016  0.1969
 8208SOL     OW36085   2.820   0.843   5.616  0.5167  0.3933  0.1627
 8208SOL    HW136086   2.771   0.821   5.538 -0.2212 -0.6393  0.9217
 8208SOL    HW236087   2.911   0.829   5.591  0.3322  1.1945 -0.9535
 8209SOL     OW36088   1.922   2.377   3.821 -0.7652  0.5880  0.5792
 8209SOL    HW136089   1.873   2.295   3.819  0.4256 -0.0857 -1.2792
 8209SOL    HW236090   1.982   2.365   3.895 -0.0269 -0.3418 -0.1678
 8210SOL     OW36091   2.428   2.530  12.568  0.0951 -0.3396  0.2880
 8210SOL    HW136092   2.404   2.463  12.632 -1.1415 -0.3600 -0.2160
 8210SOL    HW236093   2.520   2.516  12.592  0.9298  0.9647 -2.1777
 8211SOL     OW36094   1.969   4.254   6.637 -0.4744 -0.2632 -0.6813
 8211SOL    HW136095   1.989   4.187   6.702  2.0097 -0.3699 -1.5800
 8211SOL    HW236096   1.880   4.281   6.661  0.6164 -0.5606  3.7024
 8212SOL     OW36097   4.146   0.305   3.462 -0.3375  0.0815 -0.3372
 8212SOL    HW136098   4.188   0.353   3.533 -1.1590 -0.3592  0.4325
 8212SOL    HW236099   4.058   0.294   3.499 -0.3554  0.5367 -0.2483
 8213SOL     OW36100   2.498   1.405   6.104  0.2453 -0.0126  0.3153
 8213SOL    HW136101   2.456   1.375   6.185 -1.4858  1.5113  0.0032
 8213SOL    HW236102   2.465   1.352   6.032  0.4052 -0.7454  0.7894
 8214SOL     OW36103   0.742   0.108  11.298 -0.1000  0.2469 -0.1472
 8214SOL    HW136104   0.735   0.012  11.299 -3.0367  0.4432 -1.9874
 8214SOL    HW236105   0.693   0.127  11.378  0.9906 -1.9938  1.0497
 8215SOL     OW36106   3.157   0.051   1.878 -0.1824  0.0732  0.3282
 8215SOL    HW136107   3.244   0.012   1.871  0.5396  1.6673  0.3934
 8215SOL    HW236108   3.175   0.130   1.929  0.0484 -0.1357  0.5622
 8216SOL     OW36109   1.882   2.434   4.768 -0.1372 -0.2019 -0.6972
 8216SOL    HW136110   1.857   2.343   4.784 -0.7797 -0.0497 -0.8026
 8216SOL    HW236111   1.906   2.426   4.676  1.1013  0.1633 -0.4006
 8217SOL     OW36112   1.740   4.469   4.582  0.3359 -0.2062 -0.6078
 8217SOL    HW136113   1.661   4.434   4.540  0.7713 -1.2640 -0.5566
 8217SOL    HW236114   1.804   4.431   4.521  1.1870  2.4344 -1.3472
 8218SOL     OW36115   4.607   0.245  16.688  0.3731  0.0480  1.2659
 8218SOL    HW136116   4.671   0.173  16.695  1.7575  1.2025  0.4534
 8218SOL    HW236117   4.528   0.211  16.730  1.1880 -0.7398  2.1885
 8219SOL     OW36118   4.067   0.640   0.452 -0.3769  0.3707 -0.1404
 8219SOL    HW136119   4.145   0.668   0.499  0.5820 -3.6780  0.7197
 8219SOL    HW236120   4.055   0.720   0.401  0.6189  1.0854  0.7637
 8220SOL     OW36121   1.233   1.386   8.624 -0.2641  0.3231 -0.3866
 8220SOL    HW136122   1.163   1.359   8.684 -0.9431  0.6748 -1.0228
 8220SOL    HW236123   1.226   1.480   8.638  0.6109  0.5886 -1.6704
 8221SOL     OW36124   1.222   0.692  17.366 -0.1456 -0.1598  0.5492
 8221SOL    HW136125   1.301   0.716  17.414 -0.4945  2.1432 -0.0234
 8221SOL    HW236126   1.164   0.763  17.394  0.5628  0.4880  0.3845
 8222SOL     OW36127   0.313   1.529   9.410  0.5829  0.7474 -0.1805
 8222SOL    HW136128   0.387   1.473   9.432  1.4977  2.3617  0.8229
 8222SOL    HW236129   0.319   1.589   9.484 -0.5402 -0.4530  0.9006
 8223SOL     OW36130   2.107   3.649  11.198  0.0242 -0.2604 -0.6409
 8223SOL    HW136131   2.144   3.733  11.174  0.7571 -0.5861 -0.6515
 8223SOL    HW236132   2.177   3.592  11.166  2.2601  1.0687  1.8726
 8224SOL     OW36133   4.413   3.022   9.457  0.1660  0.1395 -0.4130
 8224SOL    HW136134   4.426   2.991   9.546 -2.9325  0.5487  0.2031
 8224SOL    HW236135   4.322   2.993   9.444  0.3899 -0.6159 -0.2745
 8225SOL     OW36136   1.853   2.865   2.514 -0.0035  0.2243 -0.2560
 8225SOL    HW136137   1.879   2.845   2.424 -0.2006  0.2384 -0.3170
 8225SOL    HW236138   1.785   2.931   2.502  0.1856  0.5911  0.7384
 8226SOL     OW36139   3.051   2.964   4.345  0.1624  0.6083 -0.1691
 8226SOL    HW136140   3.106   3.030   4.302 -0.9163  0.4629 -1.7808
 8226SOL    HW236141   3.115   2.905   4.383 -0.3351 -0.4078 -0.9074
 8227SOL     OW36142   1.686   0.282   8.198  0.0280 -0.1435 -0.2140
 8227SOL    HW136143   1.594   0.304   8.185  0.1672 -0.2266 -1.2856
 8227SOL    HW236144   1.692   0.189   8.218 -1.2181 -0.7735 -2.8271
 8228SOL     OW36145   2.268   0.902   0.655  0.2808  0.3438  0.1261
 8228SOL    HW136146   2.208   0.895   0.729  0.0447  2.4000  0.1133
 8228SOL    HW236147   2.258   0.813   0.620 -2.7842  0.5388  0.5658
 8229SOL     OW36148   2.118   1.831  14.964  0.5119 -0.1730  0.2294
 8229SOL    HW136149   2.184   1.833  15.033 -1.7816 -1.2318  2.4548
 8229SOL    HW236150   2.122   1.924  14.941 -1.1766 -0.0762  0.3113
 8230SOL     OW36151   0.074   0.303   3.852  1.0384  0.2088  0.3399
 8230SOL    HW136152   0.059   0.208   3.849  0.0349  0.3755  0.2976
 8230SOL    HW236153   0.006   0.336   3.911 -0.1866 -1.5482 -0.0913
 8231SOL     OW36154   3.657   0.958   2.444 -0.5726  0.1367  1.0441
 8231SOL    HW136155   3.572   0.917   2.429 -0.6690 -0.4645  3.1747
 8231SOL    HW236156   3.634   1.003   2.525 -1.2765  1.3465  0.1673
 8232SOL     OW36157   3.963   3.211   9.242 -0.8180  0.0440  0.6927
 8232SOL    HW136158   3.927   3.230   9.155  0.9401 -2.3677 -0.5600
 8232SOL    HW236159   3.962   3.302   9.269 -2.1317  0.3884 -0.4968
 8233SOL     OW36160   0.776   1.155   8.731  0.4170 -0.1072  0.4491
 8233SOL    HW136161   0.817   1.130   8.648 -1.1951 -0.6613 -0.1843
 8233SOL    HW236162   0.719   1.222   8.694  0.8191  0.6540  1.2102
 8234SOL     OW36163   0.165   3.689  10.715  0.1729  0.1198 -0.3947
 8234SOL    HW136164   0.209   3.768  10.682  1.7003 -0.2054  0.8623
 8234SOL    HW236165   0.166   3.706  10.809 -2.9515  1.3386 -0.5837
 8235SOL     OW36166   1.307   0.784   6.828 -0.1184  0.4469 -1.0926
 8235SOL    HW136167   1.314   0.725   6.752 -0.6549  0.5916 -1.2535
 8235SOL    HW236168   1.328   0.725   6.901 -0.9959 -0.3121 -1.4593
 8236SOL     OW36169   1.477   2.424   7.352  0.1051  0.1419  0.0170
 8236SOL    HW136170   1.491   2.495   7.415  0.2063 -0.7081  0.9491
 8236SOL    HW236171   1.560   2.377   7.366  0.5510  1.5771  2.2302
 8237SOL     OW36172   4.709   0.630  15.669 -0.2826  0.4772  0.2832
 8237SOL    HW136173   0.065   0.586  15.653  0.3729  1.5642  0.7246
 8237SOL    HW236174   4.660   0.624  15.587 -1.0233 -0.3995  0.7773
 8238SOL     OW36175   0.431   1.002   0.924  0.0182 -0.7233  0.1368
 8238SOL    HW136176   0.524   0.986   0.908 -0.2631 -1.1407 -1.0223
 8238SOL    HW236177   0.425   1.073   0.860 -2.0685 -1.0387  0.0019
 8239SOL     OW36178   4.307   2.162   6.744 -0.2240  0.2333 -0.2866
 8239SOL    HW136179   4.215   2.182   6.729 -0.1300  0.8182 -0.0554
 8239SOL    HW236180   4.298   2.094   6.812 -0.4294 -0.8906 -1.4344
 8240SOL     OW36181   4.131   3.266   6.962 -0.8365  0.0170 -0.1170
 8240SOL    HW136182   4.145   3.220   6.879  2.3011  1.7491 -0.5294
 8240SOL    HW236183   4.223   3.281   6.982 -1.5117  1.3982  1.9833
 8241SOL     OW36184   0.720   0.009   5.502  0.3610 -0.0209  0.0091
 8241SOL    HW136185   0.779   0.011   5.577  1.9063  2.0118 -1.2655
 8241SOL    HW236186   0.687   4.648   5.519  2.0019  0.0066  3.4620
 8242SOL     OW36187   1.297   0.757  13.480  0.6136  0.2320 -0.2851
 8242SOL    HW136188   1.335   0.671  13.463  0.5192 -0.2308  1.8619
 8242SOL    HW236189   1.204   0.734  13.480  0.5276  0.5759 -0.7922
 8243SOL     OW36190   0.845   2.794   8.552  0.2802  0.4664  0.1537
 8243SOL    HW136191   0.852   2.699   8.541 -2.3661  0.5510 -2.2998
 8243SOL    HW236192   0.813   2.797   8.642  0.8873  1.4185  0.3336
 8244SOL     OW36193   0.488   4.409   2.406 -0.0691 -0.0152  0.7148
 8244SOL    HW136194   0.531   4.442   2.485  2.1150  0.4209 -0.6647
 8244SOL    HW236195   0.531   4.324   2.396  0.9874  0.6618 -0.5160
 8245SOL     OW36196   2.083   0.839   7.808  0.2592 -0.5300  0.3234
 8245SOL    HW136197   2.144   0.903   7.770  0.0267 -0.1454  0.5917
 8245SOL    HW236198   2.133   0.758   7.818  0.8548 -0.0783  1.0255
 8246SOL     OW36199   4.681   3.637   1.494  0.1781 -0.7916  0.2314
 8246SOL    HW136200   4.712   3.560   1.446  1.4018  0.3145 -0.7583
 8246SOL    HW236201   4.594   3.656   1.460 -0.4273 -2.8526  0.5888
 8247SOL     OW36202   0.127   3.139   5.337  0.6435  0.0602  0.5104
 8247SOL    HW136203   0.106   3.232   5.333  0.6069  0.0761  1.2213
 8247SOL    HW236204   0.154   3.133   5.428 -0.1630 -0.4131  0.7177
 8248SOL     OW36205   4.238   0.500   0.053  0.0606  0.2767 -0.0704
 8248SOL    HW136206   4.190   0.571   0.010 -2.0481  0.0787  1.9353
 8248SOL    HW236207   4.320   0.513   0.006 -0.1140 -0.2976 -0.5303
 8249SOL     OW36208   4.691   1.860  11.831  0.0017 -0.1976  0.4356
 8249SOL    HW136209   0.046   1.905  11.812  0.0847  0.1718  1.6763
 8249SOL    HW236210   4.628   1.925  11.802  1.6300  1.3178  0.2799
 8250SOL     OW36211   2.457   2.033   9.460  0.1072  0.4555  0.5765
 8250SOL    HW136212   2.425   1.980   9.533  0.9013 -3.1883 -1.7271
 8250SOL    HW236213   2.542   1.991   9.448  0.4485  1.5151 -0.7211
 8251SOL     OW36214   4.464   2.720   6.622 -0.0421 -0.1858 -0.3377
 8251SOL    HW136215   4.470   2.705   6.716 -0.5780 -1.7675 -0.5508
 8251SOL    HW236216   4.548   2.760   6.600 -1.0422  3.2147  2.0782
 8252SOL     OW36217   1.041   0.462   4.755  0.3730  0.1956 -0.0973
 8252SOL    HW136218   1.119   0.412   4.731 -0.1751 -0.6092 -0.2051
 8252SOL    HW236219   1.013   0.407   4.828  0.7392 -1.9197 -1.5300
 8253SOL     OW36220   1.501   3.543   7.050 -0.7889 -0.0274  0.1247
 8253SOL    HW136221   1.490   3.461   7.002  0.3485  0.3522 -0.7861
 8253SOL    HW236222   1.407   3.560   7.053 -1.1499 -2.2906  1.1774
 8254SOL     OW36223   1.560   0.481   7.514 -0.3554  0.1624  0.0433
 8254SOL    HW136224   1.509   0.409   7.550 -0.4590  0.3917  0.3594
 8254SOL    HW236225   1.519   0.553   7.563  0.0814 -0.3551  1.1720
 8255SOL     OW36226   1.608   1.604   6.300 -0.2472  0.0335  0.4897
 8255SOL    HW136227   1.531   1.563   6.339  0.0930 -1.2576 -0.1886
 8255SOL    HW236228   1.638   1.537   6.239  1.0338  0.7315  0.3527
 8256SOL     OW36229   0.731   2.461   5.787  0.2482  0.8810 -0.2298
 8256SOL    HW136230   0.741   2.498   5.875  1.6264  0.5427 -0.2393
 8256SOL    HW236231   0.816   2.416   5.784  1.2109  2.7159 -0.6048
 8257SOL     OW36232   0.753   0.453   0.302 -0.3407 -0.1875  0.2652
 8257SOL    HW136233   0.724   0.373   0.347  2.2199 -1.0906  0.2992
 8257SOL    HW236234   0.703   0.524   0.341  0.4447  0.3852  0.2222
 8258SOL     OW36235   3.604   4.655   5.185 -0.0594 -0.6987 -0.3847
 8258SOL    HW136236   3.698   4.650   5.200  0.1607  2.0395 -0.8526
 8258SOL    HW236237   3.588   0.018   5.212 -1.6054 -0.7239 -1.2100
 8259SOL     OW36238   4.293   0.244   6.320  0.2692 -0.2387  0.4584
 8259SOL    HW136239   4.342   0.327   6.318 -0.6578  0.3646  2.4982
 8259SOL    HW236240   4.357   0.174   6.333 -2.0386 -2.2806  0.7357
 8260SOL     OW36241   3.939   2.554  15.489 -0.1820  0.3163  0.1032
 8260SOL    HW136242   3.927   2.647  15.511 -2.2441  0.0658  0.0377
 8260SOL    HW236243   3.856   2.534  15.446 -0.2856  1.7655 -0.3727
 8261SOL     OW36244   1.360   1.666   2.279  0.2237 -0.1725 -0.9505
 8261SOL    HW136245   1.351   1.758   2.303 -3.0661 -0.2991 -1.5853
 8261SOL    HW236246   1.314   1.655   2.196  2.6254 -1.9302 -2.0327
 8262SOL     OW36247   2.268   2.738   0.276  0.2401 -0.3486 -0.0555
 8262SOL    HW136248   2.247   2.670   0.212 -0.2586  0.8442 -1.1313
 8262SOL    HW236249   2.213   2.809   0.246  1.5963  1.2391  1.2120
 8263SOL     OW36250   1.254   0.770   8.819  0.0376  0.0760  0.8963
 8263SOL    HW136251   1.336   0.779   8.867 -0.1437  1.1699  1.0103
 8263SOL    HW236252   1.228   0.681   8.842  0.9017 -0.4472 -0.1570
 8264SOL     OW36253   2.761   4.274  16.883  0.1224 -0.0106  0.2199
 8264SOL    HW136254   2.710   4.341  16.929 -0.7066  1.0205 -2.1917
 8264SOL    HW236255   2.692   4.211  16.863 -0.0592 -0.3368  1.9156
 8265SOL     OW36256   2.287   4.525   8.722 -0.5426 -0.2164  0.2733
 8265SOL    HW136257   2.278   4.619   8.740 -2.6497 -0.4390  0.3663
 8265SOL    HW236258   2.377   4.524   8.690 -0.3714  0.9900  0.7000
 8266SOL     OW36259   0.702   0.582   5.837 -0.5742 -0.2821  0.1990
 8266SOL    HW136260   0.698   0.631   5.920  2.9366 -0.2147  0.3125
 8266SOL    HW236261   0.644   0.640   5.787 -1.1742 -1.9651 -1.0458
 8267SOL     OW36262   3.205   2.587  13.222 -0.0670  0.0943 -0.3914
 8267SOL    HW136263   3.241   2.500  13.240  1.0053  0.4223 -0.8997
 8267SOL    HW236264   3.282   2.641  13.242 -0.4340  0.9935 -1.4369
 8268SOL     OW36265   4.368   2.316   2.178 -0.0560 -0.4880 -0.2946
 8268SOL    HW136266   4.459   2.302   2.153 -0.1331 -1.0248 -0.2909
 8268SOL    HW236267   4.336   2.362   2.101  1.7267  1.6570  0.2570
 8269SOL     OW36268   3.327   1.506   0.758  0.1668 -0.1269  0.5193
 8269SOL    HW136269   3.408   1.557   0.763 -0.4067  0.8097  0.2937
 8269SOL    HW236270   3.297   1.523   0.669 -3.6637 -2.8043  1.2811
 8270SOL     OW36271   2.554   0.042   8.074  0.9627 -0.1293  0.0053
 8270SOL    HW136272   2.498   4.697   8.046 -0.6210 -0.5062  4.1559
 8270SOL    HW236273   2.609   0.001   8.141  2.1592  0.7245 -0.4501
 8271SOL     OW36274   0.099   1.855   0.509  0.4796  0.6131 -0.1605
 8271SOL    HW136275   0.113   1.761   0.502 -2.2795  0.2469 -0.6806
 8271SOL    HW236276   0.181   1.872   0.556 -0.5211  0.5158  1.6137
 8272SOL     OW36277   1.323   2.075   5.636 -0.3897  0.1419  0.0265
 8272SOL    HW136278   1.336   2.032   5.552  2.8826 -0.4333  0.8410
 8272SOL    HW236279   1.409   2.116   5.642 -0.7573  0.8170  0.6910
 8273SOL     OW36280   0.095   3.118   7.545 -0.0094 -0.0075 -0.4219
 8273SOL    HW136281   0.030   3.056   7.511 -2.8122  2.2063  0.8692
 8273SOL    HW236282   0.167   3.061   7.574  0.1616  1.2906  1.6808
 8274SOL     OW36283   3.667   3.211   7.713  0.5258  0.2523  0.1211
 8274SOL    HW136284   3.596   3.250   7.663  0.1893  1.4024  1.4950
 8274SOL    HW236285   3.746   3.222   7.660  0.2022 -0.0615 -0.4231
 8275SOL     OW36286   4.364   1.773   4.617 -0.6775 -0.3884  0.0699
 8275SOL    HW136287   4.376   1.802   4.526 -0.3099  1.3134  0.6619
 8275SOL    HW236288   4.342   1.860   4.649  2.0245  0.7049 -0.9987
 8276SOL     OW36289   2.197   4.355   3.553  0.1922 -0.0021 -0.0355
 8276SOL    HW136290   2.225   4.402   3.474  0.3185  0.4925  0.3061
 8276SOL    HW236291   2.280   4.357   3.601 -0.0735  0.4545  0.3947
 8277SOL     OW36292   3.083   2.797  17.114  0.4447  0.8401  0.0309
 8277SOL    HW136293   3.157   2.793  17.053  1.0230 -3.2491  1.0381
 8277SOL    HW236294   3.076   2.713  17.158  0.5702  2.0581  2.3562
 8278SOL     OW36295   2.459   2.100  17.613  0.1521  0.1605  0.2367
 8278SOL    HW136296   2.396   2.094  17.684 -0.2452 -1.4612 -0.2494
 8278SOL    HW236297   2.476   2.007  17.600 -2.0537 -0.2048 -0.0663
 8279SOL     OW36298   0.457   3.633  17.444  0.4609 -0.3533 -0.2745
 8279SOL    HW136299   0.537   3.681  17.462  1.3896 -2.5224  1.4169
 8279SOL    HW236300   0.401   3.707  17.419 -0.1167 -1.0393 -1.0378
 8280SOL     OW36301   0.397   0.011  10.868 -0.0188 -0.6315 -0.9934
 8280SOL    HW136302   0.352   0.032  10.950  1.4545  0.4241 -0.4602
 8280SOL    HW236303   0.419   0.097  10.831 -0.4205  0.5597  1.5467
 8281SOL     OW36304   2.326   0.065  15.991  0.1609  0.0433 -0.1341
 8281SOL    HW136305   2.281   0.124  16.051 -1.4432 -2.4560  1.1432
 8281SOL    HW236306   2.249   0.028  15.947  0.2460 -0.0971 -0.1638
 8282SOL     OW36307   2.123   1.478   3.649  0.6030 -0.3410  0.1450
 8282SOL    HW136308   2.123   1.390   3.687  0.9035 -1.2429 -1.9322
 8282SOL    HW236309   2.207   1.471   3.603  0.0299 -0.6692 -0.8676
 8283SOL     OW36310   2.292   2.829   7.667  0.7199 -0.1957  0.3972
 8283SOL    HW136311   2.221   2.776   7.702 -0.4477  0.8907 -0.3219
 8283SOL    HW236312   2.318   2.801   7.579  2.2996  0.9741  0.4775
 8284SOL     OW36313   2.302   3.258  15.668  0.0156  0.5709 -0.0237
 8284SOL    HW136314   2.246   3.224  15.738 -0.0754  2.1269  0.6435
 8284SOL    HW236315   2.236   3.246  15.599  0.5996 -0.0282 -0.4785
 8285SOL     OW36316   3.366   0.847   0.015 -0.2581 -0.2627  0.0115
 8285SOL    HW136317   3.279   0.872   0.046 -0.5653 -1.1046 -0.1777
 8285SOL    HW236318   3.380   0.900  17.646 -1.6529 -0.0428 -0.0835
 8286SOL     OW36319   1.926   3.664  17.037  0.4001  0.2739 -0.3333
 8286SOL    HW136320   2.004   3.708  17.005 -0.5479  3.0161  1.1352
 8286SOL    HW236321   1.913   3.715  17.117  0.8811 -0.0001 -0.0821
 8287SOL     OW36322   2.054   3.100   1.818 -0.0155 -0.2030 -0.2033
 8287SOL    HW136323   2.037   3.160   1.891 -1.5612  0.9414 -1.5064
 8287SOL    HW236324   2.103   3.149   1.752 -1.1401 -1.2925 -1.8433
 8288SOL     OW36325   0.900   2.339   0.880 -0.3705  0.4008  0.2919
 8288SOL    HW136326   0.856   2.354   0.964 -0.5269  1.3375  0.0434
 8288SOL    HW236327   0.831   2.295   0.832  1.4612  0.5226 -2.4596
 8289SOL     OW36328   0.099   3.239   0.220 -0.0812  0.2823 -0.2010
 8289SOL    HW136329   0.095   3.332   0.242  1.9175  0.7152 -1.6887
 8289SOL    HW236330   0.007   3.228   0.197 -0.2609  3.2344 -0.9693
 8290SOL     OW36331   2.050   0.554   7.016 -0.6248  0.3126  0.0644
 8290SOL    HW136332   2.096   0.585   6.938  0.5306 -0.8517  0.3007
 8290SOL    HW236333   2.050   0.631   7.073 -0.7870 -1.4331  2.4097
 8291SOL     OW36334   1.031   0.338   0.566  0.0197  0.2296  0.3338
 8291SOL    HW136335   1.123   0.345   0.595  0.2894  0.9330 -0.6962
 8291SOL    HW236336   1.024   0.410   0.503 -0.0352  0.6473  0.8153
 8292SOL     OW36337   1.596   4.290   3.408 -0.7496  0.1721 -0.2336
 8292SOL    HW136338   1.657   4.343   3.461  1.3526 -3.6134  1.0874
 8292SOL    HW236339   1.560   4.236   3.478  1.1842 -1.4588 -0.4985
 8293SOL     OW36340   1.938   1.035   2.312 -0.2453 -0.4057 -0.0650
 8293SOL    HW136341   1.954   0.941   2.325 -2.0866 -0.6764  0.2037
 8293SOL    HW236342   2.012   1.068   2.363 -1.3227  2.1018 -0.1447
 8294SOL     OW36343   1.539   2.154  11.488  0.2598 -0.6207  0.1903
 8294SOL    HW136344   1.589   2.073  11.474 -1.1375 -1.5194  0.3806
 8294SOL    HW236345   1.490   2.154  11.406  0.5470 -0.5520  0.0164
 8295SOL     OW36346   0.598   3.880   2.740  0.4675 -0.3140 -0.2892
 8295SOL    HW136347   0.586   3.795   2.781 -0.1678 -0.8869 -1.6590
 8295SOL    HW236348   0.532   3.931   2.787 -0.1944 -0.7105 -0.7744
 8296SOL     OW36349   3.097   0.737  16.947  0.4144 -0.1423 -0.4131
 8296SOL    HW136350   3.126   0.794  17.019 -1.5648  1.4175 -0.8408
 8296SOL    HW236351   3.091   0.788  16.865 -1.8674  0.7642  0.3071
 8297SOL     OW36352   4.576   4.071   3.231 -0.5750 -0.1958  0.1319
 8297SOL    HW136353   4.558   4.109   3.317 -0.6988  1.0522 -0.4449
 8297SOL    HW236354   4.593   3.979   3.253 -0.0981 -0.0150  0.4984
 8298SOL     OW36355   2.546   3.373  14.704  0.1736 -0.4064 -0.2429
 8298SOL    HW136356   2.478   3.425  14.746  0.8495  1.6231 -1.6628
 8298SOL    HW236357   2.578   3.440  14.643  0.1548 -0.8647 -0.7623
 8299SOL     OW36358   2.202   1.372  17.046 -0.5960  0.4361 -0.6688
 8299SOL    HW136359   2.206   1.282  17.012 -0.2321 -1.2399  3.7739
 8299SOL    HW236360   2.140   1.353  17.116  1.2262 -4.1682 -0.2673
 8300SOL     OW36361   4.221   2.737  10.799  0.4330  0.4494 -0.1372
 8300SOL    HW136362   4.263   2.743  10.885  0.1198  1.7894 -0.0884
 8300SOL    HW236363   4.154   2.673  10.821  0.6798  1.0273  2.3279
 8301SOL     OW36364   3.522   2.851   9.109  0.6072 -0.3990  0.3695
 8301SOL    HW136365   3.549   2.930   9.157 -1.1681 -0.4721  1.4617
 8301SOL    HW236366   3.531   2.882   9.018  0.5141  0.8675  0.7956
 8302SOL     OW36367   3.238   1.640   7.438 -0.0277 -0.2694 -0.2572
 8302SOL    HW136368   3.184   1.632   7.517 -0.1033  1.2597 -0.1603
 8302SOL    HW236369   3.277   1.553   7.440  0.0147 -0.2543 -0.3964
 8303SOL     OW36370   1.754   0.848   2.887  0.1860  0.7187 -0.1348
 8303SOL    HW136371   1.783   0.825   2.799  3.2806  0.0067  1.0634
 8303SOL    HW236372   1.664   0.817   2.899  0.5180 -1.2382 -2.7848
 8304SOL     OW36373   4.072   2.828   5.587 -0.5913  0.4114  0.1930
 8304SOL    HW136374   4.055   2.781   5.505  1.6940 -1.2573  0.6718
 8304SOL    HW236375   4.127   2.898   5.551 -2.4167  2.5238  1.4911
 8305SOL     OW36376   2.389   2.810   8.029 -0.1057  0.4422  0.7136
 8305SOL    HW136377   2.441   2.732   8.012 -0.8109  0.1727 -0.2274
 8305SOL    HW236378   2.401   2.828   8.123 -3.8312 -0.3368  1.3159
 8306SOL     OW36379   0.572   4.378   5.104  0.3300 -0.3231 -0.1477
 8306SOL    HW136380   0.646   4.407   5.158 -0.1339  0.0445  0.2915
 8306SOL    HW236381   0.579   4.438   5.030 -0.7298 -0.1794 -0.1286
 8307SOL     OW36382   2.447   0.393   5.054  0.9439 -0.3128 -0.3092
 8307SOL    HW136383   2.423   0.449   5.128  2.4466  0.7127 -0.5933
 8307SOL    HW236384   2.437   0.447   4.975 -0.6614  2.7251  1.9825
 8308SOL     OW36385   2.204   3.603   8.390  0.1908 -0.0076 -0.0482
 8308SOL    HW136386   2.185   3.650   8.309  1.8646  0.6232 -0.0869
 8308SOL    HW236387   2.114   3.590   8.421  0.1985  0.8271  0.3301
 8309SOL     OW36388   4.253   4.328   3.321 -0.1560  0.1441  0.3268
 8309SOL    HW136389   4.274   4.408   3.272  1.4624 -0.8280 -0.5761
 8309SOL    HW236390   4.328   4.272   3.298  0.1509  0.9208 -0.5566
 8310SOL     OW36391   0.952   0.806   7.642 -0.3261 -0.4879  0.2838
 8310SOL    HW136392   0.918   0.867   7.576  0.5638 -2.4123 -1.9437
 8310SOL    HW236393   0.886   0.819   7.711 -1.9993 -1.0545 -1.2044
 8311SOL     OW36394   4.167   2.112   7.793 -0.1880 -0.1147 -0.5415
 8311SOL    HW136395   4.217   2.116   7.712  4.4085 -0.2386  2.3105
 8311SOL    HW236396   4.075   2.134   7.777  0.1469  1.6619  0.0116
 8312SOL     OW36397   2.340   0.830   8.157 -0.0076  0.2171 -0.0542
 8312SOL    HW136398   2.413   0.861   8.211 -1.4220 -1.9814  3.1172
 8312SOL    HW236399   2.316   0.912   8.114  0.5506 -0.5492 -1.8327
 8313SOL     OW36400   3.038   1.619  17.692  0.2586  0.0483  0.3990
 8313SOL    HW136401   2.974   1.561   0.023 -0.4621 -0.5540 -1.5926
 8313SOL    HW236402   3.028   1.592  17.601 -2.3329 -0.4709  0.8497
 8314SOL     OW36403   3.014   0.274   5.538 -0.0160  0.2058  0.0578
 8314SOL    HW136404   2.939   0.285   5.480 -0.6215  1.1411  1.0071
 8314SOL    HW236405   2.960   0.245   5.613 -0.6621 -1.1220 -0.9133
 8315SOL     OW36406   3.115   2.658   6.934  0.4849  0.2607 -0.4080
 8315SOL    HW136407   3.022   2.637   6.946  0.8727  0.2836  2.6525
 8315SOL    HW236408   3.141   2.599   6.863  0.0371 -1.4524  0.8359
 8316SOL     OW36409   2.995   1.351   6.818 -0.2152 -0.3092 -0.2425
 8316SOL    HW136410   2.902   1.372   6.818 -0.1816 -0.1821 -1.7614
 8316SOL    HW236411   2.987   1.260   6.846 -0.8969  0.2276  1.3085
 8317SOL     OW36412   0.049   0.945   3.686 -0.2051  0.3499  0.1647
 8317SOL    HW136413   0.035   0.851   3.671  1.4178  0.1518 -0.1313
 8317SOL    HW236414   0.041   0.985   3.600 -0.8047 -0.6024 -0.2183
 8318SOL     OW36415   1.064   3.853   9.189  0.1233  0.2186 -0.1461
 8318SOL    HW136416   1.136   3.826   9.133  0.5652  0.5099  0.2818
 8318SOL    HW236417   1.070   3.780   9.249 -1.3533 -0.4789 -0.8450
 8319SOL     OW36418   1.568   3.409   2.726 -0.4944  0.9386  0.6023
 8319SOL    HW136419   1.515   3.330   2.719 -0.3479  0.7787  1.2994
 8319SOL    HW236420   1.592   3.402   2.633  0.3100  2.1544  0.7149
 8320SOL     OW36421   0.944   3.745   0.713 -0.1187 -0.2444 -0.3570
 8320SOL    HW136422   0.868   3.796   0.685 -1.2756 -1.1485  1.1434
 8320SOL    HW236423   1.013   3.811   0.706 -0.3596 -0.1967 -2.2051
 8321SOL     OW36424   0.953   2.263  14.220  0.1952 -0.3394  0.3893
 8321SOL    HW136425   0.912   2.192  14.269  1.9181  0.0428  2.3757
 8321SOL    HW236426   0.900   2.261  14.140 -0.3640  0.1238  0.7527
 8322SOL     OW36427   3.630   0.430  10.529  0.2904 -0.3010  0.0104
 8322SOL    HW136428   3.597   0.409  10.617 -1.4130  0.6814 -0.3998
 8322SOL    HW236429   3.621   0.340  10.498  0.9585 -0.4589  0.2837
 8323SOL     OW36430   3.528   1.732   2.275 -0.0462 -0.0236 -0.2688
 8323SOL    HW136431   3.513   1.657   2.217 -1.3890  0.0430 -0.0073
 8323SOL    HW236432   3.529   1.687   2.359  2.9164  0.3681 -0.0894
 8324SOL     OW36433   4.301   3.751   2.145 -0.1802  0.1743 -0.2365
 8324SOL    HW136434   4.380   3.769   2.095 -0.2145 -2.7710 -1.3433
 8324SOL    HW236435   4.298   3.656   2.146  2.3648  0.1103  0.5886
 8325SOL     OW36436   2.202   2.167   2.079  0.4343  0.5450  0.5293
 8325SOL    HW136437   2.142   2.144   2.009 -0.8697  0.5474  1.6472
 8325SOL    HW236438   2.261   2.092   2.087  2.7903  2.1659 -1.8098
 8326SOL     OW36439   0.608   0.207   8.883  0.2329  0.4177 -0.1191
 8326SOL    HW136440   0.531   0.167   8.844 -0.6125  2.3247 -0.3907
 8326SOL    HW236441   0.560   0.256   8.950 -0.4424 -0.1817 -0.1592
 8327SOL     OW36442   3.807   3.493   2.809 -0.2785 -0.3711  0.0063
 8327SOL    HW136443   3.870   3.558   2.839 -1.0456 -0.7150  2.4065
 8327SOL    HW236444   3.765   3.548   2.742 -0.3905 -0.8732 -0.3358
 8328SOL     OW36445   4.586   4.005  15.536  0.5816  0.4063  0.0241
 8328SOL    HW136446   4.504   4.031  15.578  0.2376 -2.2087  0.9496
 8328SOL    HW236447   4.648   4.078  15.542  1.1128 -0.0139 -0.3098
 8329SOL     OW36448   4.424   1.643   0.144 -0.8342  0.2311  0.4414
 8329SOL    HW136449   4.396   1.715   0.088  1.6768 -0.3012 -1.4823
 8329SOL    HW236450   4.399   1.679   0.230 -0.7498  0.3270  0.4258
 8330SOL     OW36451   2.937   4.454   8.321 -0.5551  0.0333 -0.7717
 8330SOL    HW136452   2.922   4.371   8.275 -0.6406  0.0952 -0.8565
 8330SOL    HW236453   2.938   4.429   8.413  3.1101 -0.0114 -0.8227
 8331SOL     OW36454   3.932   2.151  17.258 -0.1242 -0.6893 -0.1746
 8331SOL    HW136455   4.025   2.176  17.260 -0.1173 -0.6506 -1.1690
 8331SOL    HW236456   3.936   2.067  17.213  1.5683  0.5670 -2.3860
 8332SOL     OW36457   1.282   1.799   9.296 -0.3635  0.1182 -0.5583
 8332SOL    HW136458   1.191   1.775   9.312  0.1282 -1.6414 -0.3675
 8332SOL    HW236459   1.290   1.755   9.212  2.6999 -0.5973  0.1069
 8333SOL     OW36460   1.854   1.417   4.850  0.1476  0.7249 -0.1541
 8333SOL    HW136461   1.925   1.367   4.890  0.6011  2.6176  1.3774
 8333SOL    HW236462   1.792   1.345   4.836  2.4438 -1.5824  1.4884
 8334SOL     OW36463   1.591   1.494   8.037 -0.5732  0.0112 -0.0706
 8334SOL    HW136464   1.612   1.485   8.130  1.0545  3.8938 -0.0696
 8334SOL    HW236465   1.556   1.405   8.024  2.0921 -0.8700 -1.1427
 8335SOL     OW36466   1.235   3.586   7.015  0.5854 -0.4163 -0.1669
 8335SOL    HW136467   1.167   3.562   6.952 -0.5344 -0.0107  0.8755
 8335SOL    HW236468   1.197   3.550   7.095  1.5089  2.6170  1.6509
 8336SOL     OW36469   3.417   1.888   2.076  0.4763 -0.0534  0.6207
 8336SOL    HW136470   3.454   1.843   2.152 -2.5146 -1.0837  1.4577
 8336SOL    HW236471   3.405   1.979   2.102  0.3365  0.9634 -3.0483
 8337SOL     OW36472   3.461   0.429   4.112  0.0714  0.2023  0.1831
 8337SOL    HW136473   3.512   0.355   4.144 -2.5994 -1.1306  1.3284
 8337SOL    HW236474   3.395   0.382   4.062 -0.0549  0.5802 -0.0080
 8338SOL     OW36475   4.661   4.528   2.878 -0.1192  0.2345 -0.3046
 8338SOL    HW136476   4.673   4.610   2.927  0.1436 -0.7166  1.2235
 8338SOL    HW236477   4.658   4.564   2.789 -1.9609 -2.6624 -1.4125
 8339SOL     OW36478   3.613   1.845   6.053 -0.0414  0.1553  0.0042
 8339SOL    HW136479   3.691   1.891   6.083 -0.7244 -0.2213  2.3690
 8339SOL    HW236480   3.545   1.885   6.106  0.6449 -1.1213  1.8863
 8340SOL     OW36481   2.368   0.492   2.523  0.1645 -0.0455  0.1904
 8340SOL    HW136482   2.406   0.507   2.610  0.8811 -0.6118 -0.0281
 8340SOL    HW236483   2.345   0.399   2.519  2.7786 -0.7013  0.2303
 8341SOL     OW36484   2.151   0.658   9.429  0.0227 -0.3810  0.3308
 8341SOL    HW136485   2.218   0.669   9.496 -2.3372 -0.3226  2.6689
 8341SOL    HW236486   2.090   0.730   9.442  0.7752  0.0404  1.5310
 8342SOL     OW36487   1.007   3.272  16.899 -0.4781  0.8253  0.1412
 8342SOL    HW136488   1.017   3.328  16.823  0.4993 -0.2873 -0.5499
 8342SOL    HW236489   1.095   3.282  16.937 -0.4605 -1.3440  0.7032
 8343SOL     OW36490   2.060   2.233   5.159  0.0515 -0.1995 -0.4278
 8343SOL    HW136491   2.148   2.244   5.196  0.3494 -0.7130 -0.9854
 8343SOL    HW236492   2.034   2.144   5.183 -2.8447  0.0108 -2.7025
 8344SOL     OW36493   2.387   2.615  17.606 -0.1359 -0.6098 -0.4724
 8344SOL    HW136494   2.342   2.564  17.674  1.1105 -0.1104  0.7248
 8344SOL    HW236495   2.428   2.687  17.653 -1.7961 -0.4269  0.6942
 8345SOL     OW36496   1.075   4.481  16.413 -0.7658 -0.0338 -0.1239
 8345SOL    HW136497   0.986   4.487  16.378 -0.3417  0.2495 -1.1727
 8345SOL    HW236498   1.096   4.574  16.418  0.7262 -0.3721 -0.0761
 8346SOL     OW36499   2.711   0.277   4.658  0.4246  0.4233  0.4085
 8346SOL    HW136500   2.786   0.232   4.698  2.1152  4.3033  1.5388
 8346SOL    HW236501   2.645   0.215   4.691 -1.3541  2.1630  0.1030
 8347SOL     OW36502   0.861   2.494   8.217  0.2179 -0.5258  0.0109
 8347SOL    HW136503   0.798   2.424   8.237  0.5457 -1.6733 -2.9362
 8347SOL    HW236504   0.896   2.479   8.129 -1.5313 -1.9039 -0.4638
 8348SOL     OW36505   0.165   3.942  13.201 -0.0334  0.1280 -0.1990
 8348SOL    HW136506   0.202   3.962  13.115 -0.3340 -1.1602 -0.6305
 8348SOL    HW236507   0.077   3.925  13.167 -0.4127 -0.2696  0.9619
 8349SOL     OW36508   2.484   1.865   4.650  0.3962  0.6594 -0.1281
 8349SOL    HW136509   2.431   1.833   4.723  3.1355 -1.3745  0.9466
 8349SOL    HW236510   2.518   1.783   4.614 -1.4768  0.5441 -1.6342
 8350SOL     OW36511   2.953   2.204   4.914  0.6296 -0.2636 -0.0371
 8350SOL    HW136512   2.970   2.189   5.007  0.3441 -0.3291  0.0039
 8350SOL    HW236513   3.031   2.160   4.879 -0.3178 -2.3192  0.4542
 8351SOL     OW36514   3.418   2.627   4.547 -0.4699 -0.2619  0.8024
 8351SOL    HW136515   3.484   2.616   4.478  0.1184  0.7155  1.2062
 8351SOL    HW236516   3.468   2.672   4.615  0.1117 -2.6555  1.9332
 8352SOL     OW36517   0.126   3.336   5.964  0.3500 -0.1163  0.4990
 8352SOL    HW136518   0.113   3.312   6.056 -2.3318  2.8041  0.8981
 8352SOL    HW236519   0.212   3.297   5.950  1.2255  1.0555  2.5698
 8353SOL     OW36520   2.247   0.167   5.314  0.1476  0.9228  0.1585
 8353SOL    HW136521   2.190   0.101   5.354  0.8025  0.4348  0.2986
 8353SOL    HW236522   2.228   0.251   5.356  0.4107  1.0086  0.1068
 8354SOL     OW36523   2.355   4.103   8.393  0.2366  0.0401  0.3128
 8354SOL    HW136524   2.281   4.050   8.419 -1.0349  2.0096  0.7266
 8354SOL    HW236525   2.307   4.159   8.332  1.3836 -0.6968 -1.2842
 8355SOL     OW36526   4.375   1.970  11.426  0.2390  0.3911  0.8569
 8355SOL    HW136527   4.368   2.065  11.419  0.4439  0.1892 -1.9077
 8355SOL    HW236528   4.287   1.931  11.423  0.4041 -0.0154  1.2488
 8356SOL     OW36529   4.400   3.630   0.660 -1.2435 -0.2737 -0.3595
 8356SOL    HW136530   4.325   3.682   0.633 -0.1201  0.7480 -1.5572
 8356SOL    HW236531   4.356   3.546   0.669 -1.3819 -0.0330  1.2890
 8357SOL     OW36532   1.439   0.781  16.454 -0.1163  0.0446  0.2211
 8357SOL    HW136533   1.376   0.758  16.385 -0.8913  0.3205  0.8491
 8357SOL    HW236534   1.404   0.861  16.492  1.1971  0.1917  1.1186
 8358SOL     OW36535   4.481   3.503   3.911  0.2254 -0.1536 -0.8337
 8358SOL    HW136536   4.407   3.493   3.972 -1.8641 -0.8734 -3.5030
 8358SOL    HW236537   4.437   3.489   3.828  0.1555 -2.3045 -0.4274
 8359SOL     OW36538   2.060   1.381   5.323 -0.7272  0.5259  0.4256
 8359SOL    HW136539   2.131   1.399   5.385 -1.3093  2.6428  0.4640
 8359SOL    HW236540   2.072   1.452   5.260 -0.4117 -1.5565 -1.8561
 8360SOL     OW36541   0.895   4.542   7.775  0.2623 -0.2175 -0.0273
 8360SOL    HW136542   0.887   4.608   7.843  1.4565  0.2261 -0.3236
 8360SOL    HW236543   0.808   4.501   7.773 -0.7952  2.0648  0.0035
 8361SOL     OW36544   3.067   0.927   7.565  0.5871 -0.2449 -0.7628
 8361SOL    HW136545   3.129   0.865   7.604  0.6321 -0.4073 -1.0935
 8361SOL    HW236546   3.019   0.870   7.505 -0.1593 -0.3986 -0.0260
 8362SOL     OW36547   4.092   3.669   9.787 -0.3380  0.2325  0.0820
 8362SOL    HW136548   4.184   3.643   9.788 -0.6463 -0.8520  2.0677
 8362SOL    HW236549   4.101   3.736   9.855 -0.5796 -0.4989  0.8398
 8363SOL     OW36550   3.181   2.476   2.677 -0.2777 -0.7971  0.0866
 8363SOL    HW136551   3.112   2.538   2.700  1.0249 -0.0079  1.8770
 8363SOL    HW236552   3.254   2.538   2.674 -1.2743  0.4877  1.8899
 8364SOL     OW36553   4.060   4.556   7.390 -0.2511  0.5785  0.4320
 8364SOL    HW136554   4.124   4.620   7.358 -0.1928  0.4602  0.3110
 8364SOL    HW236555   4.036   4.603   7.470 -1.5642  0.4621  0.1108
 8365SOL     OW36556   4.056   2.180   6.641 -0.1165 -0.0629 -0.1680
 8365SOL    HW136557   3.992   2.196   6.571 -1.4238  1.9121  1.4852
 8365SOL    HW236558   4.007   2.132   6.707 -1.5513  1.8655  0.1782
 8366SOL     OW36559   2.343   4.713  14.859 -0.1483  0.2664  0.7477
 8366SOL    HW136560   2.272   0.046  14.836 -0.0595 -0.3054 -0.9818
 8366SOL    HW236561   2.378   4.684  14.775 -2.0800  0.5537 -0.1457
 8367SOL     OW36562   4.090   4.450   7.964 -0.2732 -0.2582  0.6554
 8367SOL    HW136563   4.045   4.449   8.048  0.6008  0.5725  1.1290
 8367SOL    HW236564   4.142   4.370   7.968 -0.5892 -0.3925  2.1472
 8368SOL     OW36565   0.951   0.831   4.886  0.4579  0.6264  0.2528
 8368SOL    HW136566   0.958   0.892   4.959 -2.9144  1.0544  0.1925
 8368SOL    HW236567   0.949   0.745   4.929 -0.1148  0.1455 -0.7372
 8369SOL     OW36568   0.121   0.708   9.387  0.3131  0.9323 -0.4287
 8369SOL    HW136569   0.077   0.623   9.395  1.3364  0.3667 -0.7544
 8369SOL    HW236570   0.149   0.721   9.478 -0.0463 -1.7604  0.0607
 8370SOL     OW36571   3.844   2.808   2.168  0.2978 -0.2967  0.0241
 8370SOL    HW136572   3.761   2.822   2.122 -1.0025 -0.6499  2.2854
 8370SOL    HW236573   3.909   2.815   2.098 -1.3861 -1.8690 -1.6924
 8371SOL     OW36574   1.887   3.392   3.292  0.3538  0.2327 -0.5369
 8371SOL    HW136575   1.924   3.480   3.288 -0.0154  0.3913 -0.4067
 8371SOL    HW236576   1.923   3.384   3.381 -0.1961 -0.1188 -0.3432
 8372SOL     OW36577   2.061   3.567   2.909  0.2291  0.4447  0.6936
 8372SOL    HW136578   2.123   3.530   2.846 -2.4166 -0.6184 -1.2843
 8372SOL    HW236579   1.975   3.552   2.869  1.3384  1.2561 -1.9800
 8373SOL     OW36580   3.007   3.025   7.470 -0.0452  0.0691  0.2573
 8373SOL    HW136581   2.971   3.081   7.538  0.6178  1.8875 -0.8964
 8373SOL    HW236582   3.073   2.970   7.512  3.2333  3.8761  0.0414
 8374SOL     OW36583   4.345   2.154   7.590  0.0143  0.3162 -0.4285
 8374SOL    HW136584   4.428   2.123   7.555  1.5955  3.8595  0.1340
 8374SOL    HW236585   4.285   2.106   7.534 -2.3378  0.6835  1.7843
 8375SOL     OW36586   2.535   3.917   6.320  0.2411  0.4058  0.0495
 8375SOL    HW136587   2.600   3.898   6.388 -1.0695  2.1275  1.7779
 8375SOL    HW236588   2.586   3.891   6.244  0.0884 -3.2817  1.1954
 8376SOL     OW36589   3.426   0.161   2.313 -0.1843 -0.1102  0.0675
 8376SOL    HW136590   3.399   0.104   2.241 -1.4199 -0.8585  1.1213
 8376SOL    HW236591   3.403   0.243   2.269  0.0269 -0.2064 -0.2241
 8377SOL     OW36592   4.112   1.322   2.477  0.2031  0.2882 -0.5432
 8377SOL    HW136593   4.177   1.289   2.539  0.7337 -0.7898 -1.6746
 8377SOL    HW236594   4.168   1.370   2.415  1.6691 -1.1139 -0.2979
 8378SOL     OW36595   0.683   3.937   3.029 -0.6532 -0.3137  0.1817
 8378SOL    HW136596   0.594   3.933   2.995 -1.3359 -2.0855  2.2122
 8378SOL    HW236597   0.722   3.865   2.979 -1.5476 -0.3600 -0.4460
 8379SOL     OW36598   0.086   2.213   3.066 -0.5686 -0.1698  0.5838
 8379SOL    HW136599   0.058   2.285   3.009  0.6985 -1.8184 -2.1700
 8379SOL    HW236600   0.030   2.149   3.022 -1.5556  0.0411  1.5550
 8380SOL     OW36601   3.107   1.841   2.341 -0.0341  0.4796 -0.2975
 8380SOL    HW136602   3.128   1.911   2.280 -3.1584 -1.4944 -3.6979
 8380SOL    HW236603   3.033   1.873   2.393  1.7931  2.3430  1.1095
 8381SOL     OW36604   0.081   1.655   2.852  0.6998  0.0975 -0.1337
 8381SOL    HW136605   0.030   1.575   2.855  0.0162  0.4318 -2.7083
 8381SOL    HW236606   0.165   1.615   2.831  0.3999 -1.2796  1.3485
 8382SOL     OW36607   2.244   0.802  10.986 -0.1163 -0.3232  0.0811
 8382SOL    HW136608   2.216   0.711  10.977  1.4271 -0.8669  0.7023
 8382SOL    HW236609   2.284   0.798  11.073 -1.4393 -0.5417  0.6832
 8383SOL     OW36610   4.134   3.618  12.807  0.4951 -0.7594  0.0056
 8383SOL    HW136611   4.136   3.707  12.840 -0.0925 -0.4967 -0.6602
 8383SOL    HW236612   4.194   3.620  12.732  0.4166  2.6919  0.0565
 8384SOL     OW36613   1.757   3.320   7.606  0.0973 -0.1246 -0.2102
 8384SOL    HW136614   1.700   3.397   7.596  0.5790  0.3776  1.0100
 8384SOL    HW236615   1.747   3.290   7.696  1.5667 -0.4079 -0.1406
 8385SOL     OW36616   3.573   4.631   4.401 -0.1397 -0.9163 -0.3329
 8385SOL    HW136617   3.593   4.679   4.481  0.1894 -0.2804 -0.7980
 8385SOL    HW236618   3.479   4.651   4.398  0.0273 -0.1224 -0.1111
 8386SOL     OW36619   0.873   3.005   4.327 -0.1604 -0.8496  0.0237
 8386SOL    HW136620   0.813   3.006   4.252 -1.3093 -1.7416  0.9146
 8386SOL    HW236621   0.959   2.971   4.303  0.1212 -0.0304 -0.0958
 8387SOL     OW36622   0.036   3.660  14.112  0.0924 -0.3815 -0.4388
 8387SOL    HW136623   4.706   3.724  14.153  0.4404 -1.3019  1.4788
 8387SOL    HW236624   0.045   3.594  14.180 -1.6449  0.9414  1.0849
 8388SOL     OW36625   1.714   4.637   7.700 -0.3735  0.6929  0.1528
 8388SOL    HW136626   1.709   4.657   7.793 -1.6186 -2.5769  0.7899
 8388SOL    HW236627   1.721   4.543   7.710  2.2731  0.9127  0.2032
 8389SOL     OW36628   1.188   2.168   3.771  0.5463  0.1854 -0.3705
 8389SOL    HW136629   1.115   2.116   3.805 -1.0845  2.7068 -0.0618
 8389SOL    HW236630   1.234   2.101   3.720  0.4761 -1.5378  1.8271
 8390SOL     OW36631   2.574   0.481   7.670 -0.2891  0.0865 -0.5173
 8390SOL    HW136632   2.489   0.438   7.663 -0.9884  1.5493 -1.0455
 8390SOL    HW236633   2.608   0.457   7.584 -0.8759 -1.0486 -0.4288
 8391SOL     OW36634   3.230   1.961   3.207  0.1520 -0.0872  0.0580
 8391SOL    HW136635   3.194   1.886   3.253 -0.3775  0.4624  0.5486
 8391SOL    HW236636   3.165   2.031   3.202 -0.6942 -0.7342  2.1021
 8392SOL     OW36637   4.679   4.376  11.872  0.3061  0.7627 -0.2265
 8392SOL    HW136638   4.588   4.369  11.842  0.1648 -1.2775  0.6905
 8392SOL    HW236639   4.694   4.471  11.877  0.0441  0.8362 -0.7310
 8393SOL     OW36640   0.819   1.314   0.410 -0.3564  0.2578  0.2587
 8393SOL    HW136641   0.833   1.238   0.354  2.0374  2.3396 -2.0151
 8393SOL    HW236642   0.735   1.286   0.446 -1.3901  0.0095 -2.3656
 8394SOL     OW36643   4.207   1.261   7.582  0.1229 -0.6562 -0.8831
 8394SOL    HW136644   4.118   1.231   7.563 -0.4207  0.3389  0.1420
 8394SOL    HW236645   4.186   1.337   7.636 -0.0707 -0.3290 -1.4160
 8395SOL     OW36646   3.460   0.912   5.008  0.3123 -0.1690 -0.3396
 8395SOL    HW136647   3.427   0.843   4.949 -1.2794 -0.1172  0.4867
 8395SOL    HW236648   3.548   0.919   4.971  0.7948  0.3211  0.9074
 8396SOL     OW36649   1.181   0.898   2.112 -0.8613 -0.7617 -0.0812
 8396SOL    HW136650   1.138   0.828   2.161 -1.7289 -1.6698 -2.1562
 8396SOL    HW236651   1.246   0.930   2.175  1.0002 -2.5163 -1.1119
 8397SOL     OW36652   3.046   1.074  12.399 -0.4999  0.2264 -0.3361
 8397SOL    HW136653   3.141   1.077  12.416 -0.2542 -0.0708 -1.7025
 8397SOL    HW236654   3.008   1.134  12.464 -1.9220 -1.4549  0.3819
 8398SOL     OW36655   0.457   1.231   0.753  0.2152  0.2634 -0.6818
 8398SOL    HW136656   0.526   1.283   0.794 -0.8533 -0.1989  1.7186
 8398SOL    HW236657   0.486   1.199   0.667  1.0040  0.4021 -0.4672
 8399SOL     OW36658   3.497   3.600  11.196  0.1466 -0.2517  0.6312
 8399SOL    HW136659   3.566   3.631  11.138 -0.7370  3.5908  1.6643
 8399SOL    HW236660   3.429   3.591  11.129 -0.6581  3.8393  0.8947
 8400SOL     OW36661   2.071   0.233   4.635  0.3775  0.3024 -0.1638
 8400SOL    HW136662   2.072   0.236   4.731 -0.1710 -1.0684 -0.1190
 8400SOL    HW236663   2.110   0.316   4.609  0.5205  0.4032  0.3677
 8401SOL     OW36664   2.971   3.127   0.268  0.0255 -0.6133  0.1989
 8401SOL    HW136665   2.985   3.150   0.177 -2.6617 -1.7890 -0.5153
 8401SOL    HW236666   2.876   3.128   0.280 -0.3425  0.3353 -2.8417
 8402SOL     OW36667   1.943   1.067   4.070  0.1822  0.2440 -1.0046
 8402SOL    HW136668   1.867   1.124   4.084  1.2122  1.7562 -1.5800
 8402SOL    HW236669   1.925   1.027   3.985 -0.6300 -3.9616  1.1466
 8403SOL     OW36670   1.565   2.804  10.514 -0.0675  0.0469 -0.5016
 8403SOL    HW136671   1.491   2.765  10.467 -0.1566  0.7811 -0.9627
 8403SOL    HW236672   1.633   2.766  10.458  1.1658 -1.4577  1.9775
 8404SOL     OW36673   1.072   2.853   3.134  0.0295  0.1093  0.5763
 8404SOL    HW136674   1.077   2.796   3.210 -2.5622  2.4954  2.5392
 8404SOL    HW236675   1.003   2.808   3.084  1.6495  0.7782 -2.2627
 8405SOL     OW36676   2.071   0.451   5.162 -0.1463  0.3658 -0.4717
 8405SOL    HW136677   2.062   0.535   5.117 -3.3371 -0.9882 -2.2811
 8405SOL    HW236678   2.131   0.398   5.109 -2.0233  0.0898 -2.3108
 8406SOL     OW36679   4.648   0.019   8.147  0.3153  0.6237 -0.4173
 8406SOL    HW136680   0.009   0.055   8.134  0.9333 -0.5678  0.5000
 8406SOL    HW236681   4.627   4.719   8.058 -1.4835  1.7115 -0.3439
 8407SOL     OW36682   1.313   4.346   3.777 -0.0573 -0.2133  0.2932
 8407SOL    HW136683   1.331   4.406   3.848 -2.0342 -3.6636  3.7130
 8407SOL    HW236684   1.360   4.385   3.703 -0.1947 -1.3338 -0.3836
 8408SOL     OW36685   2.425   1.424  16.143  0.4024 -0.6075  0.2742
 8408SOL    HW136686   2.410   1.350  16.083 -0.4328 -0.2480  0.0415
 8408SOL    HW236687   2.336   1.456  16.159  1.3399  1.0397  2.1751
 8409SOL     OW36688   2.210   3.223   0.250  0.0963  0.0824 -0.2142
 8409SOL    HW136689   2.256   3.157   0.302 -0.0173  2.1243  2.5145
 8409SOL    HW236690   2.118   3.216   0.276 -0.4841  0.2445 -2.2612
 8410SOL     OW36691   1.544   3.516   6.643 -0.1675 -0.2812 -0.5806
 8410SOL    HW136692   1.568   3.607   6.628 -0.7385 -0.1194 -0.5233
 8410SOL    HW236693   1.627   3.467   6.641 -0.3613 -0.7422  3.1520
 8411SOL     OW36694   3.750   3.561  11.702 -0.5414  0.3173  0.1929
 8411SOL    HW136695   3.753   3.613  11.622  1.3261 -0.3397 -0.1590
 8411SOL    HW236696   3.844   3.558  11.723  0.4749 -3.1766 -4.7957
 8412SOL     OW36697   1.307   0.785  16.223  0.0280  0.0666  0.0804
 8412SOL    HW136698   1.215   0.776  16.247 -0.3433 -1.3950 -1.8265
 8412SOL    HW236699   1.315   0.702  16.176  0.1886  1.6293 -2.6552
 8413SOL     OW36700   1.668   1.773   7.703 -0.3327 -0.4643 -0.2481
 8413SOL    HW136701   1.674   1.866   7.679  2.2255  0.0465  2.4189
 8413SOL    HW236702   1.740   1.736   7.652  0.5583  0.0292  0.6428
 8414SOL     OW36703   4.010   0.508   6.279  0.5710  0.0380  1.2745
 8414SOL    HW136704   3.964   0.440   6.329  0.1410 -0.6968 -0.1171
 8414SOL    HW236705   4.059   0.549   6.351 -0.5311  1.0038  1.4670
 8415SOL     OW36706   1.283   3.401   3.257  0.3164  0.1558  0.2856
 8415SOL    HW136707   1.282   3.492   3.227 -1.4501 -1.0123 -3.2573
 8415SOL    HW236708   1.194   3.399   3.292  0.2238 -1.2819 -0.0555
 8416SOL     OW36709   2.348   2.252  17.260 -0.1461 -0.3285 -0.0212
 8416SOL    HW136710   2.357   2.342  17.291  1.6392 -0.7055  0.5285
 8416SOL    HW236711   2.412   2.205  17.314 -1.6343 -1.1535  1.0519
 8417SOL     OW36712   1.886   0.182   9.551 -0.4439  0.1445 -0.0896
 8417SOL    HW136713   1.893   0.274   9.576  0.2087 -0.2344  1.1398
 8417SOL    HW236714   1.944   0.137   9.612  1.0974  2.4053  0.0688
 8418SOL     OW36715   3.511   0.191  16.692  0.1000 -0.3288  0.5136
 8418SOL    HW136716   3.485   0.103  16.663 -0.8258  0.9516 -2.5198
 8418SOL    HW236717   3.447   0.210  16.760  0.5396  0.5525  0.6793
 8419SOL     OW36718   0.725   2.153   4.303 -0.2569 -0.0036  0.0680
 8419SOL    HW136719   0.772   2.079   4.264  0.5040  1.3963 -1.6342
 8419SOL    HW236720   0.643   2.131   4.259  0.8259 -2.0424 -0.9235
 8420SOL     OW36721   1.775   1.363  11.404  0.0782 -0.1888  0.2926
 8420SOL    HW136722   1.868   1.385  11.412 -0.1478  0.6984  0.4262
 8420SOL    HW236723   1.754   1.432  11.340  0.0110  0.8092  1.3982
 8421SOL     OW36724   0.764   2.896   3.526  0.0951  0.4630 -0.2062
 8421SOL    HW136725   0.697   2.963   3.514 -0.0644  0.4205  0.4720
 8421SOL    HW236726   0.842   2.944   3.555 -0.8173  2.1006 -0.4733
 8422SOL     OW36727   2.282   1.706  10.137  0.4530 -0.8043  0.0621
 8422SOL    HW136728   2.275   1.762  10.214 -0.5390 -1.2644  0.3052
 8422SOL    HW236729   2.230   1.634  10.173  1.9693  0.0198  3.8555
 8423SOL     OW36730   3.723   1.337   4.080 -0.3084 -0.3558  0.8204
 8423SOL    HW136731   3.808   1.321   4.119 -0.0054 -0.7495 -0.0142
 8423SOL    HW236732   3.693   1.414   4.128 -2.0824 -1.4100  1.4145
 8424SOL     OW36733   0.782   0.175   6.370 -0.1606 -0.6182 -0.4567
 8424SOL    HW136734   0.870   0.147   6.396 -0.3034 -0.9699 -0.3450
 8424SOL    HW236735   0.760   0.239   6.439  0.4155 -0.0196 -0.8360
 8425SOL     OW36736   3.178   1.802   6.045 -0.6001 -0.6235  0.4575
 8425SOL    HW136737   3.216   1.726   6.000 -1.3941 -0.2669 -0.8384
 8425SOL    HW236738   3.235   1.810   6.121 -0.8165  0.1906  0.5297
 8426SOL     OW36739   1.145   0.619   9.122 -0.0002 -1.0081  0.1369
 8426SOL    HW136740   1.164   0.532   9.157 -0.4272 -0.6493  1.2552
 8426SOL    HW236741   1.220   0.658   9.165 -0.1090 -1.7899  1.0210
 8427SOL     OW36742   0.586   2.731   3.315 -0.4285  0.3112  0.2930
 8427SOL    HW136743   0.611   2.821   3.335  0.2756  0.4933 -1.4407
 8427SOL    HW236744   0.512   2.748   3.258 -0.4100 -0.8959 -0.0988
 8428SOL     OW36745   0.085   4.522   0.794  0.2937  0.2524  0.2377
 8428SOL    HW136746   0.146   4.590   0.766  1.1584  0.5642  2.9413
 8428SOL    HW236747   0.148   4.454   0.822  0.0489 -0.4958 -1.0036
 8429SOL     OW36748   3.582   0.161   5.609  0.2676 -0.4750 -0.0869
 8429SOL    HW136749   3.522   0.089   5.592 -1.4262  0.6855  1.0119
 8429SOL    HW236750   3.542   0.218   5.543 -1.1124 -1.5429 -0.1566
 8430SOL     OW36751   0.958   4.000   5.067 -0.3513  0.3078 -0.5486
 8430SOL    HW136752   1.013   3.930   5.030 -1.9783 -0.8657 -0.7182
 8430SOL    HW236753   0.975   4.072   5.007 -1.9350 -0.6242 -2.0887
 8431SOL     OW36754   2.090   3.219   3.016 -0.6777 -0.2613 -0.1133
 8431SOL    HW136755   2.098   3.159   3.091 -2.4183  0.5156  0.6816
 8431SOL    HW236756   2.184   3.235   3.002 -1.0480  1.7477 -0.3216
 8432SOL     OW36757   3.716   1.814   8.582  0.4165 -0.5731  0.0300
 8432SOL    HW136758   3.770   1.750   8.536  1.3683 -0.6349  1.2200
 8432SOL    HW236759   3.774   1.890   8.588  0.2273 -0.4661  0.5076
 8433SOL     OW36760   0.595   1.116   8.368  0.7359 -0.0364 -0.8609
 8433SOL    HW136761   0.613   1.023   8.362 -1.2949 -0.4163 -0.8973
 8433SOL    HW236762   0.516   1.132   8.419  0.6805  0.2276 -1.0272
 8434SOL     OW36763   2.840   1.873   5.036  0.0246 -0.1350 -0.3049
 8434SOL    HW136764   2.922   1.887   4.988  1.0354 -0.7426  1.2333
 8434SOL    HW236765   2.862   1.810   5.105 -0.2512 -0.3664 -0.4296
 8435SOL     OW36766   2.738   3.279  14.953 -0.5665  0.4982 -0.0850
 8435SOL    HW136767   2.658   3.326  14.928 -0.7456  0.1634 -0.1355
 8435SOL    HW236768   2.751   3.319  15.039 -0.4239 -2.5360  1.2975
 8436SOL     OW36769   2.450   1.026   7.336  0.7145  0.2844  0.3272
 8436SOL    HW136770   2.527   1.059   7.289  0.5478  0.2443  0.0238
 8436SOL    HW236771   2.385   1.080   7.289 -0.8889 -1.2482  0.7878
 8437SOL     OW36772   3.874   3.655   7.954  0.3729 -0.2865 -0.2418
 8437SOL    HW136773   3.803   3.609   7.909  0.1064 -0.2038  0.0874
 8437SOL    HW236774   3.821   3.665   8.033 -0.4057  0.1272 -0.8150
 8438SOL     OW36775   0.178   3.914   9.886 -0.1734  0.5083  0.3191
 8438SOL    HW136776   0.083   3.923   9.895 -0.2200  1.2121 -0.8963
 8438SOL    HW236777   0.193   3.969   9.962  0.5140  0.3290  0.3101
 8439SOL     OW36778   0.913   1.034  12.592 -0.0813 -0.1372 -0.4136
 8439SOL    HW136779   0.845   1.045  12.525  0.3454 -1.8829 -1.1410
 8439SOL    HW236780   0.912   0.942  12.619  0.7256  0.3885  1.4234
 8440SOL     OW36781   3.300   2.510   6.738  0.2821 -0.6317 -0.3066
 8440SOL    HW136782   3.347   2.511   6.655 -1.7548  0.2862 -1.4700
 8440SOL    HW236783   3.351   2.569   6.794 -1.0346  0.6758 -0.4757
 8441SOL     OW36784   2.442   1.169  12.876  0.1808  0.3783  0.4019
 8441SOL    HW136785   2.514   1.221  12.842 -0.8032  0.0570 -2.1992
 8441SOL    HW236786   2.401   1.242  12.923  1.8990  2.3477 -1.1792
 8442SOL     OW36787   3.700   0.815   9.188 -1.2551  0.0990  0.1569
 8442SOL    HW136788   3.703   0.794   9.282  0.2853  1.8657  0.5069
 8442SOL    HW236789   3.615   0.775   9.170 -1.2147  0.0898 -0.0055
 8443SOL     OW36790   0.791   1.789  12.029  0.1052  0.3039 -0.1446
 8443SOL    HW136791   0.847   1.836  12.091  1.2498 -0.2144 -0.7770
 8443SOL    HW236792   0.789   1.702  12.069  1.4133 -0.0518 -0.8523
 8444SOL     OW36793   2.154   0.369   4.263  0.4128 -0.3042 -0.5762
 8444SOL    HW136794   2.182   0.413   4.182  0.2058 -0.1194 -0.5475
 8444SOL    HW236795   2.102   0.432   4.313 -1.0348 -0.6079 -1.6732
 8445SOL     OW36796   2.071   3.594   7.152 -0.2504  0.7106  0.6434
 8445SOL    HW136797   2.117   3.623   7.230  4.1378 -1.0941 -1.2681
 8445SOL    HW236798   1.991   3.643   7.170 -0.8862 -0.2087  0.2999
 8446SOL     OW36799   2.130   4.498   5.927 -0.6981 -0.2359 -0.1529
 8446SOL    HW136800   2.119   4.438   5.853  1.7281  0.2699 -0.9270
 8446SOL    HW236801   2.059   4.560   5.911  0.2658  1.5067  2.2172
 8447SOL     OW36802   3.475   0.451   9.448 -0.6020  0.2218  0.0573
 8447SOL    HW136803   3.441   0.525   9.397  0.5389 -0.0947 -1.1868
 8447SOL    HW236804   3.407   0.424   9.510  0.9464 -0.4324  1.4436
 8448SOL     OW36805   4.302   3.716   7.119 -0.1083 -0.0928  0.3077
 8448SOL    HW136806   4.339   3.648   7.175  0.7241  0.2930  0.2354
 8448SOL    HW236807   4.234   3.677   7.064 -0.2646  1.1770 -0.3909
 8449SOL     OW36808   3.159   0.746   5.024 -0.0763 -0.4062 -0.4730
 8449SOL    HW136809   3.227   0.753   4.958 -1.5626 -0.0780 -1.9653
 8449SOL    HW236810   3.212   0.760   5.103  2.5228 -0.6999 -2.1714
 8450SOL     OW36811   4.559   2.065  17.154 -0.9470 -0.1364  0.1250
 8450SOL    HW136812   4.585   2.073  17.246  0.5800  1.3237 -0.4390
 8450SOL    HW236813   4.543   1.971  17.143 -0.3645 -0.1966 -0.2296
 8451SOL     OW36814   0.217   3.951   9.236 -0.1301  0.2584  1.0904
 8451SOL    HW136815   0.304   3.971   9.271 -0.1314  2.0200  0.1159
 8451SOL    HW236816   0.160   4.012   9.285  2.0701  0.2137  3.7239
 8452SOL     OW36817   2.281   3.263   8.533 -0.1212 -0.2293 -0.1667
 8452SOL    HW136818   2.308   3.172   8.544 -1.7094 -0.7837 -0.9035
 8452SOL    HW236819   2.362   3.306   8.560 -0.0667 -0.7357  0.4701
 8453SOL     OW36820   3.705   0.062   3.473  0.2422 -0.1532  0.1664
 8453SOL    HW136821   3.761   0.134   3.501  0.9742 -1.0956  1.1238
 8453SOL    HW236822   3.626   0.107   3.441  0.3011  0.3753  0.7561
 8454SOL     OW36823   2.248   3.414   1.905 -0.1508  0.1411  0.1746
 8454SOL    HW136824   2.225   3.336   1.956  1.1188 -0.6530 -0.4422
 8454SOL    HW236825   2.316   3.452   1.961  0.7700  0.2609 -1.0036
 8455SOL     OW36826   2.374   1.422   8.856 -0.0695  0.0345  0.0794
 8455SOL    HW136827   2.452   1.412   8.801  0.0840  2.2004 -0.0794
 8455SOL    HW236828   2.308   1.458   8.796  1.2246  2.1282 -0.0715
 8456SOL     OW36829   3.106   3.836   5.611  0.1149  0.7366  0.0592
 8456SOL    HW136830   3.054   3.891   5.670  1.2031  0.1858  1.5082
 8456SOL    HW236831   3.070   3.865   5.527 -0.6913  0.6258  0.3600
 8457SOL     OW36832   4.566   0.007   3.027  0.5786  0.3473 -0.4809
 8457SOL    HW136833   4.497   0.072   3.032  0.6696  0.4878 -1.0236
 8457SOL    HW236834   4.528   4.660   3.074  0.7338  0.7901  0.3256
 8458SOL     OW36835   1.736   2.441  14.197 -0.3613 -0.1622 -0.0543
 8458SOL    HW136836   1.698   2.490  14.124 -1.2317  0.6380  0.9433
 8458SOL    HW236837   1.710   2.492  14.274  0.8865  3.0092 -1.7047
 8459SOL     OW36838   3.596   0.681   7.258 -0.3714 -0.6105  0.3566
 8459SOL    HW136839   3.627   0.741   7.191  2.5371 -1.1257  1.2310
 8459SOL    HW236840   3.505   0.684   7.230  0.4402  2.0569 -1.9872
 8460SOL     OW36841   1.760   3.878  17.636  0.4805 -0.2000  0.4997
 8460SOL    HW136842   1.846   3.862  17.676  0.4388  0.5851  0.8962
 8460SOL    HW236843   1.734   3.786  17.644 -2.0235  0.4865  0.0901
 8461SOL     OW36844   2.548   0.058   2.105 -0.0174  0.0309 -0.1602
 8461SOL    HW136845   2.571   0.058   2.012  1.5180 -2.3457  0.2157
 8461SOL    HW236846   2.469   0.012   2.077 -1.4015  3.0273 -1.1973
 8462SOL     OW36847   0.426   1.534   8.554  0.3959 -0.1918 -0.1453
 8462SOL    HW136848   0.416   1.577   8.639  1.4201  0.0744 -0.1645
 8462SOL    HW236849   0.429   1.605   8.490 -1.0656 -0.3721 -0.4192
 8463SOL     OW36850   2.074   1.060   8.367  0.2970 -0.1279 -0.4254
 8463SOL    HW136851   2.064   1.131   8.430  2.1191  0.2464 -0.5641
 8463SOL    HW236852   2.155   1.025   8.405 -0.2384 -0.9273 -0.0123
 8464SOL     OW36853   1.518   0.081  10.161  0.3105  0.1651  0.3597
 8464SOL    HW136854   1.574   0.030  10.219 -3.0673 -1.4590  2.2224
 8464SOL    HW236855   1.447   0.016  10.153 -1.1547  1.7239  0.7338
 8465SOL     OW36856   0.883   4.725   5.208  0.3034 -0.1594  0.6635
 8465SOL    HW136857   0.964   0.033   5.246  1.3531  0.4588 -2.1220
 8465SOL    HW236858   0.837   4.695   5.286 -2.3349  3.0653  0.3744
 8466SOL     OW36859   4.647   0.424  12.196 -0.9088  0.1208 -0.4760
 8466SOL    HW136860   4.664   0.446  12.104  0.4032  3.8533  0.6605
 8466SOL    HW236861   4.669   0.505  12.243  2.2842 -0.2056 -1.4414
 8467SOL     OW36862   2.008   4.504   7.105 -0.0005 -0.5272 -0.0959
 8467SOL    HW136863   2.080   4.487   7.044  0.0983  0.7549 -0.3553
 8467SOL    HW236864   2.057   4.493   7.186  0.5132  0.9165 -0.1967
 8468SOL     OW36865   0.305   3.444   5.780 -1.2028 -0.0407 -0.0280
 8468SOL    HW136866   0.363   3.518   5.762  0.8931 -2.0221 -1.4895
 8468SOL    HW236867   0.243   3.493   5.834  1.2197  0.5783  2.2044
 8469SOL     OW36868   1.102   1.729   7.182 -0.2102  0.1960 -0.5021
 8469SOL    HW136869   1.140   1.774   7.106  2.3480 -1.2060 -0.0567
 8469SOL    HW236870   1.143   1.791   7.242  0.6253  1.9735 -2.8777
 8470SOL     OW36871   1.235   2.076   4.773 -0.2482  0.5346 -0.0327
 8470SOL    HW136872   1.148   2.111   4.751  0.2258  0.1957 -2.4147
 8470SOL    HW236873   1.264   2.155   4.819 -1.4138  1.4964 -0.9564
 8471SOL     OW36874   3.625   2.731  12.780  0.3319  0.5465  0.1342
 8471SOL    HW136875   3.670   2.650  12.804 -0.0445  0.8475  1.8653
 8471SOL    HW236876   3.534   2.702  12.776 -0.5980  3.3674  1.0924
 8472SOL     OW36877   1.175   3.792  11.027  0.0569  0.2058 -0.7241
 8472SOL    HW136878   1.155   3.849  10.953  3.5481 -0.6178 -2.2630
 8472SOL    HW236879   1.176   3.714  10.972 -2.6148  1.7793 -3.0059
 8473SOL     OW36880   3.713   0.881   4.883 -0.1328  0.2267  0.2123
 8473SOL    HW136881   3.789   0.824   4.878  0.2896  0.6579  1.6757
 8473SOL    HW236882   3.688   0.882   4.791  1.0383 -1.5905 -0.1253
 8474SOL     OW36883   3.085   1.271   4.483 -0.3227  0.4593  0.1941
 8474SOL    HW136884   3.031   1.210   4.531 -0.1098 -0.6883 -1.0282
 8474SOL    HW236885   3.097   1.234   4.396  0.4297 -0.5218  0.7099
 8475SOL     OW36886   3.019   0.571   4.206 -1.0307 -0.5718 -0.1601
 8475SOL    HW136887   2.974   0.653   4.226 -1.6606 -1.1833  0.9111
 8475SOL    HW236888   3.025   0.531   4.292  0.1666  0.2937  0.1610
 8476SOL     OW36889   0.768   0.895   6.806 -0.2342  0.8662 -0.2954
 8476SOL    HW136890   0.820   0.928   6.879 -3.3702  2.1134  1.3807
 8476SOL    HW236891   0.829   0.841   6.756 -1.0839 -1.4337  1.1509
 8477SOL     OW36892   2.354   2.518  17.360  0.0766 -0.4606  0.1753
 8477SOL    HW136893   2.424   2.571  17.323 -0.2664  1.5634  2.4488
 8477SOL    HW236894   2.359   2.547  17.451 -1.0557  2.9233 -0.8492
 8478SOL     OW36895   2.721   3.739   2.143  0.0572 -0.5622  0.0650
 8478SOL    HW136896   2.745   3.696   2.061 -0.3474 -1.0629  0.2055
 8478SOL    HW236897   2.740   3.671   2.208  0.3127 -1.0092 -0.4848
 8479SOL     OW36898   4.415   0.016   8.281  0.2168 -0.1692  0.0962
 8479SOL    HW136899   4.501   0.013   8.240 -0.1749 -0.6226 -0.7113
 8479SOL    HW236900   4.392   4.652   8.265 -0.7055 -0.2813  2.0053
 8480SOL     OW36901   4.127   2.915   3.646 -0.1544  0.2528 -0.7287
 8480SOL    HW136902   4.180   2.836   3.635  0.6361  0.5045  1.3040
 8480SOL    HW236903   4.117   2.949   3.557 -1.1427 -1.5926 -1.3138
 8481SOL     OW36904   2.494   1.466   8.221 -0.2818 -0.0946  0.3591
 8481SOL    HW136905   2.545   1.520   8.282 -0.6226  2.1392 -1.3699
 8481SOL    HW236906   2.512   1.373   8.238 -0.7992 -0.4914 -1.3027
 8482SOL     OW36907   3.402   1.153   7.718  0.1402  0.0212  0.3658
 8482SOL    HW136908   3.443   1.164   7.632  2.1661 -3.6583  0.8601
 8482SOL    HW236909   3.338   1.223   7.706  0.4038  0.2420  0.2449
 8483SOL     OW36910   2.372   0.013   8.325 -0.2739 -0.2338 -0.1096
 8483SOL    HW136911   2.364   0.104   8.297  0.6223 -0.1548 -0.1152
 8483SOL    HW236912   2.322   4.707   8.250 -1.2692  0.8227  0.0846
 8484SOL     OW36913   0.160   1.700   7.125 -0.3837 -0.3336  0.2361
 8484SOL    HW136914   0.213   1.654   7.060 -0.8340  0.0672 -0.4105
 8484SOL    HW236915   0.219   1.707   7.200  0.1385 -1.6232 -0.0428
 8485SOL     OW36916   1.995   1.556  17.683  0.0731  0.4280  0.2936
 8485SOL    HW136917   2.067   1.550   0.035 -0.1106 -0.9762  0.3621
 8485SOL    HW236918   1.985   1.464  17.660 -1.8834  0.4100  1.2157
 8486SOL     OW36919   3.526   2.741   4.751  0.4536  0.1713 -0.3375
 8486SOL    HW136920   3.466   2.807   4.786  0.2626 -0.7075  0.9993
 8486SOL    HW236921   3.521   2.675   4.820 -0.6375 -1.1716 -1.7199
 8487SOL     OW36922   1.326   1.717  14.493 -0.0801 -0.0871 -0.2598
 8487SOL    HW136923   1.324   1.627  14.525  2.5901 -0.6473 -1.7009
 8487SOL    HW236924   1.378   1.756  14.563 -0.2909 -3.2614  1.6577
 8488SOL     OW36925   1.853   3.632  10.901  0.2938  0.4206  0.0926
 8488SOL    HW136926   1.759   3.652  10.898  0.9914  3.4148 -2.2602
 8488SOL    HW236927   1.857   3.586  10.985  0.4329 -2.0883 -1.2812
 8489SOL     OW36928   3.294   1.590  14.727  0.6759 -0.2570 -0.0404
 8489SOL    HW136929   3.280   1.521  14.792 -0.1242 -2.0549 -2.1194
 8489SOL    HW236930   3.241   1.564  14.652 -0.0454 -0.4044  0.5176
 8490SOL     OW36931   0.244   0.195  10.314 -0.4417  0.3335 -0.2033
 8490SOL    HW136932   0.229   0.244  10.233 -0.8297  0.6371  0.0541
 8490SOL    HW236933   0.243   0.263  10.381 -2.1982  0.5255 -0.4433
 8491SOL     OW36934   2.509   0.840   9.842  0.1477 -0.3472  0.1415
 8491SOL    HW136935   2.510   0.907   9.911 -0.8512 -0.4394  0.2564
 8491SOL    HW236936   2.531   0.764   9.896  1.2802  0.8203  1.3372
 8492SOL     OW36937   3.244   4.286  16.448 -0.0659 -0.0148  0.1021
 8492SOL    HW136938   3.307   4.294  16.376  0.2494  3.0951  0.7237
 8492SOL    HW236939   3.174   4.244  16.397  1.1376 -1.0700 -0.6813
 8493SOL     OW36940   3.398   3.718   6.556 -0.0646 -0.1722 -0.2564
 8493SOL    HW136941   3.385   3.710   6.462  0.3628 -1.2031 -0.2346
 8493SOL    HW236942   3.468   3.653   6.562 -2.0942 -2.3021  0.4249
 8494SOL     OW36943   1.379   2.960   8.726  0.5086  0.4143  0.0113
 8494SOL    HW136944   1.422   2.905   8.661  1.0783 -0.9643  1.5790
 8494SOL    HW236945   1.301   2.913   8.756  0.1080 -0.0483 -1.7016
 8495SOL     OW36946   1.705   1.472  13.723 -0.2998 -0.5308  0.4342
 8495SOL    HW136947   1.732   1.494  13.634 -1.2341 -0.2749  0.2086
 8495SOL    HW236948   1.696   1.377  13.711 -1.7365 -0.6827  2.6107
 8496SOL     OW36949   0.720   2.596   9.123  0.0150  0.1887  0.3644
 8496SOL    HW136950   0.642   2.648   9.138  1.4050  1.9753  1.3643
 8496SOL    HW236951   0.693   2.522   9.068 -0.8772  0.6438  0.2015
 8497SOL     OW36952   0.339   0.808   4.677 -0.1149 -0.8082  0.1866
 8497SOL    HW136953   0.404   0.752   4.635  0.4147  0.1524 -0.2463
 8497SOL    HW236954   0.288   0.848   4.607 -2.4286  0.3674  2.4947
 8498SOL     OW36955   2.104   1.109  15.244  0.4243 -0.1098  0.1407
 8498SOL    HW136956   2.045   1.053  15.293 -1.5234  1.9046  0.1190
 8498SOL    HW236957   2.186   1.059  15.246  0.6649  0.3888  3.1134
 8499SOL     OW36958   4.274   4.585   7.033 -0.5326 -0.7893  0.2698
 8499SOL    HW136959   4.186   4.618   7.053 -0.7471 -0.4221 -1.2802
 8499SOL    HW236960   4.307   4.649   6.970  1.7104 -1.1865  1.0411
 8500SOL     OW36961   4.399   2.599   0.903  0.2244 -0.1732  0.1402
 8500SOL    HW136962   4.460   2.535   0.939 -1.5393 -1.0659  1.5452
 8500SOL    HW236963   4.461   2.654   0.854 -2.3731  1.6119 -1.1358
 8501SOL     OW36964   3.795   1.417   7.066 -0.2595 -0.3127  0.2925
 8501SOL    HW136965   3.793   1.322   7.049 -0.3478 -0.0353 -1.2523
 8501SOL    HW236966   3.700   1.427   7.067 -0.1080  1.1040  0.0386
 8502SOL     OW36967   1.021   4.217   1.317 -0.5102 -0.0699 -0.2228
 8502SOL    HW136968   0.937   4.183   1.287 -0.5239  1.1868 -1.5767
 8502SOL    HW236969   1.041   4.159   1.391 -1.0650 -0.1427 -0.1298
 8503SOL     OW36970   0.963   4.342   2.346 -0.3074 -0.2971 -0.3562
 8503SOL    HW136971   0.911   4.297   2.412 -0.8918  1.5298  0.4243
 8503SOL    HW236972   0.948   4.426   2.388  1.6496  1.1440 -2.5631
 8504SOL     OW36973   4.390   4.664  14.607 -0.2456 -0.0783  0.3737
 8504SOL    HW136974   4.314   4.607  14.614 -0.5580  0.4225  1.0427
 8504SOL    HW236975   4.353   0.021  14.632 -1.1841 -0.2905 -0.3109
 8505SOL     OW36976   0.003   4.704   6.670 -0.1157  0.3064 -0.1193
 8505SOL    HW136977   0.063   0.049   6.652 -0.0100 -0.1144 -1.5353
 8505SOL    HW236978   4.659   0.005   6.613  1.0735 -1.0688 -2.3264
 8506SOL     OW36979   1.548   2.695  14.176 -0.2551 -0.1487  0.0834
 8506SOL    HW136980   1.528   2.736  14.260 -1.5091 -2.0331  0.6981
 8506SOL    HW236981   1.490   2.620  14.189  1.6654 -1.5266  0.8670
 8507SOL     OW36982   3.882   4.132  17.038 -0.0862 -0.2289  0.3089
 8507SOL    HW136983   3.914   4.191  16.970  1.8738 -2.3908 -0.6404
 8507SOL    HW236984   3.809   4.180  17.078 -0.7221 -1.1167  0.2206
 8508SOL     OW36985   2.950   3.916  14.519 -0.0224  0.1573  0.9169
 8508SOL    HW136986   3.005   3.866  14.459 -0.6634  1.0216 -0.3987
 8508SOL    HW236987   2.903   3.845  14.563 -1.4848  0.2976 -0.4144
 8509SOL     OW36988   4.109   2.552   1.584 -0.2812  0.1270  0.7019
 8509SOL    HW136989   4.090   2.643   1.560  1.1611  0.1081 -0.5144
 8509SOL    HW236990   4.151   2.525   1.502 -1.2760  0.1850  0.1736
 8510SOL     OW36991   3.260   1.522   9.548  0.3180  0.3576 -0.3172
 8510SOL    HW136992   3.305   1.549   9.468  1.0746 -0.9148 -0.3269
 8510SOL    HW236993   3.229   1.608   9.575 -1.8872 -0.7081  0.5372
 8511SOL     OW36994   3.642   1.174  11.642 -0.6906  0.5012 -0.2631
 8511SOL    HW136995   3.600   1.257  11.667  0.5946  0.4549  2.0183
 8511SOL    HW236996   3.717   1.171  11.701 -1.1024 -0.1359  0.2249
 8512SOL     OW36997   0.713   3.986   3.732  0.1191 -0.3241  0.3331
 8512SOL    HW136998   0.728   3.900   3.772  1.2682 -1.6721 -3.0565
 8512SOL    HW236999   0.710   3.959   3.641 -2.4515  3.0587 -0.5740
 8513SOL     OW37000   3.819   2.157   8.352  0.5733 -0.1311 -0.6780
 8513SOL    HW137001   3.870   2.102   8.411  0.1464 -0.9548 -1.0735
 8513SOL    HW237002   3.739   2.152   8.404  1.0761  1.2639  0.2157
 8514SOL     OW37003   1.578   2.312  12.696  0.6444  0.1871 -0.0563
 8514SOL    HW137004   1.553   2.353  12.779  1.7074  0.9844 -0.1330
 8514SOL    HW237005   1.672   2.309  12.715  1.0342  1.2343 -1.8182
 8515SOL     OW37006   2.054   1.836   1.625  0.3529 -0.0774  0.0837
 8515SOL    HW137007   1.969   1.800   1.650  0.2748  0.0075 -0.0612
 8515SOL    HW237008   2.069   1.905   1.689 -0.5934 -0.0185  0.2489
 8516SOL     OW37009   2.396   3.491  10.182 -0.0555  0.3193  0.4718
 8516SOL    HW137010   2.351   3.448  10.254  0.3744 -0.7965  0.0697
 8516SOL    HW237011   2.482   3.498  10.224 -0.4606 -1.1179  1.5220
 8517SOL     OW37012   2.903   0.254   2.179 -0.1182  0.3905  0.1111
 8517SOL    HW137013   2.831   0.281   2.235  0.5658  2.6576 -0.0788
 8517SOL    HW237014   2.878   0.301   2.099 -1.6300 -0.9177 -0.1879
 8518SOL     OW37015   4.093   2.842  10.509  0.3092 -0.7141 -0.2632
 8518SOL    HW137016   4.020   2.899  10.531 -1.4034 -1.8749 -2.9481
 8518SOL    HW237017   4.062   2.802  10.427 -0.6453  2.4213 -1.4351
 8519SOL     OW37018   2.331   0.667   1.169 -0.2751  0.1518  0.4534
 8519SOL    HW137019   2.370   0.744   1.211  1.9836 -1.6647  1.7207
 8519SOL    HW237020   2.270   0.716   1.114 -0.7062 -0.0802  0.7191
 8520SOL     OW37021   2.154   3.797  12.812 -0.1006  0.4129  0.2597
 8520SOL    HW137022   2.213   3.872  12.819  2.4479 -1.3043 -3.3945
 8520SOL    HW237023   2.222   3.733  12.831 -0.3989  0.0098 -0.0379
 8521SOL     OW37024   1.216   4.195   9.053 -0.1579  0.1405 -0.0851
 8521SOL    HW137025   1.275   4.262   9.018  0.0031 -0.3268 -0.7186
 8521SOL    HW237026   1.251   4.190   9.142  2.0244  1.1495 -0.8904
 8522SOL     OW37027   0.463   3.959  16.825 -0.4705 -0.1947 -0.1382
 8522SOL    HW137028   0.520   3.945  16.750 -0.9805  2.4803 -1.0317
 8522SOL    HW237029   0.399   3.889  16.822  0.6046 -1.1207 -1.3059
 8523SOL     OW37030   1.109   1.506  12.368 -0.5655  0.8272  0.2952
 8523SOL    HW137031   1.050   1.493  12.442  0.0345 -1.2828  0.4176
 8523SOL    HW237032   1.048   1.547  12.307  0.0955 -1.3939 -1.8582
 8524SOL     OW37033   1.681   3.031   3.551  0.6906  0.0752 -0.6064
 8524SOL    HW137034   1.690   2.940   3.579 -0.1664 -0.2171 -1.2898
 8524SOL    HW237035   1.619   3.011   3.481 -1.1516 -1.1439  1.3630
 8525SOL     OW37036   3.697   3.626   5.660 -0.1475 -0.0137  0.2713
 8525SOL    HW137037   3.749   3.566   5.606  0.7472  0.3637  0.7122
 8525SOL    HW237038   3.668   3.559   5.723  0.3575 -0.0648  0.4529
 8526SOL     OW37039   2.279   3.409   2.384  0.4126  0.1656  0.5500
 8526SOL    HW137040   2.257   3.470   2.455 -0.9003 -2.0939  2.0761
 8526SOL    HW237041   2.222   3.337   2.411  0.5748 -0.2593 -0.2400
 8527SOL     OW37042   1.311   1.057   1.614  0.3432  0.0792 -0.2516
 8527SOL    HW137043   1.277   0.969   1.596  0.0899 -0.0858  1.0487
 8527SOL    HW237044   1.343   1.084   1.528  0.2410 -0.0911 -0.3437
 8528SOL     OW37045   0.167   0.083   4.722  0.4441  0.4742  0.2420
 8528SOL    HW137046   0.121   0.001   4.740 -0.4946  1.1616  1.0327
 8528SOL    HW237047   0.238   0.083   4.785 -0.3169 -0.8805  1.0965
 8529SOL     OW37048   3.672   1.956  13.830  0.1226  0.2641  0.2123
 8529SOL    HW137049   3.762   1.948  13.798 -0.4310  0.3208 -1.3912
 8529SOL    HW237050   3.632   1.896  13.767  0.6254 -1.2715  1.3810
 8530SOL     OW37051   2.493   2.065  13.536 -0.1008  0.0485  0.1683
 8530SOL    HW137052   2.401   2.038  13.546  0.3562 -0.2247  3.4993
 8530SOL    HW237053   2.498   2.082  13.442  3.1503  0.5542  0.4571
 8531SOL     OW37054   1.815   2.386  16.464  0.1898  0.3912 -0.0543
 8531SOL    HW137055   1.768   2.340  16.394  0.9066  0.9255 -0.8888
 8531SOL    HW237056   1.832   2.467  16.415 -0.3266  0.4847 -0.0801
 8532SOL     OW37057   0.222   3.903  12.747  0.2063  0.1514 -0.9558
 8532SOL    HW137058   0.272   3.924  12.669 -0.5424 -0.7858 -1.6767
 8532SOL    HW237059   0.147   3.860  12.707 -1.2113  0.5326  1.2657
 8533SOL     OW37060   1.356   0.588  12.469 -0.3205 -0.1717 -0.3434
 8533SOL    HW137061   1.312   0.560  12.550 -0.3228  1.1298  0.1062
 8533SOL    HW237062   1.296   0.655  12.436 -0.6734 -0.8337 -1.0300
 8534SOL     OW37063   4.078   0.458  12.650  1.1137 -0.1829  0.5819
 8534SOL    HW137064   4.044   0.492  12.567 -1.8077 -0.4435  1.6606
 8534SOL    HW237065   4.090   0.537  12.701 -1.2904 -0.7665  2.0746
 8535SOL     OW37066   3.967   3.963  14.700 -0.1618 -0.5980  0.2471
 8535SOL    HW137067   4.025   3.897  14.662 -1.8280 -1.9299  0.0143
 8535SOL    HW237068   3.881   3.934  14.670 -0.6376  1.8346 -0.7202
 8536SOL     OW37069   1.237   0.753   2.727 -1.1184 -0.2370  0.0119
 8536SOL    HW137070   1.188   0.724   2.804 -0.2937 -2.4668 -0.3260
 8536SOL    HW237071   1.239   0.683   2.662 -0.2896 -0.8105  0.6579
 8537SOL     OW37072   2.687   3.841   6.550 -0.1770  0.0397 -0.0370
 8537SOL    HW137073   2.773   3.872   6.579 -0.6878  0.1201  1.3891
 8537SOL    HW237074   2.676   3.754   6.587  1.0145 -0.1790 -0.1768
 8538SOL     OW37075   1.021   0.388   1.499 -0.2869  0.1549  0.4084
 8538SOL    HW137076   1.110   0.355   1.514 -0.2482  0.1225  0.1174
 8538SOL    HW237077   1.018   0.476   1.536 -1.5572  0.7765 -1.1700
 8539SOL     OW37078   3.289   2.507   0.731 -0.3266 -0.1600  0.2587
 8539SOL    HW137079   3.250   2.572   0.673  1.4784  1.0727  0.4152
 8539SOL    HW237080   3.217   2.444   0.740  0.1659 -1.0020 -1.7606
 8540SOL     OW37081   4.416   3.190   7.534 -0.1609  0.1432 -0.2717
 8540SOL    HW137082   4.418   3.101   7.568  0.2023  0.1440 -0.2933
 8540SOL    HW237083   4.453   3.241   7.606 -0.3209 -0.8640  0.5186
 8541SOL     OW37084   3.003   1.822   4.358 -0.0178  0.1245 -0.2733
 8541SOL    HW137085   3.002   1.749   4.296  2.1947  0.1007 -0.2845
 8541SOL    HW237086   2.937   1.881   4.323 -0.0463  0.8099  0.9394
 8542SOL     OW37087   2.119   0.026  13.061  0.3571 -0.5757 -0.3207
 8542SOL    HW137088   2.111   4.675  13.115  0.3526 -1.3451 -1.4325
 8542SOL    HW237089   2.203   0.064  13.087  0.8109 -1.5320 -0.4016
 8543SOL     OW37090   3.280   0.176  14.114  0.3970  0.2299 -0.1515
 8543SOL    HW137091   3.347   0.203  14.177  2.2353 -0.0657 -1.9594
 8543SOL    HW237092   3.328   0.192  14.033 -1.8222  3.2696 -0.8853
 8544SOL     OW37093   1.935   3.502   5.528  0.4312  0.0547 -0.6439
 8544SOL    HW137094   1.856   3.497   5.475  0.1768  0.4855 -0.3069
 8544SOL    HW237095   1.904   3.461   5.609 -0.8811  0.7305 -0.7998
 8545SOL     OW37096   3.126   4.365   5.279  0.4964  0.8478 -0.1051
 8545SOL    HW137097   3.061   4.345   5.346  0.6498  1.2704  0.1675
 8545SOL    HW237098   3.124   4.288   5.221  2.0375  0.1877  0.7083
 8546SOL     OW37099   1.166   1.545  17.578 -0.4852  0.6499 -0.2292
 8546SOL    HW137100   1.080   1.515  17.607  0.3079  0.1776  1.5959
 8546SOL    HW237101   1.231   1.482  17.609 -0.8227 -0.2542 -1.3348
 8547SOL     OW37102   0.534   0.627   7.141 -0.3141  0.3973  0.1711
 8547SOL    HW137103   0.491   0.594   7.220  1.1764 -0.7948  0.4946
 8547SOL    HW237104   0.626   0.634   7.168  0.2027 -3.2893 -0.6069
 8548SOL     OW37105   0.062   3.651  10.090  0.2579  0.6597  0.4634
 8548SOL    HW137106   0.061   3.627  10.182 -4.2228  3.0306  1.0270
 8548SOL    HW237107   0.022   3.575  10.047  2.1418 -0.8701  1.4007
 8549SOL     OW37108   0.598   2.920  16.901 -0.3038 -0.4495  0.0795
 8549SOL    HW137109   0.531   2.974  16.943 -1.9154 -2.3246 -0.0369
 8549SOL    HW237110   0.676   2.974  16.889  0.4830 -1.3237  1.2735
 8550SOL     OW37111   0.352   3.794  14.846 -0.0535  0.9641 -0.3957
 8550SOL    HW137112   0.385   3.758  14.928  1.7706  1.6131 -0.8657
 8550SOL    HW237113   0.424   3.851  14.822  1.5156 -0.3499  1.2487
 8551SOL     OW37114   4.661   4.250  11.124 -0.0148 -0.5121  0.0410
 8551SOL    HW137115   4.655   4.254  11.029  1.9378 -1.1124 -0.1182
 8551SOL    HW237116   4.725   4.320  11.136  2.2799 -2.0947 -2.9790
 8552SOL     OW37117   0.440   0.672   8.402  0.1573 -0.4892 -1.0722
 8552SOL    HW137118   0.533   0.693   8.392  0.8336 -2.1808  1.6333
 8552SOL    HW237119   0.402   0.751   8.365  1.2275 -0.0466 -1.2349
 8553SOL     OW37120   0.263   2.581   3.281  0.6412 -0.2780  0.2010
 8553SOL    HW137121   0.321   2.531   3.223 -1.8415 -0.4732 -2.0695
 8553SOL    HW237122   0.180   2.575   3.233  1.1968 -0.4499 -0.7447
 8554SOL     OW37123   1.878   2.827   1.262 -0.3925 -0.1400 -0.1759
 8554SOL    HW137124   1.873   2.921   1.280 -2.7224 -0.2196 -0.4140
 8554SOL    HW237125   1.879   2.790   1.350  1.1625  0.4173  0.0283
 8555SOL     OW37126   2.760   2.154  14.851 -0.2315 -0.5102 -0.0437
 8555SOL    HW137127   2.782   2.122  14.939 -0.4572  1.1365  0.6146
 8555SOL    HW237128   2.668   2.129  14.856 -0.5055 -0.2155 -3.7632
 8556SOL     OW37129   2.802   2.608  14.322 -0.7748 -0.2056 -0.7630
 8556SOL    HW137130   2.727   2.645  14.275 -2.4098 -0.0404  2.0131
 8556SOL    HW237131   2.873   2.628  14.260 -1.6335  0.9545 -1.3746
 8557SOL     OW37132   3.779   2.539   8.442 -0.7770  0.0052  0.1595
 8557SOL    HW137133   3.824   2.619   8.415  0.1666 -0.7691 -0.5669
 8557SOL    HW237134   3.847   2.481   8.476 -0.9203 -0.3990 -0.2462
 8558SOL     OW37135   0.231   3.422   2.407 -0.0551 -0.2821  0.3628
 8558SOL    HW137136   0.240   3.459   2.494  0.4399 -1.6795  0.8997
 8558SOL    HW237137   0.272   3.338   2.428  1.1140  0.2927  0.3728
 8559SOL     OW37138   3.215   1.068   1.089  0.1464 -0.0338 -0.0832
 8559SOL    HW137139   3.254   1.143   1.044 -0.6180  1.8103  2.3025
 8559SOL    HW237140   3.145   1.042   1.030  0.4551 -1.5201  0.2129
 8560SOL     OW37141   3.985   3.825   6.251  0.1225  0.1420  0.3282
 8560SOL    HW137142   3.949   3.913   6.248 -1.9218 -0.6801  0.6517
 8560SOL    HW237143   3.940   3.791   6.328  0.8774  0.8762  1.0964
 8561SOL     OW37144   2.493   1.522  11.421  0.2525 -0.1160 -0.0133
 8561SOL    HW137145   2.440   1.443  11.420 -0.0043  0.0608 -0.4214
 8561SOL    HW237146   2.539   1.506  11.338  1.1871 -0.7482  0.6307
 8562SOL     OW37147   2.849   2.586  15.792 -0.0132  0.3645 -0.1681
 8562SOL    HW137148   2.800   2.510  15.822 -2.0462  0.8618 -2.2583
 8562SOL    HW237149   2.901   2.542  15.725  0.3949  2.1189 -1.0169
 8563SOL     OW37150   0.742   0.792   7.848 -0.3712 -0.7680  0.0886
 8563SOL    HW137151   0.660   0.747   7.829  0.0592 -1.2786 -0.5521
 8563SOL    HW237152   0.698   0.876   7.850 -0.7544 -0.9623 -0.2696
 8564SOL     OW37153   1.040   1.931   6.855  0.1010 -0.7388 -0.2474
 8564SOL    HW137154   1.009   1.995   6.919  2.8055  0.5913 -0.3031
 8564SOL    HW237155   1.126   1.907   6.890  0.7732  0.6547 -0.9451
 8565SOL     OW37156   1.571   3.490   7.568  0.3034 -0.5926  0.0849
 8565SOL    HW137157   1.529   3.550   7.630 -1.1203 -1.2228 -0.2488
 8565SOL    HW237158   1.540   3.528   7.486 -1.4117  0.8643  1.4194
 8566SOL     OW37159   4.606   2.750   2.978 -0.3810  0.0899  0.0387
 8566SOL    HW137160   4.679   2.776   2.921  1.1989 -3.1082  0.6565
 8566SOL    HW237161   4.535   2.763   2.915 -0.5690 -1.5832 -0.0818
 8567SOL     OW37162   2.364   4.281   2.329 -0.1673 -0.4731  0.2347
 8567SOL    HW137163   2.327   4.361   2.364 -2.5655 -0.7261 -1.7038
 8567SOL    HW237164   2.368   4.307   2.237 -1.9049 -0.0920  0.2721
 8568SOL     OW37165   4.670   3.836   8.918  0.2262  0.1774  0.1022
 8568SOL    HW137166   4.700   3.784   8.993  0.7027 -0.3395 -0.4466
 8568SOL    HW237167   4.695   3.775   8.848 -0.9117 -1.0354  0.7593
 8569SOL     OW37168   1.946   2.727   4.739 -0.0073 -0.4557 -0.3882
 8569SOL    HW137169   1.978   2.721   4.649 -3.1018 -0.2711 -1.5083
 8569SOL    HW237170   1.868   2.672   4.737 -0.3263 -0.1067  1.8774
 8570SOL     OW37171   1.925   2.673   3.827 -0.1372 -0.3451  0.2104
 8570SOL    HW137172   1.941   2.579   3.815 -2.1475 -0.9067  2.0262
 8570SOL    HW237173   2.002   2.708   3.783  0.6382 -0.5761  1.3727
 8571SOL     OW37174   0.834   2.026   3.585 -0.1520 -0.2254  0.1543
 8571SOL    HW137175   0.802   2.030   3.495 -0.4310  2.5119  0.3654
 8571SOL    HW237176   0.828   1.934   3.612 -2.1083 -0.2198 -0.2778
 8572SOL     OW37177   2.505   1.609   4.572  0.1397  0.0989 -0.2578
 8572SOL    HW137178   2.472   1.543   4.511 -0.1157  0.7255 -0.7992
 8572SOL    HW237179   2.546   1.555   4.639 -1.2941 -0.8780 -0.1699
 8573SOL     OW37180   4.160   4.573   0.451 -0.5412 -0.0091  0.3192
 8573SOL    HW137181   4.114   4.490   0.465 -0.8817  0.3355  1.2436
 8573SOL    HW237182   4.241   4.544   0.409  0.3441  2.2414  0.4998
 8574SOL     OW37183   2.699   3.992   1.782  0.0850  0.4938  0.2583
 8574SOL    HW137184   2.718   4.084   1.765 -2.8978  0.6978 -2.1584
 8574SOL    HW237185   2.663   3.995   1.871  1.3355 -0.6496  0.7863
 8575SOL     OW37186   2.386   1.605   6.960 -0.5195 -0.1487  0.2758
 8575SOL    HW137187   2.448   1.620   6.889  0.9434  0.8078  1.7552
 8575SOL    HW237188   2.449   1.608   7.031 -2.1316 -1.6606  1.7748
 8576SOL     OW37189   2.396   3.114   5.564 -0.0323 -0.2212  0.9459
 8576SOL    HW137190   2.425   3.193   5.610  1.1429  1.2237 -2.3089
 8576SOL    HW237191   2.398   3.061   5.644 -0.7792 -1.2450  0.2764
 8577SOL     OW37192   0.659   3.384   3.715  0.3986  0.4981  0.4197
 8577SOL    HW137193   0.622   3.472   3.704 -0.1769 -0.1787 -3.0484
 8577SOL    HW237194   0.733   3.403   3.772  0.1330  1.0493  0.5778
 8578SOL     OW37195   3.896   1.298  13.131 -0.1235  0.0133 -0.2051
 8578SOL    HW137196   3.856   1.249  13.202 -0.5910 -2.8280 -2.4029
 8578SOL    HW237197   3.849   1.268  13.053 -1.3142  1.8184 -0.1760
 8579SOL     OW37198   3.257   2.354   8.194  0.4409  0.3629  0.1057
 8579SOL    HW137199   3.321   2.409   8.149  0.0613 -1.2310 -2.3810
 8579SOL    HW237200   3.273   2.265   8.163  1.8927  0.7024 -0.1290
 8580SOL     OW37201   0.124   4.497   8.577 -0.4635  0.5531  0.2270
 8580SOL    HW137202   0.178   4.498   8.498 -0.5942  3.2084  0.1634
 8580SOL    HW237203   0.178   4.444   8.636  0.2683  1.7555  0.6351
 8581SOL     OW37204   1.486   2.974   4.796 -0.2181  0.1409  0.0778
 8581SOL    HW137205   1.565   3.002   4.750 -0.1445 -1.0077 -0.4972
 8581SOL    HW237206   1.444   3.057   4.819 -2.2069 -0.9376  0.3208
 8582SOL     OW37207   2.857   3.669   7.667 -0.4471 -0.8632  0.7225
 8582SOL    HW137208   2.832   3.670   7.759  0.6305 -2.1548  1.0299
 8582SOL    HW237209   2.772   3.673   7.622  0.5358  2.4019 -0.8669
 8583SOL     OW37210   2.504   0.106   6.172 -0.1184  0.1299 -0.2493
 8583SOL    HW137211   2.550   0.086   6.090 -3.1222  0.0580 -1.9437
 8583SOL    HW237212   2.563   0.173   6.206  1.1895 -1.3322  0.3822
 8584SOL     OW37213   1.711   0.162   3.356  0.0543 -0.0525 -0.6374
 8584SOL    HW137214   1.721   0.121   3.270  0.7180  0.4598 -0.8113
 8584SOL    HW237215   1.734   0.094   3.418  0.8092  2.5631  1.9437
 8585SOL     OW37216   1.409   4.059  15.440 -0.1745  0.8390 -0.5957
 8585SOL    HW137217   1.442   4.062  15.350  3.7137  1.6417  0.8366
 8585SOL    HW237218   1.414   3.964  15.447 -0.5690  0.9592  1.2423
 8586SOL     OW37219   1.340   4.530   8.779  0.3698  0.1119  0.0092
 8586SOL    HW137220   1.260   4.558   8.824  0.6376 -0.8839  1.1002
 8586SOL    HW237221   1.381   4.615   8.761  0.5482 -0.2076 -1.0844
 8587SOL     OW37222   2.966   3.069   3.304 -0.1749  0.2922  0.1463
 8587SOL    HW137223   2.903   3.092   3.236 -2.2749  2.4807  2.8011
 8587SOL    HW237224   3.050   3.065   3.258  0.3331 -0.0614  1.1007
 8588SOL     OW37225   3.541   1.379   6.560  0.4544 -0.3131 -0.3796
 8588SOL    HW137226   3.577   1.454   6.511  1.9065 -1.8216 -1.6219
 8588SOL    HW237227   3.539   1.413   6.649 -0.0637 -0.0883 -0.4753
 8589SOL     OW37228   2.219   0.464   1.317 -0.2185  0.1819  0.1716
 8589SOL    HW137229   2.259   0.538   1.272  0.1599  0.4868  1.0180
 8589SOL    HW237230   2.242   0.480   1.409  0.1617 -0.7029  0.2345
 8590SOL     OW37231   3.960   1.802   2.238  0.6101  0.2623  0.5273
 8590SOL    HW137232   3.925   1.816   2.150 -2.5004 -0.9101  1.5748
 8590SOL    HW237233   3.950   1.707   2.244  1.4593  0.1063 -0.4621
 8591SOL     OW37234   1.031   1.670  11.173 -0.0505 -0.0916 -1.1779
 8591SOL    HW137235   1.094   1.629  11.233  0.9429  0.6316 -1.7207
 8591SOL    HW237236   0.957   1.662  11.232 -0.9157  2.2385 -1.9497
 8592SOL     OW37237   1.306   1.735  13.389  0.3811 -0.1879  0.8686
 8592SOL    HW137238   1.381   1.684  13.419  1.6273  0.1572 -1.6526
 8592SOL    HW237239   1.307   1.812  13.446  2.3717 -0.4618  1.2134
 8593SOL     OW37240   3.490   4.517   6.351  0.4874  0.5496 -0.0291
 8593SOL    HW137241   3.532   4.550   6.272  0.8214  0.5984  0.1708
 8593SOL    HW237242   3.525   4.429   6.340  3.2585  1.5840  0.5154
 8594SOL     OW37243   2.161   4.639   4.177  0.0959  0.1308  0.3810
 8594SOL    HW137244   2.138   4.712   4.234  0.6931  0.0570  0.7157
 8594SOL    HW237245   2.212   4.590   4.242  0.5504  0.6014  0.3786
 8595SOL     OW37246   1.287   4.147   5.253 -0.4465 -0.8560  0.0917
 8595SOL    HW137247   1.310   4.154   5.160  2.0441  2.0054  0.9155
 8595SOL    HW237248   1.309   4.055   5.268  2.0724 -0.2886  0.0480
 8596SOL     OW37249   3.397   2.962  16.614  0.1683  0.0725 -0.3329
 8596SOL    HW137250   3.335   3.033  16.599 -0.7455 -0.5923  0.2094
 8596SOL    HW237251   3.476   3.009  16.638 -2.0703  2.5715  2.1511
 8597SOL     OW37252   4.109   1.183   8.892  0.1064  0.7073 -0.3950
 8597SOL    HW137253   4.202   1.160   8.895  0.2415  1.6411  2.3736
 8597SOL    HW237254   4.097   1.221   8.979  0.3495 -0.9710  0.3675
 8598SOL     OW37255   3.338   2.942   3.570 -0.0799 -0.5217  0.0007
 8598SOL    HW137256   3.278   3.016   3.562  1.4696  0.6027 -1.3602
 8598SOL    HW237257   3.415   2.978   3.616  0.3903  0.2511 -1.3679
 8599SOL     OW37258   1.684   2.169   4.659  0.3377  0.6968 -0.0027
 8599SOL    HW137259   1.752   2.205   4.603  2.6834 -1.5952  1.3945
 8599SOL    HW237260   1.737   2.135   4.731  2.2499 -0.5126 -1.9933
 8600SOL     OW37261   0.754   3.895  12.083 -0.3602  0.3972 -0.3316
 8600SOL    HW137262   0.737   3.941  12.001  0.4779 -3.3117 -2.5897
 8600SOL    HW237263   0.784   3.976  12.124 -0.6623  0.3296  0.0259
 8601SOL     OW37264   3.998   0.840   3.001  0.1995  0.2194  0.3781
 8601SOL    HW137265   3.976   0.751   2.974  0.8681  0.8032 -2.0685
 8601SOL    HW237266   4.080   0.827   3.049  1.4761  2.0537 -1.3169
 8602SOL     OW37267   4.720   3.966  11.122  0.3706  0.4435  0.2695
 8602SOL    HW137268   0.085   3.983  11.100 -0.1151  2.3960 -0.3199
 8602SOL    HW237269   4.689   4.052  11.150  4.4876  2.5985 -1.7595
 8603SOL     OW37270   3.033   2.573  16.306 -0.1347  0.8142  0.0291
 8603SOL    HW137271   3.052   2.506  16.371  1.0450  1.8961  0.7975
 8603SOL    HW237272   3.113   2.626  16.299 -0.8278  1.8859  0.2865
 8604SOL     OW37273   2.313   1.672   0.438 -0.7775  0.7387  0.5851
 8604SOL    HW137274   2.397   1.635   0.464 -1.2960 -1.5479 -1.0378
 8604SOL    HW237275   2.333   1.666   0.344  0.0083 -0.0332  0.8024
 8605SOL     OW37276   1.911   2.941  13.771 -0.0437  0.9458  0.0160
 8605SOL    HW137277   1.872   2.992  13.842 -1.2960  2.0565 -1.4765
 8605SOL    HW237278   1.860   2.966  13.694 -0.6050 -0.6489 -0.1378
 8606SOL     OW37279   4.196   0.666   4.256 -0.0211 -0.4685  0.0818
 8606SOL    HW137280   4.241   0.704   4.331  0.2652 -1.1013  0.2270
 8606SOL    HW237281   4.127   0.611   4.291 -0.2381 -1.0403 -1.2383
 8607SOL     OW37282   4.115   1.047   1.103 -0.1643 -0.0126 -0.6238
 8607SOL    HW137283   4.187   0.991   1.132  0.3312  0.4555 -0.9291
 8607SOL    HW237284   4.152   1.134   1.122 -0.3477 -0.2791  0.9129
 8608SOL     OW37285   2.112   3.806   6.330  0.0204 -0.5429 -0.1206
 8608SOL    HW137286   2.070   3.825   6.247  0.1886  2.8091  0.5536
 8608SOL    HW237287   2.124   3.895   6.364  0.1741  0.0814 -1.8346
 8609SOL     OW37288   4.480   1.664   1.981 -0.1399  0.0101 -0.2908
 8609SOL    HW137289   4.517   1.576   1.987 -0.6017 -0.2404 -1.0737
 8609SOL    HW237290   4.544   1.703   2.041 -1.3839 -1.7856  2.2127
 8610SOL     OW37291   3.499   2.938   7.478  0.3177 -0.5120  0.7737
 8610SOL    HW137292   3.492   2.996   7.401 -0.7779  0.2601  1.4597
 8610SOL    HW237293   3.442   2.864   7.460 -1.6680  1.0168  0.7687
 8611SOL     OW37294   1.019   2.698   4.792 -1.1569  0.1111 -0.0670
 8611SOL    HW137295   1.012   2.761   4.863 -0.1771 -1.1470  1.1672
 8611SOL    HW237296   1.072   2.735   4.722  1.0555 -0.5131  1.2671
 8612SOL     OW37297   1.191   0.219   2.943 -0.3067 -0.1482 -0.3954
 8612SOL    HW137298   1.163   0.172   3.022  1.7797 -0.0525  0.4046
 8612SOL    HW237299   1.269   0.171   2.917 -0.2575 -1.4507  2.0830
 8613SOL     OW37300   1.761   1.399  14.279  0.6851  0.7928  0.6585
 8613SOL    HW137301   1.744   1.429  14.190 -0.7910  0.3655  0.8065
 8613SOL    HW237302   1.854   1.416  14.296  0.9295 -0.0764  0.2084
 8614SOL     OW37303   4.120   3.327  11.672 -0.1297 -0.7345 -0.6935
 8614SOL    HW137304   4.037   3.303  11.630 -0.4260  1.3469 -1.2931
 8614SOL    HW237305   4.181   3.289  11.609  0.5246  0.0288 -0.5213
 8615SOL     OW37306   4.678   0.652   7.857  0.4582 -0.0492  0.3759
 8615SOL    HW137307   4.601   0.674   7.806  0.4503 -0.0100  0.4047
 8615SOL    HW237308   4.711   0.582   7.800  1.1405  1.9482 -1.6754
 8616SOL     OW37309   1.705   2.534   6.601 -0.3076 -0.5087  0.4762
 8616SOL    HW137310   1.644   2.601   6.629 -1.4650 -0.6906 -1.6585
 8616SOL    HW237311   1.721   2.485   6.682 -1.4979 -0.5823  0.6609
 8617SOL     OW37312   0.562   1.624   6.531 -0.0063 -0.3827 -0.1882
 8617SOL    HW137313   0.518   1.700   6.569  0.6913 -1.4848  2.8650
 8617SOL    HW237314   0.644   1.619   6.581  0.0789 -0.6898 -0.3581
 8618SOL     OW37315   3.779   0.340   4.671 -0.2379 -0.7879  1.0853
 8618SOL    HW137316   3.686   0.324   4.681 -0.2526 -2.0192 -0.9392
 8618SOL    HW237317   3.806   0.402   4.738  0.8286 -0.7665  0.6479
 8619SOL     OW37318   3.657   0.406   6.696 -0.6147  0.1314 -0.2305
 8619SOL    HW137319   3.705   0.485   6.672 -0.6552  0.2675  0.1300
 8619SOL    HW237320   3.644   0.376   6.606  1.0786 -0.2853 -0.3471
 8620SOL     OW37321   0.387   0.542  10.693  0.1299 -0.0042 -0.2826
 8620SOL    HW137322   0.451   0.606  10.724  1.5136 -1.1067 -0.9041
 8620SOL    HW237323   0.395   0.469  10.754 -0.2575  0.1386 -0.0564
 8621SOL     OW37324   4.225   0.336   2.983  0.1656  0.0384 -0.6193
 8621SOL    HW137325   4.145   0.356   2.935 -0.0093  0.7453 -0.0429
 8621SOL    HW237326   4.192   0.332   3.073  0.8175 -0.3783 -0.4002
 8622SOL     OW37327   0.441   3.647   5.661  0.2950  0.6694  0.0770
 8622SOL    HW137328   0.473   3.638   5.571  1.7661 -0.0890  0.6925
 8622SOL    HW237329   0.391   3.729   5.656  0.2487  0.6674  0.5338
 8623SOL     OW37330   4.575   3.851   7.884  0.7941 -0.3263  0.3375
 8623SOL    HW137331   4.549   3.943   7.883  1.5968 -0.1047  0.0393
 8623SOL    HW237332   4.516   3.809   7.821 -1.5739  1.4592  1.3416
 8624SOL     OW37333   0.804   3.939   2.556 -0.1937  0.5335  0.0658
 8624SOL    HW137334   0.779   3.963   2.645 -1.7753  0.2191 -0.2887
 8624SOL    HW237335   0.737   3.871   2.552 -1.1970  1.5128 -0.0287
 8625SOL     OW37336   2.897   2.200   6.714 -0.1479  0.1028  0.1666
 8625SOL    HW137337   2.984   2.238   6.708 -0.4445  0.7452 -0.0347
 8625SOL    HW237338   2.902   2.104   6.715  1.0928  0.2219  3.1959
 8626SOL     OW37339   0.544   3.045   5.178 -0.0828  0.0025  0.2692
 8626SOL    HW137340   0.464   3.097   5.169  0.5669  1.1029  0.9882
 8626SOL    HW237341   0.604   3.110   5.141  1.1620 -0.6531  1.1517
 8627SOL     OW37342   2.408   2.382   7.347 -0.7246  0.1598 -0.0353
 8627SOL    HW137343   2.463   2.334   7.285  1.5247  3.7704 -0.8747
 8627SOL    HW237344   2.483   2.427   7.386  0.8789 -2.4041 -0.1859
 8628SOL     OW37345   3.827   3.783   7.164 -0.1090 -0.0147  0.0626
 8628SOL    HW137346   3.890   3.833   7.215  0.3056 -0.3383 -0.1314
 8628SOL    HW237347   3.745   3.797   7.210 -0.3774 -1.8370  0.1664
 8629SOL     OW37348   0.670   2.121   2.967 -0.1860  0.4577  0.3270
 8629SOL    HW137349   0.753   2.129   2.920 -1.6483 -0.9658 -2.5488
 8629SOL    HW237350   0.644   2.213   2.973 -1.5483  0.3298 -3.3340
 8630SOL     OW37351   0.820   0.050   7.171  0.6940  0.4766 -0.4877
 8630SOL    HW137352   0.803   4.712   7.239 -0.0804  1.3605  0.1781
 8630SOL    HW237353   0.811   0.126   7.229 -4.4954  0.4638 -1.3287
 8631SOL     OW37354   3.326   1.468   8.070 -0.2164  0.0151  0.0201
 8631SOL    HW137355   3.284   1.384   8.054 -1.5266  0.3216  1.8117
 8631SOL    HW237356   3.242   1.510   8.088 -0.4330  0.5115 -2.1153
 8632SOL     OW37357   4.221   2.195   2.495 -0.5570 -0.3045 -0.1637
 8632SOL    HW137358   4.198   2.119   2.441  0.3850 -1.0316  0.4666
 8632SOL    HW237359   4.313   2.198   2.469 -0.6399  0.8877 -0.3229
 8633SOL     OW37360   0.885   1.517  17.631  0.2286  0.1170 -0.3868
 8633SOL    HW137361   0.855   1.429  17.652  0.2656  0.3385  0.5879
 8633SOL    HW237362   0.899   1.553   0.009 -0.5483  1.1892 -0.6965
 8634SOL     OW37363   2.412   1.006   3.908 -0.2521  0.0402 -0.7615
 8634SOL    HW137364   2.349   1.026   3.976 -1.3390 -0.2044 -1.7003
 8634SOL    HW237365   2.368   0.930   3.869  1.8924 -0.9116 -1.3701
 8635SOL     OW37366   3.310   2.110   2.940  0.3990 -0.2104  0.3395
 8635SOL    HW137367   3.295   2.069   2.855  0.2652 -1.2033  0.8377
 8635SOL    HW237368   3.334   2.039   3.000  1.3246  0.2243  0.4944
 8636SOL     OW37369   1.687   1.505   0.144  0.5976 -0.2201  0.1098
 8636SOL    HW137370   1.614   1.546   0.098  0.9494  0.2924  0.0024
 8636SOL    HW237371   1.718   1.590   0.176 -1.8180  0.0466  1.7959
 8637SOL     OW37372   0.615   3.758  11.529  0.0535  0.4070  0.3670
 8637SOL    HW137373   0.574   3.701  11.465 -1.6531  2.2288 -0.1600
 8637SOL    HW237374   0.701   3.715  11.531 -0.4866 -0.7448 -1.5093
 8638SOL     OW37375   1.938   0.536  13.034  0.5838  0.7950  0.3298
 8638SOL    HW137376   1.942   0.539  13.130 -1.2710 -0.2051  0.4310
 8638SOL    HW237377   1.878   0.610  13.027  0.0013  0.0435 -2.3024
 8639SOL     OW37378   0.520   4.109   5.811 -0.1387  0.5931 -0.0970
 8639SOL    HW137379   0.593   4.127   5.751  0.4595 -1.4153  0.0265
 8639SOL    HW237380   0.500   4.192   5.854 -2.9646 -0.8612  1.3719
 8640SOL     OW37381   2.434   2.302   2.990  0.3486 -0.2457  0.1459
 8640SOL    HW137382   2.476   2.369   3.043  0.0184 -0.0126  0.1075
 8640SOL    HW237383   2.360   2.340   2.943  1.1564 -0.8228 -1.5891
 8641SOL     OW37384   1.017   4.490   3.828 -0.0432  0.0745 -0.0615
 8641SOL    HW137385   1.004   4.564   3.770 -0.6314  0.2943  0.3469
 8641SOL    HW237386   1.099   4.447   3.805  0.9984  1.7097  0.6172
 8642SOL     OW37387   2.831   2.602   7.606 -0.0362  0.4965 -0.1000
 8642SOL    HW137388   2.878   2.630   7.527  1.7656  3.4645  2.0017
 8642SOL    HW237389   2.850   2.670   7.672  1.0295 -0.2912  0.4127
 8643SOL     OW37390   1.672   2.797  10.088 -0.0852 -0.2032 -0.9433
 8643SOL    HW137391   1.596   2.742  10.072 -0.0508 -0.9588  1.3836
 8643SOL    HW237392   1.711   2.817  10.003 -2.1265  0.4884 -1.7214
 8644SOL     OW37393   0.189   4.341   5.399 -0.4039 -0.1522  0.6782
 8644SOL    HW137394   0.201   4.264   5.454 -1.6055 -0.0874  1.0231
 8644SOL    HW237395   0.096   4.355   5.413 -1.0793 -2.2759 -1.6812
 8645SOL     OW37396   1.229   3.070  16.823 -0.5472 -0.3724 -0.1024
 8645SOL    HW137397   1.218   3.018  16.903 -0.3220  2.6202  1.8531
 8645SOL    HW237398   1.146   3.058  16.776 -0.4556  1.8817 -0.8418
 8646SOL     OW37399   0.131   2.314   5.512  0.1186 -0.2020  0.3595
 8646SOL    HW137400   0.226   2.325   5.502  0.2676 -0.0236  1.9521
 8646SOL    HW237401   0.115   2.222   5.493  2.3934 -0.8265  1.4846
 8647SOL     OW37402   4.337   4.013   6.287 -0.2557 -0.5576  0.0807
 8647SOL    HW137403   4.394   4.071   6.236  1.1311 -2.8236 -0.9450
 8647SOL    HW237404   4.322   4.064   6.366  1.3867 -0.8171  0.5587
 8648SOL     OW37405   2.408   0.380   5.950  0.6226 -0.1470  0.0120
 8648SOL    HW137406   2.455   0.297   5.940  1.2819  0.2353 -0.0781
 8648SOL    HW237407   2.451   0.444   5.893 -0.1051 -0.3946 -0.8219
 8649SOL     OW37408   3.107   2.206   3.177  0.6121 -0.1360 -0.1424
 8649SOL    HW137409   3.047   2.182   3.106  0.3438 -1.2310  0.4727
 8649SOL    HW237410   3.141   2.287   3.138  2.5218 -2.0586 -2.4171
 8650SOL     OW37411   4.442   2.260   1.390 -0.6181  0.2654 -0.0707
 8650SOL    HW137412   4.519   2.316   1.402 -1.7781  1.0730  3.4098
 8650SOL    HW237413   4.477   2.175   1.363 -0.0152  0.7306 -0.7727
 8651SOL     OW37414   1.811   2.377   5.826 -0.2272 -0.2321  0.0881
 8651SOL    HW137415   1.855   2.440   5.882  0.2876 -1.5363  1.1520
 8651SOL    HW237416   1.893   2.341   5.792 -0.7174 -0.3367 -0.9759
 8652SOL     OW37417   4.484   1.986   8.830  0.2649  0.4707  0.1765
 8652SOL    HW137418   4.568   2.015   8.792  0.6457  0.7821  1.2539
 8652SOL    HW237419   4.454   1.931   8.758  2.6945  0.0558 -0.5208
 8653SOL     OW37420   1.848   0.908   3.459  0.5567 -0.4024  0.1160
 8653SOL    HW137421   1.842   0.950   3.373  0.3168  1.8081  1.1958
 8653SOL    HW237422   1.911   0.841   3.435 -0.0871 -1.7267  2.1109
 8654SOL     OW37423   2.405   1.259   2.871 -0.1061 -0.2315 -0.3691
 8654SOL    HW137424   2.346   1.333   2.860 -0.3358 -0.3074  0.3034
 8654SOL    HW237425   2.341   1.188   2.863 -1.3350  0.8665 -0.3464
 8655SOL     OW37426   4.172   1.095  15.950  0.4244 -0.0559  0.0824
 8655SOL    HW137427   4.237   1.131  15.889 -0.2907 -0.3490 -0.8519
 8655SOL    HW237428   4.142   1.169  16.003 -1.3703  1.6852 -3.3326
 8656SOL     OW37429   3.576   2.587   4.061  0.3512 -0.0398 -0.0195
 8656SOL    HW137430   3.522   2.544   3.994 -2.4314  1.8887  1.0038
 8656SOL    HW237431   3.539   2.675   4.054 -1.3535 -0.6963  0.5690
 8657SOL     OW37432   3.055   1.730   7.646 -0.2157 -0.6372 -0.2159
 8657SOL    HW137433   3.004   1.664   7.599 -4.1332  3.1172 -1.2332
 8657SOL    HW237434   3.000   1.731   7.724 -0.7079 -1.0037 -0.5657
 8658SOL     OW37435   0.968   3.877  11.454  0.0813  0.5918 -0.1814
 8658SOL    HW137436   0.957   3.784  11.436  1.1204  0.2867  0.7557
 8658SOL    HW237437   1.039   3.897  11.393  0.1832 -1.3026 -0.6660
 8659SOL     OW37438   4.466   2.609   6.883  0.0472 -0.5293  0.2481
 8659SOL    HW137439   4.462   2.521   6.847 -1.0354 -0.2013 -0.4436
 8659SOL    HW237440   4.544   2.614   6.939  0.8393  0.6866 -0.9626
 8660SOL     OW37441   1.601   3.691   8.412  0.1019  0.1332  0.2896
 8660SOL    HW137442   1.506   3.697   8.406  0.3799  2.4277 -1.9517
 8660SOL    HW237443   1.624   3.784   8.409  0.1721  0.1582  1.4699
 8661SOL     OW37444   1.596   3.339   3.975 -0.0669 -0.1763  0.2148
 8661SOL    HW137445   1.513   3.294   3.992 -0.7450  0.0133 -2.5366
 8661SOL    HW237446   1.617   3.311   3.886 -1.6343 -0.1049 -0.1757
 8662SOL     OW37447   1.177   2.760   8.704  0.4518  0.1682 -0.2434
 8662SOL    HW137448   1.097   2.726   8.663  0.6976 -0.0673 -0.5294
 8662SOL    HW237449   1.245   2.709   8.660 -1.3559 -1.1455 -1.4964
 8663SOL     OW37450   1.839   3.401  12.254 -0.0529 -0.2695  0.1789
 8663SOL    HW137451   1.796   3.334  12.307 -0.3820  0.9597  1.4922
 8663SOL    HW237452   1.919   3.415  12.305 -0.5357  0.5033  0.7309
 8664SOL     OW37453   2.688   0.973   4.065  0.3731  0.4553  0.3338
 8664SOL    HW137454   2.664   1.018   4.146  2.0333 -2.3148  2.4016
 8664SOL    HW237455   2.609   0.979   4.012  1.4123 -0.1355 -1.2650
 8665SOL     OW37456   2.454   4.666  14.621  0.6215 -0.3370  0.1274
 8665SOL    HW137457   2.550   4.665  14.615  0.5780  1.4486 -0.6739
 8665SOL    HW237458   2.433   4.686  14.530  1.8427  1.1872  0.1893
 8666SOL     OW37459   2.864   3.646   4.577 -0.3076 -0.6001 -0.4057
 8666SOL    HW137460   2.827   3.668   4.492 -3.8064  0.1153  1.2909
 8666SOL    HW237461   2.789   3.650   4.636  0.4357 -0.0546  0.4939
 8667SOL     OW37462   1.092   4.379   1.080 -0.0437 -0.1789 -0.3069
 8667SOL    HW137463   1.184   4.353   1.083  0.4036  1.7580  2.2658
 8667SOL    HW237464   1.063   4.314   1.145 -0.4551 -0.6658 -0.9787
 8668SOL     OW37465   1.605   3.980   8.383 -0.5640 -0.1736 -0.6133
 8668SOL    HW137466   1.628   4.072   8.400 -2.4380  0.3912 -1.1498
 8668SOL    HW237467   1.517   3.989   8.346 -1.0154 -0.3807  0.4246
 8669SOL     OW37468   2.788   4.713   9.058  0.8406  0.0030 -0.3291
 8669SOL    HW137469   2.867   0.017   9.012  0.8086  1.1401  0.4108
 8669SOL    HW237470   2.725   0.047   9.022  2.0553  1.1305 -0.5539
 8670SOL     OW37471   3.139   2.489  15.088  0.5971 -0.3923  0.1739
 8670SOL    HW137472   3.211   2.475  15.150  1.5450 -1.4003 -1.1675
 8670SOL    HW237473   3.087   2.551  15.139  1.3444 -1.1054  1.8083
 8671SOL     OW37474   0.566   1.965   6.415 -0.2159  0.3818  0.2728
 8671SOL    HW137475   0.628   1.940   6.482  0.0852 -1.6925 -0.7859
 8671SOL    HW237476   0.486   1.932   6.456 -0.6505  0.5730 -0.4059
 8672SOL     OW37477   0.277   0.861  11.632 -0.4456  0.6113 -0.0760
 8672SOL    HW137478   0.221   0.846  11.556  0.2817 -2.7964  0.0245
 8672SOL    HW237479   0.364   0.874  11.595 -0.2607  0.8545  0.4374
 8673SOL     OW37480   4.012   3.293  10.759  0.4504  0.0715  0.3245
 8673SOL    HW137481   4.029   3.276  10.667  2.2577  1.9700  0.2973
 8673SOL    HW237482   4.102   3.283  10.791  0.7471 -1.7171 -1.0822
 8674SOL     OW37483   3.780   3.657   1.489  0.5245  0.3916 -0.2604
 8674SOL    HW137484   3.794   3.672   1.583  1.5402 -0.3701 -0.2857
 8674SOL    HW237485   3.762   3.744   1.456  0.6514  0.0580 -1.2056
 8675SOL     OW37486   1.361   3.759   3.650 -0.3310 -0.0403  0.1889
 8675SOL    HW137487   1.376   3.840   3.600  1.8380  0.7843  2.1408
 8675SOL    HW237488   1.274   3.735   3.620  0.3105  0.8043 -2.3107
 8676SOL     OW37489   2.127   1.180  11.200 -0.0855  0.2201  0.4657
 8676SOL    HW137490   2.157   1.094  11.232 -1.3442 -0.4419 -0.1119
 8676SOL    HW237491   2.193   1.208  11.137 -0.2260  1.3138  0.8114
 8677SOL     OW37492   3.768   0.957   6.825  0.1384  0.0141 -0.0359
 8677SOL    HW137493   3.798   0.937   6.736  2.6352  2.4268  0.2534
 8677SOL    HW237494   3.824   1.035   6.828 -1.8784  1.4640  0.1264
 8678SOL     OW37495   2.133   3.132  17.094  0.3091  0.2519 -0.2354
 8678SOL    HW137496   2.139   3.158  17.186 -1.5014  1.3874 -0.4377
 8678SOL    HW237497   2.043   3.100  17.096 -0.3563  2.2590  2.3469
 8679SOL     OW37498   1.462   0.222   3.107  0.8816 -0.2104  0.1974
 8679SOL    HW137499   1.498   0.137   3.083  1.8759  0.1182  0.5508
 8679SOL    HW237500   1.462   0.215   3.202 -1.5012  0.2496  0.2304
 8680SOL     OW37501   4.463   1.428  15.776 -0.1725 -0.7084 -0.2953
 8680SOL    HW137502   4.521   1.416  15.700  0.3987  1.8307 -0.2621
 8680SOL    HW237503   4.418   1.503  15.739  2.7240  1.6781  1.0823
 8681SOL     OW37504   2.853   3.632   5.489  0.1524  0.5419 -0.0339
 8681SOL    HW137505   2.767   3.606   5.524 -0.2600  1.2925 -0.4863
 8681SOL    HW237506   2.881   3.541   5.482 -0.4395  0.3528  0.0757
 8682SOL     OW37507   0.962   4.657  16.722 -0.8356 -0.7288 -0.8100
 8682SOL    HW137508   0.898   4.628  16.787 -1.1614 -1.9301 -1.6648
 8682SOL    HW237509   0.903   4.675  16.649  0.5426 -3.0720 -2.5168
 8683SOL     OW37510   2.607   1.994  17.295 -0.3519 -0.7515  0.6411
 8683SOL    HW137511   2.579   1.974  17.385  1.9418  1.4365  1.8265
 8683SOL    HW237512   2.527   1.967  17.249 -0.7930 -1.3755  1.7658
 8684SOL     OW37513   3.742   4.521   7.192 -0.2207 -0.1962 -0.4195
 8684SOL    HW137514   3.804   4.576   7.145  0.9553 -0.5433  0.7255
 8684SOL    HW237515   3.796   4.473   7.256 -1.2270  1.3398  1.5977
 8685SOL     OW37516   0.183   4.496   5.705  0.0344  0.2616  0.1901
 8685SOL    HW137517   0.259   4.513   5.649 -0.8446  3.5848  0.0306
 8685SOL    HW237518   0.114   4.517   5.643  1.3081 -1.5158 -1.8139
 8686SOL     OW37519   3.961   1.270   3.485 -0.7614  0.2385  0.0176
 8686SOL    HW137520   3.955   1.295   3.393 -0.5070  0.6105  0.1044
 8686SOL    HW237521   3.939   1.178   3.472 -1.1157  0.6921 -2.6347
 8687SOL     OW37522   0.532   4.458   6.200  0.3207  0.7492  0.0104
 8687SOL    HW137523   0.534   4.369   6.164  1.0861  0.0237  1.8409
 8687SOL    HW237524   0.441   4.485   6.188 -0.2741 -1.6388 -0.8289
 8688SOL     OW37525   2.001   0.114   3.686  0.3105 -0.0630 -0.6702
 8688SOL    HW137526   2.041   0.030   3.708  2.4535  1.0018 -0.5795
 8688SOL    HW237527   2.012   0.121   3.592 -0.1938  3.8810 -0.4199
 8689SOL     OW37528   0.152   4.461   3.626  0.1958  0.5230  0.1598
 8689SOL    HW137529   0.086   4.422   3.569  0.4437 -1.3588  1.1329
 8689SOL    HW237530   0.161   4.552   3.599 -2.6646  0.7010 -0.1517
 8690SOL     OW37531   4.459   3.695   3.267  0.2792 -0.1986 -0.0114
 8690SOL    HW137532   4.452   3.693   3.363  0.3340  1.3256  0.0236
 8690SOL    HW237533   4.518   3.621   3.254  1.2710  0.4739  0.6245
 8691SOL     OW37534   3.351   0.049   3.079  0.5774  0.5115  0.1718
 8691SOL    HW137535   3.318   0.026   2.992  0.9915 -1.3181  0.5084
 8691SOL    HW237536   3.399   4.695   3.095  2.7222  1.5079 -1.1353
 8692SOL     OW37537   1.677   0.468   3.897 -0.5564  0.2168 -0.3583
 8692SOL    HW137538   1.761   0.456   3.942 -0.4068 -0.2606 -0.7553
 8692SOL    HW237539   1.681   0.386   3.848 -1.7232 -0.2409  0.3138
 8693SOL     OW37540   0.099   3.767   2.747  0.7987  0.0763 -0.0810
 8693SOL    HW137541   0.088   3.858   2.776 -0.5332 -0.2706  0.4973
 8693SOL    HW237542   0.059   3.714   2.816  0.5221  1.1783  0.6121
 8694SOL     OW37543   4.599   3.863  16.032 -0.3115 -1.0536 -0.2454
 8694SOL    HW137544   4.599   3.821  16.118 -0.3396 -2.8016 -1.0988
 8694SOL    HW237545   4.507   3.870  16.006 -0.3239  1.2173  0.4609
 8695SOL     OW37546   4.500   0.957  15.907  0.3171  0.8649 -1.0733
 8695SOL    HW137547   4.546   1.034  15.940 -1.0326  0.5149  1.5625
 8695SOL    HW237548   4.439   1.008  15.854 -2.7135 -0.0788  1.5149
 8696SOL     OW37549   4.363   0.737   9.092 -0.3209  0.0471  0.1570
 8696SOL    HW137550   4.387   0.731   9.185 -0.0285 -3.1181 -0.0988
 8696SOL    HW237551   4.391   0.827   9.079  1.2932 -0.5855 -0.7119
 8697SOL     OW37552   0.411   2.733   7.836  0.2036 -0.4184 -0.1991
 8697SOL    HW137553   0.336   2.688   7.797  0.1820 -1.3954  0.9703
 8697SOL    HW237554   0.394   2.726   7.930 -2.5744  0.0395 -0.6505
 8698SOL     OW37555   1.643   4.343   5.299  0.0453  0.6484  0.2662
 8698SOL    HW137556   1.637   4.269   5.361  2.4671  0.8433  0.7446
 8698SOL    HW237557   1.554   4.376   5.290  0.4236  1.1636 -1.4418
 8699SOL     OW37558   1.732   4.637   7.251  0.0915 -0.1342 -0.0940
 8699SOL    HW137559   1.761   4.617   7.340 -1.7454  0.1744  0.5712
 8699SOL    HW237560   1.813   4.615   7.205  0.3849 -2.8863  1.7171
 8700SOL     OW37561   1.277   2.296   9.975 -0.2033 -0.2066  0.3357
 8700SOL    HW137562   1.292   2.316   9.882 -1.5766  0.5044  0.2674
 8700SOL    HW237563   1.290   2.381  10.016 -1.0497 -0.0863  0.3530
 8701SOL     OW37564   0.885   0.151   0.447 -0.4198  0.1264  0.2419
 8701SOL    HW137565   0.938   0.227   0.469  0.9615 -0.5996 -0.5950
 8701SOL    HW237566   0.797   0.185   0.429  0.1137  0.9297 -0.7696
 8702SOL     OW37567   2.536   0.792   1.524  0.4397  0.0375  1.0082
 8702SOL    HW137568   2.479   0.744   1.584 -2.1360  0.3552 -1.1801
 8702SOL    HW237569   2.470   0.820   1.460  0.8214  1.1217  1.0832
 8703SOL     OW37570   2.634   3.986   2.042 -0.0699  0.5635  0.3462
 8703SOL    HW137571   2.684   3.910   2.071 -2.6101 -0.2086  2.7054
 8703SOL    HW237572   2.551   3.973   2.087  0.0735 -0.3585  0.3329
 8704SOL     OW37573   1.273   1.862   7.435 -0.1373 -0.5312 -0.2542
 8704SOL    HW137574   1.351   1.830   7.391 -1.0432 -0.7813 -1.6911
 8704SOL    HW237575   1.313   1.946   7.459 -0.8660 -0.4694  0.7653
 8705SOL     OW37576   1.326   1.828   4.424 -0.0319  0.0686 -0.4737
 8705SOL    HW137577   1.336   1.898   4.359 -1.5674  0.5284 -0.1997
 8705SOL    HW237578   1.352   1.879   4.501 -0.2505  0.6157 -0.7652
 8706SOL     OW37579   3.004   4.204   3.754 -0.0261  0.8760  0.0268
 8706SOL    HW137580   3.083   4.249   3.785 -0.4073  0.6671  1.3160
 8706SOL    HW237581   2.948   4.224   3.829 -0.7624 -1.1983  0.0100
 8707SOL     OW37582   0.851   0.634   3.598  0.5945  0.2290  0.0258
 8707SOL    HW137583   0.768   0.679   3.585  0.1833 -0.9823 -1.5251
 8707SOL    HW237584   0.842   0.623   3.693 -1.7663 -1.1901 -0.3723
 8708SOL     OW37585   0.640   4.321   7.526 -0.4280  0.0564 -0.1172
 8708SOL    HW137586   0.654   4.337   7.619 -0.5641  2.2726 -0.4701
 8708SOL    HW237587   0.691   4.244   7.501  0.3956  0.4896  0.2460
 8709SOL     OW37588   0.113   2.347   1.816 -0.0586 -0.3050 -0.0514
 8709SOL    HW137589   0.183   2.372   1.756  2.1669  0.5966  2.9070
 8709SOL    HW237590   0.159   2.282   1.869  1.5217  0.9008  0.0521
 8710SOL     OW37591   2.692   4.131   5.481 -0.4273 -0.8253 -0.8470
 8710SOL    HW137592   2.690   4.040   5.510  0.4507 -0.1138  1.5116
 8710SOL    HW237593   2.628   4.131   5.410  0.7320  2.5819 -1.8951
 8711SOL     OW37594   3.616   1.733   5.149 -0.2191  0.5233 -0.0540
 8711SOL    HW137595   3.522   1.750   5.153  0.2506  3.1237  0.3508
 8711SOL    HW237596   3.650   1.817   5.181  0.2603 -0.0247  0.8628
 8712SOL     OW37597   3.933   3.026   5.879 -0.2726 -0.2848  0.6693
 8712SOL    HW137598   3.980   3.051   5.959 -0.1984  1.8577 -0.0266
 8712SOL    HW237599   3.990   3.071   5.816 -3.1480  0.3053 -1.5191
 8713SOL     OW37600   1.448   4.557  10.840 -0.4012 -0.2531  0.1554
 8713SOL    HW137601   1.543   4.559  10.856 -0.2927  0.1610 -0.5312
 8713SOL    HW237602   1.433   4.610  10.762  0.8924  2.8067  1.9873
 8714SOL     OW37603   4.033   3.893   8.575 -0.3353  0.2597 -0.1338
 8714SOL    HW137604   4.014   3.848   8.493 -1.6147 -0.6555  0.6721
 8714SOL    HW237605   4.126   3.903   8.557 -0.0921  0.0368  0.9866
 8715SOL     OW37606   1.164   3.415   4.266  0.0558 -0.3383 -0.2195
 8715SOL    HW137607   1.159   3.330   4.223  2.4804 -0.1482 -0.8360
 8715SOL    HW237608   1.086   3.406   4.322 -0.2047 -0.1944 -0.5589
 8716SOL     OW37609   0.741   0.593   8.845  1.2394  0.2233 -0.0120
 8716SOL    HW137610   0.772   0.503   8.830  1.0327  0.1861 -0.2209
 8716SOL    HW237611   0.795   0.610   8.922  1.8182 -0.9766 -0.1554
 8717SOL     OW37612   3.108   2.210  11.004  0.0549  0.3811 -0.4731
 8717SOL    HW137613   3.084   2.131  11.052  0.2298  0.0717 -0.8942
 8717SOL    HW237614   3.196   2.224  11.040  0.7993 -0.1508 -2.0737
 8718SOL     OW37615   0.674   3.628   3.170 -0.3841  0.2693  0.1404
 8718SOL    HW137616   0.711   3.540   3.178  0.6071  0.6361 -0.3089
 8718SOL    HW237617   0.627   3.647   3.251 -1.5565  3.4789 -1.3082
 8719SOL     OW37618   4.570   1.595  10.489 -0.2300  0.0335  0.5893
 8719SOL    HW137619   4.494   1.653  10.480 -0.2671 -0.0092  0.6282
 8719SOL    HW237620   4.547   1.525  10.428  2.7450 -1.7167  1.5089
 8720SOL     OW37621   1.402   2.145  17.663 -0.5326 -0.4347  0.2090
 8720SOL    HW137622   1.409   2.194   0.034 -2.2349  0.2502 -0.0505
 8720SOL    HW237623   1.490   2.160  17.630 -0.6082 -0.9554 -0.2348
 8721SOL     OW37624   3.054   1.189  11.952 -0.2394  0.1096 -0.3375
 8721SOL    HW137625   3.037   1.202  12.046 -3.3902  1.7513 -1.1370
 8721SOL    HW237626   2.981   1.245  11.927  0.8747  0.6591 -2.3236
 8722SOL     OW37627   0.400   1.467   2.122 -0.2174  0.0323 -1.2547
 8722SOL    HW137628   0.336   1.538   2.115 -1.1418 -0.5822  0.9941
 8722SOL    HW237629   0.382   1.432   2.035  2.7148 -0.3750 -1.6978
 8723SOL     OW37630   0.179   0.582   0.741 -0.7715 -0.3943 -0.0173
 8723SOL    HW137631   0.163   0.565   0.834  0.1074 -2.7243 -0.2768
 8723SOL    HW237632   0.110   0.535   0.694 -2.6962  3.8226 -1.3014
 8724SOL     OW37633   1.490   2.698  14.677  0.0773  0.0769  0.3180
 8724SOL    HW137634   1.477   2.727  14.587  2.1658  1.3132  0.4182
 8724SOL    HW237635   1.519   2.780  14.717  0.4967  0.7670 -1.3880
 8725SOL     OW37636   3.443   0.701   4.097 -0.2534  0.0304 -0.4592
 8725SOL    HW137637   3.505   0.766   4.065 -0.5808  2.3057  3.5569
 8725SOL    HW237638   3.475   0.613   4.076 -2.1525 -1.1947  1.6847
 8726SOL     OW37639   2.251   0.893  15.102 -0.2692  0.1901 -0.1109
 8726SOL    HW137640   2.192   0.924  15.033  0.4398  0.5904 -0.5311
 8726SOL    HW237641   2.331   0.912  15.055 -0.3348 -0.5139 -0.5128
 8727SOL     OW37642   3.712   1.146   7.130 -0.0421  0.7491 -0.5717
 8727SOL    HW137643   3.616   1.151   7.130  0.0051  1.6542 -2.0002
 8727SOL    HW237644   3.736   1.163   7.221  0.8075 -3.1028 -0.0921
 8728SOL     OW37645   2.033   1.395   7.892 -0.5326 -0.0689 -0.7631
 8728SOL    HW137646   2.008   1.321   7.837 -1.5749 -0.4045  0.1627
 8728SOL    HW237647   2.057   1.342   7.968  0.2858 -1.4765 -1.9950
 8729SOL     OW37648   3.331   2.154   4.280  0.2772  0.0266 -0.1814
 8729SOL    HW137649   3.330   2.238   4.326 -1.9963 -0.2710  0.3034
 8729SOL    HW237650   3.388   2.175   4.206 -2.0180  1.5717 -1.5273
 8730SOL     OW37651   4.220   3.507  14.414  0.0102 -0.6867 -0.0875
 8730SOL    HW137652   4.203   3.441  14.482  0.6490 -0.7319  0.0209
 8730SOL    HW237653   4.314   3.523  14.420 -0.1311  0.1913 -0.3385
 8731SOL     OW37654   3.897   1.887   7.892 -0.2628 -0.1916 -0.3811
 8731SOL    HW137655   3.852   1.804   7.873  0.6220 -0.9720  0.9041
 8731SOL    HW237656   3.924   1.916   7.805 -1.5595  0.8160 -0.4400
 8732SOL     OW37657   3.701   0.279   2.961 -0.0349 -0.6501  0.3728
 8732SOL    HW137658   3.764   0.213   2.935  0.1761 -1.6692  3.5499
 8732SOL    HW237659   3.740   0.335   3.028 -1.6070 -2.3608  2.7375
 8733SOL     OW37660   3.987   0.033   8.584 -0.0853 -0.5730 -0.1127
 8733SOL    HW137661   4.050   0.093   8.624 -1.0947  0.2222  0.2765
 8733SOL    HW237662   4.056   4.699   8.560 -0.4040 -0.8875 -0.2165
 8734SOL     OW37663   0.464   0.043  10.429 -0.3219  0.3618  0.2874
 8734SOL    HW137664   0.391   0.080  10.379 -1.2247  0.4053  1.6376
 8734SOL    HW237665   0.450   4.679  10.406 -3.2147  1.5010 -2.4417
 8735SOL     OW37666   1.646   1.446   2.590  0.4207 -0.5455  0.2989
 8735SOL    HW137667   1.631   1.491   2.506  0.7807  0.4127  0.7542
 8735SOL    HW237668   1.676   1.364   2.550 -0.7473 -1.4775  1.3023
 8736SOL     OW37669   3.502   3.356   6.328 -0.5998  0.4201 -0.7148
 8736SOL    HW137670   3.553   3.296   6.274  1.1071  2.5310 -1.4405
 8736SOL    HW237671   3.570   3.398   6.382 -1.2664  0.4258  0.1362
 8737SOL     OW37672   1.048   3.919   3.913  0.2195 -0.2141  0.0846
 8737SOL    HW137673   1.119   3.942   3.972  1.1661  0.1193 -1.1941
 8737SOL    HW237674   1.079   3.973   3.841  1.5418 -1.0396  0.0396
 8738SOL     OW37675   2.110   4.228   4.579 -0.0110  0.0480 -0.1089
 8738SOL    HW137676   2.185   4.255   4.527  0.3691 -0.9932 -0.1108
 8738SOL    HW237677   2.118   4.263   4.668  0.6044  1.1970 -0.6213
 8739SOL     OW37678   1.987   0.895   0.292  0.4378 -0.0546 -0.4447
 8739SOL    HW137679   2.003   0.906   0.386  1.0463  0.9444 -0.6652
 8739SOL    HW237680   2.041   0.968   0.262 -0.2222  0.8295  0.5638
 8740SOL     OW37681   1.138   4.313   7.978 -0.1121  0.3433  0.2509
 8740SOL    HW137682   1.153   4.302   7.884 -2.0645 -1.6357  0.1593
 8740SOL    HW237683   1.071   4.247   7.994  1.1058 -1.1798 -0.9521
 8741SOL     OW37684   0.328   3.888  10.628  0.4930 -0.1851 -0.2226
 8741SOL    HW137685   0.409   3.877  10.579  1.8748 -0.4720  2.1187
 8741SOL    HW237686   0.365   3.933  10.704  2.0197  0.4286 -1.3255
 8742SOL     OW37687   1.577   1.304   8.882 -0.3996  0.1747  0.0183
 8742SOL    HW137688   1.498   1.261   8.847  0.3536  0.0892 -1.5766
 8742SOL    HW237689   1.533   1.375   8.928 -0.0772  0.7765 -0.5988
 8743SOL     OW37690   0.162   2.639  16.072  0.3524 -0.3005  0.0063
 8743SOL    HW137691   0.146   2.648  15.978  0.0482 -0.3106  0.0588
 8743SOL    HW237692   0.113   2.562  16.100 -2.1530  1.2021 -0.2987
 8744SOL     OW37693   2.320   1.966  17.210  0.1767  0.1734 -0.0876
 8744SOL    HW137694   2.288   2.057  17.208  1.5784  0.6168 -1.9281
 8744SOL    HW237695   2.337   1.939  17.119 -3.3000 -2.0949 -0.0607
 8745SOL     OW37696   0.712   3.809   9.236  0.0676  0.0277 -0.2745
 8745SOL    HW137697   0.687   3.881   9.293  0.3579 -0.5382  0.5709
 8745SOL    HW237698   0.720   3.734   9.295  2.3867  1.9295  1.8302
 8746SOL     OW37699   4.210   0.685   5.494  0.8861 -0.0199 -0.0200
 8746SOL    HW137700   4.218   0.683   5.399 -1.9974  0.3456 -0.2713
 8746SOL    HW237701   4.294   0.648   5.524  0.2845 -1.1764  0.2701
 8747SOL     OW37702   0.457   3.129   3.113  0.1821  0.6577  0.1447
 8747SOL    HW137703   0.503   3.206   3.080  0.1001  0.4148 -0.5317
 8747SOL    HW237704   0.473   3.063   3.045 -0.1355  1.4225 -0.6709
 8748SOL     OW37705   2.610   3.637   9.253  0.1026 -0.1390  0.2461
 8748SOL    HW137706   2.521   3.639   9.286  0.1045 -0.8703  0.2973
 8748SOL    HW237707   2.635   3.560   9.304 -0.0982 -1.3709 -1.5098
 8749SOL     OW37708   1.312   0.919   0.429  0.0494 -0.2773 -0.1143
 8749SOL    HW137709   1.262   0.854   0.478 -0.5985  1.1208  1.0630
 8749SOL    HW237710   1.366   0.869   0.368 -0.8954 -1.7424  0.2466
 8750SOL     OW37711   2.972   2.823   1.551  0.2436 -0.2110 -0.7868
 8750SOL    HW137712   3.056   2.807   1.594 -0.5337 -0.7850  0.5329
 8750SOL    HW237713   2.930   2.739   1.570 -0.3914  0.5246  1.0744
 8751SOL     OW37714   2.113   4.670  13.544 -0.1094 -0.2255 -0.0549
 8751SOL    HW137715   2.183   4.722  13.583 -0.5386  0.7179 -0.5302
 8751SOL    HW237716   2.147   4.678  13.455  1.2173  1.6589  0.6350
 8752SOL     OW37717   1.219   0.581  11.455 -0.0232 -0.3876 -0.3122
 8752SOL    HW137718   1.154   0.516  11.480 -2.5586  2.9222  1.5224
 8752SOL    HW237719   1.244   0.613  11.541 -0.2611  0.6775 -0.6429
 8753SOL     OW37720   2.077   4.386   5.693 -0.2667 -0.0148 -0.4863
 8753SOL    HW137721   2.013   4.327   5.654 -1.2934  0.3409  0.6666
 8753SOL    HW237722   2.151   4.355   5.641 -0.0138 -0.8749  0.3786
 8754SOL     OW37723   4.694   0.991   5.574  0.3136 -0.1031 -1.0444
 8754SOL    HW137724   4.653   0.927   5.516  0.9082 -0.9455 -0.5360
 8754SOL    HW237725   4.726   0.932   5.643 -1.3857  0.3810  0.1711
 8755SOL     OW37726   2.299   2.611   6.813 -0.3347  0.3560 -0.2348
 8755SOL    HW137727   2.393   2.625   6.829 -0.2642 -1.3586  0.8787
 8755SOL    HW237728   2.275   2.553   6.885 -1.2831  1.4279  0.3273
 8756SOL     OW37729   3.505   1.919   3.154  0.2451 -0.7175 -0.1895
 8756SOL    HW137730   3.410   1.925   3.149  0.3603  2.1369  1.0713
 8756SOL    HW237731   3.525   1.867   3.076  1.9795 -1.1488  0.5322
 8757SOL     OW37732   1.474   4.339   4.117  0.1212 -0.5899  0.0506
 8757SOL    HW137733   1.414   4.400   4.074  0.4899 -0.5167 -0.3570
 8757SOL    HW237734   1.421   4.259   4.117  1.0502 -1.2117 -1.6569
 8758SOL     OW37735   2.866   2.094   3.678 -0.5245 -0.2663  0.6877
 8758SOL    HW137736   2.801   2.033   3.644  0.3649 -0.3679 -0.8163
 8758SOL    HW237737   2.949   2.052   3.654  0.5643  1.6062  1.1435
 8759SOL     OW37738   4.140   1.177   5.379  0.1757 -0.2626 -0.3144
 8759SOL    HW137739   4.087   1.242   5.332 -0.1193 -1.4373 -1.5828
 8759SOL    HW237740   4.060   1.145   5.420 -0.0856 -0.1148 -0.7039
 8760SOL     OW37741   2.937   0.824   2.667  0.1073  0.5645 -0.5228
 8760SOL    HW137742   2.853   0.778   2.664  0.8305 -0.8043  0.3570
 8760SOL    HW237743   3.002   0.756   2.683  0.4110 -0.0564 -4.4048
 8761SOL     OW37744   0.356   1.587   6.189 -0.0977 -0.1850 -0.3974
 8761SOL    HW137745   0.296   1.605   6.262 -1.2183  2.4411 -1.9568
 8761SOL    HW237746   0.292   1.593   6.118 -0.5283 -1.7369 -0.1410
 8762SOL     OW37747   1.328   4.258   9.279 -0.4407 -0.1043  0.5479
 8762SOL    HW137748   1.414   4.218   9.291  0.2097  0.7997 -1.0706
 8762SOL    HW237749   1.346   4.349   9.304  2.8019  0.1108 -2.5431
 8763SOL     OW37750   4.656   0.154   6.892  0.6780 -0.7340  0.7628
 8763SOL    HW137751   4.658   0.081   6.831  1.1458 -1.9587  2.2423
 8763SOL    HW237752   4.667   0.106   6.974  0.9593 -1.9142  0.0199
 8764SOL     OW37753   0.686   1.048   7.847 -0.1073  0.2392 -0.0514
 8764SOL    HW137754   0.636   1.047   7.928 -0.5121 -2.4204 -0.3594
 8764SOL    HW237755   0.756   1.109   7.874  0.2078 -0.5722  0.9369
 8765SOL     OW37756   0.689   2.821   9.424 -0.1211  0.2546  0.1811
 8765SOL    HW137757   0.708   2.829   9.331 -0.3597  1.0185  0.1974
 8765SOL    HW237758   0.760   2.877   9.455  1.1978 -1.4708  0.3048
 8766SOL     OW37759   0.273   4.109  15.788 -0.1651  0.2605  0.2318
 8766SOL    HW137760   0.315   4.023  15.792 -0.0605  0.2600 -0.8044
 8766SOL    HW237761   0.243   4.111  15.697  1.0971  2.1153 -0.1528
 8767SOL     OW37762   2.460   3.231   4.792 -0.0249  0.4413  0.2541
 8767SOL    HW137763   2.507   3.314   4.783 -1.6031  1.1848 -1.2067
 8767SOL    HW237764   2.415   3.249   4.875 -1.7709 -1.8756 -0.1959
 8768SOL     OW37765   3.161   3.686  11.491  0.3668  0.0610  0.0265
 8768SOL    HW137766   3.090   3.745  11.513 -1.2154 -2.0229  0.5136
 8768SOL    HW237767   3.215   3.737  11.430  2.1726 -1.7288  0.1010
 8769SOL     OW37768   3.720   2.283  16.727 -0.5754  0.1978  0.1126
 8769SOL    HW137769   3.704   2.366  16.681 -0.4298  0.3416  0.3221
 8769SOL    HW237770   3.761   2.232  16.657 -0.5296 -0.3318  0.5230
 8770SOL     OW37771   2.849   4.227   1.666  0.0455  0.0458  0.2378
 8770SOL    HW137772   2.869   4.320   1.659  2.6270 -0.7026 -2.3474
 8770SOL    HW237773   2.835   4.198   1.576 -0.4089 -0.4789  0.4811
 8771SOL     OW37774   1.306   4.560   2.494  0.2189 -0.4336  0.3499
 8771SOL    HW137775   1.260   4.489   2.540 -0.4455 -0.1160  0.1774
 8771SOL    HW237776   1.245   4.604   2.435  0.5139  0.6009  0.8049
 8772SOL     OW37777   3.748   3.245   7.285 -0.1940  0.0073  0.2586
 8772SOL    HW137778   3.705   3.328   7.307 -2.9791 -2.0125  2.4304
 8772SOL    HW237779   3.842   3.263   7.277 -0.0791 -0.9626 -0.6459
 8773SOL     OW37780   1.992   2.711   7.439  0.2499 -0.3720 -0.6726
 8773SOL    HW137781   1.999   2.667   7.524  1.1868 -0.6864 -0.9165
 8773SOL    HW237782   2.057   2.780   7.445  0.9542 -0.9649 -1.6398
 8774SOL     OW37783   2.687   2.965   6.456 -0.0564 -0.6976 -0.1361
 8774SOL    HW137784   2.743   3.042   6.469 -0.4994 -0.4793  0.4463
 8774SOL    HW237785   2.614   3.008   6.412  1.1146  0.0137 -1.4075
 8775SOL     OW37786   1.350   4.310   8.576 -0.0721 -0.1508  0.1332
 8775SOL    HW137787   1.267   4.315   8.529 -0.2205  0.7404  0.4884
 8775SOL    HW237788   1.346   4.394   8.622 -2.3273  0.0950 -0.5453
 8776SOL     OW37789   0.393   0.957  11.114 -0.4375 -0.0791 -0.3729
 8776SOL    HW137790   0.427   0.892  11.176 -0.4216  0.6330  0.3632
 8776SOL    HW237791   0.301   0.957  11.140  0.0785 -1.0074  1.4248
 8777SOL     OW37792   1.748   2.364   7.363  0.7772  0.2731 -0.8160
 8777SOL    HW137793   1.771   2.325   7.278 -0.0616  1.1209 -1.4362
 8777SOL    HW237794   1.751   2.282   7.412  0.8429  0.1508 -1.0242
 8778SOL     OW37795   0.060   0.319   2.533 -0.0154 -0.5940 -0.1867
 8778SOL    HW137796   0.046   0.351   2.444 -2.0688 -1.0881 -0.0255
 8778SOL    HW237797   0.059   0.404   2.577 -0.7892  0.4835 -2.2740
 8779SOL     OW37798   3.177   2.608   8.316 -0.1833 -0.1486  0.1418
 8779SOL    HW137799   3.087   2.584   8.293 -0.0509 -0.5733  0.0630
 8779SOL    HW237800   3.231   2.579   8.243  0.1284 -0.9436  0.6862
 8780SOL     OW37801   2.935   0.774   7.391  0.5237 -0.4207 -0.2535
 8780SOL    HW137802   2.847   0.807   7.411  1.0287 -0.1594  1.5930
 8780SOL    HW237803   2.934   0.697   7.448  1.7436  1.5980  2.5018
 8781SOL     OW37804   4.276   3.368   9.586 -0.3807  0.7959  0.2341
 8781SOL    HW137805   4.318   3.414   9.659 -1.0054  0.4128  0.8416
 8781SOL    HW237806   4.183   3.381   9.606 -0.3470  3.1413 -1.0943
 8782SOL     OW37807   2.917   4.602   4.254  0.5232 -0.8368  0.2125
 8782SOL    HW137808   2.835   4.641   4.283  1.3957  1.0928  0.0825
 8782SOL    HW237809   2.963   4.680   4.223 -0.3113 -0.3953  0.0861
 8783SOL     OW37810   3.923   0.498   8.430  0.2881 -0.1625 -0.2436
 8783SOL    HW137811   3.837   0.540   8.437  1.3313  1.9800 -0.1612
 8783SOL    HW237812   3.922   0.468   8.520 -0.4731 -1.0828 -0.5618
 8784SOL     OW37813   3.574   2.374   5.084  0.1827 -0.1938 -0.8585
 8784SOL    HW137814   3.554   2.291   5.041 -0.8702  0.0250 -0.7922
 8784SOL    HW237815   3.640   2.348   5.149 -0.7464  1.1836  0.6503
 8785SOL     OW37816   1.034   4.646   9.969 -0.0780 -0.3301  0.3192
 8785SOL    HW137817   0.939   4.654   9.962 -0.3784 -3.3540  1.0843
 8785SOL    HW237818   1.030   4.605  10.056  2.4002  0.7015  0.9145
 8786SOL     OW37819   4.315   3.461   2.773  0.3763  0.0979 -0.0330
 8786SOL    HW137820   4.385   3.419   2.722 -0.0048 -0.7059  0.1057
 8786SOL    HW237821   4.256   3.386   2.785 -1.0400  1.1616 -0.3096
 8787SOL     OW37822   2.176   1.823   0.610 -0.0064  0.3400  0.7590
 8787SOL    HW137823   2.231   1.797   0.536  0.5506  0.8173  1.0023
 8787SOL    HW237824   2.095   1.775   0.592  0.0103  0.2485  0.9275
 8788SOL     OW37825   1.025   1.340   2.879  0.8031  0.4822  0.0892
 8788SOL    HW137826   1.023   1.303   2.791  0.2963 -1.3215  0.8629
 8788SOL    HW237827   1.066   1.422   2.851 -0.8424  0.2211 -3.1860
 8789SOL     OW37828   2.391   4.071   1.852  0.5264 -0.0852  0.0386
 8789SOL    HW137829   2.465   4.126   1.878 -1.9704  3.7533 -1.0677
 8789SOL    HW237830   2.376   4.020   1.932 -1.3132  0.8947  0.3068
 8790SOL     OW37831   1.390   4.336  10.092 -0.3556  0.1683  0.4515
 8790SOL    HW137832   1.391   4.364  10.001  0.3448 -1.9298 -0.2005
 8790SOL    HW237833   1.311   4.283  10.092 -1.3590  1.6680 -0.1027
 8791SOL     OW37834   0.400   1.233   8.815  0.2070  0.3903 -0.5980
 8791SOL    HW137835   0.470   1.291   8.846  0.3732 -0.0073 -0.2191
 8791SOL    HW237836   0.432   1.149   8.848  0.7401  0.4769 -0.8890
 8792SOL     OW37837   2.428   4.638   6.342 -0.1441 -0.1399 -0.7126
 8792SOL    HW137838   2.430   4.715   6.284 -2.4598 -0.5521 -1.3178
 8792SOL    HW237839   2.499   4.660   6.403  0.2736  0.3768 -1.3793
 8793SOL     OW37840   0.653   0.861  12.831 -0.5242 -0.4837 -0.4660
 8793SOL    HW137841   0.609   0.842  12.748 -1.8615 -1.3810  0.4305
 8793SOL    HW237842   0.577   0.896  12.878 -0.7780 -0.3712 -0.9585
 8794SOL     OW37843   0.520   1.512   5.589  0.1195 -0.5938 -0.6609
 8794SOL    HW137844   0.610   1.517   5.556  0.2933 -1.0801 -0.2458
 8794SOL    HW237845   0.509   1.578   5.658  0.4177 -0.5569 -0.6513
 8795SOL     OW37846   2.880   0.036   1.842  0.1067  0.3495 -0.0539
 8795SOL    HW137847   2.975   0.024   1.853  0.3054  1.0942 -1.0271
 8795SOL    HW237848   2.879   0.087   1.761 -0.8073 -0.5485 -0.6065
 8796SOL     OW37849   3.467   1.779   7.540 -0.7004  0.3894  0.0358
 8796SOL    HW137850   3.534   1.733   7.489 -2.4281  1.3424 -3.1270
 8796SOL    HW237851   3.394   1.719   7.526 -0.0247 -0.3940 -0.1095
 8797SOL     OW37852   0.492   0.489   4.796  0.5636  0.1709 -0.2170
 8797SOL    HW137853   0.426   0.497   4.726  1.3862  0.8182 -0.9150
 8797SOL    HW237854   0.540   0.571   4.798 -1.9908  1.6527  0.1086
 8798SOL     OW37855   0.963   4.427   7.422  0.4812  0.0188  0.5194
 8798SOL    HW137856   0.890   4.486   7.439 -0.5115 -0.6844 -1.3267
 8798SOL    HW237857   1.019   4.480   7.365  0.0841  0.0084  0.1172
 8799SOL     OW37858   2.473   2.026   2.607 -0.2080 -0.3427 -0.4992
 8799SOL    HW137859   2.384   2.061   2.619  1.0670  2.7756 -0.0488
 8799SOL    HW237860   2.468   1.975   2.527 -1.8269  0.6491 -1.0402
 8800SOL     OW37861   2.201   4.104   4.138  0.1957 -0.3216  0.4141
 8800SOL    HW137862   2.236   4.043   4.074 -0.6237  0.2391 -0.5639
 8800SOL    HW237863   2.133   4.055   4.186 -1.1966  0.5004 -0.7301
 8801SOL     OW37864   0.797   0.464   9.146 -0.0942 -0.6936 -0.3180
 8801SOL    HW137865   0.745   0.440   9.223  0.0217 -0.6539 -0.2284
 8801SOL    HW237866   0.846   0.383   9.132  2.7611  0.8610  0.7687
 8802SOL     OW37867   2.133   0.356  17.007 -0.2912 -1.1759  0.0765
 8802SOL    HW137868   2.083   0.346  17.088 -1.3532 -0.0633 -0.4309
 8802SOL    HW237869   2.146   0.451  17.003 -1.7083 -0.9046  1.8317
 8803SOL     OW37870   3.424   4.288   7.517 -0.0753 -0.1794 -0.4285
 8803SOL    HW137871   3.381   4.203   7.517  2.9241 -1.7114  0.1169
 8803SOL    HW237872   3.488   4.279   7.445  0.1504  2.5518 -0.5520
 8804SOL     OW37873   4.579   0.336   3.991 -0.3389 -0.0247 -0.1715
 8804SOL    HW137874   4.508   0.366   3.934 -0.5664  0.3320  0.2969
 8804SOL    HW237875   4.579   0.408   4.054  1.0292 -0.2046  0.0364
 8805SOL     OW37876   0.117   3.015   1.779 -0.4742  0.9200  0.2183
 8805SOL    HW137877   0.070   2.979   1.854  1.8748 -0.7529  0.8786
 8805SOL    HW237878   0.194   2.962   1.760 -1.5155  0.0957 -1.6522
 8806SOL     OW37879   1.158   0.714   4.693 -0.4621  0.2756 -0.0662
 8806SOL    HW137880   1.078   0.758   4.721 -1.7702 -1.7085 -0.6648
 8806SOL    HW237881   1.120   0.628   4.676  2.5460 -1.0095 -0.3043
 8807SOL     OW37882   0.834   3.749   2.923  0.4870 -0.1032 -0.2585
 8807SOL    HW137883   0.792   3.673   2.882 -0.9069  1.2174 -1.2812
 8807SOL    HW237884   0.926   3.725   2.922  1.2207  2.8371 -0.5006
 8808SOL     OW37885   0.219   2.643   6.513 -0.1197 -0.3337 -0.1768
 8808SOL    HW137886   0.287   2.577   6.501 -0.5212 -0.8329  0.2692
 8808SOL    HW237887   0.188   2.621   6.601 -0.2135  2.5574  0.5187
 8809SOL     OW37888   3.928   1.431  17.551  0.3500  0.3370 -0.3244
 8809SOL    HW137889   3.878   1.499  17.506  0.2420  0.5604  0.1329
 8809SOL    HW237890   3.948   1.473  17.635 -1.1121 -0.8088  0.6030
 8810SOL     OW37891   1.529   0.937   8.362 -0.3166  0.7490  0.6243
 8810SOL    HW137892   1.487   0.906   8.442 -2.4370 -1.0333 -1.1983
 8810SOL    HW237893   1.586   1.007   8.396 -1.8088  3.1822 -1.8576
 8811SOL     OW37894   1.243   1.011   8.261 -0.1273 -0.1976 -0.5353
 8811SOL    HW137895   1.257   1.002   8.166 -2.8098  0.7860 -1.0157
 8811SOL    HW237896   1.327   1.042   8.294 -1.1290  0.5273  1.3310
 8812SOL     OW37897   4.509   0.570   7.391 -0.5326 -0.4709  0.2335
 8812SOL    HW137898   4.526   0.634   7.323  1.8421  0.8356  2.0788
 8812SOL    HW237899   4.415   0.582   7.404 -0.5684 -0.8705  0.3709
 8813SOL     OW37900   0.369   2.605  16.360  0.3079 -0.2191 -0.2882
 8813SOL    HW137901   0.350   2.660  16.284  0.2534  0.0623 -0.0681
 8813SOL    HW237902   0.462   2.624  16.362 -0.2115  2.0275  1.5700
 8814SOL     OW37903   1.054   0.701   5.494  0.4960  0.0116  0.1645
 8814SOL    HW137904   1.096   0.632   5.443  0.9120  0.7310 -0.4634
 8814SOL    HW237905   1.115   0.690   5.567  0.2119  1.0359  0.5436
 8815SOL     OW37906   3.887   2.775   8.328 -0.0400 -1.0312  0.1932
 8815SOL    HW137907   3.872   2.813   8.242 -1.8289 -2.3276 -0.0648
 8815SOL    HW237908   3.982   2.777   8.332 -0.0530 -0.5538  0.3334
 8816SOL     OW37909   2.467   0.690   4.031  0.3989  0.2959  0.1778
 8816SOL    HW137910   2.555   0.699   4.067  2.0337  0.2533 -3.8167
 8816SOL    HW237911   2.480   0.628   3.959 -0.5584  1.2735 -0.8309
 8817SOL     OW37912   2.075   2.210   0.043 -0.0302  0.7035  0.1245
 8817SOL    HW137913   2.097   2.303   0.051 -3.4863  1.7987 -3.0950
 8817SOL    HW237914   2.036   2.192   0.128 -1.1308 -0.1671 -0.5753
 8818SOL     OW37915   2.707   0.404   5.729  0.8987  0.1970 -0.5157
 8818SOL    HW137916   2.760   0.460   5.787 -0.7504 -0.1887  1.3714
 8818SOL    HW237917   2.645   0.473   5.706  1.1139  1.3107  2.2496
 8819SOL     OW37918   3.313   3.666   7.172  0.2993  0.0362  0.0936
 8819SOL    HW137919   3.320   3.664   7.267 -1.6121 -3.1755  0.1558
 8819SOL    HW237920   3.231   3.715   7.163 -0.5879 -2.3610 -4.6876
 8820SOL     OW37921   1.713   0.637   0.918  0.2438 -0.2231 -0.1703
 8820SOL    HW137922   1.741   0.728   0.919  2.1200 -0.7688 -3.2096
 8820SOL    HW237923   1.673   0.625   0.831 -1.3986  3.0821  0.1249
 8821SOL     OW37924   0.418   4.522  10.328 -0.4409 -0.1022 -0.8488
 8821SOL    HW137925   0.436   4.450  10.388 -4.8658 -1.3293 -0.9947
 8821SOL    HW237926   0.380   4.472  10.256  2.0325 -2.1520 -0.7222
 8822SOL     OW37927   2.137   0.242  10.779  0.0130  0.1346 -0.8267
 8822SOL    HW137928   2.192   0.252  10.857 -1.3002 -0.2025  0.1503
 8822SOL    HW237929   2.083   0.321  10.786  2.8578  2.0744 -0.4831
 8823SOL     OW37930   4.318   1.895   4.923 -0.1214  0.6388 -0.2530
 8823SOL    HW137931   4.233   1.935   4.943  0.4622  2.1495 -0.8175
 8823SOL    HW237932   4.349   1.969   4.870 -0.7363  0.5521 -0.7289
 8824SOL     OW37933   1.701   2.171   0.423  0.2116 -0.4722  0.1651
 8824SOL    HW137934   1.675   2.119   0.499  0.3641 -0.2466  0.3726
 8824SOL    HW237935   1.628   2.155   0.364 -1.3017  0.1243  1.9013
 8825SOL     OW37936   0.344   3.987  12.247 -0.3097  0.1521 -0.0874
 8825SOL    HW137937   0.426   4.038  12.247 -0.7764  0.8975  0.1705
 8825SOL    HW237938   0.310   4.011  12.161  1.9792  0.5766 -0.8812
 8826SOL     OW37939   4.634   2.478   1.410 -0.3377 -0.3058 -0.6924
 8826SOL    HW137940   4.634   2.511   1.499 -2.5181 -1.8141 -0.1433
 8826SOL    HW237941   4.666   2.552   1.357  0.9192 -0.8534 -0.6959
 8827SOL     OW37942   0.232   2.654   8.144 -0.2258  0.1980  0.0270
 8827SOL    HW137943   0.230   2.748   8.162 -4.5428 -0.2673  2.0259
 8827SOL    HW237944   0.142   2.633   8.117  0.2453 -1.2461 -0.3895
 8828SOL     OW37945   4.193   3.116  13.056  0.3000  0.1774  0.2832
 8828SOL    HW137946   4.230   3.122  12.968  0.2824 -1.8840  0.1413
 8828SOL    HW237947   4.100   3.106  13.035  0.1727 -2.7644  2.2943
 8829SOL     OW37948   4.057   4.547  16.190 -0.1169 -0.0250 -0.2692
 8829SOL    HW137949   4.115   4.619  16.215  0.2823 -0.7307  0.7726
 8829SOL    HW237950   4.044   4.567  16.097 -1.8036  1.0420  0.1995
 8830SOL     OW37951   0.946   2.724   7.674  0.5170  0.0441 -0.0060
 8830SOL    HW137952   0.958   2.808   7.718  0.7927 -0.1852  0.3562
 8830SOL    HW237953   1.013   2.666   7.711  0.3126  0.6181  1.2421
 8831SOL     OW37954   1.137   0.196   7.899  0.1520  0.0045 -0.0374
 8831SOL    HW137955   1.129   0.281   7.943  0.2745 -0.6349  1.2187
 8831SOL    HW237956   1.051   0.202   7.857 -0.6407 -0.3661  1.5292
 8832SOL     OW37957   3.969   2.546   3.066 -0.0984 -0.0034  0.2556
 8832SOL    HW137958   3.998   2.469   3.115  1.6158  0.3839 -0.1420
 8832SOL    HW237959   3.878   2.555   3.094  0.3091  1.9935  0.8842
 8833SOL     OW37960   1.370   2.461  14.635 -0.1077  0.2045  0.8843
 8833SOL    HW137961   1.432   2.524  14.673  0.6499 -0.1896  0.2978
 8833SOL    HW237962   1.405   2.438  14.549  1.1905  1.1021  1.1742
 8834SOL     OW37963   0.415   3.170   6.285 -0.5757  0.4647  0.1365
 8834SOL    HW137964   0.350   3.117   6.332  0.0158 -0.2141  0.1885
 8834SOL    HW237965   0.471   3.183   6.361 -1.6264  1.2639  0.7787
 8835SOL     OW37966   0.864   0.446   9.428 -0.5379  0.0683  0.0226
 8835SOL    HW137967   0.817   0.481   9.504  0.2220 -1.9308  1.4156
 8835SOL    HW237968   0.827   0.359   9.412  3.2907 -1.9028  1.6350
 8836SOL     OW37969   4.151   3.736   8.967  0.0431 -0.7092 -0.5904
 8836SOL    HW137970   4.117   3.811   9.016  0.0542 -0.5185 -0.8764
 8836SOL    HW237971   4.219   3.777   8.914 -2.1697  2.9369 -0.6019
 8837SOL     OW37972   0.588   3.637   7.524 -0.1446  0.1971  0.4149
 8837SOL    HW137973   0.568   3.562   7.468  1.3848 -0.2316  0.4296
 8837SOL    HW237974   0.547   3.708   7.475 -0.4813  0.1607  0.6449
 8838SOL     OW37975   0.875   4.368   6.019 -0.2399  0.4748  0.3976
 8838SOL    HW137976   0.959   4.378   6.064  0.1563  0.0841 -0.2554
 8838SOL    HW237977   0.842   4.456   6.040  2.4882  1.8098 -0.8278
 8839SOL     OW37978   0.459   4.454   9.958 -0.0877  0.3145  0.3951
 8839SOL    HW137979   0.404   4.507   9.901 -1.8078 -2.2149 -0.2981
 8839SOL    HW237980   0.387   4.417  10.010  0.7666 -1.4335  0.3377
 8840SOL     OW37981   0.338   2.878   1.608  1.1763  0.4434  0.1415
 8840SOL    HW137982   0.423   2.835   1.595  0.3547 -1.5788  1.5687
 8840SOL    HW237983   0.350   2.955   1.552 -3.2800  0.7859 -0.3079
 8841SOL     OW37984   3.558   1.083   4.206 -0.0315  0.5209  0.2144
 8841SOL    HW137985   3.576   1.146   4.275 -3.8260  1.1756  0.5854
 8841SOL    HW237986   3.649   1.060   4.186 -0.5005 -1.4853  0.4003
 8842SOL     OW37987   2.021   3.672   2.274  0.2380 -0.7141 -0.2510
 8842SOL    HW137988   1.990   3.763   2.276 -0.8379 -1.0983  1.2417
 8842SOL    HW237989   2.034   3.663   2.369  2.4583  0.0463 -0.4931
 8843SOL     OW37990   2.606   4.131   6.705 -0.1324 -0.4912  0.2475
 8843SOL    HW137991   2.514   4.133   6.677  0.3328  4.1775 -1.0298
 8843SOL    HW237992   2.626   4.047   6.664  0.7042  0.3078 -1.0186
 8844SOL     OW37993   2.410   0.156   2.832  0.1759 -0.0948  0.1854
 8844SOL    HW137994   2.433   0.064   2.848  1.2237  0.2940  0.9821
 8844SOL    HW237995   2.450   0.196   2.910  0.3651 -2.1053  1.1359
 8845SOL     OW37996   0.121   4.367   9.007 -0.8130  0.1737 -0.1786
 8845SOL    HW137997   0.082   4.300   9.063 -3.2869  0.9287 -0.9859
 8845SOL    HW237998   0.077   4.442   9.048 -0.4329  0.6699 -0.6677
 8846SOL     OW37999   3.931   2.095   3.905  0.1665 -0.2153  0.3095
 8846SOL    HW138000   3.856   2.148   3.933  1.1392  1.0215  0.6013
 8846SOL    HW238001   3.978   2.157   3.849  1.5139 -1.8811 -0.3796
 8847SOL     OW38002   3.870   3.728  11.158  0.0739 -0.1649 -1.1826
 8847SOL    HW138003   3.930   3.798  11.185 -0.6040  0.3902 -1.1247
 8847SOL    HW238004   3.866   3.742  11.064 -2.2398  1.7522 -0.8084
 8848SOL     OW38005   2.838   0.660   4.575 -0.7821  0.3970 -0.1068
 8848SOL    HW138006   2.844   0.578   4.527 -1.5759  1.4788 -2.0530
 8848SOL    HW238007   2.902   0.647   4.645 -0.8191 -2.5212 -0.6017
 8849SOL     OW38008   2.294   0.355   3.622  0.1727  0.2291 -0.1487
 8849SOL    HW138009   2.388   0.364   3.608  0.0276  3.6167  1.0737
 8849SOL    HW238010   2.286   0.282   3.684 -2.0284  3.4377  3.2953
 8850SOL     OW38011   2.649   1.704   6.902  0.0977 -0.5891 -0.0371
 8850SOL    HW138012   2.705   1.715   6.979 -0.1583 -2.3349  0.4059
 8850SOL    HW238013   2.621   1.793   6.883  1.4186  0.1524  1.5192
 8851SOL     OW38014   2.872   1.521  11.088  0.1833  0.9234  0.1865
 8851SOL    HW138015   2.960   1.552  11.069  0.5823  0.9863  2.1670
 8851SOL    HW238016   2.886   1.472  11.169 -1.2605  1.1094  0.5603
 8852SOL     OW38017   2.979   0.022   6.966 -0.7050 -0.2090  0.3747
 8852SOL    HW138018   2.995   0.066   6.882 -2.2382 -3.1469 -1.4589
 8852SOL    HW238019   2.884   0.024   6.957 -0.5464 -0.7173 -1.5357
 8853SOL     OW38020   2.790   3.068  12.639  0.7119  0.0152 -0.0973
 8853SOL    HW138021   2.798   3.050  12.733  0.7405 -0.4393 -0.1874
 8853SOL    HW238022   2.815   3.161  12.638 -1.8079  0.7113  1.8621
 8854SOL     OW38023   0.112   3.504   8.951  0.4387 -0.2912  0.3512
 8854SOL    HW138024   0.093   3.561   8.877  4.4348  0.5764  0.0301
 8854SOL    HW238025   0.042   3.439   8.940  1.0784 -1.3150  2.2810
 8855SOL     OW38026   3.138   4.617   8.709 -0.2816 -0.5748 -0.1655
 8855SOL    HW138027   3.152   4.626   8.803  0.0278 -1.6148 -0.1137
 8855SOL    HW238028   3.198   4.684   8.675 -1.8846  0.5325 -0.8057
 8856SOL     OW38029   0.881   1.145   8.506 -0.1594  0.4232 -0.0700
 8856SOL    HW138030   0.903   1.122   8.415  1.3825  0.5050  0.2757
 8856SOL    HW238031   0.892   1.240   8.501 -0.1461  0.3214 -2.1921
 8857SOL     OW38032   4.079   1.043  15.095  0.3377 -0.3086  0.6435
 8857SOL    HW138033   4.027   1.122  15.079  0.0980 -1.0427 -2.3222
 8857SOL    HW238034   4.158   1.071  15.048  0.6072 -2.1168  0.0223
 8858SOL     OW38035   4.467   3.890   9.740 -0.1582  0.4246 -0.1620
 8858SOL    HW138036   4.396   3.899   9.677 -0.6824  2.3338  0.7031
 8858SOL    HW238037   4.541   3.914   9.685  0.5158 -0.0439  0.5381
 8859SOL     OW38038   1.595   1.492   3.391  0.6856  0.2002  0.4139
 8859SOL    HW138039   1.575   1.522   3.479  0.8180 -0.1786  0.5742
 8859SOL    HW238040   1.514   1.513   3.345  0.6496 -0.4227  0.1938
 8860SOL     OW38041   2.086   1.482   6.412  0.2679  0.6681 -0.3476
 8860SOL    HW138042   2.012   1.526   6.371 -1.2794 -1.8930 -0.2947
 8860SOL    HW238043   2.150   1.553   6.415  0.3589  0.4550  2.3794
 8861SOL     OW38044   3.024   0.436  11.763  0.0962 -0.2995  0.0387
 8861SOL    HW138045   3.033   0.518  11.813  0.0049  0.5560 -1.3405
 8861SOL    HW238046   2.933   0.454  11.737  0.9631  2.8448 -0.8734
 8862SOL     OW38047   2.324   2.097   5.360  0.3978 -0.4210 -0.0837
 8862SOL    HW138048   2.340   2.184   5.322 -0.9832  0.9994  2.6013
 8862SOL    HW238049   2.275   2.115   5.440 -0.4386 -0.3391 -0.6146
 8863SOL     OW38050   4.324   0.920   6.961 -0.6976  0.4510 -0.3519
 8863SOL    HW138051   4.411   0.930   6.922 -1.1490  0.3923 -1.3882
 8863SOL    HW238052   4.324   0.981   7.034 -2.2643  0.2629 -0.1908
 8864SOL     OW38053   1.382   4.256   0.803  0.1101  0.1098  0.0081
 8864SOL    HW138054   1.471   4.280   0.776  0.9421 -0.1115  2.6069
 8864SOL    HW238055   1.369   4.288   0.892  1.5410  0.7485 -0.0116
 8865SOL     OW38056   3.556   3.822   0.023 -0.3282 -0.6166  0.2770
 8865SOL    HW138057   3.631   3.768   0.049  1.3002  1.6226  0.2343
 8865SOL    HW238058   3.584   3.908   0.056  1.0499 -1.3333  0.9827
 8866SOL     OW38059   4.270   1.457   0.039  0.4648 -0.0602  0.6833
 8866SOL    HW138060   4.191   1.508   0.058 -1.6632 -3.3306  0.7868
 8866SOL    HW238061   4.334   1.510   0.085 -1.3768  2.0899  0.7963
 8867SOL     OW38062   0.466   0.393   8.443  0.3213 -0.2085  0.2218
 8867SOL    HW138063   0.560   0.386   8.461  0.2130  0.9587  1.3054
 8867SOL    HW238064   0.467   0.488   8.432  0.3247 -0.2169  0.1481
 8868SOL     OW38065   2.875   0.594   5.865  0.0471  0.0479  0.0917
 8868SOL    HW138066   2.958   0.554   5.837  1.3072  0.7455  2.8762
 8868SOL    HW238067   2.888   0.681   5.828 -2.9406  0.5430  0.1845
 8869SOL     OW38068   2.835   3.913   3.570 -0.1152 -0.2680 -0.0167
 8869SOL    HW138069   2.860   3.866   3.491  1.6325 -0.4897  0.6498
 8869SOL    HW238070   2.747   3.942   3.546  0.2946  1.5543  0.6847
 8870SOL     OW38071   1.431   2.784   5.940 -0.1891 -0.0625  0.5260
 8870SOL    HW138072   1.338   2.781   5.962 -0.2701  0.1991  0.2179
 8870SOL    HW238073   1.452   2.692   5.953 -0.4545 -0.5744 -2.7815
 8871SOL     OW38074   2.623   1.382   3.977  0.0186  0.2501 -0.3209
 8871SOL    HW138075   2.578   1.444   3.921  0.2772 -0.6839 -1.5736
 8871SOL    HW238076   2.552   1.376   4.041  0.2145  1.7600  0.0433
 8872SOL     OW38077   2.457   4.153   8.638 -0.3227 -0.1879 -0.4832
 8872SOL    HW138078   2.427   4.147   8.547  0.1142 -0.2888 -0.6185
 8872SOL    HW238079   2.483   4.066   8.665  0.8019  0.8341  1.7022
 8873SOL     OW38080   2.818   2.232   5.285  0.2637  0.7521  0.4953
 8873SOL    HW138081   2.838   2.312   5.237  0.8595  1.7399  2.3747
 8873SOL    HW238082   2.895   2.183   5.257  1.4313  3.5015 -1.1319
 8874SOL     OW38083   0.923   1.203   7.211  0.1145 -0.3764 -0.1636
 8874SOL    HW138084   0.833   1.202   7.243  0.3485 -0.9821  0.4741
 8874SOL    HW238085   0.945   1.294   7.231 -0.4461 -0.2315 -0.2164
 8875SOL     OW38086   2.613   4.503   8.998 -0.0923  0.5304  0.1769
 8875SOL    HW138087   2.540   4.515   9.058 -0.9073  1.8167 -1.0979
 8875SOL    HW238088   2.680   4.562   9.034 -2.2539  1.6301  2.3740
 8876SOL     OW38089   2.875   1.203   7.355  0.3784 -0.8412 -0.8716
 8876SOL    HW138090   2.951   1.224   7.301  1.6442 -2.2957  0.3396
 8876SOL    HW238091   2.920   1.202   7.440  2.4985 -0.0204 -1.9979
 8877SOL     OW38092   2.080   2.595   8.229  0.7349  0.1609 -0.4425
 8877SOL    HW138093   2.048   2.580   8.318  2.4636  1.5946  0.4116
 8877SOL    HW238094   1.999   2.579   8.181  0.2543  0.3784  0.2919
 8878SOL     OW38095   0.468   0.562   9.473  0.1938  0.1882  0.0191
 8878SOL    HW138096   0.410   0.501   9.428 -0.6176 -0.3267  1.7874
 8878SOL    HW238097   0.414   0.602   9.542 -0.4676  1.0943 -1.0178
 8879SOL     OW38098   0.231   0.957  15.967  0.2343 -0.4191  0.3142
 8879SOL    HW138099   0.159   0.957  15.904  2.4829 -0.2294 -2.2430
 8879SOL    HW238100   0.250   1.050  15.972  0.8265 -0.4423 -1.6262
 8880SOL     OW38101   2.264   0.104  11.970  0.0874  0.0992  0.6815
 8880SOL    HW138102   2.323   0.162  11.923 -1.5697 -0.2890 -1.8556
 8880SOL    HW238103   2.278   0.023  11.920  0.4865  0.5556  0.0577
 8881SOL     OW38104   1.070   1.362   5.140 -0.3500  0.1743 -0.1586
 8881SOL    HW138105   1.021   1.325   5.067  0.1486 -0.0225 -0.3925
 8881SOL    HW238106   1.066   1.454   5.114 -2.5945  0.4037  0.9988
 8882SOL     OW38107   4.120   3.099   3.358  0.4702  0.2042  0.4705
 8882SOL    HW138108   4.191   3.047   3.319 -1.4227 -1.2668 -1.0220
 8882SOL    HW238109   4.056   3.081   3.289 -0.0244 -0.4712  1.0995
 8883SOL     OW38110   1.137   3.834  17.560  0.1545  0.0844  0.4303
 8883SOL    HW138111   1.193   3.798  17.628  1.5214  0.3799 -0.5404
 8883SOL    HW238112   1.090   3.904  17.606  1.4641  1.6737 -0.6523
 8884SOL     OW38113   0.238   2.345   6.981 -0.6734  0.3495 -0.1586
 8884SOL    HW138114   0.327   2.310   6.978  0.3917  3.0428 -0.7573
 8884SOL    HW238115   0.251   2.430   7.024  2.7419 -1.4258  2.3797
 8885SOL     OW38116   3.405   0.932   8.717  0.1463  0.4924 -0.3027
 8885SOL    HW138117   3.497   0.909   8.719 -0.2136 -1.0786 -1.5407
 8885SOL    HW238118   3.391   0.991   8.791  0.4332 -0.0374  0.1631
 8886SOL     OW38119   1.327   1.559  10.483 -0.1737 -0.2525 -0.4505
 8886SOL    HW138120   1.284   1.645  10.480  0.0820 -0.1308 -0.5966
 8886SOL    HW238121   1.400   1.586  10.539  0.2857 -1.5299 -0.4371
 8887SOL     OW38122   1.304   4.302  10.824 -0.4736 -0.0383  0.3089
 8887SOL    HW138123   1.354   4.384  10.816 -1.0672  0.4367  1.4854
 8887SOL    HW238124   1.217   4.342  10.824 -0.8042 -0.7580 -0.4142
 8888SOL     OW38125   2.253   4.315   9.766  0.1900 -0.1138  0.3472
 8888SOL    HW138126   2.334   4.266   9.756  1.3317  1.6231  0.9611
 8888SOL    HW238127   2.205   4.255   9.822 -1.4825  0.0213 -0.9587
 8889SOL     OW38128   3.396   1.767   3.454  0.8508 -1.0478 -0.0922
 8889SOL    HW138129   3.418   1.701   3.388  1.1752  0.5538 -1.5875
 8889SOL    HW238130   3.300   1.758   3.450  0.5347  1.4079  2.3344
 8890SOL     OW38131   1.822   3.071  13.530  0.5227  0.5469  0.2291
 8890SOL    HW138132   1.786   3.082  13.442 -0.7104  1.1209  0.8043
 8890SOL    HW238133   1.905   3.116  13.522  1.2025 -1.1678 -2.3609
 8891SOL     OW38134   1.094   4.045  16.168  0.3980  0.2773  0.0998
 8891SOL    HW138135   1.169   4.002  16.210 -0.7102 -2.1487 -0.3966
 8891SOL    HW238136   1.111   4.133  16.202  0.2939  0.1363  0.5246
 8892SOL     OW38137   1.905   1.017  14.502 -0.4752 -0.0529  0.7125
 8892SOL    HW138138   1.934   1.055  14.419 -0.7323  0.3789  0.8207
 8892SOL    HW238139   1.824   1.066  14.518 -1.3006 -1.6188  1.3896
 8893SOL     OW38140   4.451   4.712   5.946 -0.4907 -0.0945  0.0766
 8893SOL    HW138141   4.473   4.694   5.855  2.4162 -0.4149  0.8222
 8893SOL    HW238142   4.373   4.658   5.946  0.3557 -1.3263  2.4111
 8894SOL     OW38143   3.839   2.116   4.733  0.6494  0.6160  0.1028
 8894SOL    HW138144   3.882   2.032   4.718 -0.6838  0.0433 -0.5487
 8894SOL    HW238145   3.804   2.123   4.645 -0.3670 -0.0329  0.4548
 8895SOL     OW38146   1.131   1.021   7.897  0.0364 -0.2192 -0.0694
 8895SOL    HW138147   1.116   0.977   7.814 -2.9609  0.8586 -0.0966
 8895SOL    HW238148   1.221   1.001   7.925 -0.3486 -1.7667  0.0528
 8896SOL     OW38149   3.953   0.120   3.094  0.4547  0.0797  0.4081
 8896SOL    HW138150   3.992   0.204   3.119  4.0801 -1.4598 -0.0112
 8896SOL    HW238151   3.959   0.118   2.998  0.4062 -0.3536  0.4141
 8897SOL     OW38152   0.278   1.875   4.586  0.6606 -0.2229  0.4911
 8897SOL    HW138153   0.218   1.823   4.532  0.1721 -0.9229  1.7282
 8897SOL    HW238154   0.255   1.964   4.558  0.4781 -0.9447 -1.7045
 8898SOL     OW38155   3.533   0.078   0.594  0.1501  0.3323 -0.0369
 8898SOL    HW138156   3.550   0.172   0.588  1.0096  0.3277  2.2792
 8898SOL    HW238157   3.448   0.075   0.551  0.4050  3.1747 -0.7140
 8899SOL     OW38158   3.745   3.441  12.254  0.6470  0.3586  0.2913
 8899SOL    HW138159   3.762   3.440  12.348  1.4821  1.3194  0.1446
 8899SOL    HW238160   3.725   3.352  12.224  0.6863  0.6220 -0.5032
 8900SOL     OW38161   3.966   0.923   2.604 -0.4481  0.1824 -0.3101
 8900SOL    HW138162   3.902   0.987   2.635  0.7136  1.6110 -0.8913
 8900SOL    HW238163   4.044   0.968   2.573 -0.9433  1.2176 -0.0665
 8901SOL     OW38164   0.740   2.267  16.541  0.4588 -0.1093 -0.0756
 8901SOL    HW138165   0.831   2.248  16.563  0.3560 -0.9238 -0.3556
 8901SOL    HW238166   0.748   2.344  16.484  2.1260  0.4824  0.9322
 8902SOL     OW38167   2.830   2.114   3.188 -0.1400 -0.2648  0.2934
 8902SOL    HW138168   2.783   2.052   3.243  0.3151 -1.1963 -0.3609
 8902SOL    HW238169   2.810   2.093   3.097  2.1015 -0.8789 -0.0525
 8903SOL     OW38170   3.570   2.786  14.942  0.2484  0.3997  0.2193
 8903SOL    HW138171   3.640   2.722  14.935 -0.3697 -0.2009 -0.4008
 8903SOL    HW238172   3.499   2.751  14.888  1.7201 -0.6343 -1.0462
 8904SOL     OW38173   1.545   4.035   3.908  0.3886  0.4920 -0.1169
 8904SOL    HW138174   1.618   4.046   3.969 -0.2849 -1.1774  0.9897
 8904SOL    HW238175   1.537   3.939   3.904  1.6951  0.2795  2.4493
 8905SOL     OW38176   4.400   0.269   6.916  0.4378  0.0471  0.0416
 8905SOL    HW138177   4.426   0.315   6.836 -0.5945 -0.5777 -0.6674
 8905SOL    HW238178   4.472   0.282   6.977  0.0800 -1.3532  0.7588
 8906SOL     OW38179   1.686   2.055   7.745  0.2874  0.3645  0.0727
 8906SOL    HW138180   1.709   2.020   7.831  1.2467  0.3517 -0.1911
 8906SOL    HW238181   1.696   2.147   7.766  1.6932 -0.0053  0.9784
 8907SOL     OW38182   0.442   2.704   2.539  0.3375 -0.0554  0.3430
 8907SOL    HW138183   0.536   2.705   2.518  0.0174  1.3725 -1.0104
 8907SOL    HW238184   0.436   2.635   2.605 -0.7170 -1.5425 -1.3172
 8908SOL     OW38185   2.082   0.664   5.837 -0.3401  0.2261 -0.4373
 8908SOL    HW138186   2.037   0.741   5.873  0.4260  1.0663 -1.2587
 8908SOL    HW238187   2.137   0.709   5.773  0.4333 -0.7385 -0.4481
 8909SOL     OW38188   3.268   2.907   8.062 -0.5386 -0.5886  0.1364
 8909SOL    HW138189   3.191   2.908   8.120 -0.7121 -1.0131 -0.0871
 8909SOL    HW238190   3.239   2.835   8.007 -0.0636 -3.4849  3.6745
 8910SOL     OW38191   4.361   2.531   4.263 -0.0949 -0.4396 -0.0846
 8910SOL    HW138192   4.343   2.571   4.178  1.2940  1.4458  0.5075
 8910SOL    HW238193   4.310   2.589   4.319 -0.7024  0.6595 -1.8115
 8911SOL     OW38194   0.831   1.951   4.938 -0.3936  0.7510 -0.2487
 8911SOL    HW138195   0.874   1.907   4.865 -0.6909  1.3921 -0.8056
 8911SOL    HW238196   0.892   1.927   5.008  0.5015  0.4107 -1.1537
 8912SOL     OW38197   0.671   4.122   8.325  0.3166  0.2311 -0.4603
 8912SOL    HW138198   0.630   4.204   8.353  0.4527 -0.0422  0.5159
 8912SOL    HW238199   0.657   4.109   8.231 -1.0353 -1.9075  0.0645
 8913SOL     OW38200   3.295   3.644   5.375 -0.6754 -0.2165 -0.4161
 8913SOL    HW138201   3.310   3.557   5.339 -0.3870  0.4755 -1.9565
 8913SOL    HW238202   3.304   3.635   5.470 -4.7461 -1.4134 -0.1565
 8914SOL     OW38203   1.480   2.241   2.952 -0.0873  0.2764 -0.4474
 8914SOL    HW138204   1.515   2.302   2.886  2.1016  1.0076  1.3855
 8914SOL    HW238205   1.557   2.232   3.009 -1.1078 -0.5788  0.7913
 8915SOL     OW38206   0.327   1.825   2.460  0.1651  0.3849 -0.6582
 8915SOL    HW138207   0.265   1.755   2.441  1.6270 -1.6574  2.0215
 8915SOL    HW238208   0.375   1.772   2.524  0.6470 -0.1967 -1.5051
 8916SOL     OW38209   0.368   2.979   8.092 -0.2683  0.0717 -0.1289
 8916SOL    HW138210   0.300   2.940   8.147  1.0950  0.5103  1.8556
 8916SOL    HW238211   0.352   3.072   8.105  1.5115  0.3377  0.1386
 8917SOL     OW38212   1.235   2.480  16.505  0.4348 -0.1393 -0.5570
 8917SOL    HW138213   1.182   2.509  16.430 -1.6030  0.6977  1.1928
 8917SOL    HW238214   1.255   2.562  16.550 -0.3759 -0.6286  0.7090
 8918SOL     OW38215   1.255   0.582   2.506  0.1070  0.2085  0.1446
 8918SOL    HW138216   1.242   0.507   2.565 -2.0097 -0.7102 -1.4479
 8918SOL    HW238217   1.263   0.534   2.423  0.0423 -0.0305  0.2747
 8919SOL     OW38218   1.565   2.952  14.827 -0.0563 -0.2094  0.1545
 8919SOL    HW138219   1.602   2.913  14.906  1.1611  0.1436 -0.2466
 8919SOL    HW238220   1.645   2.984  14.785  0.4557 -0.5311  0.8845
 8920SOL     OW38221   1.641   2.432   0.206 -0.5665  0.3846 -0.5287
 8920SOL    HW138222   1.714   2.474   0.159  1.9874 -2.0788  1.2441
 8920SOL    HW238223   1.675   2.440   0.295 -0.0146  0.1512 -0.7215
 8921SOL     OW38224   3.019   1.083  13.670  0.0385 -0.0427  0.3392
 8921SOL    HW138225   3.076   1.016  13.707 -1.5071  0.0005  2.7806
 8921SOL    HW238226   3.080   1.133  13.616  0.5793 -1.3565 -0.2683
 8922SOL     OW38227   3.399   4.302  16.237 -0.9685  0.2440  0.5102
 8922SOL    HW138228   3.407   4.363  16.163  0.0033 -1.1949 -0.5646
 8922SOL    HW238229   3.467   4.241  16.212 -1.3767  0.5388 -1.3532
 8923SOL     OW38230   1.767   1.436   2.026 -0.0710  0.4474  0.2859
 8923SOL    HW138231   1.829   1.458   1.956 -1.0696  1.7655 -0.1696
 8923SOL    HW238232   1.833   1.430   2.095 -1.6575 -0.6027  1.7050
 8924SOL     OW38233   1.710   4.201  11.855 -0.8864  0.4045  0.0815
 8924SOL    HW138234   1.631   4.200  11.910  0.9239 -0.6944  2.6272
 8924SOL    HW238235   1.676   4.212  11.766 -0.4844  1.9839  0.1253
 8925SOL     OW38236   1.437   2.176  15.431 -0.3259 -0.3407 -0.0700
 8925SOL    HW138237   1.424   2.262  15.391 -0.0925  0.3841  1.4037
 8925SOL    HW238238   1.503   2.197  15.497  0.3830  1.3509 -1.3230
 8926SOL     OW38239   3.248   1.768   6.823  0.5202  0.4507  0.3141
 8926SOL    HW138240   3.190   1.726   6.758  1.2676 -0.7001  0.3988
 8926SOL    HW238241   3.290   1.826   6.759  0.6515 -0.4977 -0.4645
 8927SOL     OW38242   0.876   3.229   9.073 -0.7747 -0.0444  0.9429
 8927SOL    HW138243   0.935   3.301   9.051 -2.4873  1.2004  0.4239
 8927SOL    HW238244   0.796   3.248   9.024 -1.0578 -0.6824  1.1551
 8928SOL     OW38245   3.603   4.309   3.983  0.0855  0.2872  0.3814
 8928SOL    HW138246   3.577   4.383   4.039 -1.4262  0.5470 -0.6735
 8928SOL    HW238247   3.667   4.268   4.041 -0.1146 -1.0442 -0.3605
 8929SOL     OW38248   1.971   0.346   8.189 -0.3147 -0.2928 -0.4650
 8929SOL    HW138249   1.988   0.381   8.101 -1.2081 -2.8167 -1.6579
 8929SOL    HW238250   1.876   0.345   8.199 -0.4073  1.1955 -1.2315
 8930SOL     OW38251   1.608   1.156   3.035  0.1042  0.6798  0.0920
 8930SOL    HW138252   1.587   1.186   2.946  0.7627  0.6884 -0.0607
 8930SOL    HW238253   1.550   1.081   3.022  2.4186 -0.8132 -1.6541
 8931SOL     OW38254   1.255   2.872   7.379 -0.1142  0.5015 -0.5494
 8931SOL    HW138255   1.281   2.807   7.314  1.5947 -0.4712  1.1054
 8931SOL    HW238256   1.337   2.921   7.387  1.0279 -1.7213  1.2622
 8932SOL     OW38257   1.184   2.597   9.276  0.2234 -0.4965 -0.3133
 8932SOL    HW138258   1.154   2.617   9.187 -1.0310 -0.1092  0.1964
 8932SOL    HW238259   1.104   2.556   9.309  0.7614 -0.4549  1.0360
 8933SOL     OW38260   1.509   1.892  16.850 -0.0928  0.2615 -0.1446
 8933SOL    HW138261   1.508   1.815  16.907  1.1046  0.2422 -0.1578
 8933SOL    HW238262   1.597   1.928  16.864  0.0220 -0.8187  1.9401
 8934SOL     OW38263   4.332   4.261   4.807 -0.7752 -0.2079  0.0594
 8934SOL    HW138264   4.346   4.189   4.869  0.2379  1.5704  1.9118
 8934SOL    HW238265   4.414   4.307   4.828 -1.5764  0.6225  1.4080
 8935SOL     OW38266   3.472   1.805   6.502  0.1388 -0.3542 -0.2303
 8935SOL    HW138267   3.376   1.795   6.503 -0.0624  1.8810  1.2484
 8935SOL    HW238268   3.481   1.883   6.449 -0.8707  0.6905  1.1317
 8936SOL     OW38269   3.914   1.264   4.872 -0.2457 -0.1301 -0.5405
 8936SOL    HW138270   3.982   1.331   4.881  0.2250 -0.5401 -1.0541
 8936SOL    HW238271   3.920   1.248   4.778 -0.3259 -1.3462 -0.3295
 8937SOL     OW38272   3.493   0.306   5.414  0.2858  0.0968  0.3345
 8937SOL    HW138273   3.531   0.298   5.327 -0.6606  0.4758 -0.1117
 8937SOL    HW238274   3.399   0.311   5.396  0.4967  1.6205 -0.3007
 8938SOL     OW38275   2.010   3.742   7.861  0.1425  0.4300  0.0582
 8938SOL    HW138276   2.022   3.833   7.886 -1.2948  0.5529  0.2907
 8938SOL    HW238277   1.961   3.757   7.780 -0.2688  0.3000  0.2846
 8939SOL     OW38278   1.076   1.777   7.919  0.0388 -0.1119 -0.2319
 8939SOL    HW138279   1.009   1.844   7.931 -0.3683 -0.4730 -0.4517
 8939SOL    HW238280   1.044   1.717   7.851  1.4459  0.1858 -1.1670
 8940SOL     OW38281   3.049   0.479  15.517 -0.0051 -0.2504  0.2509
 8940SOL    HW138282   3.144   0.482  15.505  0.1126  0.2634  1.2841
 8940SOL    HW238283   3.015   0.565  15.491  1.2229  0.4666  1.0027
 8941SOL     OW38284   1.698   4.339  13.114 -0.1376 -0.0543 -0.4816
 8941SOL    HW138285   1.614   4.369  13.079 -1.0199  1.1506  2.6471
 8941SOL    HW238286   1.717   4.255  13.074 -1.9452 -0.1769 -1.0847
 8942SOL     OW38287   2.295   2.064   4.602  0.6834  0.2159 -0.2391
 8942SOL    HW138288   2.351   1.991   4.576  1.4106  1.0590 -1.0054
 8942SOL    HW238289   2.362   2.122   4.637  2.2148 -1.7886  0.1394
 8943SOL     OW38290   1.002   0.597   8.641  0.6399  0.4608 -0.2626
 8943SOL    HW138291   1.027   0.573   8.730  1.8325 -1.0754 -1.0171
 8943SOL    HW238292   1.044   0.682   8.628  2.6152 -0.5860 -0.5905
 8944SOL     OW38293   0.534   3.627  13.615  0.3205 -0.0258  0.4267
 8944SOL    HW138294   0.439   3.631  13.629  0.1630 -0.5440 -0.4587
 8944SOL    HW238295   0.561   3.578  13.693 -1.1830 -1.3031  0.1448
 8945SOL     OW38296   3.675   0.335   7.811 -0.3811  0.4811  0.1231
 8945SOL    HW138297   3.746   0.394   7.785  1.3437 -2.3117 -1.4686
 8945SOL    HW238298   3.706   0.308   7.898 -0.0454 -0.7426 -0.3772
 8946SOL     OW38299   2.248   1.580   5.107  0.3759 -0.1697  0.2583
 8946SOL    HW138300   2.274   1.636   5.034 -1.4713  0.2394 -0.0665
 8946SOL    HW238301   2.157   1.606   5.121  0.6515 -0.3831  2.4669
 8947SOL     OW38302   3.805   0.630  10.501 -0.2010 -0.2491 -0.7928
 8947SOL    HW138303   3.838   0.672  10.581 -2.1287 -2.2327  1.0547
 8947SOL    HW238304   3.731   0.571  10.519  0.6777 -1.0445  0.2436
 8948SOL     OW38305   3.750   4.599   0.145 -0.4478 -0.6318 -0.0948
 8948SOL    HW138306   3.797   4.522   0.115 -0.3206  0.5268 -2.8924
 8948SOL    HW238307   3.682   4.547   0.187  0.6280 -0.8114  1.3940
 8949SOL     OW38308   1.658   3.009   2.716  0.6226  0.4896  0.5576
 8949SOL    HW138309   1.653   2.914   2.719  2.7295  0.3494  0.1019
 8949SOL    HW238310   1.653   3.040   2.807  3.3179  0.4462  0.7476
 8950SOL     OW38311   4.497   3.218   8.415 -0.4743  0.3374 -0.1612
 8950SOL    HW138312   4.467   3.306   8.394 -2.3398 -0.3771 -0.4840
 8950SOL    HW238313   4.479   3.208   8.509 -0.3468  1.7253  0.0098
 8951SOL     OW38314   1.603   1.417   5.093 -0.0974 -0.9769  0.0369
 8951SOL    HW138315   1.660   1.369   5.153  0.8435  1.1046  0.8093
 8951SOL    HW238316   1.513   1.383   5.095 -0.3900 -0.1230  1.7381
 8952SOL     OW38317   1.670   2.310   7.806 -0.5661 -0.4935 -0.0444
 8952SOL    HW138318   1.614   2.311   7.883  0.4447 -0.5623  0.6948
 8952SOL    HW238319   1.679   2.403   7.784 -0.3372 -0.7814 -1.1360
 8953SOL     OW38320   4.454   0.667   4.804 -0.0903 -0.1023 -0.0712
 8953SOL    HW138321   4.489   0.692   4.889  1.0974  0.0533 -0.5967
 8953SOL    HW238322   4.365   0.636   4.823  0.5307 -1.5932  0.4584
 8954SOL     OW38323   2.506   2.028   7.434  0.2152 -0.2965  0.0614
 8954SOL    HW138324   2.532   1.962   7.498  0.6443  1.5441  1.8174
 8954SOL    HW238325   2.478   1.960   7.373 -1.6292  0.7214 -0.2237
 8955SOL     OW38326   0.612   3.382   5.984 -0.3300  0.4550  0.5007
 8955SOL    HW138327   0.652   3.448   5.927  0.5300  0.7494  1.4495
 8955SOL    HW238328   0.677   3.364   6.052 -0.0692 -2.8951 -0.5910
 8956SOL     OW38329   0.703   0.027   3.235 -0.4571  0.6849  0.5099
 8956SOL    HW138330   0.741   4.688   3.178 -1.1141  0.8865 -0.1490
 8956SOL    HW238331   0.771   0.043   3.301  0.4183 -1.7241  0.2062
 8957SOL     OW38332   4.609   2.058   4.693 -0.2216  0.2877 -0.6760
 8957SOL    HW138333   4.635   1.966   4.700  2.8896  0.9711 -3.2940
 8957SOL    HW238334   4.646   2.093   4.612 -3.1334  2.2898 -1.1245
 8958SOL     OW38335   3.384   0.371   2.646 -0.6651  0.5589  0.0521
 8958SOL    HW138336   3.350   0.319   2.573  0.7656 -0.7402  0.3108
 8958SOL    HW238337   3.320   0.333   2.707 -1.2013  0.3057 -0.6777
 8959SOL     OW38338   2.002   2.885   9.576 -0.4897  0.3078 -0.2298
 8959SOL    HW138339   2.069   2.888   9.644  0.3743 -0.6369 -1.0189
 8959SOL    HW238340   2.019   2.796   9.543 -0.6987 -0.9169  2.9700
 8960SOL     OW38341   0.114   1.300   3.493  0.1820 -0.2245  0.1333
 8960SOL    HW138342   0.157   1.215   3.505  0.6977  0.1509  0.9423
 8960SOL    HW238343   0.086   1.301   3.585  1.6291  0.8781  0.5636
 8961SOL     OW38344   2.488   0.956  14.924  0.2221 -0.3881  0.0755
 8961SOL    HW138345   2.545   0.942  15.000 -0.7494 -2.6136  0.4064
 8961SOL    HW238346   2.546   0.986  14.855  0.1923 -1.2926 -0.3433
 8962SOL     OW38347   0.737   0.228   5.069  0.6069 -0.3812  0.1269
 8962SOL    HW138348   0.741   0.146   5.119 -0.1342 -0.8455 -0.5700
 8962SOL    HW238349   0.697   0.286   5.134  1.2970 -0.9242  1.0436
 8963SOL     OW38350   3.974   3.831   8.319  0.2613 -0.0887 -0.3239
 8963SOL    HW138351   3.888   3.863   8.344  0.8136  0.1684  1.2537
 8963SOL    HW238352   3.963   3.738   8.300  2.3250 -1.0691  3.1971
 8964SOL     OW38353   3.554   1.809   0.504  0.2875 -0.1212  0.1761
 8964SOL    HW138354   3.628   1.865   0.482 -0.0387  0.4739  0.6161
 8964SOL    HW238355   3.585   1.728   0.462  0.8185 -1.6139  3.4782
 8965SOL     OW38356   3.424   0.430   7.570  0.9198  0.0651 -0.4645
 8965SOL    HW138357   3.520   0.430   7.578  0.9491 -1.8447 -0.6780
 8965SOL    HW238358   3.415   0.379   7.489 -0.8152  0.0528 -0.2552
 8966SOL     OW38359   3.229   1.455   2.737  0.3285 -0.1989 -0.0097
 8966SOL    HW138360   3.295   1.403   2.783  0.6681  0.7785  0.6034
 8966SOL    HW238361   3.260   1.453   2.647 -2.8888 -1.0486 -1.0825
 8967SOL     OW38362   3.280   2.654  12.932 -0.6955 -0.3359 -0.6167
 8967SOL    HW138363   3.362   2.678  12.975 -1.9359  0.1387  1.5212
 8967SOL    HW238364   3.222   2.636  13.006  1.7707 -0.4468  1.2682
 8968SOL     OW38365   1.724   1.697   2.023 -0.2200  0.0875 -0.7027
 8968SOL    HW138366   1.660   1.684   1.953 -0.7687 -0.6304 -0.0620
 8968SOL    HW238367   1.741   1.603   2.031  0.8684  0.1925 -1.7462
 8969SOL     OW38368   2.783   1.818   8.277 -0.0508  0.6377  0.4225
 8969SOL    HW138369   2.850   1.862   8.329  3.4717 -0.5733 -3.0277
 8969SOL    HW238370   2.729   1.895   8.261  0.8737  1.4322  1.0843
 8970SOL     OW38371   3.700   3.296  11.750  0.6231  0.0962  0.6138
 8970SOL    HW138372   3.737   3.279  11.664  0.9996 -1.6219  1.1192
 8970SOL    HW238373   3.719   3.389  11.762 -0.5435  0.2849  1.0096
 8971SOL     OW38374   2.208   1.719   9.871  0.5765 -0.2578 -0.0134
 8971SOL    HW138375   2.234   1.751   9.958  1.0038 -1.6084  0.3577
 8971SOL    HW238376   2.116   1.744   9.861  0.7696 -0.1039 -1.4275
 8972SOL     OW38377   0.512   4.301   3.618  0.5144 -0.2064  0.3976
 8972SOL    HW138378   0.440   4.314   3.680  1.0926  0.8081  0.8700
 8972SOL    HW238379   0.504   4.207   3.604 -0.5396  0.0285 -0.5615
 8973SOL     OW38380   1.702   3.114   5.373 -0.4316 -0.2150 -0.3234
 8973SOL    HW138381   1.708   3.056   5.449  0.2317 -0.4946 -0.5882
 8973SOL    HW238382   1.736   3.194   5.414  2.2462 -1.2533 -0.4969
 8974SOL     OW38383   1.919   0.055   9.291  0.0958  0.1586 -0.0433
 8974SOL    HW138384   2.010   0.026   9.284 -0.3291 -1.2274  0.2652
 8974SOL    HW238385   1.913   0.100   9.375 -2.0121 -3.4195  1.6916
 8975SOL     OW38386   0.387   4.225   4.079 -0.2452  0.0393 -0.5766
 8975SOL    HW138387   0.422   4.136   4.072  0.2694 -0.0427  3.5184
 8975SOL    HW238388   0.436   4.249   4.157  1.9576  1.8549 -2.5468
 8976SOL     OW38389   0.921   2.802   6.048 -0.1421 -0.1569  0.3827
 8976SOL    HW138390   0.897   2.836   5.962  0.5190  0.7189  0.5321
 8976SOL    HW238391   0.962   2.880   6.088  1.8373 -0.4209 -1.1287
 8977SOL     OW38392   4.012   2.604   6.698  0.0924  0.6965  0.1479
 8977SOL    HW138393   4.039   2.648   6.778  1.4760  0.0300  0.0518
 8977SOL    HW238394   4.087   2.544   6.688 -0.2632  0.7074 -2.6080
 8978SOL     OW38395   2.273   1.792   1.114 -0.0012 -0.3441 -0.4024
 8978SOL    HW138396   2.213   1.865   1.095  0.2159 -0.5047 -1.6904
 8978SOL    HW238397   2.281   1.750   1.029  2.7652 -0.4824 -0.0747
 8979SOL     OW38398   2.909   1.815   8.970 -0.4136  0.5269 -0.3962
 8979SOL    HW138399   2.901   1.741   8.910 -1.4019  1.3447 -1.2762
 8979SOL    HW238400   2.993   1.850   8.942  0.1210 -0.7967 -0.4429
 8980SOL     OW38401   2.995   1.978   8.409  0.4135 -0.4941 -0.3555
 8980SOL    HW138402   3.052   1.978   8.486  0.9361 -0.0404 -0.7327
 8980SOL    HW238403   2.973   2.071   8.406 -0.6371 -0.7388 -0.3027
 8981SOL     OW38404   2.874   3.650  16.110  0.0636 -0.0552 -0.0858
 8981SOL    HW138405   2.909   3.739  16.112 -1.2709  0.4268  2.1248
 8981SOL    HW238406   2.806   3.653  16.178  0.7820  0.9475  0.5835
 8982SOL     OW38407   2.731   1.355   3.608 -1.2673  0.2259 -0.4779
 8982SOL    HW138408   2.677   1.287   3.648 -0.3731 -0.4717 -0.4667
 8982SOL    HW238409   2.676   1.369   3.531  0.0576  0.9769 -1.2670
 8983SOL     OW38410   3.495   1.764  10.447 -0.6155  0.6061  0.1465
 8983SOL    HW138411   3.414   1.783  10.400  0.2752  3.2661 -0.3188
 8983SOL    HW238412   3.566   1.754  10.384 -1.5720  1.1497 -0.9994
 8984SOL     OW38413   4.252   4.547  16.994  0.6735 -0.2372 -0.1964
 8984SOL    HW138414   4.200   4.568  16.916 -1.3088 -0.4206  1.0853
 8984SOL    HW238415   4.260   4.627  17.045 -0.8057 -0.2168  0.0042
 8985SOL     OW38416   0.603   3.021   3.341  0.4399  0.0097  0.7584
 8985SOL    HW138417   0.541   3.053   3.406  1.5607  0.2506  1.7153
 8985SOL    HW238418   0.582   3.071   3.263 -1.3675  0.0267  1.2500
 8986SOL     OW38419   0.045   2.229   3.365  0.1306  0.6797 -0.2163
 8986SOL    HW138420   0.087   2.298   3.416  0.8984 -0.4502  0.6961
 8986SOL    HW238421   0.067   2.240   3.272 -0.8050  0.6386 -0.4428
 8987SOL     OW38422   2.764   4.396   2.595 -0.4130  0.1183 -0.2935
 8987SOL    HW138423   2.674   4.382   2.623  0.6893 -4.1058  1.1082
 8987SOL    HW238424   2.779   4.488   2.615  2.4651  0.2520 -2.9180
 8988SOL     OW38425   3.507   0.740   6.637  0.0933  0.2150  0.2064
 8988SOL    HW138426   3.543   0.793   6.566 -0.1081 -1.1817 -0.9174
 8988SOL    HW238427   3.582   0.680   6.641  2.1416  2.8024  0.7185
 8989SOL     OW38428   2.807   0.222  17.695  0.0590  0.1710 -0.2148
 8989SOL    HW138429   2.817   0.253  17.605 -0.1685 -1.1667 -0.6990
 8989SOL    HW238430   2.770   0.134  17.694  1.1712 -0.2540 -2.5898
 8990SOL     OW38431   1.109   3.551   5.969  0.4333 -0.1785 -0.1273
 8990SOL    HW138432   1.129   3.564   5.876  0.5476  1.2008  0.0967
 8990SOL    HW238433   1.063   3.467   5.966  1.8446 -0.9808  0.9797
 8991SOL     OW38434   1.493   1.138   6.287 -0.0468  0.0890 -0.0543
 8991SOL    HW138435   1.473   1.064   6.229 -1.4650 -0.1957  0.7910
 8991SOL    HW238436   1.588   1.131   6.296  0.1721  1.8597 -1.0639
 8992SOL     OW38437   2.570   3.096   5.197 -0.2120  0.8478 -0.2140
 8992SOL    HW138438   2.653   3.050   5.184 -0.9364 -0.3873 -0.4246
 8992SOL    HW238439   2.589   3.164   5.262  1.3820 -0.0841  0.2980
 8993SOL     OW38440   3.911   3.057   1.661  0.2567  0.3897  0.1488
 8993SOL    HW138441   3.958   3.083   1.740  0.1798 -3.1980  1.4011
 8993SOL    HW238442   3.819   3.075   1.679  0.1097 -1.7458  1.6279
 8994SOL     OW38443   4.445   0.851   8.510  0.6875 -0.3209  0.0400
 8994SOL    HW138444   4.406   0.764   8.521  2.6021 -1.4557 -1.9879
 8994SOL    HW238445   4.421   0.873   8.420  1.3337 -0.9607 -0.2971
 8995SOL     OW38446   1.296   2.868   7.682 -0.2387 -0.3161  0.1204
 8995SOL    HW138447   1.251   2.905   7.606  0.4892  0.1029 -0.1031
 8995SOL    HW238448   1.230   2.851   7.749 -0.0824  1.0459  0.6036
 8996SOL     OW38449   0.073   2.365   4.699 -0.6254  0.0951 -0.1751
 8996SOL    HW138450   0.002   2.359   4.763  1.2897 -1.5861  1.7924
 8996SOL    HW238451   0.099   2.455   4.717  0.7892 -0.1389 -1.0764
 8997SOL     OW38452   2.330   3.488   2.635 -0.5287 -0.3338 -0.4617
 8997SOL    HW138453   2.411   3.453   2.670 -0.5216 -0.5925 -0.7373
 8997SOL    HW238454   2.272   3.419   2.668 -2.1843  1.0575 -0.4618
 8998SOL     OW38455   1.705   1.660  16.477 -0.4026  0.2426  0.5385
 8998SOL    HW138456   1.673   1.749  16.497  0.3781  0.4226  1.0041
 8998SOL    HW238457   1.651   1.628  16.405  1.3865 -2.4090  0.4089
 8999SOL     OW38458   2.609   1.479  11.202  0.2314  0.4854  0.1290
 8999SOL    HW138459   2.588   1.435  11.119 -0.1735  0.8339  0.0503
 8999SOL    HW238460   2.680   1.531  11.165  1.8714 -2.0806 -0.3336
 9000SOL     OW38461   4.402   2.875   4.934  0.1810 -0.1961  0.5482
 9000SOL    HW138462   4.492   2.881   4.903 -0.0022 -0.6344 -0.0493
 9000SOL    HW238463   4.416   2.912   5.022  1.9307  0.2484  0.0791
 9001SOL     OW38464   3.889   3.300   4.257  0.1704  0.0083 -0.3724
 9001SOL    HW138465   3.952   3.371   4.267 -1.5603  1.6922 -1.3297
 9001SOL    HW238466   3.878   3.264   4.345 -2.4539 -0.6204 -0.9643
 9002SOL     OW38467   4.720   3.857  13.447  0.0283 -0.0346 -0.4227
 9002SOL    HW138468   0.022   3.948  13.443 -1.5375  0.4977  0.0888
 9002SOL    HW238469   0.015   3.824  13.361 -1.6883 -1.2059 -0.4301
 9003SOL     OW38470   1.662   0.632   0.178  0.1568  0.1462 -0.2395
 9003SOL    HW138471   1.601   0.703   0.161  1.1387  1.1962  0.6599
 9003SOL    HW238472   1.678   0.583   0.097 -0.7374  1.1196 -1.0053
 9004SOL     OW38473   1.009   0.002   3.696  0.6281  0.8699  0.1175
 9004SOL    HW138474   1.105   4.726   3.701  0.5058  1.3469  2.4603
 9004SOL    HW238475   0.997   0.095   3.715 -0.1676  0.5232  1.3267
 9005SOL     OW38476   4.604   1.332   8.625 -0.2599  0.0568 -0.0786
 9005SOL    HW138477   4.679   1.329   8.566 -0.7497  2.4173 -0.8368
 9005SOL    HW238478   4.545   1.266   8.589  2.3446 -1.9043 -0.7355
 9006SOL     OW38479   3.781   3.047   6.394  0.0908  0.5225 -0.3838
 9006SOL    HW138480   3.854   3.108   6.382  0.1112  0.2873 -1.4496
 9006SOL    HW238481   3.798   3.020   6.484  1.0332 -0.6456 -0.9009
 9007SOL     OW38482   4.697   0.462   4.833 -1.0805 -0.5968  0.1483
 9007SOL    HW138483   0.027   0.477   4.909  0.8664 -1.3089 -1.1859
 9007SOL    HW238484   4.701   0.542   4.781  0.1155 -0.1746  0.8976
 9008SOL     OW38485   0.496   2.503   2.737 -0.1232  0.2573  0.0155
 9008SOL    HW138486   0.489   2.408   2.739  0.5580  0.2817  2.5249
 9008SOL    HW238487   0.579   2.501   2.784  1.0881  1.3053 -2.0523
 9009SOL     OW38488   4.462   3.980   9.245 -0.0795  0.1943 -0.1734
 9009SOL    HW138489   4.460   4.020   9.332  1.0085 -2.4240  1.0688
 9009SOL    HW238490   4.453   3.887   9.265 -0.4002 -0.1202 -1.7652
 9010SOL     OW38491   3.777   2.668   1.545  0.0239  0.2163 -0.1954
 9010SOL    HW138492   3.870   2.687   1.553 -0.3222  2.3840 -1.2482
 9010SOL    HW238493   3.771   2.573   1.551  1.4990  0.3315  2.7058
 9011SOL     OW38494   1.383   1.186   1.959 -0.5173  0.1696 -0.1365
 9011SOL    HW138495   1.293   1.160   1.942  0.0885 -1.4928 -0.7669
 9011SOL    HW238496   1.381   1.220   2.048 -0.8901 -0.4109  0.0767
 9012SOL     OW38497   3.852   0.655   9.387  0.2545  0.3570  0.1074
 9012SOL    HW138498   3.905   0.706   9.448 -0.4258  1.6916 -0.4028
 9012SOL    HW238499   3.806   0.590   9.439  1.4379 -0.2626  0.3757
 9013SOL     OW38500   0.410   4.168   7.862 -0.3934  0.4665 -0.2038
 9013SOL    HW138501   0.356   4.221   7.920  0.3901  2.1034 -0.9981
 9013SOL    HW238502   0.392   4.199   7.774  0.5299  0.2911 -0.4589
 9014SOL     OW38503   4.558   0.347   2.106  1.3959 -0.1708  0.2261
 9014SOL    HW138504   4.526   0.266   2.066  2.3817 -0.5768  0.2694
 9014SOL    HW238505   4.525   0.409   2.042  2.3670 -0.9605 -1.0213
 9015SOL     OW38506   3.135   3.073   3.929 -0.8323 -0.5404 -0.1719
 9015SOL    HW138507   3.123   2.990   3.883 -0.3561 -1.3675  1.1977
 9015SOL    HW238508   3.163   3.122   3.851 -2.0868  1.9305  0.9287
 9016SOL     OW38509   3.227   0.505   9.566  0.9851  0.0846 -0.4421
 9016SOL    HW138510   3.157   0.497   9.502  1.4710  0.4488 -1.0263
 9016SOL    HW238511   3.265   0.591   9.547 -0.2632  0.3041 -1.9259
 9017SOL     OW38512   2.364   1.787  11.541  0.4806  0.4771  0.5086
 9017SOL    HW138513   2.400   1.708  11.501  0.7122  2.1251 -2.5824
 9017SOL    HW238514   2.364   1.848  11.467 -0.1108 -0.2251 -0.0748
 9018SOL     OW38515   0.671   1.067   7.319  0.8450  0.0437 -0.2864
 9018SOL    HW138516   0.589   1.075   7.368  1.3517  2.3537  0.1795
 9018SOL    HW238517   0.637   1.030   7.237 -0.0228 -0.4287  0.2813
 9019SOL     OW38518   2.271   3.995   0.361  0.7762 -0.3768 -0.2639
 9019SOL    HW138519   2.204   3.945   0.315 -0.0852  1.4115 -0.9384
 9019SOL    HW238520   2.303   4.059   0.297  0.3693 -0.1716 -0.2629
 9020SOL     OW38521   4.333   1.457  13.302 -0.5140 -0.2824  0.2326
 9020SOL    HW138522   4.254   1.507  13.321 -0.5278 -0.6806  1.2181
 9020SOL    HW238523   4.324   1.424  13.213  0.2939  0.6189 -0.1839
 9021SOL     OW38524   2.253   3.216   6.225 -0.3059  0.1605 -0.3104
 9021SOL    HW138525   2.170   3.261   6.239 -0.8497 -1.5914  2.2499
 9021SOL    HW238526   2.281   3.267   6.149 -1.3713  1.0018 -0.1358
 9022SOL     OW38527   4.196   3.563   6.481 -0.0702  0.3784 -0.0491
 9022SOL    HW138528   4.199   3.641   6.426 -1.8529 -0.6381 -1.5432
 9022SOL    HW238529   4.279   3.574   6.529 -1.4436 -0.3216  2.4824
 9023SOL     OW38530   3.367   2.400  10.840 -0.1018  0.2873  0.0623
 9023SOL    HW138531   3.434   2.451  10.796  0.5589  0.6526  1.5231
 9023SOL    HW238532   3.399   2.413  10.929  1.0702 -0.9090 -0.1797
 9024SOL     OW38533   3.294   3.435  11.430  0.0094  0.2423 -0.2429
 9024SOL    HW138534   3.259   3.524  11.433 -1.3254 -0.2756 -0.6104
 9024SOL    HW238535   3.249   3.396  11.504 -0.9761  1.9858  0.0711
 9025SOL     OW38536   0.593   2.573   8.578  0.2692  0.1482 -0.9376
 9025SOL    HW138537   0.594   2.655   8.627 -0.7071  0.0086 -0.6771
 9025SOL    HW238538   0.679   2.537   8.597  0.0688 -0.2758 -0.8351
 9026SOL     OW38539   1.163   3.413   7.218  0.1054  0.2982  0.1379
 9026SOL    HW138540   1.182   3.330   7.174 -2.4277 -0.0629 -0.3256
 9026SOL    HW238541   1.182   3.387   7.308  0.6119  1.3163  0.3177
 9027SOL     OW38542   0.900   1.063   4.182 -0.0412  0.1374 -0.2552
 9027SOL    HW138543   0.863   1.102   4.103 -0.1691 -0.7370 -0.6258
 9027SOL    HW238544   0.988   1.100   4.190  0.6432 -1.9082  1.8636
 9028SOL     OW38545   3.764   1.165  13.334 -0.4638  0.3211 -0.7030
 9028SOL    HW138546   3.693   1.104  13.313  1.0497 -1.9213  0.6086
 9028SOL    HW238547   3.738   1.194  13.422 -0.7015  1.2708 -1.0973
 9029SOL     OW38548   1.077   2.893   6.759  0.6446 -0.3603 -0.0802
 9029SOL    HW138549   1.107   2.804   6.740  0.1354 -0.2404 -1.4433
 9029SOL    HW238550   1.053   2.922   6.671  1.7241 -0.3158 -0.3541
 9030SOL     OW38551   3.437   2.456   2.840  0.6494 -0.2181  0.3613
 9030SOL    HW138552   3.484   2.409   2.771 -0.6913  1.7212 -1.8816
 9030SOL    HW238553   3.509   2.484   2.896  1.9065 -1.1469 -0.7947
 9031SOL     OW38554   2.478   0.600   5.673  0.0857  0.4613  0.6433
 9031SOL    HW138555   2.439   0.687   5.670  1.0650  0.9403  1.5702
 9031SOL    HW238556   2.403   0.541   5.662 -0.1006  0.8271 -0.0445
 9032SOL     OW38557   1.735   3.136   4.171 -0.1223 -0.5797 -0.8079
 9032SOL    HW138558   1.799   3.080   4.126 -1.5981 -1.6358 -1.6002
 9032SOL    HW238559   1.655   3.084   4.168 -1.3308  1.1333  1.8766
 9033SOL     OW38560   2.366   2.893   2.996 -0.0198 -0.4631  0.1323
 9033SOL    HW138561   2.351   2.987   3.003  3.2526 -0.0129  1.3965
 9033SOL    HW238562   2.343   2.872   2.906 -2.4993  0.2929  0.5907
 9034SOL     OW38563   2.747   1.181  15.481  0.5254 -0.0313 -0.4348
 9034SOL    HW138564   2.668   1.207  15.434  0.7446 -0.1943 -0.8882
 9034SOL    HW238565   2.790   1.126  15.416  0.7490  1.1192 -1.2466
 9035SOL     OW38566   0.324   3.036   3.448 -0.5308 -0.2524 -0.0253
 9035SOL    HW138567   0.280   3.101   3.502 -1.2755  1.7435 -3.0500
 9035SOL    HW238568   0.270   3.046   3.369 -1.8653  1.0280  1.0672
 9036SOL     OW38569   4.470   3.298   2.642  0.5567 -0.7216  0.5634
 9036SOL    HW138570   4.494   3.242   2.569  0.2730  0.7113 -0.6254
 9036SOL    HW238571   4.556   3.329   2.672  0.8011 -0.1335 -0.7435
 9037SOL     OW38572   3.849   0.874   0.443 -0.1190  0.1020 -0.0557
 9037SOL    HW138573   3.908   0.922   0.384 -0.8671  0.2660 -0.6773
 9037SOL    HW238574   3.771   0.887   0.389 -1.2077  0.8089  1.6714
 9038SOL     OW38575   1.440   2.579   8.992 -0.4832  0.1276 -0.5917
 9038SOL    HW138576   1.354   2.614   9.015  0.3997  1.0411  1.3120
 9038SOL    HW238577   1.507   2.623   9.045 -1.2992  0.3364  0.2745
 9039SOL     OW38578   2.040   0.596  16.098  0.1151 -0.1506 -0.0259
 9039SOL    HW138579   2.104   0.667  16.098 -0.0096 -0.0286  0.9811
 9039SOL    HW238580   2.039   0.559  16.187  0.3128 -0.5264 -0.1792
 9040SOL     OW38581   1.801   2.969   6.515 -0.9346  0.5017  0.7341
 9040SOL    HW138582   1.868   3.027   6.550 -1.9184  0.4439  2.7201
 9040SOL    HW238583   1.722   2.984   6.568 -0.9522  1.7434  0.3475
 9041SOL     OW38584   0.980   2.159   4.745 -0.7669  0.3684 -0.3462
 9041SOL    HW138585   0.967   2.247   4.780  0.3216  2.0000 -3.9995
 9041SOL    HW238586   0.893   2.137   4.712 -0.6671 -3.3605  1.8401
 9042SOL     OW38587   4.171   3.208   7.365 -0.1969  0.6914  0.3372
 9042SOL    HW138588   4.098   3.150   7.387  1.6547 -0.8110  2.5172
 9042SOL    HW238589   4.241   3.183   7.424  1.1508  1.5423 -0.9095
 9043SOL     OW38590   4.407   0.753  11.978 -0.3976 -0.4959 -0.0393
 9043SOL    HW138591   4.408   0.755  11.882 -2.2483  2.5781  0.0012
 9043SOL    HW238592   4.499   0.774  11.993 -0.2167 -0.8591 -0.6660
 9044SOL     OW38593   1.325   3.232   8.413  0.0450 -0.0949  0.1798
 9044SOL    HW138594   1.398   3.186   8.455  1.9658  2.9033  0.1232
 9044SOL    HW238595   1.255   3.166   8.414 -3.0092  3.1595  1.0097
 9045SOL     OW38596   4.124   2.486   7.852  0.2576 -0.4563  0.2095
 9045SOL    HW138597   4.058   2.418   7.840 -2.6881  2.6807 -1.3042
 9045SOL    HW238598   4.078   2.547   7.910 -0.9572 -1.2807  0.1107
 9046SOL     OW38599   0.403   1.668   2.879 -0.1976 -0.2399  0.6737
 9046SOL    HW138600   0.417   1.583   2.921 -0.2099 -0.2907  0.5752
 9046SOL    HW238601   0.415   1.726   2.953  1.5933  0.0762  0.1352
 9047SOL     OW38602   1.875   3.023   1.606  0.4107 -0.6696  0.2271
 9047SOL    HW138603   1.858   3.103   1.557 -1.0324 -1.6165 -0.8380
 9047SOL    HW238604   1.928   3.051   1.681  0.1687  0.5663 -0.0766
 9048SOL     OW38605   3.592   3.947   2.709  0.5702  0.2823  0.0130
 9048SOL    HW138606   3.592   3.932   2.614 -2.9590 -1.7611  0.3331
 9048SOL    HW238607   3.499   3.938   2.730  0.1062 -1.5551 -2.8187
 9049SOL     OW38608   4.054   3.716   7.395 -0.2922 -0.0653 -0.8040
 9049SOL    HW138609   4.012   3.800   7.416 -1.5968 -1.2682  1.4659
 9049SOL    HW238610   4.132   3.740   7.345 -1.2166 -0.9492 -2.6586
 9050SOL     OW38611   3.639   0.372   6.406  0.0823 -0.0153 -0.3913
 9050SOL    HW138612   3.655   0.455   6.360  0.4657  0.1736  0.0691
 9050SOL    HW238613   3.728   0.339   6.391 -0.1499 -0.8704  0.1351
 9051SOL     OW38614   0.842   2.175   5.082 -0.5254 -0.0989  0.0012
 9051SOL    HW138615   0.864   2.104   5.021  1.0811  2.5473 -2.5018
 9051SOL    HW238616   0.916   2.170   5.143  0.3245  0.0206 -1.0289
 9052SOL     OW38617   4.098   0.661   3.528  0.0621  0.1563 -0.2176
 9052SOL    HW138618   4.005   0.639   3.521  0.0418  0.9527 -2.2403
 9052SOL    HW238619   4.123   0.610   3.606  1.0568  0.7224 -0.1698
 9053SOL     OW38620   3.149   2.306   6.388  0.1532  0.5177  0.4221
 9053SOL    HW138621   3.092   2.346   6.322  1.5552 -0.7931 -1.5549
 9053SOL    HW238622   3.235   2.342   6.365  0.3204 -1.1508 -1.5236
 9054SOL     OW38623   3.241   2.459   1.484 -0.0002  0.3898  0.0564
 9054SOL    HW138624   3.226   2.403   1.408  1.0363  1.3059 -0.8171
 9054SOL    HW238625   3.285   2.534   1.444  0.8390 -1.2953 -2.2081
 9055SOL     OW38626   0.197   2.626   7.066  0.2703 -0.1285  0.3439
 9055SOL    HW138627   0.239   2.656   7.147 -1.2990  1.2974  0.6318
 9055SOL    HW238628   0.107   2.597   7.082  0.5708 -1.2143  0.0750
 9056SOL     OW38629   4.080   0.977   2.343  0.1277  0.3816 -0.0996
 9056SOL    HW138630   4.101   0.920   2.270 -0.4220 -0.3394  0.2987
 9056SOL    HW238631   4.150   1.041   2.335  0.6917 -0.0547  1.3808
 9057SOL     OW38632   0.331   1.076   1.222 -0.0466 -0.3976 -0.3445
 9057SOL    HW138633   0.382   1.146   1.262  0.1645 -1.4171  1.1585
 9057SOL    HW238634   0.361   1.069   1.131  1.2398  3.2254 -0.2001
 9058SOL     OW38635   3.840   1.887   4.416 -0.0100  0.6453 -0.4823
 9058SOL    HW138636   3.925   1.910   4.380 -0.2560 -0.7287 -1.9236
 9058SOL    HW238637   3.778   1.945   4.373  0.7863  1.5291 -0.4224
 9059SOL     OW38638   3.243   0.362   5.297 -0.6378 -0.5353  0.6614
 9059SOL    HW138639   3.173   0.425   5.316  0.0328  0.9142 -1.6482
 9059SOL    HW238640   3.187   0.287   5.276 -2.1137  0.7250  0.1452
 9060SOL     OW38641   1.119   0.674   3.780 -0.1551  0.0751 -0.1406
 9060SOL    HW138642   1.033   0.644   3.808 -0.0618 -0.4055 -0.3685
 9060SOL    HW238643   1.103   0.761   3.744  1.0004  0.5044  0.3785
 9061SOL     OW38644   0.923   4.509  14.216 -0.7522 -0.1520  0.3150
 9061SOL    HW138645   1.014   4.531  14.196 -1.1830 -0.0825 -1.5656
 9061SOL    HW238646   0.880   4.593  14.201  2.1852  0.9856 -1.7193
 9062SOL     OW38647   3.466   1.274   8.903  0.1641  0.8896 -0.7472
 9062SOL    HW138648   3.473   1.200   8.963 -1.3358  0.9461 -0.4999
 9062SOL    HW238649   3.553   1.271   8.863  0.8308  1.5909  0.6556
 9063SOL     OW38650   4.327   0.411   2.320  0.0618 -0.2568 -0.3107
 9063SOL    HW138651   4.402   0.352   2.331  0.2343  0.2215  0.9935
 9063SOL    HW238652   4.288   0.405   2.407 -0.2754  0.0159 -0.4433
 9064SOL     OW38653   2.472   3.745  13.062  0.5181 -0.1173  0.0683
 9064SOL    HW138654   2.456   3.833  13.028  0.2771 -0.6839 -1.2525
 9064SOL    HW238655   2.394   3.701  13.027  0.0419  4.3216 -4.3982
 9065SOL     OW38656   2.334   1.579   6.611 -0.2892 -0.6591  0.0224
 9065SOL    HW138657   2.257   1.625   6.644  0.5305 -0.3671  1.5331
 9065SOL    HW238658   2.375   1.656   6.571 -0.3465 -0.7938 -0.2967
 9066SOL     OW38659   2.093   1.258  17.416  0.3090  0.3501 -0.2270
 9066SOL    HW138660   2.046   1.266  17.333 -3.6836 -0.0961  1.9696
 9066SOL    HW238661   2.166   1.318  17.403 -1.0070  2.3126  1.5749
 9067SOL     OW38662   1.393   4.615   7.820  0.2013 -0.2949 -0.3682
 9067SOL    HW138663   1.427   4.582   7.737  0.0496  0.3593 -0.6952
 9067SOL    HW238664   1.480   4.625   7.859 -0.0076  1.0277 -0.2418
 9068SOL     OW38665   1.915   4.500  13.592  0.3167 -0.1592  0.1853
 9068SOL    HW138666   1.980   4.565  13.567 -1.5173  1.2187 -1.0120
 9068SOL    HW238667   1.929   4.493  13.686  0.3900  1.3360  0.2843
 9069SOL     OW38668   1.241   0.483  15.116  0.3234 -0.5726 -0.2297
 9069SOL    HW138669   1.299   0.408  15.131  0.2561 -0.5725  0.0325
 9069SOL    HW238670   1.166   0.453  15.166 -0.8109  3.6444  0.5806
 9070SOL     OW38671   3.298   3.322   7.077 -0.0800  0.0914  0.1295
 9070SOL    HW138672   3.256   3.387   7.133  0.5376 -0.1247  0.8433
 9070SOL    HW238673   3.382   3.368   7.077 -0.3213  0.5319  0.1112
 9071SOL     OW38674   2.809   2.830  13.206  0.4586  0.3557  0.0085
 9071SOL    HW138675   2.829   2.920  13.230 -1.6539  0.9467 -0.4504
 9071SOL    HW238676   2.858   2.831  13.124 -0.4680 -0.4972 -0.5518
 9072SOL     OW38677   2.354   2.637   7.215 -0.4784  0.5880  0.0778
 9072SOL    HW138678   2.399   2.706   7.263  2.3616 -1.1976  0.0195
 9072SOL    HW238679   2.386   2.557   7.258 -1.8011 -0.6107 -1.1823
 9073SOL     OW38680   0.604   3.083  16.179 -0.4846 -0.4779 -0.0283
 9073SOL    HW138681   0.661   3.157  16.200 -1.4641  0.0630  0.7056
 9073SOL    HW238682   0.523   3.132  16.196 -0.0165  1.0331 -2.0157
 9074SOL     OW38683   3.697   4.146   7.346 -0.4196 -0.3166  0.0031
 9074SOL    HW138684   3.645   4.206   7.293 -1.2351 -0.1150  1.0438
 9074SOL    HW238685   3.743   4.208   7.403 -0.2672  0.2417 -0.7283
 9075SOL     OW38686   0.270   4.056   6.418 -0.3145 -0.0255  0.1030
 9075SOL    HW138687   0.347   4.101   6.454  0.2003 -0.3188 -0.6423
 9075SOL    HW238688   0.295   4.033   6.329 -3.5466 -0.4087 -0.6964
 9076SOL     OW38689   4.304   3.136  16.115  0.5593 -0.2028  0.0277
 9076SOL    HW138690   4.271   3.149  16.026  0.9907 -1.2960 -0.2886
 9076SOL    HW238691   4.395   3.107  16.106  1.2769  1.6336  1.3235
 9077SOL     OW38692   0.745   0.420   2.004  0.5798 -0.0594  0.5432
 9077SOL    HW138693   0.713   0.509   2.021 -2.3217 -0.5283 -2.4307
 9077SOL    HW238694   0.700   0.383   2.080 -2.1165 -0.0330 -1.0493
 9078SOL     OW38695   3.935   4.080  10.828 -0.3960  0.6488 -0.1747
 9078SOL    HW138696   3.854   4.128  10.808 -1.4342 -0.8381  0.4067
 9078SOL    HW238697   3.997   4.095  10.757 -0.2931  1.6670  0.1284
 9079SOL     OW38698   3.074   1.398   7.953 -0.0480  0.2579  0.0707
 9079SOL    HW138699   3.042   1.308   7.959 -3.2342  1.2902 -0.9069
 9079SOL    HW238700   2.997   1.448   7.982  1.3149  2.0685  0.5156
 9080SOL     OW38701   3.762   3.197   9.022 -0.0420 -0.3264 -0.1117
 9080SOL    HW138702   3.753   3.233   8.934  0.0989 -0.5434 -0.2134
 9080SOL    HW238703   3.810   3.116   9.006  3.9605  2.0193 -0.1796
 9081SOL     OW38704   0.939   3.083  12.173  0.0485  0.4627  0.2658
 9081SOL    HW138705   0.977   3.169  12.192  0.7989 -0.3520  2.4333
 9081SOL    HW238706   0.958   3.067  12.081  1.7729 -0.9294  0.8606
 9082SOL     OW38707   3.614   2.974   5.308  0.5341  0.4203 -0.1752
 9082SOL    HW138708   3.559   3.010   5.377 -2.0687 -0.6330 -1.6906
 9082SOL    HW238709   3.579   3.024   5.234 -0.7538 -0.6644 -0.3085
 9083SOL     OW38710   2.040   2.436   7.030 -0.0751 -0.0407 -0.1136
 9083SOL    HW138711   2.074   2.516   7.070  2.1362 -0.5229 -1.0750
 9083SOL    HW238712   2.092   2.368   7.073 -2.0114 -0.9121  0.8766
 9084SOL     OW38713   3.652   0.917   7.586 -0.2889 -0.1461 -0.6681
 9084SOL    HW138714   3.586   0.976   7.623 -0.2678  0.0598 -0.9571
 9084SOL    HW238715   3.662   0.860   7.662  0.4990 -1.5083 -1.7851
 9085SOL     OW38716   2.249   0.691   4.389 -0.0679 -0.1330 -0.2626
 9085SOL    HW138717   2.258   0.715   4.296 -2.1307  1.8629  0.0339
 9085SOL    HW238718   2.307   0.753   4.434  0.7018 -0.5894 -0.6344
 9086SOL     OW38719   0.561   0.783  12.572  0.1229  0.1978 -0.4165
 9086SOL    HW138720   0.561   0.692  12.543 -0.8560  0.3289 -0.8223
 9086SOL    HW238721   0.606   0.827  12.500  0.5886  0.1889 -0.1331
 9087SOL     OW38722   3.842   3.781   6.885  0.9685  0.7489 -0.5664
 9087SOL    HW138723   3.792   3.853   6.846 -0.7609 -2.2827 -4.0350
 9087SOL    HW238724   3.845   3.799   6.979  0.1638 -2.0633 -0.0078
 9088SOL     OW38725   4.012   4.108   3.289  0.0905 -0.1280  0.0740
 9088SOL    HW138726   3.929   4.112   3.336 -0.5187  0.7903 -1.0937
 9088SOL    HW238727   4.068   4.179   3.322 -1.2989  1.0723 -0.1416
 9089SOL     OW38728   3.839   0.998   3.147 -0.1469 -0.3921 -0.2449
 9089SOL    HW138729   3.764   1.017   3.091 -0.9066 -0.8591  0.5969
 9089SOL    HW238730   3.893   0.936   3.098 -0.3907 -0.9630  0.2048
 9090SOL     OW38731   3.373   2.692  12.663  0.3633  0.7602  0.2985
 9090SOL    HW138732   3.315   2.723  12.733  3.1251  1.1117  2.4406
 9090SOL    HW238733   3.342   2.602  12.666 -2.4386  1.7476  1.3754
 9091SOL     OW38734   3.683   0.257   2.246 -0.1119  0.3587  0.1916
 9091SOL    HW138735   3.609   0.204   2.276 -1.6473  0.8983 -2.6961
 9091SOL    HW238736   3.694   0.237   2.153  0.6753 -3.5884  1.1274
 9092SOL     OW38737   0.531   2.863   3.960  0.2932 -0.4112 -0.6070
 9092SOL    HW138738   0.543   2.919   3.883  0.2569  1.5255  0.8138
 9092SOL    HW238739   0.591   2.793   3.934  0.3564  0.6683 -3.3238
 9093SOL     OW38740   1.690   1.466   9.547 -0.2431  0.5627 -1.0934
 9093SOL    HW138741   1.631   1.391   9.540 -0.1066  0.4695 -1.2576
 9093SOL    HW238742   1.627   1.537   9.558  0.6553  1.6367 -2.8100
 9094SOL     OW38743   0.504   1.894   5.581  0.0153  0.1732 -0.1424
 9094SOL    HW138744   0.552   1.838   5.643  2.9902  1.2272 -1.4752
 9094SOL    HW238745   0.568   1.963   5.562  0.1923 -0.4310 -1.7780
 9095SOL     OW38746   1.125   0.171  10.153 -0.2763 -0.2634 -0.6644
 9095SOL    HW138747   1.034   0.200  10.148 -0.8099 -1.8383 -0.1733
 9095SOL    HW238748   1.170   0.256  10.153 -0.4098 -0.2053  1.1702
 9096SOL     OW38749   1.796   0.173  12.489 -0.1508  0.2373  0.2777
 9096SOL    HW138750   1.835   0.095  12.448 -2.3605 -1.3842  1.2912
 9096SOL    HW238751   1.815   0.239  12.423  0.8437  0.1731  0.4897
 9097SOL     OW38752   3.109   3.551   7.540  0.2250  0.1963  0.0277
 9097SOL    HW138753   3.098   3.471   7.489 -0.9196  1.5517 -1.8369
 9097SOL    HW238754   3.020   3.585   7.540  0.3615  0.5385 -0.4343
 9098SOL     OW38755   1.715   1.614   7.268  0.2327 -0.0014 -0.0189
 9098SOL    HW138756   1.677   1.537   7.227  1.6319 -0.0887 -1.1340
 9098SOL    HW238757   1.642   1.677   7.268 -1.4650 -1.9611 -0.2982
 9099SOL     OW38758   1.579   3.541   1.005 -0.5432 -0.1297 -0.4552
 9099SOL    HW138759   1.591   3.550   1.100 -1.5942  0.2475 -0.3622
 9099SOL    HW238760   1.488   3.566   0.991  0.0652  1.5985 -1.3769
 9100SOL     OW38761   2.842   1.323  14.683 -0.0095 -0.3610  0.3090
 9100SOL    HW138762   2.804   1.390  14.740 -0.1977  0.2797 -0.5647
 9100SOL    HW238763   2.916   1.294  14.735 -0.1922 -0.0745  0.7255
 9101SOL     OW38764   3.127   1.737   3.322 -0.5467 -0.0693 -0.5012
 9101SOL    HW138765   3.046   1.757   3.369 -0.5055  1.0262 -0.8906
 9101SOL    HW238766   3.090   1.663   3.275 -2.7399 -0.7139  2.2826
 9102SOL     OW38767   3.768   0.802   9.944 -0.1928 -0.2118 -0.1852
 9102SOL    HW138768   3.746   0.710   9.932 -2.0803  0.1453  0.5008
 9102SOL    HW238769   3.852   0.812   9.898 -0.2342 -0.5813 -0.3421
 9103SOL     OW38770   0.038   1.915  14.800 -0.6949  0.0482 -0.1778
 9103SOL    HW138771   0.116   1.960  14.833 -0.2160 -0.2542 -0.8921
 9103SOL    HW238772   0.065   1.829  14.766  2.0136  0.4752  0.8914
 9104SOL     OW38773   0.799   3.727   3.607  0.3956  0.0027 -0.2568
 9104SOL    HW138774   0.773   3.706   3.517  1.5167  0.5211 -0.7007
 9104SOL    HW238775   0.892   3.726   3.582  0.3759  1.3542 -0.3348
 9105SOL     OW38776   0.270   3.072   0.393  0.0888 -0.3810 -0.1974
 9105SOL    HW138777   0.216   3.107   0.322 -0.5161 -0.2510  0.3276
 9105SOL    HW238778   0.204   3.022   0.442  0.2685 -0.9517 -0.5340
 9106SOL     OW38779   0.969   4.390  17.089  0.0910 -0.0356 -0.0112
 9106SOL    HW138780   0.916   4.352  17.018 -1.4018 -1.7511  2.0334
 9106SOL    HW238781   0.989   4.308  17.135 -0.1856  0.7728  1.5366
 9107SOL     OW38782   2.616   0.176   6.617 -0.5127 -0.3135 -0.1228
 9107SOL    HW138783   2.566   0.202   6.539 -1.4506  0.7882  0.8533
 9107SOL    HW238784   2.653   0.093   6.587  2.5473  0.5654  1.2560
 9108SOL     OW38785   0.735   3.490   0.485 -0.4511 -0.0090 -0.0932
 9108SOL    HW138786   0.827   3.513   0.469 -0.7784  1.0787 -0.4198
 9108SOL    HW238787   0.709   3.540   0.563 -0.0800 -0.7263  0.4907
 9109SOL     OW38788   4.602   3.280   0.018  0.3126 -0.2599  0.0184
 9109SOL    HW138789   4.556   3.364   0.024 -0.6158 -0.6765 -1.3399
 9109SOL    HW238790   4.690   3.311  17.708  0.4434 -1.7041 -1.6617
 9110SOL     OW38791   1.458   3.244   0.755  0.0295  0.1890  0.2166
 9110SOL    HW138792   1.374   3.271   0.793 -1.6279 -1.0536 -2.5480
 9110SOL    HW238793   1.494   3.200   0.832 -1.3463 -0.9017  0.2400
 9111SOL     OW38794   4.148   1.266  17.278  0.6336 -0.3022  0.1392
 9111SOL    HW138795   4.110   1.350  17.253  0.5281  0.0024  1.3166
 9111SOL    HW238796   4.174   1.284  17.369 -1.7955  0.4607  0.6914
 9112SOL     OW38797   0.816   3.907   6.447  0.0990  1.0837  0.5248
 9112SOL    HW138798   0.855   3.943   6.367  0.3176  1.3422  0.7488
 9112SOL    HW238799   0.893   3.905   6.504 -0.6162 -2.8688  1.3843
 9113SOL     OW38800   4.471   2.619   7.468 -0.0743 -0.1741 -0.1699
 9113SOL    HW138801   4.422   2.657   7.540 -0.1548  0.5320 -0.6012
 9113SOL    HW238802   4.420   2.538   7.456  1.2007 -0.8053 -1.3745
 9114SOL     OW38803   4.563   4.509  14.783 -0.0885  0.0120  0.5736
 9114SOL    HW138804   4.602   4.444  14.725  0.5615  1.4183 -0.5435
 9114SOL    HW238805   4.490   4.542  14.731  0.4487 -1.2859 -0.9675
 9115SOL     OW38806   1.571   1.532   2.355 -0.1866 -0.6448  0.1727
 9115SOL    HW138807   1.565   1.457   2.296  0.9472 -1.0506  0.5676
 9115SOL    HW238808   1.487   1.575   2.338  1.1557  1.6825 -0.6024
 9116SOL     OW38809   4.232   3.529  15.495 -0.5175 -0.2767  0.2173
 9116SOL    HW138810   4.244   3.624  15.488  4.6966 -0.7286  3.4733
 9116SOL    HW238811   4.152   3.521  15.442 -1.0001 -0.9065  1.0527
 9117SOL     OW38812   1.958   1.249   0.026  0.5096  0.6091 -0.2663
 9117SOL    HW138813   1.938   1.155   0.027  2.1239  0.2812  0.9650
 9117SOL    HW238814   2.051   1.262   0.009  0.3825  3.2647  1.0886
 9118SOL     OW38815   2.258   0.720  15.317  0.6561 -0.0961  0.2811
 9118SOL    HW138816   2.165   0.737  15.331  0.6595  1.8268 -1.9844
 9118SOL    HW238817   2.270   0.763  15.232 -1.5403 -2.2329 -1.1202
 9119SOL     OW38818   1.486   0.360   7.840  0.9057  0.6804  0.0123
 9119SOL    HW138819   1.451   0.316   7.762 -1.3268  1.0352  0.7992
 9119SOL    HW238820   1.477   0.281   7.895 -0.3879  0.7551 -0.0859
 9120SOL     OW38821   0.746   0.498   1.747 -0.8228  0.1185  0.3476
 9120SOL    HW138822   0.765   0.406   1.726  0.9627  0.5497  0.0398
 9120SOL    HW238823   0.735   0.479   1.840  0.6570  0.4411  0.5895
 9121SOL     OW38824   3.582   2.971  13.001  0.1154 -0.4083 -0.0582
 9121SOL    HW138825   3.556   2.883  12.976 -1.8168  0.3394 -0.6444
 9121SOL    HW238826   3.562   2.972  13.094 -1.8996  0.8471 -0.5144
 9122SOL     OW38827   2.139   3.592   9.288  0.0289  0.2684 -0.2289
 9122SOL    HW138828   2.214   3.619   9.341  0.3494  0.8437 -0.9929
 9122SOL    HW238829   2.183   3.508   9.271 -4.2284 -1.8731 -0.7236
 9123SOL     OW38830   2.578   1.692   1.082 -0.7811 -0.0198  0.1713
 9123SOL    HW138831   2.487   1.709   1.106 -0.0165 -0.6020  3.4766
 9123SOL    HW238832   2.575   1.597   1.078  4.5428 -0.2891  2.9554
 9124SOL     OW38833   1.467   1.646   0.078  0.6236 -0.1110  0.1608
 9124SOL    HW138834   1.441   1.643   0.170 -0.5259 -0.3750 -0.1701
 9124SOL    HW238835   1.436   1.732   0.049 -1.8520 -1.1641 -0.3706
 9125SOL     OW38836   1.886   3.353  11.727 -0.9817  0.3552  0.0546
 9125SOL    HW138837   1.841   3.278  11.687 -2.8347  1.1434  0.6651
 9125SOL    HW238838   1.904   3.325  11.816 -0.5314 -0.3394 -0.2561
 9126SOL     OW38839   1.013   1.267   3.990  0.0673 -0.0820  0.2045
 9126SOL    HW138840   0.924   1.301   3.978 -0.6231 -2.0013 -0.0510
 9126SOL    HW238841   1.041   1.296   3.903  0.6848 -1.6380 -0.1026
 9127SOL     OW38842   1.330   0.395   5.751  0.4306 -0.1393  0.2320
 9127SOL    HW138843   1.295   0.351   5.829  1.4569 -0.8150  0.3100
 9127SOL    HW238844   1.423   0.395   5.776  0.4030 -0.7454  0.3435
 9128SOL     OW38845   2.710   2.267   1.401  0.1836  0.2144  0.0945
 9128SOL    HW138846   2.676   2.189   1.357  1.3636  0.2130 -0.8009
 9128SOL    HW238847   2.705   2.239   1.493 -0.8026 -2.6669 -0.8279
 9129SOL     OW38848   3.229   1.379  14.518  0.0772  0.6098  0.5624
 9129SOL    HW138849   3.264   1.304  14.565  0.4237 -0.3686 -1.2718
 9129SOL    HW238850   3.173   1.338  14.452 -0.3158 -0.0648  1.3139
 9130SOL     OW38851   3.665   0.910   8.917  0.2461 -0.4396  0.2739
 9130SOL    HW138852   3.757   0.912   8.891 -0.1495  2.3316 -0.9666
 9130SOL    HW238853   3.670   0.878   9.007 -0.3783 -0.3413  0.3376
 9131SOL     OW38854   0.059   2.294   7.549  0.3758  0.1103  0.1177
 9131SOL    HW138855   0.010   2.372   7.576  0.3316 -1.3086  4.2774
 9131SOL    HW238856   0.005   2.229   7.595  0.0762 -0.6794 -1.3530
 9132SOL     OW38857   2.453   1.657   0.189 -0.1576 -0.0925 -0.5260
 9132SOL    HW138858   2.548   1.657   0.197 -0.2858  1.1647  0.9791
 9132SOL    HW238859   2.437   1.739   0.143 -0.3166 -1.2184 -2.5012
 9133SOL     OW38860   0.710   1.973  11.194 -0.4045 -0.1708 -0.4711
 9133SOL    HW138861   0.805   1.969  11.186 -0.3569 -0.0286 -0.0040
 9133SOL    HW238862   0.684   1.886  11.226 -2.1305  0.7042  0.5308
 9134SOL     OW38863   1.028   2.649   9.986  0.1464 -0.1574 -0.3235
 9134SOL    HW138864   1.043   2.653   9.891 -0.1134  2.1047 -0.2495
 9134SOL    HW238865   0.938   2.618   9.995  0.5501 -0.4051  2.7861
 9135SOL     OW38866   0.882   1.276   7.556  0.1484 -0.6887  0.4947
 9135SOL    HW138867   0.796   1.290   7.594  0.2100  3.2965 -0.8042
 9135SOL    HW238868   0.935   1.270   7.636  0.5320 -0.3976  0.2657
 9136SOL     OW38869   3.561   1.475   0.283  0.1457  0.1030  0.0903
 9136SOL    HW138870   3.476   1.496   0.244 -0.3349  1.1207  1.6695
 9136SOL    HW238871   3.614   1.553   0.265  0.4561 -0.0086  0.5325
 9137SOL     OW38872   1.658   1.314   1.409  0.2981 -0.1110  0.0404
 9137SOL    HW138873   1.717   1.353   1.474  1.4299  1.8981 -2.1802
 9137SOL    HW238874   1.577   1.355   1.438  0.3523 -0.7289  1.0492
 9138SOL     OW38875   2.649   4.126   4.354  0.6975  0.0721 -0.2233
 9138SOL    HW138876   2.612   4.113   4.267 -1.2001 -0.4696  0.6581
 9138SOL    HW238877   2.722   4.171   4.312  1.5009 -1.2012 -0.1839
 9139SOL     OW38878   4.386   0.034   8.548  0.1148  0.4415  0.0061
 9139SOL    HW138879   4.385   0.130   8.554 -0.5303  0.4293  0.0343
 9139SOL    HW238880   4.396   0.028   8.453  0.0297  1.6625 -0.0869
 9140SOL     OW38881   0.464   4.505   4.617  0.0461 -0.3585  0.0754
 9140SOL    HW138882   0.500   4.594   4.605 -0.7016  0.0934  1.1873
 9140SOL    HW238883   0.422   4.485   4.533  1.8786 -0.9133 -0.7049
 9141SOL     OW38884   3.574   0.674   3.520 -0.1946  0.2693  0.0101
 9141SOL    HW138885   3.504   0.624   3.562  0.1697 -0.8396 -0.7032
 9141SOL    HW238886   3.531   0.753   3.488  1.3404 -0.0000 -2.7272
 9142SOL     OW38887   3.343   4.616   8.523 -0.4007 -0.1929  0.6952
 9142SOL    HW138888   3.300   4.531   8.525  1.3266 -1.0629  0.3058
 9142SOL    HW238889   3.370   4.624   8.432 -1.7624  2.5400  0.5151
 9143SOL     OW38890   2.872   4.679   3.548 -0.4696 -0.1977  0.0452
 9143SOL    HW138891   2.918   4.698   3.466 -0.7808  0.6938  0.0725
 9143SOL    HW238892   2.868   4.584   3.545 -0.1148 -0.1737 -1.3868
 9144SOL     OW38893   0.673   4.605  10.227 -0.1288 -0.5158 -0.3409
 9144SOL    HW138894   0.597   4.561  10.188 -0.7016 -0.9949  1.3137
 9144SOL    HW238895   0.624   4.653  10.293 -0.0294 -2.1817  0.9359
 9145SOL     OW38896   0.982   2.140  10.947 -0.0981  0.4462  1.0532
 9145SOL    HW138897   0.891   2.119  10.924 -0.2490  1.7440  0.4156
 9145SOL    HW238898   0.981   2.119  11.041 -1.1120  0.1955  0.9876
 9146SOL     OW38899   3.015   3.792   3.341  0.1271 -0.2072  0.2723
 9146SOL    HW138900   3.013   3.879   3.301  1.6120 -0.1263  0.3875
 9146SOL    HW238901   2.957   3.742   3.283 -0.8607 -0.5309  1.5460
 9147SOL     OW38902   1.338   4.578   2.120  0.1030  0.4452  0.1631
 9147SOL    HW138903   1.392   4.652   2.094  1.0647 -0.2573  0.1824
 9147SOL    HW238904   1.249   4.608   2.101  1.1737  1.2044 -3.5304
 9148SOL     OW38905   1.270   0.974   5.345  0.3175  0.0137  0.1939
 9148SOL    HW138906   1.265   0.891   5.299  2.0936  1.0689 -1.8888
 9148SOL    HW238907   1.312   1.025   5.275  0.3721  1.6990  1.4353
 9149SOL     OW38908   2.325   2.096  10.288  0.0455  0.6767 -0.3520
 9149SOL    HW138909   2.267   2.092  10.212 -0.7783 -1.4181  0.3707
 9149SOL    HW238910   2.355   2.186  10.276  0.7043  0.1619 -2.5838
 9150SOL     OW38911   2.647   2.866   5.573 -0.0380  0.5085  0.0900
 9150SOL    HW138912   2.672   2.958   5.564 -1.3840  0.9856  1.1291
 9150SOL    HW238913   2.596   2.872   5.654  2.5605 -2.4016  1.9535
 9151SOL     OW38914   2.349   1.665   6.012  0.1124 -0.4431 -0.0630
 9151SOL    HW138915   2.413   1.619   6.067 -1.8793 -2.2677  0.7151
 9151SOL    HW238916   2.412   1.732   5.986 -2.4241  1.9866 -0.0559
 9152SOL     OW38917   0.494   3.766   1.312  0.2712 -0.4746  0.5874
 9152SOL    HW138918   0.473   3.754   1.404  0.3106 -2.8779  0.2761
 9152SOL    HW238919   0.491   3.862   1.303  2.3421 -0.3689  1.0050
 9153SOL     OW38920   0.767   0.628   0.807  0.7885  0.7115  0.1257
 9153SOL    HW138921   0.810   0.608   0.724 -0.4040  2.6071 -0.9353
 9153SOL    HW238922   0.738   0.718   0.793 -2.4248 -0.4232 -0.7966
 9154SOL     OW38923   4.228   0.039   3.961  0.3301 -0.2431  0.2723
 9154SOL    HW138924   4.237   0.133   3.977  0.4666 -0.4235  1.2935
 9154SOL    HW238925   4.187   0.030   3.875 -0.2829 -1.7874  0.7344
 9155SOL     OW38926   3.259   1.844   1.181  0.6316  0.0154 -0.2367
 9155SOL    HW138927   3.190   1.803   1.233  1.5554  0.9463  1.7004
 9155SOL    HW238928   3.297   1.771   1.132 -0.7745 -0.3863 -0.7469
 9156SOL     OW38929   3.624   3.263  14.656  0.8463 -0.9708  1.0363
 9156SOL    HW138930   3.667   3.324  14.595 -1.8716 -0.0479  0.0451
 9156SOL    HW238931   3.533   3.282  14.636  0.7001  1.0637  3.7464
 9157SOL     OW38932   4.704   4.395  13.940  0.1885  0.1909 -0.1038
 9157SOL    HW138933   4.667   4.343  13.868 -0.6943 -2.5456  2.3147
 9157SOL    HW238934   0.039   4.453  13.896  1.6697 -1.9435 -0.8226
 9158SOL     OW38935   0.540   4.153   9.657  0.1944 -0.1271 -0.6453
 9158SOL    HW138936   0.627   4.116   9.670  0.4298  1.2643  1.7130
 9158SOL    HW238937   0.562   4.244   9.638  1.1908  0.0871  1.4998
 9159SOL     OW38938   3.060   1.855   0.149  0.1987 -0.0767 -0.6891
 9159SOL    HW138939   3.134   1.818   0.101 -0.0116 -0.8890 -0.3764
 9159SOL    HW238940   3.038   1.781   0.205  0.4994  0.2156 -0.1808
 9160SOL     OW38941   1.567   4.402   8.072 -0.2729  0.3756 -0.3072
 9160SOL    HW138942   1.527   4.478   8.115  0.3090 -0.1946  1.2629
 9160SOL    HW238943   1.494   4.340   8.064  0.8845 -1.1868  1.3147
 9161SOL     OW38944   0.766   4.567  11.373 -0.1180  0.4613 -0.2547
 9161SOL    HW138945   0.736   4.486  11.414  0.6617 -1.2549 -3.0694
 9161SOL    HW238946   0.841   4.547  11.316 -0.3399 -2.7358  0.5808
 9162SOL     OW38947   4.153   4.273  11.609 -0.0793 -0.1401 -0.0547
 9162SOL    HW138948   4.121   4.268  11.518 -0.9568 -0.4625  0.2697
 9162SOL    HW238949   4.067   4.275  11.650  0.1506  1.3161  0.3440
 9163SOL     OW38950   0.473   1.330   4.568  0.4632  0.1530 -0.2965
 9163SOL    HW138951   0.476   1.391   4.494 -3.7220 -0.1006 -0.6597
 9163SOL    HW238952   0.543   1.268   4.545  0.8176 -0.8669  3.6050
 9164SOL     OW38953   1.453   1.042  13.038  0.0871  0.0866 -0.2482
 9164SOL    HW138954   1.519   1.110  13.031  0.1348 -0.1425 -2.0294
 9164SOL    HW238955   1.488   0.963  13.080  0.4813 -0.1825 -1.0752
 9165SOL     OW38956   3.159   4.330   4.737 -0.2738 -0.5066  0.2382
 9165SOL    HW138957   3.132   4.239   4.735 -2.8088  0.1961  3.2424
 9165SOL    HW238958   3.253   4.313   4.735  0.3553  2.7876  0.6352
 9166SOL     OW38959   3.968   3.976   4.338  0.1211  0.1524 -0.2719
 9166SOL    HW138960   4.023   4.014   4.270 -2.1579 -0.7951 -2.6308
 9166SOL    HW238961   3.888   3.962   4.289  0.1342 -1.2350  0.0890
 9167SOL     OW38962   0.956   0.190   1.958 -0.1975 -0.1465  0.9548
 9167SOL    HW138963   0.913   0.110   1.927 -2.1661  1.5704 -0.7706
 9167SOL    HW238964   0.879   0.244   1.974  1.2281  1.5332  2.1024
 9168SOL     OW38965   0.827   3.101   3.114  0.0257 -0.4416 -0.0615
 9168SOL    HW138966   0.899   3.041   3.129 -1.1836 -1.9734 -0.3515
 9168SOL    HW238967   0.800   3.082   3.024 -1.8862  0.2617  0.3402
 9169SOL     OW38968   0.424   0.841   4.931 -0.4349  0.0807  0.0850
 9169SOL    HW138969   0.506   0.791   4.937  0.8498  1.9483 -2.2717
 9169SOL    HW238970   0.409   0.826   4.838  0.4657  1.6939 -0.3036
 9170SOL     OW38971   0.121   3.176   4.406 -0.2405  0.4066  0.1438
 9170SOL    HW138972   0.056   3.210   4.344 -0.2174 -0.0492 -0.1338
 9170SOL    HW238973   0.170   3.115   4.351  1.0245  0.9546  0.6764
 9171SOL     OW38974   0.641   3.017   7.944  0.4016 -0.5195  0.0719
 9171SOL    HW138975   0.614   3.043   7.856  0.8939  0.0823  0.0943
 9171SOL    HW238976   0.557   2.987   7.979  1.3487 -1.3409  1.6656
 9172SOL     OW38977   2.204   3.282  14.117 -0.0572 -0.2607 -0.1737
 9172SOL    HW138978   2.261   3.331  14.057 -2.2947  1.3520 -0.9846
 9172SOL    HW238979   2.150   3.352  14.153  1.0880 -0.1968  1.4314
 9173SOL     OW38980   1.876   3.116   0.557  0.2173 -0.1148 -0.0906
 9173SOL    HW138981   1.784   3.111   0.529  0.3587  1.0075 -0.7243
 9173SOL    HW238982   1.857   3.138   0.648 -1.5709 -0.8215 -0.2813
 9174SOL     OW38983   2.151   3.744   8.120  1.0873 -0.4791 -0.3734
 9174SOL    HW138984   2.126   3.734   8.028  1.4724  0.7309 -0.6090
 9174SOL    HW238985   2.125   3.833   8.142 -1.5248 -0.7863 -2.2307
 9175SOL     OW38986   3.012   2.326   8.301  0.5027  0.4162 -0.9337
 9175SOL    HW138987   3.105   2.343   8.292  1.6479 -5.0912  0.3164
 9175SOL    HW238988   2.979   2.392   8.241  1.3216  0.1831 -1.6433
 9176SOL     OW38989   1.422   4.668   4.527 -0.0461 -0.0306  0.3442
 9176SOL    HW138990   1.358   4.717   4.578 -0.0618  0.2327  0.0737
 9176SOL    HW238991   1.359   4.600   4.502  0.6042 -1.2518  2.0595
 9177SOL     OW38992   1.388   1.438   4.073 -0.2175  0.0584  0.0951
 9177SOL    HW138993   1.343   1.464   4.153 -1.0476 -0.1566 -0.3012
 9177SOL    HW238994   1.477   1.439   4.107 -0.2182  0.3892  0.0866
 9178SOL     OW38995   2.902   1.576   2.168  0.1167  0.1953  0.3553
 9178SOL    HW138996   2.943   1.537   2.091  1.0840 -0.1118  1.0258
 9178SOL    HW238997   2.988   1.570   2.209 -0.0239  1.2520  0.8165
 9179SOL     OW38998   2.956   0.590   2.302  0.2881 -0.1819 -1.0396
 9179SOL    HW138999   2.876   0.562   2.346 -0.6606 -0.5530 -2.9997
 9179SOL    HW239000   3.027   0.570   2.363 -0.5062  1.6451  0.4966
 9180SOL     OW39001   0.035   2.567  13.939  0.7650  0.3163 -0.0659
 9180SOL    HW139002   0.032   2.538  13.847 -1.8506 -0.4691  0.2585
 9180SOL    HW239003   0.075   2.494  13.985  1.0818 -2.1384 -4.1632
 9181SOL     OW39004   0.546   1.223   5.612 -0.3323 -0.2233  0.0736
 9181SOL    HW139005   0.511   1.312   5.600 -0.2816 -0.2014  0.0881
 9181SOL    HW239006   0.627   1.245   5.658 -1.2378 -0.0409  1.5706
 9182SOL     OW39007   3.213   4.636   2.447 -0.0004  0.4785 -0.0541
 9182SOL    HW139008   3.208   4.589   2.364 -1.0553  1.0791 -0.3257
 9182SOL    HW239009   3.163   4.714   2.423 -1.9027 -0.9945 -0.8063
 9183SOL     OW39010   4.323   3.561   8.715 -0.2559 -0.0637 -0.6607
 9183SOL    HW139011   4.331   3.656   8.728  2.5714 -0.1382 -1.7631
 9183SOL    HW239012   4.375   3.519   8.783 -1.7900  2.2588  1.9546
 9184SOL     OW39013   2.351   2.451   4.020  0.2041 -0.3304  0.2132
 9184SOL    HW139014   2.415   2.438   4.089  0.2720  2.7990  0.7721
 9184SOL    HW239015   2.327   2.542   4.037 -3.5670 -1.6193  1.6853
 9185SOL     OW39016   0.894   1.096   3.662 -0.2315  0.4167 -0.0278
 9185SOL    HW139017   0.841   1.042   3.604 -0.3358 -0.0200  0.4738
 9185SOL    HW239018   0.860   1.180   3.633  1.5245  1.3684  0.6252
 9186SOL     OW39019   2.930   1.946   6.654  0.5658  0.0409 -0.2456
 9186SOL    HW139020   2.899   1.861   6.622  0.9427 -0.0722 -0.3114
 9186SOL    HW239021   2.954   1.978   6.567  0.9509 -0.0361 -0.1684
 9187SOL     OW39022   3.058   3.968   7.399 -0.6434 -0.5237 -0.0500
 9187SOL    HW139023   3.139   4.016   7.416 -1.0589  0.3052 -0.3928
 9187SOL    HW239024   3.045   3.930   7.485  2.4519 -0.6915  0.3726
 9188SOL     OW39025   3.727   0.340   9.403  0.0101  0.7859  0.2794
 9188SOL    HW139026   3.752   0.329   9.495  1.8018 -2.2003 -0.5552
 9188SOL    HW239027   3.656   0.404   9.407 -0.8834 -0.2468  1.1169
 9189SOL     OW39028   4.556   3.349   6.143 -0.4069 -0.4299 -0.0411
 9189SOL    HW139029   4.543   3.334   6.237  0.2474 -1.2106 -0.0697
 9189SOL    HW239030   4.651   3.337   6.140 -0.6423 -2.5365  0.5209
 9190SOL     OW39031   0.456   3.436   8.404  0.3636 -0.3696 -0.0878
 9190SOL    HW139032   0.433   3.386   8.482 -3.2833 -0.0415 -0.9759
 9190SOL    HW239033   0.435   3.526   8.428 -0.9391 -0.3916 -1.1284
 9191SOL     OW39034   1.011   1.348   4.338  0.2357  0.4019  0.0686
 9191SOL    HW139035   0.947   1.416   4.361 -0.9300 -1.0931  1.2881
 9191SOL    HW239036   1.056   1.391   4.266  2.4135 -2.2909 -0.1651
 9192SOL     OW39037   2.571   2.621   9.852 -0.2534  0.6664  0.1979
 9192SOL    HW139038   2.538   2.550   9.906  0.3103  1.0199  1.0149
 9192SOL    HW239039   2.544   2.594   9.765 -0.2132  0.8582  0.1249
 9193SOL     OW39040   0.811   1.923   5.780 -0.1487 -0.2465  0.5559
 9193SOL    HW139041   0.774   1.900   5.694  0.7590 -0.4810  0.2245
 9193SOL    HW239042   0.863   1.847   5.805 -0.9459 -0.6521  0.9582
 9194SOL     OW39043   2.010   4.087   0.007 -0.1118  0.6476 -0.1578
 9194SOL    HW139044   2.065   4.048   0.075 -1.7687 -1.0060  0.2533
 9194SOL    HW239045   2.035   4.042  17.637 -1.2763 -1.7166  0.8180
 9195SOL     OW39046   3.718   2.383   8.701  0.0612  0.7104  0.6044
 9195SOL    HW139047   3.800   2.430   8.715  0.3233  1.2011 -2.6728
 9195SOL    HW239048   3.738   2.299   8.743  0.4357  0.0407 -0.9155
 9196SOL     OW39049   3.208   1.699  17.316 -0.0330  0.2031 -0.6202
 9196SOL    HW139050   3.185   1.740  17.400 -0.1074 -2.3439  0.6053
 9196SOL    HW239051   3.157   1.755  17.257  1.5149 -0.4846 -2.5844
 9197SOL     OW39052   3.190   0.118   9.314  0.3849  0.4481  0.3290
 9197SOL    HW139053   3.161   0.182   9.378 -0.7410  0.0170  0.2500
 9197SOL    HW239054   3.280   0.121   9.347  0.1981  1.4506  0.7275
 9198SOL     OW39055   2.270   2.698  14.328 -0.0871  0.0863 -0.8593
 9198SOL    HW139056   2.218   2.665  14.401 -0.7354 -0.2557 -1.4839
 9198SOL    HW239057   2.338   2.630  14.321 -1.1657 -0.9854 -0.9059
 9199SOL     OW39058   3.123   1.321   5.344 -0.2367  0.6018 -0.3899
 9199SOL    HW139059   3.151   1.230   5.332 -1.5986  0.0014  1.1639
 9199SOL    HW239060   3.192   1.368   5.295 -0.7715 -0.5247 -2.2479
 9200SOL     OW39061   4.612   4.130   0.099 -0.7253  0.1253 -0.1907
 9200SOL    HW139062   4.657   4.091   0.173  0.8333  0.1380 -1.1370
 9200SOL    HW239063   4.663   4.209   0.079 -0.1945 -0.0943  0.3161
 9201SOL     OW39064   1.582   3.528  15.997 -0.0602 -0.0445  0.1848
 9201SOL    HW139065   1.566   3.566  16.084 -0.3718 -3.7283  1.7371
 9201SOL    HW239066   1.587   3.608  15.944  1.2746  0.2141  0.6941
 9202SOL     OW39067   0.811   3.189   3.925  0.0744 -0.1595 -0.4558
 9202SOL    HW139068   0.879   3.185   3.992  1.2346 -0.3734 -1.6479
 9202SOL    HW239069   0.813   3.283   3.905 -2.3688  0.1405  0.7150
 9203SOL     OW39070   0.629   0.487   0.061  0.3286 -0.1978 -0.4498
 9203SOL    HW139071   0.685   0.496   0.138 -0.8388  0.0141  0.3619
 9203SOL    HW239072   0.697   0.442   0.010  1.5786 -2.5524  3.2399
 9204SOL     OW39073   3.116   0.239   7.483  0.4766 -0.3002 -0.6223
 9204SOL    HW139074   3.100   0.297   7.409  2.1706 -0.1656 -0.8698
 9204SOL    HW239075   3.205   0.262   7.506  0.1102 -0.9443  1.4462
 9205SOL     OW39076   4.571   3.828  16.557 -0.6348  0.2036 -0.4019
 9205SOL    HW139077   4.476   3.837  16.555 -0.6223  0.0764 -1.6701
 9205SOL    HW239078   4.594   3.860  16.644  0.6971 -1.2423 -0.2042
 9206SOL     OW39079   1.007   4.659   1.165 -0.2317 -0.0954 -0.1474
 9206SOL    HW139080   0.993   4.725   1.096 -1.4342 -0.8092 -0.5857
 9206SOL    HW239081   1.058   4.593   1.118  0.3915 -0.3530  0.9079
 9207SOL     OW39082   1.099   4.346   8.443 -0.1514  0.0181  0.4103
 9207SOL    HW139083   1.080   4.269   8.391 -1.0132 -1.4317  2.8690
 9207SOL    HW239084   1.015   4.353   8.488 -0.1338 -0.2951  0.4907
 9208SOL     OW39085   1.308   3.033   5.738  0.2637 -0.1858  0.1122
 9208SOL    HW139086   1.308   3.115   5.688  0.2938 -0.4652 -0.3518
 9208SOL    HW239087   1.397   3.027   5.773  0.1032  0.2897  0.6106
 9209SOL     OW39088   4.102   1.560   6.444 -0.2418  0.6239  0.5424
 9209SOL    HW139089   4.081   1.652   6.429  1.0124  1.1461  1.9479
 9209SOL    HW239090   4.192   1.579   6.469 -0.3086  1.0094  0.4785
 9210SOL     OW39091   1.855   0.500   9.125  0.8583 -0.7640  0.3956
 9210SOL    HW139092   1.935   0.513   9.074  2.0271 -0.6168  2.2514
 9210SOL    HW239093   1.892   0.460   9.203  0.7830  2.6630  2.1563
 9211SOL     OW39094   4.342   3.120   4.435  0.0235 -0.2921  0.4682
 9211SOL    HW139095   4.262   3.098   4.387 -0.8519 -1.5845  2.4950
 9211SOL    HW239096   4.403   3.050   4.413  0.6844 -0.2230  2.1100
 9212SOL     OW39097   2.645   3.056   8.213  0.3446  0.6137 -0.2798
 9212SOL    HW139098   2.572   3.118   8.217  1.9466  2.6362 -2.2578
 9212SOL    HW239099   2.710   3.125   8.222  0.9327  0.2285 -1.6150
 9213SOL     OW39100   2.002   3.695  12.348  0.0324  0.6143  0.1176
 9213SOL    HW139101   1.977   3.771  12.296  1.4992  1.8178  1.1778
 9213SOL    HW239102   1.920   3.673  12.392  1.4640  0.6004  2.7734
 9214SOL     OW39103   0.648   2.083   9.516 -0.0606 -0.1802 -0.1331
 9214SOL    HW139104   0.639   2.173   9.546 -2.5447  0.2637 -2.2281
 9214SOL    HW239105   0.730   2.083   9.467  0.2303  1.5945  0.3680
 9215SOL     OW39106   3.876   0.885   6.582 -0.3609  0.5238 -0.2370
 9215SOL    HW139107   3.901   0.965   6.536 -2.5399  1.1240 -0.3990
 9215SOL    HW239108   3.942   0.821   6.557  1.6540  2.8689 -0.9197
 9216SOL     OW39109   0.127   1.940   5.194  0.1936 -0.1869  0.3969
 9216SOL    HW139110   0.145   1.892   5.275  3.5154 -0.8041 -0.7244
 9216SOL    HW239111   0.103   2.024   5.232 -0.8541  0.2312 -1.2014
 9217SOL     OW39112   1.885   3.397   2.278  0.0321 -0.0331  0.2173
 9217SOL    HW139113   1.933   3.475   2.249 -0.7519  0.2663 -0.2872
 9217SOL    HW239114   1.934   3.356   2.348 -0.6115 -0.5439  0.3677
 9218SOL     OW39115   2.679   2.926   8.727 -0.7185 -0.0049  0.3692
 9218SOL    HW139116   2.708   2.999   8.782 -4.0012  1.2437  0.4553
 9218SOL    HW239117   2.600   2.888   8.766 -1.5609  1.7101  0.3646
 9219SOL     OW39118   4.719   3.380   8.143  0.0758  0.6819 -0.3872
 9219SOL    HW139119   4.684   3.466   8.119  0.0785  1.0619  0.9320
 9219SOL    HW239120   0.014   3.386   8.236 -0.0533 -0.4161 -0.2854
 9220SOL     OW39121   4.150   0.177   7.004 -0.1263 -0.1511  0.1402
 9220SOL    HW139122   4.118   0.239   7.069 -2.1465  0.2603 -1.2595
 9220SOL    HW239123   4.231   0.218   6.974 -0.9400  0.2135 -1.5558
 9221SOL     OW39124   2.098   2.152  17.255 -0.1101 -0.8570 -0.3943
 9221SOL    HW139125   2.062   2.145  17.343  1.3145  1.0792  0.3522
 9221SOL    HW239126   2.180   2.199  17.270 -0.6205 -0.7642  2.1326
 9222SOL     OW39127   1.010   3.665   7.513 -0.4686  0.5210 -0.0959
 9222SOL    HW139128   0.936   3.683   7.455 -0.6562  0.7081  0.2016
 9222SOL    HW239129   0.964   3.606   7.573  2.2310 -1.1230  0.3553
 9223SOL     OW39130   0.988   3.968   5.759  0.5173 -0.4740  0.4615
 9223SOL    HW139131   0.992   3.960   5.664 -3.0361 -1.9010  0.4236
 9223SOL    HW239132   0.991   4.063   5.769  1.7076 -0.4535 -0.1266
 9224SOL     OW39133   3.072   4.563   2.925 -0.4891 -0.0072 -0.2406
 9224SOL    HW139134   3.100   4.489   2.870 -2.1232  0.4188 -1.6557
 9224SOL    HW239135   3.143   4.624   2.909  0.4446 -1.7444 -2.7859
 9225SOL     OW39136   3.607   2.772   6.674 -0.4872 -0.1911 -0.2018
 9225SOL    HW139137   3.681   2.813   6.631  0.2303 -0.6912  0.5498
 9225SOL    HW239138   3.550   2.849   6.675  0.6800  0.6659 -1.2882
 9226SOL     OW39139   0.433   4.488  10.762 -0.2218 -0.2728  0.9588
 9226SOL    HW139140   0.430   4.561  10.823  3.0430 -0.0137  0.7998
 9226SOL    HW239141   0.500   4.529  10.707 -1.8566  0.9642 -0.1146
 9227SOL     OW39142   3.500   1.273   2.455 -0.2210  0.2421 -0.1966
 9227SOL    HW139143   3.430   1.338   2.453  0.0750  0.6172  1.3874
 9227SOL    HW239144   3.457   1.204   2.506  2.0288 -2.8520 -2.4787
 9228SOL     OW39145   4.275   3.092  14.941 -0.1880  0.0587 -0.6639
 9228SOL    HW139146   4.294   3.126  15.029 -0.1405 -1.1878 -0.1906
 9228SOL    HW239147   4.248   3.004  14.969  3.5408 -1.3777 -1.6105
 9229SOL     OW39148   1.820   3.678   4.315  0.3538  0.2937  0.1388
 9229SOL    HW139149   1.838   3.609   4.379 -2.2937 -0.6937 -0.1623
 9229SOL    HW239150   1.730   3.666   4.285  0.5631  2.2853 -1.2868
 9230SOL     OW39151   3.424   4.491   3.113  0.2006 -0.2363 -1.0263
 9230SOL    HW139152   3.503   4.464   3.159 -0.3520 -1.0991 -0.5613
 9230SOL    HW239153   3.393   4.404   3.087  1.6052 -0.8288 -0.6841
 9231SOL     OW39154   2.500   4.210  10.017 -0.0840 -0.5869 -0.1134
 9231SOL    HW139155   2.585   4.166  10.014 -0.1856 -0.8100  0.2467
 9231SOL    HW239156   2.447   4.140   9.979 -2.1261  1.3408 -0.7861
 9232SOL     OW39157   3.657   1.959   2.400  0.5943 -0.2782 -0.2909
 9232SOL    HW139158   3.590   1.903   2.360 -0.5132  0.3041  0.7591
 9232SOL    HW239159   3.722   1.963   2.330  1.0735 -0.7156  0.1263
 9233SOL     OW39160   4.073   4.313  14.139 -0.2309 -0.5622  0.4674
 9233SOL    HW139161   4.003   4.327  14.202  0.0943  1.7973  0.2922
 9233SOL    HW239162   4.019   4.291  14.064  1.4095 -2.4025 -0.1818
 9234SOL     OW39163   2.190   4.135  15.453 -0.3668  0.3149  0.1911
 9234SOL    HW139164   2.205   4.059  15.509  1.1222 -0.1193 -0.7840
 9234SOL    HW239165   2.101   4.130  15.418 -1.3459  0.3197  2.7104
 9235SOL     OW39166   3.119   2.456   3.410 -0.6838  0.0701  0.1008
 9235SOL    HW139167   3.043   2.422   3.363 -1.7827 -0.9140  2.5928
 9235SOL    HW239168   3.093   2.548   3.417 -2.5664 -0.4393 -0.3365
 9236SOL     OW39169   1.473   3.981  13.911  0.6565  0.0000  0.0462
 9236SOL    HW139170   1.518   4.037  13.848 -1.4917  1.5423 -0.1230
 9236SOL    HW239171   1.452   4.043  13.981  0.8269 -0.1055  0.1905
 9237SOL     OW39172   0.386   2.337   7.285  0.0513  0.7651 -0.4246
 9237SOL    HW139173   0.421   2.369   7.202 -0.6995  0.4700 -0.8582
 9237SOL    HW239174   0.410   2.244   7.292  0.0639  0.8973  1.1813
 9238SOL     OW39175   2.695   0.655   5.425  0.3089  0.0601 -0.4276
 9238SOL    HW139176   2.601   0.650   5.441  0.5449  1.9366  1.6294
 9238SOL    HW239177   2.720   0.587   5.362 -1.2228 -0.0617 -0.8929
 9239SOL     OW39178   3.018   1.214   2.625  0.2727 -0.0930  0.0304
 9239SOL    HW139179   3.061   1.268   2.692  0.5759  0.0253 -0.2565
 9239SOL    HW239180   2.965   1.272   2.571  0.7089  0.5770  0.3231
 9240SOL     OW39181   0.991   1.595  12.142  0.3965  0.1102  0.6423
 9240SOL    HW139182   1.020   1.676  12.100 -3.0945  0.2628 -1.5135
 9240SOL    HW239183   1.014   1.530  12.075  1.8405  1.0333  0.2392
 9241SOL     OW39184   2.035   2.139   6.187  0.0827  0.1568  0.3692
 9241SOL    HW139185   2.051   2.230   6.215  2.8459 -0.3476  0.4560
 9241SOL    HW239186   1.941   2.138   6.171 -0.2481  0.1913  2.4244
 9242SOL     OW39187   1.419   4.154  13.112 -0.7242  0.3024  0.0545
 9242SOL    HW139188   1.501   4.133  13.067  1.2858  1.8348  2.9735
 9242SOL    HW239189   1.445   4.162  13.204 -2.4054  3.0284  0.2853
 9243SOL     OW39190   0.285   1.977   1.040  0.5495  0.6143 -0.2168
 9243SOL    HW139191   0.333   2.048   0.997 -0.6024  1.1808 -0.5901
 9243SOL    HW239192   0.199   1.994   1.000 -0.0617 -0.5940  0.5803
 9244SOL     OW39193   4.087   0.228  14.292 -0.3426 -0.3121  0.1587
 9244SOL    HW139194   4.152   0.259  14.229  0.2529 -1.3713  0.2500
 9244SOL    HW239195   4.143   0.160  14.328  1.2041  0.3489 -0.9898
 9245SOL     OW39196   1.426   3.984   5.970 -1.1202  0.4695 -0.2763
 9245SOL    HW139197   1.450   3.920   6.037  1.2292  0.0593 -1.5185
 9245SOL    HW239198   1.378   3.930   5.907 -1.6090  0.4206  0.1316
 9246SOL     OW39199   2.943   2.644   5.251  0.1330  0.3948  0.3413
 9246SOL    HW139200   2.905   2.717   5.203 -0.1389  0.0128 -0.0200
 9246SOL    HW239201   3.036   2.659   5.263  0.6824 -3.3597  1.0446
 9247SOL     OW39202   2.256   1.793  16.555 -0.1175  0.7483 -0.0714
 9247SOL    HW139203   2.215   1.875  16.529 -0.2913 -0.0292 -2.2367
 9247SOL    HW239204   2.347   1.822  16.553  0.2615 -0.3516  1.2095
 9248SOL     OW39205   0.301   3.903   3.922 -0.1422 -0.7742 -0.6119
 9248SOL    HW139206   0.308   3.924   3.829 -1.9085  1.9512 -0.1106
 9248SOL    HW239207   0.227   3.961   3.942  0.8164  0.0865  0.4582
 9249SOL     OW39208   3.415   4.632   8.261  0.0468 -0.5724 -0.0446
 9249SOL    HW139209   3.507   4.621   8.286 -0.4266 -1.1086  1.4568
 9249SOL    HW239210   3.416   4.702   8.195  0.7557 -2.1774 -1.7245
 9250SOL     OW39211   4.542   0.836  10.333 -0.8589  0.3088 -0.5823
 9250SOL    HW139212   4.615   0.792  10.288 -1.8418 -2.4838  0.5663
 9250SOL    HW239213   4.472   0.775  10.357 -2.8137  2.8053  0.0867
 9251SOL     OW39214   4.322   3.219   8.158 -0.0432 -0.5045  0.1797
 9251SOL    HW139215   4.345   3.166   8.082 -1.6868 -0.2230 -0.5266
 9251SOL    HW239216   4.377   3.190   8.230 -3.0897  0.5100  2.9560
 9252SOL     OW39217   2.209   0.002  16.764  0.3792  0.2132 -0.5347
 9252SOL    HW139218   2.197   4.723  16.859 -0.0159 -1.2088 -0.6803
 9252SOL    HW239219   2.126   4.691  16.735  0.0423  0.7483 -0.2724
 9253SOL     OW39220   3.108   0.642  13.022  0.1647 -0.6466  0.1371
 9253SOL    HW139221   3.084   0.661  12.932 -1.6362  1.8734  1.1489
 9253SOL    HW239222   3.194   0.684  13.028  1.1405 -2.6961  0.5333
 9254SOL     OW39223   1.779   4.605   3.874 -0.6286 -0.4974 -0.3573
 9254SOL    HW139224   1.754   4.524   3.919  2.7678 -0.7313  1.1387
 9254SOL    HW239225   1.795   4.668   3.945 -0.1147 -1.1740  0.1323
 9255SOL     OW39226   2.386   0.911   1.257  0.1281 -0.6204  0.6143
 9255SOL    HW139227   2.460   0.964   1.228  0.2667 -1.7346 -1.0551
 9255SOL    HW239228   2.311   0.956   1.218  2.2891  0.5503 -2.1439
 9256SOL     OW39229   2.059   4.599   2.931 -0.7400  0.1738 -0.0115
 9256SOL    HW139230   2.040   4.645   2.848 -0.6260 -3.0921 -1.8490
 9256SOL    HW239231   2.093   4.518   2.893 -1.6364 -0.0404 -0.3659
 9257SOL     OW39232   3.538   3.907   5.121  0.2589 -0.2516 -0.1157
 9257SOL    HW139233   3.531   3.828   5.068  1.4684 -1.0262  0.8917
 9257SOL    HW239234   3.478   3.961   5.069  0.7139 -0.8550 -1.2728
 9258SOL     OW39235   2.626   1.899   8.962 -0.3019  0.2903 -0.1024
 9258SOL    HW139236   2.608   1.805   8.961  2.0546 -0.1476 -0.6235
 9258SOL    HW239237   2.721   1.895   8.973 -0.5521  0.4163  2.1132
 9259SOL     OW39238   4.299   0.307   2.569 -0.2734 -0.3000  0.7581
 9259SOL    HW139239   4.249   0.328   2.648 -0.2258  0.6051  0.5524
 9259SOL    HW239240   4.360   0.242   2.605 -2.8990 -2.6643  0.9028
 9260SOL     OW39241   0.146   3.710   6.344  0.2039 -0.4130  0.7611
 9260SOL    HW139242   0.113   3.660   6.270 -1.3493  1.7807 -0.0534
 9260SOL    HW239243   0.081   3.780   6.346 -1.2818 -1.7866  0.9342
 9261SOL     OW39244   3.280   3.502   3.810 -0.5653 -0.3192 -0.4129
 9261SOL    HW139245   3.270   3.435   3.878  0.8270  1.3844  1.4610
 9261SOL    HW239246   3.195   3.537   3.782 -0.3069 -0.5275 -1.4536
 9262SOL     OW39247   3.818   1.856  11.224 -0.1655 -0.6802  0.4431
 9262SOL    HW139248   3.793   1.877  11.134 -0.4325  1.8972  1.1259
 9262SOL    HW239249   3.881   1.785  11.208  1.1827  1.1579 -2.3972
 9263SOL     OW39250   2.068   0.672   5.008  0.7079 -0.2280  0.4277
 9263SOL    HW139251   2.080   0.620   4.928  0.9737 -0.0148  0.3243
 9263SOL    HW239252   2.111   0.753   4.980  0.9448  0.0583  1.6338
 9264SOL     OW39253   0.344   0.507   6.104  0.1784 -0.4446 -0.1240
 9264SOL    HW139254   0.421   0.542   6.148  0.0411 -3.7387  2.7305
 9264SOL    HW239255   0.291   0.468   6.174  0.8434  2.4823  1.9785
 9265SOL     OW39256   3.969   0.759   3.910 -0.4843  0.2209 -0.1476
 9265SOL    HW139257   4.021   0.795   3.982 -0.7795 -0.0359  0.1946
 9265SOL    HW239258   3.926   0.838   3.877 -3.7855 -1.4586  0.0834
 9266SOL     OW39259   1.452   1.102   3.283  0.3499 -0.6738 -0.4107
 9266SOL    HW139260   1.473   1.057   3.365  1.7523  0.9945  0.1330
 9266SOL    HW239261   1.429   1.029   3.226 -0.2843  0.0588 -1.0799
 9267SOL     OW39262   2.508   2.194  13.271 -0.0033  0.8000  0.4607
 9267SOL    HW139263   2.597   2.225  13.261 -0.5412  1.4907 -2.2105
 9267SOL    HW239264   2.463   2.278  13.283 -0.9386  0.4872 -0.8267
 9268SOL     OW39265   4.105   0.068   4.209  0.6021  0.0100  0.6978
 9268SOL    HW139266   4.131   0.028   4.126  1.6028 -0.8075  1.3886
 9268SOL    HW239267   4.015   0.037   4.213  1.1793 -1.8032 -0.1313
 9269SOL     OW39268   0.387   2.800  16.161 -0.6643  0.1685 -0.3386
 9269SOL    HW139269   0.312   2.801  16.101  0.6005  2.6062 -1.8779
 9269SOL    HW239270   0.368   2.868  16.226 -2.4089  0.3641 -1.0625
 9270SOL     OW39271   0.486   3.745  12.087 -0.6180 -0.6860  0.2189
 9270SOL    HW139272   0.517   3.835  12.099 -0.9947 -0.3801 -1.1534
 9270SOL    HW239273   0.475   3.740  11.992  1.4364 -2.1680  0.0688
 9271SOL     OW39274   1.826   3.463   2.831  0.5321 -0.0668  0.2094
 9271SOL    HW139275   1.763   3.422   2.771  2.2576 -0.4401 -1.3556
 9271SOL    HW239276   1.827   3.407   2.908 -0.7743 -0.8518 -0.3439
 9272SOL     OW39277   2.381   0.987   6.511 -0.0877 -0.9537  0.0935
 9272SOL    HW139278   2.389   1.007   6.604 -1.9103  1.3426 -0.2415
 9272SOL    HW239279   2.287   0.972   6.505 -0.1349 -1.2170  1.4568
 9273SOL     OW39280   3.558   1.325   3.223 -0.2521 -0.5073 -0.0868
 9273SOL    HW139281   3.485   1.274   3.188 -1.3431  0.7974  0.2792
 9273SOL    HW239282   3.596   1.360   3.142 -2.5908  0.2890 -0.8463
 9274SOL     OW39283   3.220   4.541   5.627  0.2441  0.2311  0.6544
 9274SOL    HW139284   3.212   4.488   5.548  1.7610  1.5507 -0.3936
 9274SOL    HW239285   3.142   4.596   5.622  0.2339  0.2294  0.7857
 9275SOL     OW39286   4.078   2.634  11.832 -0.1676  0.1560  0.0662
 9275SOL    HW139287   4.045   2.662  11.917 -1.4243  0.1997 -0.4316
 9275SOL    HW239288   4.073   2.722  11.793 -0.3114 -0.0475 -0.3773
 9276SOL     OW39289   3.533   1.987   2.640  0.4413  0.3694  0.4681
 9276SOL    HW139290   3.599   1.955   2.578 -0.7076 -3.2861  1.1006
 9276SOL    HW239291   3.476   2.030   2.576  1.6525 -0.4243 -1.1433
 9277SOL     OW39292   2.396   3.018  12.407  0.2211  0.4037 -0.2293
 9277SOL    HW139293   2.395   3.000  12.313  1.8575 -0.1782 -0.1337
 9277SOL    HW239294   2.330   2.955  12.434 -1.8239  2.7879  0.3130
 9278SOL     OW39295   1.511   0.955   8.737 -0.0066  0.0738  0.3158
 9278SOL    HW139296   1.456   1.030   8.759 -0.7509 -0.7239  1.1856
 9278SOL    HW239297   1.509   0.897   8.813  0.2711 -0.0917  0.2004
 9279SOL     OW39298   1.027   3.433   6.509 -0.2009 -0.4867 -0.3643
 9279SOL    HW139299   0.996   3.502   6.451  1.0092 -1.1805 -1.8442
 9279SOL    HW239300   1.070   3.370   6.450  2.1331  1.0684 -0.3448
 9280SOL     OW39301   3.166   2.901   7.663 -0.0591  0.1085 -0.2433
 9280SOL    HW139302   3.245   2.848   7.653  0.9507  1.7445 -0.8478
 9280SOL    HW239303   3.205   2.965   7.723  1.7765 -1.1838 -0.0582
 9281SOL     OW39304   2.592   3.462  10.612 -0.0524  0.1577 -0.4550
 9281SOL    HW139305   2.509   3.460  10.660  0.7017 -2.6030  0.6895
 9281SOL    HW239306   2.659   3.425  10.670 -0.3107 -0.0262 -0.2731
 9282SOL     OW39307   0.173   3.818   5.325 -0.4786  0.4213  0.3631
 9282SOL    HW139308   0.204   3.847   5.239  1.6423  0.0453  0.9943
 9282SOL    HW239309   0.172   3.723   5.319  0.8224  0.3853  0.5448
 9283SOL     OW39310   3.102   4.036   1.588 -0.5379 -0.4293 -0.1889
 9283SOL    HW139311   3.016   4.078   1.578  0.5193  1.0645 -2.9537
 9283SOL    HW239312   3.111   4.012   1.681 -0.8420  1.8305  0.4203
 9284SOL     OW39313   3.080   2.867   4.734 -0.3433  0.2932 -0.8434
 9284SOL    HW139314   3.173   2.870   4.757 -0.9471 -1.1328  1.7763
 9284SOL    HW239315   3.058   2.959   4.724  0.7951  0.8148  1.5611
 9285SOL     OW39316   2.273   0.340  11.003 -0.2724  0.3072 -0.3054
 9285SOL    HW139317   2.306   0.335  11.093  1.1347  0.6708 -0.7992
 9285SOL    HW239318   2.251   0.433  10.995  2.6916  1.1183  0.8974
 9286SOL     OW39319   1.955   1.620   6.197 -0.0431 -0.3588 -0.4346
 9286SOL    HW139320   1.973   1.686   6.130  0.7860 -0.5300 -0.3805
 9286SOL    HW239321   2.006   1.547   6.162 -1.1767 -1.4983  0.3319
 9287SOL     OW39322   0.633   0.743   6.486  0.2661 -0.3658  0.3093
 9287SOL    HW139323   0.662   0.667   6.537 -0.7820 -0.1314  1.2747
 9287SOL    HW239324   0.546   0.753   6.526 -0.9619  1.8076 -2.8458
 9288SOL     OW39325   4.501   2.854   9.057  0.3768  0.0821  0.1928
 9288SOL    HW139326   4.443   2.795   9.107  0.8996 -0.7493 -0.1792
 9288SOL    HW239327   4.582   2.804   9.053  0.2739 -0.0049 -0.9530
 9289SOL     OW39328   2.515   3.381  10.873  0.0716 -0.2770  0.3191
 9289SOL    HW139329   2.586   3.428  10.917 -1.7040  0.9916  1.8060
 9289SOL    HW239330   2.494   3.315  10.939 -0.3982 -1.6574 -1.2080
 9290SOL     OW39331   1.786   2.862   9.343  0.4542 -0.7507 -0.3533
 9290SOL    HW139332   1.874   2.864   9.379 -0.0893 -1.8164  1.0403
 9290SOL    HW239333   1.737   2.929   9.391  0.0101  1.2881 -3.6438
 9291SOL     OW39334   2.676   0.254   3.173 -0.1171 -0.1644  0.1901
 9291SOL    HW139335   2.690   0.227   3.264 -1.2855  0.1374  0.4585
 9291SOL    HW239336   2.663   0.168   3.133  1.0397  0.5691 -1.7394
 9292SOL     OW39337   3.000   4.684  15.501 -0.3261  0.0278  0.1151
 9292SOL    HW139338   3.060   4.637  15.444 -2.0223  0.9397 -2.4173
 9292SOL    HW239339   3.028   0.046  15.481 -0.0356 -0.5914 -2.1896
 9293SOL     OW39340   2.287   1.205  15.973 -0.2947 -0.1880 -0.5438
 9293SOL    HW139341   2.232   1.162  16.039  0.2793 -0.6960 -0.3920
 9293SOL    HW239342   2.239   1.283  15.944 -0.0992 -0.0296 -0.4317
 9294SOL     OW39343   2.294   1.752   8.269  0.1035  0.3536 -0.2882
 9294SOL    HW139344   2.343   1.724   8.192 -0.4159  0.0749 -0.5147
 9294SOL    HW239345   2.221   1.790   8.221 -0.7184  0.5321  1.0894
 9295SOL     OW39346   1.932   2.666  12.469 -0.1316 -0.0102 -0.2300
 9295SOL    HW139347   1.948   2.666  12.563  2.0365 -1.1976 -0.6153
 9295SOL    HW239348   2.022   2.673  12.438 -0.5959  2.0788 -1.1289
 9296SOL     OW39349   3.089   3.504   4.552  0.5574 -0.0772 -0.3466
 9296SOL    HW139350   3.115   3.545   4.470 -0.9395  3.3157  0.8530
 9296SOL    HW239351   3.010   3.550   4.583  0.4721  0.4704 -1.3672
 9297SOL     OW39352   1.533   2.982   1.880  0.7759  0.3743  0.0657
 9297SOL    HW139353   1.504   2.957   1.793  4.3302 -2.3679 -0.3466
 9297SOL    HW239354   1.527   2.891   1.908  4.7999  0.2194  0.5461
 9298SOL     OW39355   0.346   0.905   8.641 -0.5740  0.0702 -0.0013
 9298SOL    HW139356   0.428   0.872   8.677 -0.9894 -0.8465  0.0912
 9298SOL    HW239357   0.291   0.902   8.720 -3.5383 -2.5135 -2.1384
 9299SOL     OW39358   0.948   0.770   0.260  0.5164  0.0973  0.0680
 9299SOL    HW139359   1.014   0.839   0.261  0.0462  0.5549 -0.1660
 9299SOL    HW239360   0.891   0.803   0.190 -0.2236 -2.3520 -0.4782
 9300SOL     OW39361   1.222   3.403   4.704 -0.0381  0.0497  0.2228
 9300SOL    HW139362   1.141   3.381   4.751  0.5385  1.6535  1.9768
 9300SOL    HW239363   1.201   3.395   4.611 -0.8625 -0.5781  0.4566
 9301SOL     OW39364   0.433   4.304  10.947  0.2008 -0.4497 -0.4236
 9301SOL    HW139365   0.460   4.376  10.890 -0.1173  1.5453  1.8912
 9301SOL    HW239366   0.341   4.308  10.920  0.3376 -0.0937 -0.8263
 9302SOL     OW39367   2.830   0.880   9.473 -0.0309 -0.5005 -0.2293
 9302SOL    HW139368   2.753   0.929   9.501  1.7469  1.6844  0.8430
 9302SOL    HW239369   2.890   0.900   9.544  0.6083  1.1681 -1.2398
 9303SOL     OW39370   1.937   3.872   6.082  0.2905  0.0495 -0.2757
 9303SOL    HW139371   1.996   3.931   6.035 -0.6676  1.6702  0.5340
 9303SOL    HW239372   1.862   3.863   6.024  0.4436  3.1539 -0.9814
 9304SOL     OW39373   2.559   3.353   2.661 -0.2037 -0.0097  0.6134
 9304SOL    HW139374   2.565   3.257   2.659  2.3226  0.1308  1.4122
 9304SOL    HW239375   2.647   3.383   2.641  0.2221 -0.9126  1.1558
 9305SOL     OW39376   4.454   4.298   2.769  0.7894  0.2568  0.1065
 9305SOL    HW139377   4.385   4.364   2.761 -0.4961 -0.9071  1.7417
 9305SOL    HW239378   4.450   4.282   2.863 -1.9194 -1.8216 -0.3736
 9306SOL     OW39379   1.969   1.638  17.229 -0.6803 -0.1355 -0.0778
 9306SOL    HW139380   2.022   1.651  17.151  2.1548  1.2273  2.0923
 9306SOL    HW239381   2.017   1.672  17.304 -0.9428  0.4074 -0.1571
 9307SOL     OW39382   3.216   2.823   2.401  0.0691  0.7337  0.2308
 9307SOL    HW139383   3.272   2.748   2.383  0.3862  1.4052 -1.6566
 9307SOL    HW239384   3.278   2.892   2.376  3.4041 -2.3324  0.0340
 9308SOL     OW39385   0.252   3.915   6.661 -0.1985  0.5283  0.4887
 9308SOL    HW139386   0.224   3.950   6.576  0.7109  0.0938  0.0084
 9308SOL    HW239387   0.332   3.876   6.625 -1.1346 -2.0805  1.2774
 9309SOL     OW39388   1.801   0.208   7.868  0.2044  0.2086 -0.0085
 9309SOL    HW139389   1.891   0.185   7.887  0.2265  0.2466 -0.0664
 9309SOL    HW239390   1.806   0.303   7.859 -0.1674  0.4258  2.1102
 9310SOL     OW39391   2.154   1.988  10.066 -0.2224  0.0926  0.5027
 9310SOL    HW139392   2.080   1.953  10.016  1.2710 -0.6562 -1.1738
 9310SOL    HW239393   2.147   2.080  10.041  1.3176 -0.0964 -0.5917
 9311SOL     OW39394   4.552   3.722  17.553  0.3253 -0.1688  0.5308
 9311SOL    HW139395   4.582   3.807  17.584  0.3947 -0.1953  0.5368
 9311SOL    HW239396   4.463   3.753  17.537  1.0572  0.7580 -1.6633
 9312SOL     OW39397   4.716   3.088   6.715  0.5573 -0.3299 -0.0001
 9312SOL    HW139398   0.060   3.144   6.745  0.6225 -0.9537  1.0024
 9312SOL    HW239399   0.031   3.044   6.642 -0.8947  1.0990 -1.6925
 9313SOL     OW39400   3.617   3.158   2.194 -0.2567 -0.1379 -0.8787
 9313SOL    HW139401   3.675   3.211   2.141  1.7618  0.3937  1.8625
 9313SOL    HW239402   3.558   3.227   2.223 -1.3499 -1.4513  0.0184
 9314SOL     OW39403   0.083   2.224   5.229 -0.1363 -0.0514  0.5661
 9314SOL    HW139404   0.030   2.303   5.234  0.6450  0.6525 -2.4010
 9314SOL    HW239405   0.162   2.265   5.264  0.5324 -1.7720  1.0728
 9315SOL     OW39406   2.953   2.981  11.924 -0.2713 -0.1903  0.4867
 9315SOL    HW139407   2.911   2.966  12.008  1.1934  0.7051  1.3742
 9315SOL    HW239408   2.985   3.069  11.939 -0.3105 -0.3976  1.7589
 9316SOL     OW39409   2.364   1.433   1.825 -0.2627  0.3354 -0.3392
 9316SOL    HW139410   2.380   1.411   1.917 -1.0036 -0.1155 -0.3117
 9316SOL    HW239411   2.286   1.381   1.803 -1.8217  1.5628  2.3161
 9317SOL     OW39412   4.190   3.379   2.284  0.5168  0.6508  0.2977
 9317SOL    HW139413   4.095   3.391   2.286  0.4537  0.2345 -0.4292
 9317SOL    HW239414   4.219   3.402   2.373  1.0496 -1.4486  0.6789
 9318SOL     OW39415   2.745   4.683  17.664 -0.3918  1.0833  0.4204
 9318SOL    HW139416   2.824   4.686  17.609  0.6813  0.5478  1.9175
 9318SOL    HW239417   2.747   4.588  17.678 -0.7487  0.9127 -0.6797
 9319SOL     OW39418   1.508   3.879   3.282 -0.0598 -0.0396  0.2843
 9319SOL    HW139419   1.453   3.916   3.351  1.6909  0.1153  1.5895
 9319SOL    HW239420   1.541   3.956   3.235 -0.4640 -1.6079 -2.5452
 9320SOL     OW39421   3.285   4.001  16.550 -0.6331 -0.1395  0.1212
 9320SOL    HW139422   3.296   4.089  16.516 -2.1994  0.5143  1.3016
 9320SOL    HW239423   3.378   3.978  16.558 -0.7648 -1.5002 -2.2305
 9321SOL     OW39424   1.188   0.566   9.606 -0.1947  0.6087 -0.1122
 9321SOL    HW139425   1.267   0.560   9.661 -0.2318  1.9399  0.0907
 9321SOL    HW239426   1.181   0.661   9.600  0.4033  0.5484 -1.8330
 9322SOL     OW39427   3.123   4.047   4.732  0.1615 -0.2190 -0.3144
 9322SOL    HW139428   3.034   4.012   4.738 -0.0453 -0.0323 -2.5810
 9322SOL    HW239429   3.135   4.059   4.638  1.5452 -0.6927 -0.1966
 9323SOL     OW39430   1.275   2.378   5.593 -0.2482 -0.2764 -0.4875
 9323SOL    HW139431   1.346   2.398   5.532  0.8574  0.0222  0.8938
 9323SOL    HW239432   1.284   2.282   5.598  0.6369 -0.0850  1.4846
 9324SOL     OW39433   3.200   1.093  11.756  0.4858  0.3823  0.2015
 9324SOL    HW139434   3.147   1.129  11.828 -1.0059 -1.3472 -0.0179
 9324SOL    HW239435   3.278   1.054  11.796  0.4624 -0.4559 -0.5837
 9325SOL     OW39436   4.187   4.406   3.557 -0.3235  0.1579 -0.7727
 9325SOL    HW139437   4.205   4.371   3.470 -0.9039 -2.0746 -0.0039
 9325SOL    HW239438   4.107   4.359   3.579  0.5037  0.2871  2.5535
 9326SOL     OW39439   4.290   0.851   3.104  0.2783  0.4606  0.3986
 9326SOL    HW139440   4.291   0.898   3.188 -0.1471 -1.3736  1.4175
 9326SOL    HW239441   4.283   0.925   3.044 -0.1800 -1.5322 -1.9903
 9327SOL     OW39442   2.200   1.586   1.559 -0.2285 -0.4794  0.8829
 9327SOL    HW139443   2.175   1.674   1.588 -1.3586 -0.9364  1.3152
 9327SOL    HW239444   2.234   1.596   1.470 -0.6833 -0.6778  0.6869
 9328SOL     OW39445   3.053   2.771   8.006 -0.8431  0.7010 -0.3438
 9328SOL    HW139446   3.009   2.693   8.040 -0.7627  1.0476  0.5549
 9328SOL    HW239447   3.002   2.837   8.053 -0.9810 -1.3470  2.3837
 9329SOL     OW39448   0.436   3.143   2.241  0.1403 -0.1125 -0.5090
 9329SOL    HW139449   0.401   3.054   2.254 -0.6225  0.6909  2.8597
 9329SOL    HW239450   0.381   3.175   2.170 -0.0449 -0.2752 -0.4397
 9330SOL     OW39451   3.275   2.779   6.571  0.2027  0.0088 -0.0116
 9330SOL    HW139452   3.308   2.847   6.631  2.8564 -1.4582  0.1720
 9330SOL    HW239453   3.245   2.712   6.633 -2.0218 -0.1813 -1.2797
 9331SOL     OW39454   0.385   3.254   6.040  0.2561 -0.0306 -0.4787
 9331SOL    HW139455   0.406   3.233   6.131 -1.3988 -0.6406 -0.2332
 9331SOL    HW239456   0.450   3.322   6.022  0.6852 -0.1424  0.6654
 9332SOL     OW39457   4.596   4.343   5.692 -0.4931  0.1257  0.2417
 9332SOL    HW139458   4.639   4.261   5.719 -2.1810 -0.4132  1.2805
 9332SOL    HW239459   4.604   4.394   5.773  0.6149  0.0352  0.1856
 9333SOL     OW39460   4.149   0.680  11.965  0.0011  0.4339 -0.4390
 9333SOL    HW139461   4.147   0.595  11.923 -1.2436 -1.4975  3.5334
 9333SOL    HW239462   4.239   0.709  11.977  0.1200 -1.1640  2.7446
 9334SOL     OW39463   0.633   1.255  13.051 -0.2107  0.0100 -0.2875
 9334SOL    HW139464   0.543   1.287  13.047 -1.4183 -3.2588  0.8520
 9334SOL    HW239465   0.626   1.178  13.107  2.2488 -0.5629 -0.7732
 9335SOL     OW39466   1.713   1.174  11.610 -0.5917 -0.5657  0.3510
 9335SOL    HW139467   1.749   1.236  11.546  0.6724 -0.4984  1.1184
 9335SOL    HW239468   1.651   1.227  11.660 -0.0230  0.1874  0.2491
 9336SOL     OW39469   2.186   3.505   7.696  0.2604  0.1291 -0.0544
 9336SOL    HW139470   2.149   3.575   7.750  1.6917  0.6321  0.2690
 9336SOL    HW239471   2.152   3.427   7.740 -1.2041  2.7069  3.4025
 9337SOL     OW39472   1.069   3.202   0.667  0.2825  0.6524 -0.5091
 9337SOL    HW139473   1.094   3.182   0.577  1.7710 -1.5439  0.4133
 9337SOL    HW239474   1.113   3.286   0.681  0.1321  0.7859 -0.8318
 9338SOL     OW39475   1.162   0.512   8.162  0.7916 -0.2898  0.3891
 9338SOL    HW139476   1.215   0.440   8.196  2.2356  0.6319  0.1090
 9338SOL    HW239477   1.187   0.583   8.221  1.3572  0.3257 -0.5985
 9339SOL     OW39478   3.797   4.245   4.791 -0.1904 -0.2417 -0.0484
 9339SOL    HW139479   3.839   4.206   4.867  0.5295 -1.0808 -0.8743
 9339SOL    HW239480   3.797   4.183   4.717  1.7297  1.5580 -1.5647
 9340SOL     OW39481   3.402   1.891  15.426 -0.2521 -0.2059  0.2459
 9340SOL    HW139482   3.441   1.978  15.423  2.0946 -1.2861 -0.4591
 9340SOL    HW239483   3.482   1.842  15.412 -1.3367 -2.1608  0.8778
 9341SOL     OW39484   1.158   2.638  16.231  0.7513 -0.0696 -0.7414
 9341SOL    HW139485   1.211   2.694  16.288  1.8839 -1.0024 -0.8713
 9341SOL    HW239486   1.192   2.674  16.149 -0.6855  0.7437 -0.9800
 9342SOL     OW39487   4.125   2.829   0.922 -0.2213  0.2305  0.0257
 9342SOL    HW139488   4.102   2.831   0.829  1.1247 -4.0429 -0.3673
 9342SOL    HW239489   4.041   2.854   0.962 -0.3872  2.7764 -1.8658
 9343SOL     OW39490   4.113   3.967  17.066 -0.5832  0.0801 -0.0709
 9343SOL    HW139491   4.084   4.002  17.151  0.9026 -1.0323  0.8946
 9343SOL    HW239492   4.029   3.983  17.024 -0.0620 -1.6613 -1.7459
 9344SOL     OW39493   0.626   4.124   8.068  0.1382  0.0045  0.6823
 9344SOL    HW139494   0.634   4.029   8.054 -1.0075  0.3032 -1.8829
 9344SOL    HW239495   0.570   4.154   7.997  1.3567  0.8452  0.0935
 9345SOL     OW39496   2.812   4.121   4.577 -0.1177  0.3008  0.2224
 9345SOL    HW139497   2.892   4.166   4.548 -1.9434  2.5395 -1.3261
 9345SOL    HW239498   2.764   4.115   4.495  1.0847 -2.3580 -0.2690
 9346SOL     OW39499   4.512   0.234   7.196  0.6045  0.1554  0.2828
 9346SOL    HW139500   4.477   0.151   7.226 -0.1418  1.2682  2.4995
 9346SOL    HW239501   4.445   0.296   7.225 -1.6626 -1.0312 -2.3609
 9347SOL     OW39502   3.076   1.831  11.367  0.5487  0.5609  0.0610
 9347SOL    HW139503   3.090   1.766  11.436  0.8287 -1.0270 -1.4964
 9347SOL    HW239504   2.981   1.828  11.355  0.6244  0.4930 -0.5273
 9348SOL     OW39505   2.279   0.951   0.946  0.7026  0.6194 -0.2485
 9348SOL    HW139506   2.320   0.961   0.860  0.6819 -3.0719 -0.6962
 9348SOL    HW239507   2.232   1.034   0.953  0.5769  0.5760 -0.5402
 9349SOL     OW39508   4.264   0.876   9.476 -0.6617 -0.0194  0.2142
 9349SOL    HW139509   4.281   0.948   9.537 -2.3573  1.4227 -0.9958
 9349SOL    HW239510   4.218   0.919   9.404 -1.6605  0.4529  1.1336
 9350SOL     OW39511   3.207   1.843   6.474 -0.0265  1.0097 -0.8175
 9350SOL    HW139512   3.189   1.797   6.393  1.4565  0.1052 -0.6312
 9350SOL    HW239513   3.154   1.922   6.461 -1.4746  0.3238  0.9343
 9351SOL     OW39514   0.954   0.006  14.445  0.5531  1.0851  0.3243
 9351SOL    HW139515   0.969   4.641  14.425  0.0155  0.6797  1.7743
 9351SOL    HW239516   0.986   0.026  14.533  0.3061  2.7988  0.0384
 9352SOL     OW39517   3.896   4.678   1.883  0.2515 -0.0227  0.4949
 9352SOL    HW139518   3.984   4.650   1.856 -0.1799 -1.7439  0.8848
 9352SOL    HW239519   3.910   0.041   1.911 -1.2899 -1.1832  4.9485
 9353SOL     OW39520   2.085   4.443   7.894  0.6688  0.2997 -0.0001
 9353SOL    HW139521   2.053   4.470   7.981  0.9436 -1.2527  0.5775
 9353SOL    HW239522   2.117   4.526   7.859  0.3617  0.9757  1.3139
 9354SOL     OW39523   0.673   2.669   4.988  0.5630 -0.5985 -0.0616
 9354SOL    HW139524   0.684   2.686   4.895  0.9612  1.0048  0.2856
 9354SOL    HW239525   0.753   2.625   5.016  1.4946  0.8943 -0.4172
 9355SOL     OW39526   4.053   4.320   8.728 -0.9046 -0.2583 -0.4635
 9355SOL    HW139527   4.105   4.260   8.782  0.0081  3.2562  2.6233
 9355SOL    HW239528   4.101   4.310   8.646  1.3551 -1.6304  1.0095
 9356SOL     OW39529   3.835   2.915  14.814 -0.0749 -0.0970  0.0013
 9356SOL    HW139530   3.917   2.926  14.862  0.7934  0.4824 -1.6025
 9356SOL    HW239531   3.821   2.821  14.800  2.8397 -0.2671 -1.6291
 9357SOL     OW39532   2.731   3.806   4.049  0.0171  0.1380 -0.2993
 9357SOL    HW139533   2.781   3.866   3.993  1.0985 -1.1255 -0.6755
 9357SOL    HW239534   2.652   3.854   4.074  0.1168  0.4990 -0.6645
 9358SOL     OW39535   2.722   2.617   1.348 -0.3572  0.1034  0.4190
 9358SOL    HW139536   2.787   2.677   1.312 -0.2546  0.7665  1.6883
 9358SOL    HW239537   2.692   2.566   1.273  0.1187  0.6213 -0.1161
 9359SOL     OW39538   0.278   4.103   8.151 -0.5122  0.3332  0.3586
 9359SOL    HW139539   0.306   4.040   8.084  1.4392  0.9329  0.6353
 9359SOL    HW239540   0.304   4.186   8.112 -2.2832 -0.3433 -2.3139
 9360SOL     OW39541   0.031   0.851   5.196  0.3484 -0.0149  0.4053
 9360SOL    HW139542   0.048   0.919   5.261 -0.1314 -0.4890  1.0298
 9360SOL    HW239543   0.098   0.872   5.130  1.4459  1.4676  1.9757
 9361SOL     OW39544   3.407   3.795   4.162  0.5126 -0.3894 -0.0731
 9361SOL    HW139545   3.424   3.733   4.090  0.6685  1.4636 -1.6375
 9361SOL    HW239546   3.502   3.803   4.175  0.5485 -0.7515 -0.0958
 9362SOL     OW39547   4.275   2.117  13.685  0.2783 -0.0457 -0.1136
 9362SOL    HW139548   4.264   2.182  13.617 -1.6531 -1.0104 -0.7283
 9362SOL    HW239549   4.233   2.040  13.646 -0.6330 -1.0018  2.7053
 9363SOL     OW39550   4.621   0.171   0.689  0.4356 -0.6754 -0.5822
 9363SOL    HW139551   4.705   0.197   0.729 -0.7508  0.5753  1.0917
 9363SOL    HW239552   4.563   0.245   0.705  0.4697 -1.2100  2.0532
 9364SOL     OW39553   2.425   1.559   2.605  0.6236 -0.1998  0.4255
 9364SOL    HW139554   2.464   1.550   2.692 -1.4372  3.1328  1.6907
 9364SOL    HW239555   2.338   1.593   2.626 -0.1009 -1.4950 -0.5624
 9365SOL     OW39556   0.580   3.857  10.535 -0.2122 -0.6345  0.2081
 9365SOL    HW139557   0.663   3.812  10.550  0.9980  1.3431 -0.5832
 9365SOL    HW239558   0.589   3.950  10.556 -0.4165 -0.3574 -0.9426
 9366SOL     OW39559   3.831   0.135   6.601  0.2496  0.0688  0.5906
 9366SOL    HW139560   3.755   0.076   6.600  0.3972 -0.0204 -4.0751
 9366SOL    HW239561   3.870   0.141   6.688  0.7924 -0.0415  0.3507
 9367SOL     OW39562   4.185   4.278   0.294  0.3113  0.2580  0.0082
 9367SOL    HW139563   4.159   4.240   0.378  0.7551  0.1525  0.1017
 9367SOL    HW239564   4.099   4.301   0.259 -0.3905 -0.9975  0.9146
 9368SOL     OW39565   1.492   2.993   7.383 -0.1504 -0.0766  0.6398
 9368SOL    HW139566   1.508   3.082   7.352 -4.8094  0.0074 -1.5618
 9368SOL    HW239567   1.498   3.003   7.478 -1.5229  0.2595  0.6830
 9369SOL     OW39568   4.206   2.314  13.502 -0.2534  0.5305  0.4134
 9369SOL    HW139569   4.226   2.401  13.467  0.1818  0.1550 -0.2729
 9369SOL    HW239570   4.200   2.255  13.426  0.3297  2.0585 -0.8183
 9370SOL     OW39571   4.569   4.602   0.678  0.0281  0.4270  0.4738
 9370SOL    HW139572   4.629   4.538   0.717  0.1141  0.8503  1.0313
 9370SOL    HW239573   4.605   4.687   0.702 -0.1280  0.6738 -0.1762
 9371SOL     OW39574   2.486   1.633   2.863 -0.1040  0.8487 -0.6048
 9371SOL    HW139575   2.500   1.718   2.905 -0.1119 -0.0771  1.2608
 9371SOL    HW239576   2.579   1.611   2.868 -0.2561  0.2642 -0.3633
 9372SOL     OW39577   3.294   0.218   8.348  0.7698 -0.1930  1.0757
 9372SOL    HW139578   3.341   0.260   8.275 -0.5543  1.6152  1.2529
 9372SOL    HW239579   3.360   0.230   8.415  0.7454  1.0838  0.8779
 9373SOL     OW39580   1.715   1.202   4.394 -0.0169 -0.0869  0.6469
 9373SOL    HW139581   1.786   1.254   4.431 -0.5495  0.9835  0.1603
 9373SOL    HW239582   1.722   1.221   4.301 -0.5161  1.5970  0.9535
 9374SOL     OW39583   0.897   3.676  17.685  0.4068  0.1534  0.0562
 9374SOL    HW139584   0.872   3.646   0.062  4.6419 -0.3303  1.0960
 9374SOL    HW239585   0.906   3.771  17.690  0.4899  0.1808 -0.5395
 9375SOL     OW39586   3.341   1.686   2.825 -0.1072  0.5026 -0.4745
 9375SOL    HW139587   3.324   1.729   2.741 -1.0056 -0.6960 -0.9010
 9375SOL    HW239588   3.309   1.603   2.790 -1.2141  1.5551 -1.9847
 9376SOL     OW39589   3.960   1.979   7.210  0.0341 -0.3081  0.8553
 9376SOL    HW139590   3.970   1.917   7.137 -0.0278  2.1196 -1.2155
 9376SOL    HW239591   3.926   1.925   7.281 -2.5706 -1.2605 -1.0723
 9377SOL     OW39592   4.709   4.230  17.406  0.1388 -0.0638 -0.4429
 9377SOL    HW139593   4.683   4.307  17.457 -1.8552 -1.1062  0.1147
 9377SOL    HW239594   4.631   4.208  17.356  0.1065  1.6150 -1.1229
 9378SOL     OW39595   2.254   2.221   2.483 -0.3740 -0.2763  0.5459
 9378SOL    HW139596   2.243   2.207   2.577  1.6003 -0.6730  0.7020
 9378SOL    HW239597   2.213   2.307   2.469  0.5658 -0.0253 -0.6812
 9379SOL     OW39598   4.517   1.549   5.092 -0.4133 -0.3311  0.0736
 9379SOL    HW139599   4.503   1.643   5.084 -0.4175 -0.3110  0.3119
 9379SOL    HW239600   4.471   1.528   5.174  0.5912  0.0277  0.7221
 9380SOL     OW39601   0.374   3.068  17.039  0.1508 -0.1859  0.3440
 9380SOL    HW139602   0.311   3.113  16.982  1.1879  0.4125 -0.3386
 9380SOL    HW239603   0.401   3.138  17.098  1.4342 -0.4948  0.1300
 9381SOL     OW39604   4.674   2.648   0.489  0.5433 -0.0839 -0.2525
 9381SOL    HW139605   4.593   2.659   0.440 -0.3469  0.6952  1.3849
 9381SOL    HW239606   4.694   2.555   0.488  1.0603  0.0278 -0.3146
 9382SOL     OW39607   3.760   4.308   3.477  0.3711  0.4699 -0.0340
 9382SOL    HW139608   3.837   4.286   3.528 -0.4619  2.5131  2.0918
 9382SOL    HW239609   3.730   4.390   3.517 -1.6224 -0.9786  1.4211
 9383SOL     OW39610   3.506   2.297   1.206 -0.0255  0.2234 -0.4095
 9383SOL    HW139611   3.500   2.257   1.293 -0.3669  0.5846 -0.2705
 9383SOL    HW239612   3.419   2.330   1.185  0.2089  0.4030 -1.1127
 9384SOL     OW39613   0.650   2.347   8.150  0.2904  0.3846 -0.7908
 9384SOL    HW139614   0.614   2.344   8.062  0.1057  2.6187 -0.8067
 9384SOL    HW239615   0.588   2.397   8.204  0.3195 -0.8748  0.3988
 9385SOL     OW39616   3.651   1.742  15.313  0.4106 -0.5871 -0.0040
 9385SOL    HW139617   3.676   1.711  15.400 -1.7170 -1.5851  0.2569
 9385SOL    HW239618   3.742   1.740  15.284 -0.7787 -1.4336 -3.7312
 9386SOL     OW39619   1.930   1.277   8.488 -0.0948  0.3002  0.1499
 9386SOL    HW139620   1.904   1.284   8.580  1.9350 -0.4373  0.7828
 9386SOL    HW239621   1.942   1.368   8.461 -3.9255  1.2452  1.7101
 9387SOL     OW39622   1.192   1.515   9.755  0.3528 -0.0652  0.3979
 9387SOL    HW139623   1.136   1.530   9.832 -0.7667  0.2508 -0.4686
 9387SOL    HW239624   1.279   1.500   9.790  0.7756 -1.2632 -1.1813
 9388SOL     OW39625   4.306   3.904   9.489  0.4945 -0.6815  0.2139
 9388SOL    HW139626   4.230   3.931   9.438  1.3748  2.2653  0.4629
 9388SOL    HW239627   4.289   3.810   9.487  0.5859 -0.6698 -1.6024
 9389SOL     OW39628   0.201   0.048   9.973  0.3275  0.2575 -0.5445
 9389SOL    HW139629   0.107   0.062   9.963  0.1187  0.6886  1.9082
 9389SOL    HW239630   0.209   0.024  10.066  2.6603  0.2181 -0.7539
 9390SOL     OW39631   1.060   0.670   7.933  0.5175  1.1883  0.0777
 9390SOL    HW139632   1.024   0.586   7.903 -0.6241  1.2089  1.3637
 9390SOL    HW239633   1.113   0.649   8.010  1.4632 -0.7204 -1.1042
 9391SOL     OW39634   1.807   1.279   4.128 -0.3188 -0.0205 -0.1229
 9391SOL    HW139635   1.781   1.344   4.063  2.7490 -1.7674 -3.0914
 9391SOL    HW239636   1.887   1.319   4.162 -0.4733 -0.0510  0.2816
 9392SOL     OW39637   2.695   4.497   6.251  0.1039 -0.1322  0.2658
 9392SOL    HW139638   2.784   4.531   6.242 -0.2980  0.8923  0.0873
 9392SOL    HW239639   2.712   4.449   6.332  1.5235  0.2682  0.2087
 9393SOL     OW39640   0.922   3.541  15.318  0.1235  0.1510 -0.1834
 9393SOL    HW139641   0.918   3.491  15.400 -2.3178  1.0798  0.2466
 9393SOL    HW239642   0.951   3.629  15.341 -1.2940  0.5999 -0.0944
 9394SOL     OW39643   2.864   3.317  16.844 -0.5547  0.3549  0.2844
 9394SOL    HW139644   2.933   3.323  16.777  0.4990 -2.9667  1.0869
 9394SOL    HW239645   2.786   3.302  16.790 -1.2552 -0.1299  1.4387
 9395SOL     OW39646   1.629   4.694   7.976  0.1138  0.1045 -0.2182
 9395SOL    HW139647   1.633   0.058   7.949  1.1357  0.3770  0.8333
 9395SOL    HW239648   1.590   4.691   8.064  3.7856 -1.5314  1.3673
 9396SOL     OW39649   2.938   4.244  10.306  0.4347  0.0806 -0.5112
 9396SOL    HW139650   2.929   4.176  10.373 -0.5115  0.5841 -0.1293
 9396SOL    HW239651   3.027   4.274  10.326  0.2279 -0.7849  1.6512
 9397SOL     OW39652   1.328   0.494   8.505  0.4365 -0.4141 -0.1561
 9397SOL    HW139653   1.340   0.495   8.410 -0.0013 -1.6152 -0.2260
 9397SOL    HW239654   1.246   0.443   8.507  0.8318 -0.9396  2.7392
 9398SOL     OW39655   0.812   0.364  13.265 -0.1803  0.3302 -0.2122
 9398SOL    HW139656   0.899   0.357  13.303 -0.6574 -3.6819  0.1602
 9398SOL    HW239657   0.788   0.432  13.328 -1.2060 -1.6148  1.4851
 9399SOL     OW39658   0.740   2.119   5.959 -0.1959  0.0567 -0.2399
 9399SOL    HW139659   0.826   2.154   5.983 -0.7791  2.1682 -1.2260
 9399SOL    HW239660   0.769   2.055   5.894 -0.8691 -2.2858  1.7689
 9400SOL     OW39661   3.720   0.085   8.808  0.3364  0.0388 -0.1665
 9400SOL    HW139662   3.798   0.030   8.821  0.4056 -0.2340 -1.7443
 9400SOL    HW239663   3.733   0.164   8.860  2.8953  0.1135 -0.8978
 9401SOL     OW39664   2.279   4.296  12.311 -0.7119 -0.1165 -0.2712
 9401SOL    HW139665   2.346   4.259  12.368 -1.1874 -1.0075 -0.2797
 9401SOL    HW239666   2.227   4.215  12.315 -3.4897  1.6401 -0.3279
 9402SOL     OW39667   0.442   1.824   3.113  0.1130 -0.2296 -0.2263
 9402SOL    HW139668   0.456   1.765   3.188  0.8687 -0.1754 -0.3237
 9402SOL    HW239669   0.525   1.872   3.115  0.0761 -0.1828  0.4210
 9403SOL     OW39670   4.611   1.026   0.525 -0.3412 -0.9101 -0.0842
 9403SOL    HW139671   4.638   0.998   0.612 -1.5843 -0.0716  0.5776
 9403SOL    HW239672   4.519   1.040   0.548  0.3878  0.5706  1.9412
 9404SOL     OW39673   1.695   3.104  15.132 -0.0948 -0.0337 -0.8304
 9404SOL    HW139674   1.756   3.079  15.063 -1.7525 -3.4419 -1.0580
 9404SOL    HW239675   1.672   3.194  15.109 -2.2740 -0.4245 -0.1882
 9405SOL     OW39676   1.903   1.159   0.798  0.8823 -0.1388 -0.1658
 9405SOL    HW139677   1.986   1.154   0.844  0.4710  4.0290  1.0399
 9405SOL    HW239678   1.935   1.227   0.739  2.6462  1.7159  2.9319
 9406SOL     OW39679   3.071   2.007   7.734  0.2161  0.1558  0.2368
 9406SOL    HW139680   3.050   1.925   7.689  1.6584  0.7649 -1.5387
 9406SOL    HW239681   2.991   2.055   7.754  0.5325  0.6411  0.3536
 9407SOL     OW39682   4.371   3.284   3.602 -0.5236  0.4007 -0.2468
 9407SOL    HW139683   4.328   3.321   3.679 -0.1068 -0.9707  0.6338
 9407SOL    HW239684   4.327   3.328   3.528 -1.4585  1.0113  0.6601
 9408SOL     OW39685   4.097   0.752   6.422 -0.0701  0.0964 -0.2812
 9408SOL    HW139686   4.167   0.799   6.468  1.4781 -1.5039 -1.0013
 9408SOL    HW239687   4.104   0.790   6.334  1.5757 -2.2623 -1.1667
 9409SOL     OW39688   1.002   3.788   4.544 -0.0758  0.2730 -0.0827
 9409SOL    HW139689   1.038   3.717   4.491 -0.9576  0.1094 -0.4631
 9409SOL    HW239690   1.076   3.842   4.570  0.9356 -0.9813 -0.3364
 9410SOL     OW39691   1.920   4.219   5.562 -0.7263  0.3190 -0.1902
 9410SOL    HW139692   1.834   4.244   5.527 -1.3730  0.3324  1.3765
 9410SOL    HW239693   1.959   4.191   5.480  0.3554  0.6872  0.2047
 9411SOL     OW39694   2.555   1.160  10.687 -0.1036  0.0613  0.0548
 9411SOL    HW139695   2.646   1.142  10.711  0.6934  2.9611 -0.7411
 9411SOL    HW239696   2.570   1.253  10.674 -2.8483  0.2527 -1.7512
 9412SOL     OW39697   1.047   2.402   6.472 -0.4885 -0.5395 -0.2091
 9412SOL    HW139698   1.075   2.311   6.477  1.3679 -0.0044 -0.8315
 9412SOL    HW239699   1.113   2.447   6.419 -0.1257  1.0640  1.5883
 9413SOL     OW39700   4.225   1.567   8.197  0.0947  0.1042 -0.6044
 9413SOL    HW139701   4.246   1.488   8.246 -1.1193  0.1817  0.0527
 9413SOL    HW239702   4.263   1.631   8.257  2.1898  0.0834 -1.9181
 9414SOL     OW39703   0.683   1.877   8.781  0.0341 -0.0150 -0.3274
 9414SOL    HW139704   0.695   1.784   8.801 -2.0133 -0.2316 -0.0633
 9414SOL    HW239705   0.637   1.878   8.697 -2.1273 -0.6511  0.8237
 9415SOL     OW39706   4.546   1.951   6.493  0.5102  0.7945 -0.0195
 9415SOL    HW139707   4.611   2.020   6.482 -0.1276  1.9337  3.6587
 9415SOL    HW239708   4.602   1.874   6.488 -1.7048 -0.9119  1.8912
 9416SOL     OW39709   1.898   2.026   7.971 -0.7036  0.1163 -0.3537
 9416SOL    HW139710   1.960   2.090   8.007 -0.7864  0.7400 -1.3278
 9416SOL    HW239711   1.950   1.947   7.989 -1.0402  0.7560  3.5711
 9417SOL     OW39712   1.729   0.644   4.729 -0.3026 -0.1390 -0.3641
 9417SOL    HW139713   1.694   0.733   4.720 -0.0181 -0.1839 -1.7539
 9417SOL    HW239714   1.802   0.639   4.668  1.6839  0.4359  1.9487
 9418SOL     OW39715   3.215   1.137   6.070 -0.1179  0.3376 -0.8137
 9418SOL    HW139716   3.197   1.228   6.093  1.5587  0.6217 -0.5888
 9418SOL    HW239717   3.310   1.135   6.076 -0.0647 -2.2241 -2.4383
 9419SOL     OW39718   1.947   4.247   6.124 -0.4830 -0.3760 -0.0541
 9419SOL    HW139719   1.932   4.206   6.210  1.1807 -0.8322  0.0338
 9419SOL    HW239720   1.948   4.340   6.146  2.2507  0.1139 -2.2337
 9420SOL     OW39721   0.359   3.871   5.528 -0.0863  0.3590 -0.3398
 9420SOL    HW139722   0.295   3.862   5.457 -1.1735 -1.9673  0.9278
 9420SOL    HW239723   0.384   3.963   5.519 -0.3335  0.3073 -1.6554
 9421SOL     OW39724   4.029   2.801   0.628  0.0445 -0.3585 -0.0888
 9421SOL    HW139725   3.937   2.792   0.652  0.3946  0.2719  1.4674
 9421SOL    HW239726   4.041   2.731   0.564  0.1759 -0.7819  0.4079
 9422SOL     OW39727   3.086   0.810   3.575  0.7811  0.0005  0.1137
 9422SOL    HW139728   3.035   0.741   3.532  0.0091  0.7624 -0.1854
 9422SOL    HW239729   3.152   0.749   3.610  0.6155 -0.1111  0.2350
 9423SOL     OW39730   1.493   2.258   4.470  0.4476  0.2308  0.3848
 9423SOL    HW139731   1.504   2.192   4.402 -3.0091 -0.4694  0.4857
 9423SOL    HW239732   1.543   2.213   4.537  0.5732 -1.3796 -0.8012
 9424SOL     OW39733   3.367   3.172   1.338 -0.3023 -0.4502  0.3286
 9424SOL    HW139734   3.445   3.225   1.323  0.4075 -2.3277 -2.6884
 9424SOL    HW239735   3.332   3.206   1.420 -0.2155 -0.9549  0.5804
 9425SOL     OW39736   4.606   2.623  11.736  0.5248  0.3382  0.2279
 9425SOL    HW139737   4.697   2.597  11.729  0.2771 -1.4925  3.7434
 9425SOL    HW239738   4.617   2.717  11.721 -0.5583  0.6866  1.5958
 9426SOL     OW39739   0.160   1.086   5.993  0.3808 -0.4557  0.0425
 9426SOL    HW139740   0.205   1.169   5.977 -1.0662 -0.0362 -1.8889
 9426SOL    HW239741   0.074   1.100   5.954 -0.2599  0.9530  1.9830
 9427SOL     OW39742   1.048   1.846   4.370  0.1239  0.0184 -0.0375
 9427SOL    HW139743   1.133   1.813   4.398  0.5603  1.3796  0.2276
 9427SOL    HW239744   1.064   1.864   4.277  3.0274  1.4984  0.7459
 9428SOL     OW39745   4.181   2.916   9.023 -0.0891  0.2760  0.0243
 9428SOL    HW139746   4.201   2.841   9.079 -1.2429 -1.2129 -1.5615
 9428SOL    HW239747   4.206   2.995   9.071 -0.5111  1.0548 -1.0267
 9429SOL     OW39748   2.143   1.107   5.739 -0.3308 -0.4127 -0.2112
 9429SOL    HW139749   2.066   1.145   5.697  1.7546  1.9907 -1.9013
 9429SOL    HW239750   2.181   1.079   5.656 -0.5229  1.9751 -1.1085
 9430SOL     OW39751   4.030   0.926  11.948 -0.0359  0.0895 -0.1939
 9430SOL    HW139752   3.994   0.847  11.989 -0.5985 -0.2127 -1.2687
 9430SOL    HW239753   4.084   0.952  12.023 -1.8470 -2.0675  1.8729
 9431SOL     OW39754   3.101   4.471  13.984 -0.0754  0.0591  0.7899
 9431SOL    HW139755   3.140   4.558  13.992 -0.1156  0.3343 -1.9591
 9431SOL    HW239756   3.026   4.504  13.934  1.5520  2.2757 -0.1995
 9432SOL     OW39757   4.496   2.525  10.639  0.4296  0.4132  0.5389
 9432SOL    HW139758   4.562   2.458  10.620 -0.0035  0.2639 -0.4357
 9432SOL    HW239759   4.492   2.531  10.735  1.6946  0.5650  0.5789
 9433SOL     OW39760   4.689   4.645  11.825  0.1020  0.2220  0.8216
 9433SOL    HW139761   4.600   4.679  11.828  0.4891  1.3148 -0.1429
 9433SOL    HW239762   4.724   4.698  11.754 -1.0438  0.5570  0.5194
 9434SOL     OW39763   4.660   0.349   7.420 -0.1620  0.2577  0.1959
 9434SOL    HW139764   4.646   0.306   7.336  0.6786 -0.3056  0.3381
 9434SOL    HW239765   4.602   0.425   7.414 -1.2794 -0.7371 -1.4928
 9435SOL     OW39766   0.387   0.779  13.897  0.3586 -0.3738 -0.1758
 9435SOL    HW139767   0.315   0.716  13.895  1.6804 -1.9043  0.1259
 9435SOL    HW239768   0.453   0.732  13.947  0.4726  0.2322  0.2371
 9436SOL     OW39769   3.769   1.243   2.782  0.1032 -0.3331  0.0744
 9436SOL    HW139770   3.805   1.238   2.694 -1.8217  0.9065 -0.7736
 9436SOL    HW239771   3.706   1.172   2.779 -0.2580 -0.1078  1.9153
 9437SOL     OW39772   0.466   0.405   8.102 -0.1338  0.6748 -0.1639
 9437SOL    HW139773   0.525   0.472   8.136 -0.4002  0.2258  1.2212
 9437SOL    HW239774   0.401   0.391   8.171  0.0496 -0.3570 -0.1914
 9438SOL     OW39775   4.034   4.169   4.953  0.0902 -0.3416 -0.4490
 9438SOL    HW139776   4.079   4.105   4.898 -2.8463 -1.3569 -1.6752
 9438SOL    HW239777   3.999   4.110   5.020 -0.7145  0.8748  0.2078
 9439SOL     OW39778   4.246   1.326  16.282  0.0992 -0.3698 -0.4256
 9439SOL    HW139779   4.165   1.339  16.232 -0.5409 -2.3271  0.1209
 9439SOL    HW239780   4.314   1.323  16.215 -0.0446  1.7575 -0.6673
 9440SOL     OW39781   2.572   3.341   1.790  0.2920 -0.9584  0.4902
 9440SOL    HW139782   2.601   3.412   1.733  0.3676 -1.6119 -0.2682
 9440SOL    HW239783   2.594   3.382   1.874  0.3609  1.5449 -0.7293
 9441SOL     OW39784   3.931   4.567   6.463 -0.3943 -0.4684 -0.2111
 9441SOL    HW139785   3.843   4.604   6.474  0.5207  1.9116 -0.9242
 9441SOL    HW239786   3.956   4.576   6.555 -1.4645  1.4284 -0.0913
 9442SOL     OW39787   0.627   3.094   5.900  0.0940 -0.3556 -0.3892
 9442SOL    HW139788   0.664   3.114   5.986 -0.3661  0.4006 -0.3679
 9442SOL    HW239789   0.535   3.120   5.911  0.2018  0.7060 -1.9017
 9443SOL     OW39790   0.576   4.705   6.460  1.1223  0.2886  0.3365
 9443SOL    HW139791   0.599   0.047   6.399  2.6874  0.1396  0.7585
 9443SOL    HW239792   0.545   0.039   6.526  0.8005 -1.2536  1.6238
 9444SOL     OW39793   0.841   1.686   3.251  0.2768 -0.4779  0.3993
 9444SOL    HW139794   0.865   1.637   3.173  2.4950 -0.6781  1.2172
 9444SOL    HW239795   0.829   1.775   3.218  0.9346 -0.6484 -0.3075
 9445SOL     OW39796   1.052   2.532   8.412  0.7266 -0.1239  0.2627
 9445SOL    HW139797   0.983   2.548   8.347  1.1655 -0.0666 -0.1812
 9445SOL    HW239798   1.017   2.454   8.456  1.6002  0.7999  2.5865
 9446SOL     OW39799   3.593   1.877   8.873 -0.3711  0.5640  0.3579
 9446SOL    HW139800   3.534   1.866   8.799 -1.3986  0.4741  1.1845
 9446SOL    HW239801   3.523   1.894   8.937 -2.0052  2.1070 -1.8325
 9447SOL     OW39802   0.777   1.256  17.689  0.7659  0.0135 -0.4911
 9447SOL    HW139803   0.759   1.271   0.072  1.8164 -1.4923 -0.0369
 9447SOL    HW239804   0.796   1.162  17.693 -1.5713 -0.4263 -0.1199
 9448SOL     OW39805   2.981   4.311   6.105  0.1945 -0.6317 -0.0107
 9448SOL    HW139806   3.069   4.317   6.067  1.0574 -4.2602  1.4100
 9448SOL    HW239807   2.981   4.391   6.157  0.4487 -1.6465  1.5505
 9449SOL     OW39808   1.059   1.613   9.175  0.4244 -0.1880  0.1795
 9449SOL    HW139809   1.019   1.562   9.104 -2.2470  2.8125 -0.4738
 9449SOL    HW239810   1.015   1.589   9.256  2.3357 -0.6001  1.0957
 9450SOL     OW39811   2.220   2.010  12.909 -0.1069  0.2323  0.0908
 9450SOL    HW139812   2.133   1.977  12.934 -0.0589 -0.2654 -0.4114
 9450SOL    HW239813   2.231   1.999  12.815 -2.8354  0.8666 -0.3111
 9451SOL     OW39814   3.366   1.990   0.825  0.3121  0.4260  0.2041
 9451SOL    HW139815   3.362   1.934   0.748  2.3187  1.3514 -0.5664
 9451SOL    HW239816   3.274   2.012   0.841  0.0191  0.2271 -1.2467
 9452SOL     OW39817   1.565   0.661   9.490 -0.1086  0.1199 -0.4519
 9452SOL    HW139818   1.492   0.694   9.543  1.2710  1.6406  0.5214
 9452SOL    HW239819   1.530   0.632   9.407  1.5777  2.7405 -2.0935
 9453SOL     OW39820   2.513   2.611   0.757 -0.1702 -0.6964 -0.3518
 9453SOL    HW139821   2.560   2.528   0.744  0.1218 -0.3701 -1.3935
 9453SOL    HW239822   2.545   2.625   0.846  0.9289 -0.7274 -0.7334
 9454SOL     OW39823   1.047   3.277   5.909  0.0504 -0.3771  0.1517
 9454SOL    HW139824   1.065   3.184   5.896 -0.0307 -0.5062  0.9263
 9454SOL    HW239825   0.993   3.293   5.832  0.8410 -0.2536 -0.3748
 9455SOL     OW39826   2.800   2.811   0.180 -0.2705 -0.6924 -0.4386
 9455SOL    HW139827   2.760   2.884   0.227 -0.3643 -2.3285  2.0200
 9455SOL    HW239828   2.846   2.862   0.113 -1.2593  0.5677 -0.1718
 9456SOL     OW39829   2.573   4.530  11.708  0.2279 -0.1378 -0.0379
 9456SOL    HW139830   2.594   4.535  11.614  0.2139 -0.8273 -0.0787
 9456SOL    HW239831   2.485   4.568  11.715 -0.1758 -1.5661  2.4729
 9457SOL     OW39832   3.073   4.640   7.650  0.3541 -0.0909  0.1145
 9457SOL    HW139833   3.085   4.678   7.737  0.6033  1.9873 -0.8359
 9457SOL    HW239834   3.150   4.583   7.648  1.9926  2.1453  0.0272
 9458SOL     OW39835   1.179   1.816  14.284  0.5617 -0.3283 -0.7054
 9458SOL    HW139836   1.247   1.795  14.349 -0.8323  1.7940  1.4302
 9458SOL    HW239837   1.098   1.808  14.335  0.1797  0.7970 -1.1533
 9459SOL     OW39838   0.400   2.889   6.445 -0.5149 -0.7886 -0.3081
 9459SOL    HW139839   0.370   2.851   6.362 -3.9374  1.7825 -0.2429
 9459SOL    HW239840   0.402   2.811   6.500 -1.7454 -0.0571  0.7915
 9460SOL     OW39841   3.930   3.040  13.066 -0.0658  0.0474  0.7723
 9460SOL    HW139842   3.864   3.045  13.135 -1.0108  0.7412 -0.1756
 9460SOL    HW239843   3.884   2.979  13.009  2.6273  0.8593 -2.2918
 9461SOL     OW39844   3.267   2.727   8.543 -0.3075 -0.1866  0.2637
 9461SOL    HW139845   3.335   2.661   8.526 -0.6915  0.1644 -2.6283
 9461SOL    HW239846   3.201   2.708   8.477 -2.1489  0.3516  1.9679
 9462SOL     OW39847   0.350   1.119   5.274  0.1586 -0.2384 -0.0740
 9462SOL    HW139848   0.298   1.116   5.193  2.3039 -1.4674 -1.4086
 9462SOL    HW239849   0.383   1.208   5.272  1.1682 -0.6388 -1.9476
 9463SOL     OW39850   3.960   0.082   2.377 -0.2616 -0.1123  0.0068
 9463SOL    HW139851   3.875   0.049   2.348 -0.5670 -0.3984  1.2269
 9463SOL    HW239852   4.010   0.073   2.296 -2.7538  0.0228 -1.5394
 9464SOL     OW39853   1.100   2.029   5.823 -0.4975  0.5939  0.1067
 9464SOL    HW139854   1.016   1.991   5.795 -0.1879  0.3614 -0.5087
 9464SOL    HW239855   1.144   2.048   5.739 -1.4422  2.1448 -0.0373
 9465SOL     OW39856   4.052   0.519   1.919 -0.1426  0.2224  0.6783
 9465SOL    HW139857   4.084   0.484   2.003  0.3901 -0.8585  0.0239
 9465SOL    HW239858   4.009   0.603   1.938 -2.9955 -1.3129  0.8598
 9466SOL     OW39859   1.866   1.658   6.853 -0.4447  0.3881  0.2925
 9466SOL    HW139860   1.856   1.753   6.860 -0.5713  0.3203  0.9665
 9466SOL    HW239861   1.932   1.641   6.920 -0.0762 -0.2482 -0.2242
 9467SOL     OW39862   2.799   0.581  12.623  0.3261 -0.0878  0.4369
 9467SOL    HW139863   2.878   0.581  12.677  1.1888  3.4978 -0.7887
 9467SOL    HW239864   2.817   0.526  12.548 -1.5925 -1.7397  1.1833
 9468SOL     OW39865   4.482   2.569   2.588  0.1600 -0.4926 -0.2240
 9468SOL    HW139866   4.426   2.646   2.575  2.5048  1.2921  0.3648
 9468SOL    HW239867   4.442   2.514   2.655  2.0902 -0.2753  1.0875
 9469SOL     OW39868   2.120   2.569   3.073  0.3906  0.3459 -0.1229
 9469SOL    HW139869   2.163   2.653   3.090 -0.1608  0.6887 -0.4315
 9469SOL    HW239870   2.031   2.599   3.055 -0.2606 -0.6737  1.3948
 9470SOL     OW39871   0.780   3.851   8.764  0.5855  0.1789  0.8424
 9470SOL    HW139872   0.717   3.780   8.775  0.3910  0.3272  0.6969
 9470SOL    HW239873   0.731   3.922   8.805 -1.4760 -1.3506  0.9868
 9471SOL     OW39874   0.765   4.700   0.188  0.3363  0.3239 -0.4241
 9471SOL    HW139875   0.812   4.616   0.182  0.2767  0.4854 -3.0811
 9471SOL    HW239876   0.675   4.669   0.202  0.9560 -0.9797  0.6716
 9472SOL     OW39877   3.204   3.476   2.889  0.1529 -0.3532 -0.1627
 9472SOL    HW139878   3.233   3.404   2.945 -0.5201  0.5568  1.3342
 9472SOL    HW239879   3.284   3.492   2.839  0.5044 -1.8672 -0.1032
 9473SOL     OW39880   1.489   0.544   5.965 -0.0549  0.2635  0.7515
 9473SOL    HW139881   1.499   0.450   5.983 -0.3714  0.5157  2.2567
 9473SOL    HW239882   1.572   0.590   5.979  0.7918 -1.1747  0.4497
 9474SOL     OW39883   2.748   4.270   4.817  0.2108  0.1902  0.6903
 9474SOL    HW139884   2.817   4.336   4.820 -0.9684  1.5171 -1.6497
 9474SOL    HW239885   2.782   4.226   4.738  0.0766 -0.6055  1.0756
 9475SOL     OW39886   0.390   4.127   4.783  0.2671  0.0742 -0.1313
 9475SOL    HW139887   0.402   4.196   4.718  1.6980 -0.0330  0.0206
 9475SOL    HW239888   0.468   4.075   4.765  0.0851 -1.0300  2.1890
 9476SOL     OW39889   3.318   1.455   6.755  0.2076  0.7103  0.2954
 9476SOL    HW139890   3.287   1.526   6.699 -2.4818  0.2652  1.2586
 9476SOL    HW239891   3.278   1.475   6.840 -1.5679  0.0390 -0.3858
 9477SOL     OW39892   2.813   1.151  10.411  0.3743  0.2463 -0.1670
 9477SOL    HW139893   2.793   1.244  10.398  1.7951  0.7146  0.9029
 9477SOL    HW239894   2.802   1.152  10.506  3.7793 -0.3081  0.2299
 9478SOL     OW39895   4.169   1.005  11.660 -0.2163 -0.0123 -0.9172
 9478SOL    HW139896   4.136   1.084  11.703 -1.0565  0.7396 -2.9650
 9478SOL    HW239897   4.182   1.039  11.572  2.6143 -0.2353 -0.5598
 9479SOL     OW39898   1.240   0.610   4.029 -0.1004 -0.7379 -0.2768
 9479SOL    HW139899   1.327   0.646   4.014 -0.0372 -1.2762 -1.2244
 9479SOL    HW239900   1.194   0.639   3.950 -1.1287 -0.3901  0.4479
 9480SOL     OW39901   1.007   0.058   8.460  0.2590 -0.1842 -0.1859
 9480SOL    HW139902   0.971   4.703   8.426  0.2711 -1.1514  2.1481
 9480SOL    HW239903   1.061   0.011   8.523 -0.0850  0.3032  0.4740
 9481SOL     OW39904   3.460   2.208   3.255  0.0608 -0.4867  0.0362
 9481SOL    HW139905   3.469   2.172   3.343 -4.2288  2.2956  1.6020
 9481SOL    HW239906   3.401   2.145   3.213 -1.7448  1.3673 -0.1662
 9482SOL     OW39907   3.046   2.135   5.195 -0.5618  0.5347  0.8773
 9482SOL    HW139908   3.114   2.068   5.191 -0.0666  0.8742  3.4860
 9482SOL    HW239909   3.107   2.203   5.167  0.0392 -0.4067 -0.0782
 9483SOL     OW39910   2.549   0.112   7.794  0.2543  0.0828  0.9645
 9483SOL    HW139911   2.612   0.041   7.779  0.1632 -0.1206  1.5522
 9483SOL    HW239912   2.549   0.116   7.889  0.9184  0.6748  0.9372
 9484SOL     OW39913   2.369   4.264   1.658  0.3625  0.6479  0.1599
 9484SOL    HW139914   2.376   4.189   1.718  1.3940 -0.9834 -1.9796
 9484SOL    HW239915   2.403   4.215   1.583 -0.0250 -0.5849  0.7842
 9485SOL     OW39916   0.817   3.388   6.801 -0.1253 -0.7388  0.3719
 9485SOL    HW139917   0.762   3.421   6.729  0.6342 -0.4771 -0.0948
 9485SOL    HW239918   0.761   3.404   6.876  0.3589  0.6086  0.4524
 9486SOL     OW39919   4.531   4.122  13.988 -0.1258 -0.2116 -0.2090
 9486SOL    HW139920   4.577   4.040  13.967  2.0997  0.7556  0.8749
 9486SOL    HW239921   4.452   4.074  14.013 -0.0962 -0.9071 -1.4330
 9487SOL     OW39922   2.667   0.849   1.828 -0.1191 -0.2093 -0.0737
 9487SOL    HW139923   2.589   0.804   1.861  1.2310 -2.4064  0.1022
 9487SOL    HW239924   2.635   0.859   1.738 -1.7132 -2.2430  0.2552
 9488SOL     OW39925   0.342   2.876   5.796 -0.4300  0.1420 -0.0592
 9488SOL    HW139926   0.395   2.874   5.875  0.5367 -1.7173 -0.7514
 9488SOL    HW239927   0.336   2.785   5.765  0.4380 -0.3713  1.2698
 9489SOL     OW39928   1.503   1.657   5.168 -0.2399 -0.2573 -0.4449
 9489SOL    HW139929   1.554   1.599   5.111 -0.5330 -0.5785 -0.3809
 9489SOL    HW239930   1.531   1.632   5.256 -1.4829 -0.8989 -0.2349
 9490SOL     OW39931   2.539   4.367  12.078 -0.3534 -0.1267  0.2850
 9490SOL    HW139932   2.543   4.348  12.171  0.1876 -1.9324 -0.1064
 9490SOL    HW239933   2.606   4.307  12.045  0.6788  2.0484 -1.5790
 9491SOL     OW39934   4.710   0.971   6.459  0.3075  0.0475  0.0610
 9491SOL    HW139935   0.028   0.957   6.376 -0.2444 -2.9655  0.2810
 9491SOL    HW239936   4.636   1.029   6.439 -0.2387 -0.6831 -0.0024
 9492SOL     OW39937   1.448   0.540   0.373 -0.7181  0.0720  0.0455
 9492SOL    HW139938   1.497   0.618   0.348  0.3452 -0.0974  1.5623
 9492SOL    HW239939   1.386   0.577   0.437 -2.0607 -1.9023 -0.0945
 9493SOL     OW39940   0.592   4.441   9.365  0.1973  0.2193  0.0512
 9493SOL    HW139941   0.563   4.428   9.455  1.3187 -2.1256  0.0558
 9493SOL    HW239942   0.684   4.416   9.377  0.3094 -0.7586 -2.8195
 9494SOL     OW39943   3.294   1.295   2.165 -0.5359 -0.1131 -0.2463
 9494SOL    HW139944   3.257   1.207   2.172 -1.6403  0.3872  0.2415
 9494SOL    HW239945   3.216   1.346   2.188 -1.4811 -1.1297 -1.1947
 9495SOL     OW39946   3.271   0.749   8.534  0.1619 -0.0619 -0.3780
 9495SOL    HW139947   3.239   0.696   8.608 -0.1229  1.1164  0.3565
 9495SOL    HW239948   3.298   0.825   8.585  1.3838 -0.7385 -0.0259
 9496SOL     OW39949   4.362   3.470   2.112 -0.6014 -0.1334 -0.1471
 9496SOL    HW139950   4.299   3.443   2.178 -1.2791  0.4583 -0.5491
 9496SOL    HW239951   4.309   3.460   2.033 -1.1750 -0.9852  0.3397
 9497SOL     OW39952   0.758   0.167   8.385  0.2851  0.5557 -0.2117
 9497SOL    HW139953   0.838   0.145   8.432 -1.5210 -0.3750  2.3772
 9497SOL    HW239954   0.739   0.253   8.422 -1.4154 -0.1899  0.6396
 9498SOL     OW39955   4.201   3.489  16.516  0.3234 -0.2125  0.3256
 9498SOL    HW139956   4.191   3.428  16.442 -0.0665 -0.2443  0.4045
 9498SOL    HW239957   4.117   3.469  16.556 -0.3383  1.5162 -0.1957
 9499SOL     OW39958   3.120   3.414   5.084  0.1877 -0.2516 -0.6136
 9499SOL    HW139959   3.030   3.383   5.088 -0.2554  1.2557  1.0531
 9499SOL    HW239960   3.120   3.499   5.039  0.7482  0.4437  0.6835
 9500SOL     OW39961   3.819   4.687  17.454  0.3375 -0.0719  0.4221
 9500SOL    HW139962   3.794   0.001  17.537  0.7458 -1.2160  1.1149
 9500SOL    HW239963   3.741   4.701  17.400 -0.0295 -1.7657  0.5214
 9501SOL     OW39964   0.717   2.151   0.742 -0.4310  0.1409 -0.1956
 9501SOL    HW139965   0.772   2.073   0.737  1.3141  1.2213  2.0618
 9501SOL    HW239966   0.760   2.208   0.678 -0.2333  1.2137  0.8889
 9502SOL     OW39967   4.019   3.066  12.058  0.3224  0.4664  0.1415
 9502SOL    HW139968   4.088   3.125  12.028  1.0893  1.9144  4.7950
 9502SOL    HW239969   3.964   3.063  11.980  1.9814  0.2627 -1.0346
 9503SOL     OW39970   4.424   0.100   5.417  0.0661  0.1768 -0.2078
 9503SOL    HW139971   4.470   0.022   5.385  0.3840 -0.4941  1.8276
 9503SOL    HW239972   4.373   0.125   5.340  1.2943 -0.6028 -1.2768
 9504SOL     OW39973   4.277   3.738  17.614 -0.7105  0.1968  0.0384
 9504SOL    HW139974   4.269   3.831  17.634  1.5087  0.2797  0.5654
 9504SOL    HW239975   4.223   3.735  17.536 -1.1871 -1.5684  0.4203
 9505SOL     OW39976   0.648   0.462   2.698 -0.4179 -0.6227  0.2222
 9505SOL    HW139977   0.641   0.534   2.761 -0.0711 -1.0413  0.7344
 9505SOL    HW239978   0.585   0.506   2.640  0.0964  0.1519  0.2529
 9506SOL     OW39979   1.911   4.665   6.784  0.2966  0.2036  0.3400
 9506SOL    HW139980   1.870   0.005   6.839  2.6564  1.9340 -0.0405
 9506SOL    HW239981   1.930   4.606   6.856  0.7742 -2.1258 -1.6972
 9507SOL     OW39982   2.966   0.971   6.202 -0.1069  0.1559 -0.1364
 9507SOL    HW139983   2.960   0.905   6.271  2.7310  1.5711  1.4533
 9507SOL    HW239984   2.989   0.911   6.131 -1.3942 -2.2740  1.4757
 9508SOL     OW39985   2.512   2.753   3.441 -1.0369  0.0678 -0.0133
 9508SOL    HW139986   2.593   2.774   3.487 -0.6578 -0.1297 -0.5861
 9508SOL    HW239987   2.498   2.662   3.467 -2.4385  0.6319  1.1751
 9509SOL     OW39988   4.619   4.072   5.738  0.2632 -0.1721  0.1890
 9509SOL    HW139989   4.671   4.068   5.818 -0.3384  1.1104  0.6453
 9509SOL    HW239990   4.643   3.987   5.701  1.2832  1.3532 -2.7152
 9510SOL     OW39991   2.878   0.045   6.005 -0.0215 -0.0696 -0.0297
 9510SOL    HW139992   2.957   0.008   6.045  0.0057  0.8504  0.7638
 9510SOL    HW239993   2.862   0.129   6.046  0.7877 -0.0194  0.1950
 9511SOL     OW39994   2.783   4.367   8.800 -0.3757  0.0758  0.5997
 9511SOL    HW139995   2.728   4.302   8.844  0.1043 -2.1472 -2.0894
 9511SOL    HW239996   2.728   4.445   8.812  0.1569  0.4359  0.7075
 9512SOL     OW39997   2.793   2.390  17.273  0.1709  0.3453 -0.2512
 9512SOL    HW139998   2.754   2.336  17.204  0.4510  1.4201 -1.2316
 9512SOL    HW239999   2.721   2.380  17.337  0.6129 -0.6535  0.0864
 9513SOL     OW40000   2.874   3.189   1.667  0.1457  0.1578 -0.6069
 9513SOL    HW140001   2.779   3.176   1.657 -0.2111  0.8382  1.8049
 9513SOL    HW240002   2.879   3.151   1.755  0.6259  2.5834  0.4352
 9514SOL     OW40003   3.443   0.897   3.092  0.0284 -0.0717 -0.0460
 9514SOL    HW140004   3.518   0.885   3.034  0.3655 -0.5015  0.4790
 9514SOL    HW240005   3.380   0.839   3.049  0.3393  1.8254 -3.0214
 9515SOL     OW40006   2.438   2.450  14.318  0.0939 -0.3886  0.1581
 9515SOL    HW140007   2.421   2.431  14.226 -2.1948  0.2290  0.4621
 9515SOL    HW240008   2.379   2.381  14.346 -0.5456 -0.0072 -0.2618
 9516SOL     OW40009   1.646   4.507   6.418 -0.3236 -0.2540 -0.4015
 9516SOL    HW140010   1.606   4.445   6.358  1.7595 -2.2007  0.2391
 9516SOL    HW240011   1.604   4.486   6.501 -3.2063  2.4692 -1.1647
 9517SOL     OW40012   3.522   4.426   8.698  0.2286 -0.2544  0.0050
 9517SOL    HW140013   3.587   4.367   8.661  2.0167  1.9857 -0.4497
 9517SOL    HW240014   3.444   4.412   8.643 -1.6006 -1.1033  2.8355
 9518SOL     OW40015   4.518   0.131   7.676 -1.0980 -0.0105 -0.3792
 9518SOL    HW140016   4.425   0.111   7.686 -1.1328  0.8560  1.0679
 9518SOL    HW240017   4.521   0.226   7.691  1.1253 -0.1464  0.0431
 9519SOL     OW40018   3.918   1.652   4.216  0.1378  0.0933 -0.7521
 9519SOL    HW140019   3.988   1.713   4.237 -0.5652  1.1831 -1.5809
 9519SOL    HW240020   3.937   1.569   4.261 -1.7160  0.1962  0.2384
 9520SOL     OW40021   4.301   3.721   5.912 -0.0392  0.3175  0.3364
 9520SOL    HW140022   4.321   3.651   5.975  0.0938 -0.9381 -1.1006
 9520SOL    HW240023   4.205   3.711   5.910 -0.1870  1.9605 -0.4446
 9521SOL     OW40024   2.411   0.757   2.481  0.7943  0.2845  0.3653
 9521SOL    HW140025   2.388   0.775   2.572 -0.0843 -0.2363  0.2475
 9521SOL    HW240026   2.374   0.669   2.469 -0.5280  0.8815  0.0111
 9522SOL     OW40027   3.061   3.422  12.460  0.4064 -0.0487 -0.0818
 9522SOL    HW140028   2.991   3.357  12.456 -1.1507  1.6158 -0.4049
 9522SOL    HW240029   3.092   3.420  12.369  0.9841  0.1586  0.1095
 9523SOL     OW40030   0.284   3.044   1.406  0.3855 -0.2068 -0.4715
 9523SOL    HW140031   0.372   3.079   1.396  0.5179 -0.8599 -1.5070
 9523SOL    HW240032   0.227   3.121   1.399  1.4465  0.7452  1.2693
 9524SOL     OW40033   4.026   3.435   1.365 -0.1865 -0.7855 -0.0120
 9524SOL    HW140034   4.015   3.352   1.410 -1.8786 -0.9951 -0.8106
 9524SOL    HW240035   4.119   3.432   1.341 -0.2345 -3.0025  0.1472
 9525SOL     OW40036   4.521   1.341   6.958 -0.9136  0.0395 -0.0286
 9525SOL    HW140037   4.612   1.347   6.987 -1.0139 -1.3521  0.5887
 9525SOL    HW240038   4.479   1.342   7.045 -0.4603 -0.7478  0.2003
 9526SOL     OW40039   3.068   0.131   9.061  0.7614 -0.6567 -0.0162
 9526SOL    HW140040   3.119   0.062   9.020  1.1504 -1.4268  1.7385
 9526SOL    HW240041   3.106   0.122   9.149  1.2013 -0.3252 -0.1721
 9527SOL     OW40042   4.199   2.674   3.563 -0.5207  0.0518  0.0396
 9527SOL    HW140043   4.120   2.692   3.513  0.2121 -0.0085 -1.1286
 9527SOL    HW240044   4.178   2.586   3.594 -0.1453  0.2796  0.9543
 9528SOL     OW40045   4.080   2.775   1.974 -0.2277  0.1471  0.1920
 9528SOL    HW140046   4.073   2.681   1.962 -0.7692 -0.0263  1.9775
 9528SOL    HW240047   4.171   2.773   2.004  0.0441  0.1981 -0.6202
 9529SOL     OW40048   0.989   4.413   0.827 -0.3990 -0.2895 -0.6012
 9529SOL    HW140049   1.040   4.409   0.909 -2.2689  0.1631  0.5804
 9529SOL    HW240050   1.051   4.360   0.777  0.9878 -0.8986  1.7575
 9530SOL     OW40051   2.419   2.989  12.134  0.2111  0.1842  0.0513
 9530SOL    HW140052   2.351   3.053  12.115 -1.6535 -1.9568 -0.4334
 9530SOL    HW240053   2.434   2.965  12.042 -2.8030 -0.1461 -0.3547
 9531SOL     OW40054   1.574   0.258   4.626  0.5021 -0.3624 -0.2494
 9531SOL    HW140055   1.579   0.238   4.719 -2.8630 -2.1626 -0.4729
 9531SOL    HW240056   1.639   0.193   4.597 -0.5418 -1.5917  0.2054
 9532SOL     OW40057   3.859   2.953  10.772 -0.2585  0.2750 -0.0419
 9532SOL    HW140058   3.829   2.862  10.761  1.7902  0.2503 -4.9991
 9532SOL    HW240059   3.826   2.993  10.692  2.4905  0.1168 -1.2511
 9533SOL     OW40060   4.478   0.362   2.889  0.4441  0.1421 -0.2109
 9533SOL    HW140061   4.495   0.309   2.811  1.4019  0.2723 -0.0818
 9533SOL    HW240062   4.386   0.342   2.910  1.1597 -0.0866  2.6722
 9534SOL     OW40063   1.036   0.655  13.427 -0.1082  0.1013  0.0371
 9534SOL    HW140064   1.053   0.575  13.477  1.1183  0.5217  0.2805
 9534SOL    HW240065   0.941   0.645  13.426  0.0662 -1.6225 -0.3625
 9535SOL     OW40066   4.356   1.184  15.776 -0.4058  0.1338  0.3275
 9535SOL    HW140067   4.341   1.183  15.681  1.4660 -3.8855  0.0673
 9535SOL    HW240068   4.383   1.275  15.789 -0.9641  0.2360  0.7431
 9536SOL     OW40069   1.812   3.741   6.303  0.1609  0.4186 -0.8837
 9536SOL    HW140070   1.752   3.681   6.259  2.2858 -2.4518  0.1363
 9536SOL    HW240071   1.852   3.780   6.226  1.6335 -2.1552 -1.4316
 9537SOL     OW40072   4.059   1.950   4.963 -0.4441  0.2002 -0.2661
 9537SOL    HW140073   4.048   1.870   5.016  0.9377  1.2295  1.5671
 9537SOL    HW240074   4.022   1.925   4.878  0.5432  0.0304 -0.6438
 9538SOL     OW40075   1.686   1.881  15.857  0.2919 -0.0546 -0.1531
 9538SOL    HW140076   1.776   1.872  15.889  0.6747  0.4130 -1.0968
 9538SOL    HW240077   1.656   1.956  15.909 -0.6224  0.3299 -1.2396
 9539SOL     OW40078   1.146   1.134   1.805  0.4925  0.3818  0.6048
 9539SOL    HW140079   1.223   1.117   1.750 -1.3721  2.3090 -2.6073
 9539SOL    HW240080   1.089   1.141   1.728  0.1663 -1.1175  0.7054
 9540SOL     OW40081   2.946   4.471   4.825 -0.3196 -0.1600 -0.4623
 9540SOL    HW140082   2.972   4.502   4.911 -0.6819  2.0049 -1.1414
 9540SOL    HW240083   3.029   4.445   4.785 -0.8021  1.1841 -2.3549
 9541SOL     OW40084   1.566   0.981   3.532 -0.1099  0.6761  0.0697
 9541SOL    HW140085   1.654   0.962   3.499  0.8106 -1.4330  3.7600
 9541SOL    HW240086   1.544   0.905   3.586  1.5991  0.1822  0.0843
 9542SOL     OW40087   4.685   4.468  15.011  1.2842  0.0202 -0.3185
 9542SOL    HW140088   4.650   4.493  14.926 -0.2039 -2.0474 -0.3021
 9542SOL    HW240089   4.605   4.459  15.062 -0.1759 -1.3064 -2.8847
 9543SOL     OW40090   2.829   2.643   0.487 -0.0823 -0.0761 -0.2150
 9543SOL    HW140091   2.770   2.693   0.431  0.9075  2.1629  0.7327
 9543SOL    HW240092   2.879   2.716   0.523  1.9938 -1.8822  0.5069
 9544SOL     OW40093   1.845   0.575   6.570 -0.2550  0.1165 -0.0330
 9544SOL    HW140094   1.768   0.633   6.568 -0.3169  0.0523  0.4727
 9544SOL    HW240095   1.885   0.609   6.650 -2.5491  1.2579  0.6481
 9545SOL     OW40096   0.387   1.439   7.460 -0.1612  0.5532 -0.5874
 9545SOL    HW140097   0.464   1.384   7.449 -1.6982 -1.6478 -0.3668
 9545SOL    HW240098   0.386   1.444   7.556 -2.0520  0.2277 -0.5807
 9546SOL     OW40099   4.718   1.703   6.789  0.6953 -0.5112 -0.2268
 9546SOL    HW140100   0.059   1.674   6.850 -0.3313 -0.4164  0.9834
 9546SOL    HW240101   4.641   1.669   6.834  1.0734  2.5700  2.7570
 9547SOL     OW40102   0.701   4.697   3.773  0.1231  0.2407 -0.4771
 9547SOL    HW140103   0.781   0.021   3.774 -1.7503  3.1073  0.7668
 9547SOL    HW240104   0.636   0.029   3.735 -1.1248  0.4182  1.9493
 9548SOL     OW40105   3.972   0.761   8.341 -0.2179 -0.1783 -0.4083
 9548SOL    HW140106   3.944   0.807   8.420 -0.0128 -1.3969  0.3672
 9548SOL    HW240107   4.008   0.680   8.377  0.0047 -0.1797 -0.6351
 9549SOL     OW40108   3.565   0.636   5.428  0.8698 -0.0866 -0.4138
 9549SOL    HW140109   3.595   0.683   5.350 -0.1328 -0.8768 -1.2649
 9549SOL    HW240110   3.485   0.594   5.396  0.8730  0.2098 -0.8164
 9550SOL     OW40111   0.331   4.150   8.419 -0.4465  0.2555  0.0305
 9550SOL    HW140112   0.294   4.123   8.334 -1.8390 -0.5219  0.8818
 9550SOL    HW240113   0.276   4.108   8.484  0.5751 -2.2566 -0.7173
 9551SOL     OW40114   3.083   1.552   3.756  0.1093 -0.3964  0.7316
 9551SOL    HW140115   3.150   1.487   3.780  1.3800  1.2462  1.5983
 9551SOL    HW240116   3.116   1.632   3.797  1.6992 -1.1644  0.9702
 9552SOL     OW40117   1.113   4.249   9.474 -0.0012  0.2445  0.1388
 9552SOL    HW140118   1.073   4.163   9.461  1.5893 -0.5905  0.7725
 9552SOL    HW240119   1.179   4.258   9.405  1.8237 -0.9695  1.6965
 9553SOL     OW40120   4.619   0.848   1.653  0.2327  0.6358  0.1289
 9553SOL    HW140121   4.584   0.863   1.565  0.7787  0.1993 -0.1670
 9553SOL    HW240122   4.691   0.787   1.633 -0.7087 -0.6589  0.7051
 9554SOL     OW40123   3.798   4.019   5.389  0.1076  0.1542 -1.0227
 9554SOL    HW140124   3.816   3.933   5.427  0.2412  0.6081 -0.0577
 9554SOL    HW240125   3.706   4.030   5.413  0.6011 -0.3199  1.1680
 9555SOL     OW40126   1.721   1.258   3.299 -0.2636 -0.0051  0.5285
 9555SOL    HW140127   1.652   1.206   3.260  0.2885  0.3452 -0.9135
 9555SOL    HW240128   1.670   1.322   3.349 -1.9294 -1.6716  0.9647
 9556SOL     OW40129   0.388   1.724  10.302 -0.2974  0.2445  0.4776
 9556SOL    HW140130   0.376   1.764  10.215 -0.5649 -0.3797  0.2238
 9556SOL    HW240131   0.302   1.687  10.324  0.3662 -1.6417 -0.1127
 9557SOL     OW40132   1.571   2.675   4.178 -0.2397  0.0338  0.7582
 9557SOL    HW140133   1.497   2.620   4.155  0.4439 -0.6966  0.2837
 9557SOL    HW240134   1.592   2.644   4.267 -2.0002  0.7522  1.4120
 9558SOL     OW40135   3.496   1.317   5.110  0.4625 -0.4989  0.3591
 9558SOL    HW140136   3.422   1.284   5.059  0.1862  0.0612  0.3944
 9558SOL    HW240137   3.562   1.266   5.063 -0.5564 -0.0190 -1.6277
 9559SOL     OW40138   2.929   0.192   6.346  0.0937 -0.0083  0.5350
 9559SOL    HW140139   2.968   0.106   6.363 -0.5093 -0.4823 -0.4449
 9559SOL    HW240140   2.956   0.240   6.424  2.0489  1.3513 -0.9905
 9560SOL     OW40141   2.824   4.707   5.556 -0.1250  0.1136 -0.0075
 9560SOL    HW140142   2.850   0.033   5.631  0.6951  0.5082 -0.5746
 9560SOL    HW240143   2.736   4.679   5.583  0.3130 -1.6080 -0.3239
 9561SOL     OW40144   1.554   1.106   9.082  0.4097 -0.1106 -0.1348
 9561SOL    HW140145   1.588   1.181   9.033 -1.4328  0.9108  0.1469
 9561SOL    HW240146   1.642   1.079   9.108  0.3719 -0.6902 -0.6195
 9562SOL     OW40147   1.026   0.579   1.967 -0.0775 -0.0668 -0.6610
 9562SOL    HW140148   1.075   0.515   2.018  1.0716  0.6223 -0.8979
 9562SOL    HW240149   0.955   0.521   1.941 -0.7320 -0.1638  1.3157
 9563SOL     OW40150   2.121   2.709   6.634  0.0569 -0.3488 -0.1409
 9563SOL    HW140151   2.141   2.789   6.683  1.0462 -1.9525  2.0788
 9563SOL    HW240152   2.155   2.649   6.700 -2.3128 -0.5623  0.8908
 9564SOL     OW40153   3.172   1.952  13.819 -0.3874 -0.0624 -1.2245
 9564SOL    HW140154   3.116   2.022  13.786  0.0618  0.2623 -1.2855
 9564SOL    HW240155   3.198   1.965  13.910 -3.4710  1.7877 -0.6222
 9565SOL     OW40156   3.456   0.638   9.092  0.3694  0.1320  0.1809
 9565SOL    HW140157   3.453   0.546   9.116  0.4070 -0.0108 -0.3612
 9565SOL    HW240158   3.521   0.637   9.021 -0.9011  3.1844 -1.0356
 9566SOL     OW40159   2.406   3.569   5.725  0.4649  0.0203 -0.3219
 9566SOL    HW140160   2.389   3.624   5.648  3.4885 -0.9954 -1.7203
 9566SOL    HW240161   2.314   3.559   5.749  0.3355 -0.6990 -1.1041
 9567SOL     OW40162   2.663   0.790   7.393  0.5208 -0.0400  0.7883
 9567SOL    HW140163   2.647   0.709   7.344  0.2485  0.7469 -0.4208
 9567SOL    HW240164   2.576   0.831   7.393  0.1567 -0.7804 -0.8314
 9568SOL     OW40165   0.030   0.592   3.775  0.2118 -0.5376 -0.2119
 9568SOL    HW140166   0.095   0.634   3.832 -1.9074 -1.1932  2.6970
 9568SOL    HW240167   0.086   0.523   3.737  1.3235  0.4476 -0.3675
   4.72738   4.72738  17.71033
