Membrane in water
40167
    1TCq1    O1    1   1.751   0.308  11.364 -0.8416  0.6137  0.4910
    1TCq1    C1    2   1.783   0.266  11.491 -0.1008 -0.4561 -0.5538
    1TCq1    O2    3   1.842   0.331  11.573 -0.0792  0.4856 -0.3208
    1TCq1    C2    4   1.703   0.147  11.530 -1.1769  0.3952  0.1269
    1TCq1    C3    5   1.585   0.130  11.461 -0.2470 -0.0103  0.0384
    1TCq1    C4    6   1.483   0.058  11.533  0.0954  0.0817 -0.1377
    1TCq1    C5    7   1.503   0.004  11.657 -0.0492 -0.5249 -0.0603
    1TCq1    C6    8   1.622   0.036  11.718  0.0827 -0.5664  0.4969
    1TCq1    C7    9   1.727   0.101  11.652  0.6333  0.2623 -0.3251
    1TCq1    C8   10   1.633   0.003  11.853 -0.0465 -0.0851 -0.1809
    1TCq1    O4   11   1.542   0.037  11.923 -0.3387 -0.2725  0.1803
    1TCq1    C9   12   1.362   0.027  11.465 -0.6893 -0.5197  0.1149
    1TCq1    O5   13   1.360   0.039  11.340  0.1282  0.1360 -0.2019
    1TCq1    O6   14   1.262   0.009  11.539  0.8591  0.3522  0.2943
    1TCq1    H1   15   1.727   0.231  11.308 -0.5669  1.8754 -1.3881
    1TCq1    H2   16   1.569   0.170  11.362  0.0088 -2.4350 -0.9898
    1TCq1    H3   17   1.431   4.669  11.707 -1.5511  0.5463 -0.8974
    1TCq1    H4   18   1.823   0.122  11.698  0.8723 -0.1706 -0.6272
    2MPD2     C   19   1.913   4.552  12.233 -0.2985  0.4756  0.3555
    2MPD2    C1   20   1.786   4.607  12.233  0.2895  0.6354 -0.0192
    2MPD2    C2   21   1.736   4.650  12.119 -0.6418 -0.5427  0.3026
    2MPD2    C3   22   1.794   4.618  11.996 -0.0497  0.6126  0.7295
    2MPD2    C4   23   1.914   4.558  11.995  0.5971  0.0331  0.0963
    2MPD2    C5   24   1.966   4.517  12.115 -0.8494 -0.5221 -1.0145
    2MPD2     H   25   1.640   4.701  12.123  0.0897  0.6632  2.7734
    2MPD2    H1   26   1.960   4.531  11.901 -1.8605  1.0384 -1.4031
    2MPD2    H2   27   1.968   4.534  12.325  0.9991 -0.1523 -0.5360
    2MPD2    H3   28   2.063   4.470  12.121 -1.2945 -1.2212  0.7451
    2MPD2     N   29   1.751   4.661  11.872  0.7282 -0.3640  0.0343
    2MPD2    H5   30   1.814   4.649  11.793  1.1014 -0.1480  0.3014
    2MPD2    N1   31   1.714   4.625  12.350 -0.2365 -0.2793  0.2820
    2MPD2    H7   32   1.623   4.668  12.343  0.9208  1.9052 -1.7024
    3TCq1    O1   33   2.089   1.109  10.429 -0.0359 -0.7386 -0.0252
    3TCq1    C1   34   1.965   1.060  10.441  0.0933 -0.0601 -0.5012
    3TCq1    O2   35   1.908   1.044  10.549 -0.4025 -0.3589  0.0897
    3TCq1    C2   36   1.938   0.982  10.327  0.4152  0.0234  0.3928
    3TCq1    C3   37   2.035   0.937  10.237  0.3469  0.0401 -0.0828
    3TCq1    C4   38   2.008   0.823  10.161  0.2558 -0.7335  0.3165
    3TCq1    C5   39   1.888   0.755  10.164  0.1999  0.4103  0.3575
    3TCq1    C6   40   1.795   0.811  10.240  0.5701  0.3062 -0.5507
    3TCq1    C7   41   1.814   0.917  10.322 -0.0933  0.3585 -0.3510
    3TCq1    C8   42   1.675   0.727  10.252  0.2790  0.6549 -0.5963
    3TCq1    O4   43   1.671   0.618  10.203 -0.3713 -0.1833 -0.7394
    3TCq1    C9   44   2.113   0.761  10.086  0.0129  0.1634  0.4423
    3TCq1    O5   45   2.226   0.822  10.080  0.5541  0.0352  0.1360
    3TCq1    O6   46   2.100   0.657  10.013 -0.0847 -0.3113  0.1450
    3TCq1    H1   47   2.119   1.119  10.336  1.5940  2.0857  0.7895
    3TCq1    H2   48   2.136   0.974  10.226 -0.3838  1.4280 -2.0539
    3TCq1    H3   49   1.872   0.675  10.092  1.6313  0.5024 -0.0450
    3TCq1    H4   50   1.735   0.950  10.388  0.7635  0.7862  0.4514
    4MPD2     C   51   1.194   0.674  10.452 -0.5509 -0.0332 -0.8467
    4MPD2    C1   52   1.234   0.803  10.464 -0.5252 -0.2703  0.9581
    4MPD2    C2   53   1.355   0.832  10.404 -0.2595  0.1851  0.0599
    4MPD2    C3   54   1.449   0.747  10.354 -0.5742 -0.0932 -0.1877
    4MPD2    C4   55   1.409   0.618  10.355  0.3509  0.5788 -0.3408
    4MPD2    C5   56   1.278   0.581  10.396 -0.9935 -0.3567  0.5401
    4MPD2     H   57   1.381   0.938  10.402 -0.3578  0.2508  2.0573
    4MPD2    H1   58   1.468   0.535  10.318  1.6882  1.8120 -1.0135
    4MPD2    H2   59   1.110   0.624  10.500 -0.0032  0.0183  0.1558
    4MPD2    H3   60   1.252   0.476  10.397 -2.7039  0.0607 -0.8290
    4MPD2     N   61   1.572   0.795  10.309 -0.5223  0.2232  0.0327
    4MPD2    H5   62   1.588   0.895  10.317 -2.8085  0.6179 -0.0879
    4MPD2    N1   63   1.154   0.911  10.514 -0.3780  0.3541 -0.5069
    4MPD2    H7   64   1.194   1.002  10.491  0.3785  0.3744  0.8684
    5TCq1    O1   65   0.967   2.726  11.146  0.3215 -0.0784  0.1953
    5TCq1    C1   66   1.099   2.757  11.148 -0.0531  0.5806  0.1758
    5TCq1    O2   67   1.177   2.729  11.240  0.0357 -0.5944 -0.1222
    5TCq1    C2   68   1.130   2.718  11.014 -0.3412  0.3329  0.0778
    5TCq1    C3   69   1.064   2.779  10.908 -0.2659 -0.2333  0.0547
    5TCq1    C4   70   1.100   2.740  10.785 -0.3383 -1.3452  0.2417
    5TCq1    C5   71   1.168   2.625  10.762 -0.1066  0.0772 -0.3029
    5TCq1    C6   72   1.214   2.559  10.871 -0.1916 -0.1748 -0.7972
    5TCq1    C7   73   1.202   2.605  11.000 -0.4115 -0.4135  0.2339
    5TCq1    C8   74   1.296   2.445  10.850 -0.0510  0.9021  0.6411
    5TCq1    O4   75   1.276   2.341  10.917  0.4018 -0.0280 -0.0018
    5TCq1    C9   76   1.045   2.815  10.670 -0.5636 -0.4100 -0.2666
    5TCq1    O5   77   1.073   2.770  10.553 -0.1489  0.2513  0.1314
    5TCq1    O6   78   1.008   2.931  10.699  0.1864 -0.0947 -0.0141
    5TCq1    H1   79   0.931   2.695  11.060  0.6648  0.1909 -0.0492
    5TCq1    H2   80   1.003   2.868  10.921  0.2592  0.1930 -0.4306
    5TCq1    H3   81   1.172   2.591  10.659 -1.2413 -0.6973 -0.0876
    5TCq1    H4   82   1.253   2.555  11.082 -2.0328  0.3411  1.6837
    6MPD2     C   83   1.527   2.378  10.563 -0.1309  0.8120  0.3039
    6MPD2    C1   84   1.459   2.351  10.678 -0.4220 -0.3672 -0.4645
    6MPD2    C2   85   1.477   2.224  10.734  0.1679 -0.0837 -0.6469
    6MPD2    C3   86   1.579   2.144  10.687  0.1847 -0.7990  0.0899
    6MPD2    C4   87   1.663   2.194  10.594 -0.0257 -0.0418 -0.8987
    6MPD2    C5   88   1.633   2.304  10.529 -0.0671  0.4823  0.3010
    6MPD2     H   89   1.422   2.188  10.820  1.3780  1.1489  0.6495
    6MPD2    H1   90   1.737   2.123  10.559 -1.2881 -0.4944 -2.6216
    6MPD2    H2   91   1.505   2.473  10.516  0.3584  0.1842 -1.1919
    6MPD2    H3   92   1.687   2.340  10.442  1.6457  3.0678  2.4663
    6MPD2     N   93   1.602   2.019  10.749  0.3757 -0.3931 -0.3526
    6MPD2    H5   94   1.526   1.986  10.808 -0.6071  3.8823  0.8203
    6MPD2    N1   95   1.371   2.449  10.734 -0.6102 -0.4405  0.2743
    6MPD2    H7   96   1.368   2.536  10.681 -0.0392 -1.0452 -0.7634
    7TCq1    O1   97   3.623   2.042  12.685  0.0863 -0.1205  0.0889
    7TCq1    C1   98   3.667   1.925  12.633  0.5063 -0.1568  0.0751
    7TCq1    O2   99   3.601   1.847  12.567 -0.5133  0.4189  0.0712
    7TCq1    C2  100   3.812   1.933  12.638 -0.5757 -0.8191  0.0289
    7TCq1    C3  101   3.888   2.037  12.677 -0.1098 -0.3970  0.4720
    7TCq1    C4  102   4.020   2.017  12.693  0.1374  0.5367  0.2427
    7TCq1    C5  103   4.080   1.898  12.668 -0.7705  0.3286  0.4214
    7TCq1    C6  104   4.006   1.794  12.625 -0.3465 -0.4447 -0.2825
    7TCq1    C7  105   3.869   1.805  12.617  0.0490 -0.1665 -0.9471
    7TCq1    C8  106   4.048   1.663  12.671  0.2725  0.4086 -0.2683
    7TCq1    O4  107   3.963   1.600  12.731  0.6106  0.2302 -0.3030
    7TCq1    C9  108   4.091   2.123  12.749  0.1724 -0.8116  0.5527
    7TCq1    O5  109   4.222   2.118  12.746  0.1439  0.2092 -0.2014
    7TCq1    O6  110   4.027   2.233  12.774  0.0910  0.1781 -0.1550
    7TCq1    H1  111   3.695   2.082  12.738 -0.2918 -2.4270  2.3390
    7TCq1    H2  112   3.850   2.138  12.692  0.1355 -0.1710 -0.4074
    7TCq1    H3  113   4.188   1.901  12.681 -0.8375 -0.2845  1.1250
    7TCq1    H4  114   3.805   1.721  12.593 -1.5590  0.6543  0.4289
    8MPD2     C  115   4.399   1.302  12.794  0.5834  0.2813  0.3962
    8MPD2    C1  116   4.283   1.336  12.866 -0.7574 -0.2779  0.2156
    8MPD2    C2  117   4.205   1.447  12.820 -0.2211 -0.7560  0.5474
    8MPD2    C3  118   4.246   1.520  12.713  0.3928  0.1867 -0.1082
    8MPD2    C4  119   4.368   1.489  12.653 -0.7389  0.3877  0.4248
    8MPD2    C5  120   4.440   1.379  12.688  0.2213 -0.2754 -0.7931
    8MPD2     H  121   4.112   1.471  12.871 -0.0699  0.3741  0.2676
    8MPD2    H1  122   4.411   1.554  12.577  2.1604  0.7740  2.3463
    8MPD2    H2  123   4.464   1.220  12.820 -1.6288 -1.5711  0.0626
    8MPD2    H3  124   4.539   1.360  12.648  1.0079  1.9728  0.0918
    8MPD2     N  125   4.185   1.637  12.660  0.1235  0.3250 -0.4540
    8MPD2    H5  126   4.231   1.687  12.585 -1.4383  0.4720 -1.3260
    8MPD2    N1  127   4.243   1.258  12.976  0.4409  0.9829  0.2527
    8MPD2    H7  128   4.299   1.179  13.005  0.8177  1.0094 -0.4013
    9TCq1    O1  129   1.198   0.030  10.881  0.3498  0.5785  0.5258
    9TCq1    C1  130   1.237   4.694  10.771  0.1500  0.0668  0.2832
    9TCq1    O2  131   1.178   4.606  10.720 -0.5064  0.1253  0.1122
    9TCq1    C2  132   1.378   4.718  10.754 -0.1306  0.2444  0.6952
    9TCq1    C3  133   1.430   4.640  10.660 -0.1428 -0.3437 -0.0374
    9TCq1    C4  134   1.566   4.653  10.637  0.5890 -0.0439  0.1617
    9TCq1    C5  135   1.633   0.031  10.694 -0.4170  0.4333  0.9325
    9TCq1    C6  136   1.573   0.114  10.781  0.1040 -0.0641 -0.9837
    9TCq1    C7  137   1.442   0.100  10.809  0.0731  0.3905 -0.5936
    9TCq1    C8  138   1.651   0.225  10.829 -0.9265  0.4700  0.0436
    9TCq1    O4  139   1.753   0.263  10.767 -0.1725  0.0203 -0.1318
    9TCq1    C9  140   1.636   4.552  10.561 -0.3173  0.3237  0.0440
    9TCq1    O5  141   1.565   4.468  10.496 -0.0786 -0.2346 -0.1601
    9TCq1    O6  142   1.760   4.582  10.541 -0.0794  0.3762 -0.1662
    9TCq1    H1  143   1.260   0.102  10.904 -1.2284  1.8618  0.7424
    9TCq1    H2  144   1.379   4.573  10.592  1.4057 -1.5175 -0.0656
    9TCq1    H3  145   1.737   0.044  10.668  0.0210  0.8627  2.9084
    9TCq1    H4  146   1.390   0.175  10.867 -0.3310 -1.7888  1.8530
   10MPD2     C  147   1.738   0.481  10.964  0.1770 -0.9109 -0.2766
   10MPD2    C1  148   1.633   0.403  11.000 -0.0225 -0.0953 -0.5253
   10MPD2    C2  149   1.563   0.428  11.110  0.1834 -0.2090 -0.6096
   10MPD2    C3  150   1.590   0.534  11.193 -0.7669  0.3664  0.1850
   10MPD2    C4  151   1.686   0.627  11.148  0.3078 -0.2949 -0.2703
   10MPD2    C5  152   1.763   0.600  11.031 -0.1214  0.2134  0.3729
   10MPD2     H  153   1.485   0.358  11.135 -1.5541  1.2125 -2.0343
   10MPD2    H1  154   1.718   0.708  11.212 -1.7474  1.4639 -1.4577
   10MPD2    H2  155   1.805   0.464  10.881  0.8587 -0.0466  0.0902
   10MPD2    H3  156   1.842   0.664  10.994  1.6661 -1.7580  0.7832
   10MPD2     N  157   1.540   0.547  11.321 -0.1211  0.0018  0.3151
   10MPD2    H5  158   1.577   0.624  11.376  2.9171 -0.8195 -0.6295
   10MPD2    N1  159   1.595   0.278  10.939 -0.1052 -0.3478 -0.4172
   10MPD2    H7  160   1.520   0.223  10.980 -0.2793  0.4218  0.2717
   11TCq1    O1  161   2.484   0.987  14.047  0.6753 -0.0010  0.6165
   11TCq1    C1  162   2.407   0.915  14.136 -0.0969 -0.1921 -0.1270
   11TCq1    O2  163   2.417   0.925  14.257 -0.1945 -0.0066  0.3102
   11TCq1    C2  164   2.353   0.787  14.079 -0.5712 -0.0206 -0.0150
   11TCq1    C3  165   2.380   0.736  13.955 -0.9064 -0.5312  0.1747
   11TCq1    C4  166   2.333   0.607  13.934 -0.5896 -0.1460 -0.3840
   11TCq1    C5  167   2.260   0.536  14.028 -0.1567 -0.0916 -0.1828
   11TCq1    C6  168   2.215   0.603  14.139  0.1488 -0.1569 -1.0592
   11TCq1    C7  169   2.270   0.726  14.174 -0.1646 -0.1701  0.3830
   11TCq1    C8  170   2.122   0.536  14.230 -0.8745  0.5743 -0.2920
   11TCq1    O4  171   2.123   0.572  14.348 -0.1147 -0.3877 -0.3068
   11TCq1    C9  172   2.377   0.534  13.810  0.7877  0.5659 -0.2479
   11TCq1    O5  173   2.340   0.413  13.799 -0.0111 -0.0418  0.4396
   11TCq1    O6  174   2.465   0.582  13.745  0.1057  0.3651 -0.4993
   11TCq1    H1  175   2.447   0.980  13.957 -3.0968  2.7313  1.9178
   11TCq1    H2  176   2.445   0.784  13.883  1.4254 -1.5070  1.6340
   11TCq1    H3  177   2.220   0.438  14.003  1.6088 -0.6552 -0.7554
   11TCq1    H4  178   2.235   0.790  14.254  3.6755  0.6499  1.4045
   12MPD2     C  179   1.998   0.310  14.351 -0.4085 -0.2069  0.1516
   12MPD2    C1  180   1.978   0.339  14.216 -0.1055  0.2100 -0.2754
   12MPD2    C2  181   1.917   0.242  14.135  0.1799 -0.2372  0.0748
   12MPD2    C3  182   1.860   0.133  14.195 -0.0824  0.4321  0.0850
   12MPD2    C4  183   1.857   0.123  14.330 -0.2524 -0.0267 -0.1148
   12MPD2    C5  184   1.925   0.207  14.405 -0.3337 -0.3220 -0.2374
   12MPD2     H  185   1.912   0.263  14.029  0.0871 -0.9100 -0.0556
   12MPD2    H1  186   1.790   0.053  14.379 -1.2678  1.2286  0.3117
   12MPD2    H2  187   2.062   0.364  14.419 -1.2921 -1.3428  1.8985
   12MPD2    H3  188   1.926   0.186  14.512 -2.8621  1.7265  0.1810
   12MPD2     N  189   1.784   0.046  14.106 -0.0196  0.0992 -0.2979
   12MPD2    H5  190   1.777   0.063  14.007 -0.0819 -0.9396 -0.4706
   12MPD2    N1  191   2.043   0.454  14.159  0.1416  0.1406  0.6899
   12MPD2    H7  192   2.043   0.454  14.057  1.0811 -0.1403  0.6921
   13TCq1    O1  193   2.310   0.209  10.826 -0.3637 -0.5034 -0.3639
   13TCq1    C1  194   2.175   0.189  10.816 -0.2598  0.1715  0.5093
   13TCq1    O2  195   2.127   0.115  10.729 -0.1906  0.0953  0.1600
   13TCq1    C2  196   2.106   0.201  10.949 -0.1563  0.4136  0.1310
   13TCq1    C3  197   2.138   0.304  11.037  0.1592 -0.8386  0.0092
   13TCq1    C4  198   2.084   0.293  11.157  0.1501 -0.1451  0.8688
   13TCq1    C5  199   1.985   0.203  11.190 -0.1506 -0.1159 -0.5450
   13TCq1    C6  200   1.933   0.128  11.089  0.3617  0.3725  0.2629
   13TCq1    C7  201   2.000   0.122  10.969  0.5317  0.2677  0.2294
   13TCq1    C8  202   1.798   0.065  11.107  0.0137 -0.4061 -0.2008
   13TCq1    O4  203   1.724   0.116  11.192 -0.1217 -0.3615 -0.4462
   13TCq1    C9  204   2.116   0.387  11.259  0.4236  0.0094 -0.0252
   13TCq1    O5  205   2.093   0.361  11.378 -0.5615 -0.6468 -0.3076
   13TCq1    O6  206   2.165   0.499  11.218 -0.0172  0.3255  0.3935
   13TCq1    H1  207   2.341   0.228  10.917 -0.8998  0.9238 -0.4844
   13TCq1    H2  208   2.226   0.364  11.015 -1.9460  1.3434 -2.5357
   13TCq1    H3  209   1.948   0.209  11.292 -1.5830  2.0739 -1.1928
   13TCq1    H4  210   1.969   0.060  10.885  0.2997  1.2685 -0.4214
   14MPD2     C  211   1.659   4.499  10.945 -0.1875  0.2191 -0.4810
   14MPD2    C1  212   1.658   4.611  11.027  0.8163  0.4506  0.3983
   14MPD2    C2  213   1.542   4.641  11.100  0.2798 -0.0222 -0.0649
   14MPD2    C3  214   1.436   4.549  11.099  0.1781  0.3112  0.0078
   14MPD2    C4  215   1.439   4.431  11.022 -0.1243 -0.0724 -0.1117
   14MPD2    C5  216   1.548   4.413  10.943 -0.8322  0.2091 -0.2682
   14MPD2     H  217   1.532   0.011  11.146  0.3786 -0.6022  1.1732
   14MPD2    H1  218   1.356   4.363  11.006  0.2416 -0.5704  0.1125
   14MPD2    H2  219   1.736   4.484  10.871 -0.9811 -0.8184 -1.0942
   14MPD2    H3  220   1.543   4.330  10.872  0.7921  0.7257 -0.9888
   14MPD2     N  221   1.321   4.575  11.174 -0.2141 -0.5419  0.3418
   14MPD2    H5  222   1.334   4.660  11.227 -1.9562 -0.8269  1.2297
   14MPD2    N1  223   1.780   4.688  11.024 -0.0585  0.5127 -0.3456
   14MPD2    H7  224   1.849   4.651  10.960  0.8699  2.4869 -0.4524
   15TCq1    O1  225   2.576   0.240   1.517 -0.3601 -0.2276 -0.1386
   15TCq1    C1  226   2.639   0.163   1.417 -0.4302 -0.8399 -0.1841
   15TCq1    O2  227   2.597   0.103   1.320 -0.4869  0.4629 -0.2850
   15TCq1    C2  228   2.754   0.113   1.493  0.1960  0.6977  0.0097
   15TCq1    C3  229   2.835   0.198   1.565 -0.4520 -0.8209 -0.6507
   15TCq1    C4  230   2.961   0.144   1.601 -0.3266  0.0397 -0.3085
   15TCq1    C5  231   3.000   0.020   1.554 -0.6478  0.9981 -0.3019
   15TCq1    C6  232   2.922   4.670   1.479 -0.1487  0.2320 -0.1124
   15TCq1    C7  233   2.795   4.717   1.452  0.2208 -0.0449 -0.1346
   15TCq1    C8  234   2.971   4.532   1.443  0.4517 -0.4813 -0.3240
   15TCq1    O4  235   3.058   4.487   1.517 -0.2994 -0.3602 -0.5173
   15TCq1    C9  236   3.051   0.227   1.682  0.3537 -0.3772  0.4043
   15TCq1    O5  237   3.154   0.167   1.724 -0.4033 -0.0657  0.0938
   15TCq1    O6  238   2.997   0.326   1.730 -0.1186 -0.4345 -0.3666
   15TCq1    H1  239   2.629   0.249   1.598 -2.5566 -0.5311  1.3360
   15TCq1    H2  240   2.795   0.296   1.588  3.8249  1.2349 -2.0688
   15TCq1    H3  241   3.099   4.713   1.580 -1.3214 -0.9987 -0.3735
   15TCq1    H4  242   2.724   4.653   1.400 -0.4577  0.0725  0.6539
   16MPD2     C  243   2.834   4.318   1.182 -1.0974 -1.0000 -0.1664
   16MPD2    C1  244   2.932   4.364   1.272 -0.9907 -0.4196  0.2258
   16MPD2    C2  245   3.046   4.284   1.300 -0.2277  0.1482  0.4812
   16MPD2    C3  246   3.068   4.161   1.239 -0.4342  0.1474  0.6877
   16MPD2    C4  247   2.977   4.127   1.139  0.2099  0.5612  0.5678
   16MPD2    C5  248   2.859   4.199   1.117  0.0709 -0.1232 -0.4044
   16MPD2     H  249   3.118   4.313   1.376 -0.5116  0.5869  0.5804
   16MPD2    H1  250   2.988   4.040   1.075  3.4900  0.6409  1.0498
   16MPD2    H2  251   2.740   4.370   1.173 -1.5011 -1.2891  2.5294
   16MPD2    H3  252   2.779   4.159   1.055 -0.9546  0.7931  0.3170
   16MPD2     N  253   3.165   4.071   1.290  0.1659  0.3416 -0.0973
   16MPD2    H5  254   3.218   4.089   1.375 -0.6523  0.6208  0.3538
   16MPD2    N1  255   2.900   4.484   1.334 -0.0069 -0.3410 -0.5290
   16MPD2    H7  256   2.829   4.547   1.296 -1.0208  0.4040  2.5338
   17TCq1    O1  257   1.450   4.397  11.548  0.6079 -0.5842  0.1958
   17TCq1    C1  258   1.437   4.299  11.459  0.2787 -0.1455 -0.5029
   17TCq1    O2  259   1.337   4.241  11.424  0.4291  0.6838  0.9262
   17TCq1    C2  260   1.565   4.292  11.381 -0.0617  0.2052 -0.2703
   17TCq1    C3  261   1.575   4.200  11.282  0.1287  0.2117 -0.0411
   17TCq1    C4  262   1.673   4.214  11.190 -0.2516 -0.2087 -0.2086
   17TCq1    C5  263   1.765   4.309  11.193  0.3533 -0.8631  0.2381
   17TCq1    C6  264   1.746   4.410  11.283  0.6283 -0.5524 -0.4500
   17TCq1    C7  265   1.646   4.403  11.384 -0.1265 -0.0814 -0.3913
   17TCq1    C8  266   1.845   4.516  11.298 -0.8577 -0.1728 -0.1781
   17TCq1    O4  267   1.832   4.588  11.401 -0.4084  0.6347  0.1043
   17TCq1    C9  268   1.678   4.105  11.095 -1.0868 -1.0703 -0.9699
   17TCq1    O5  269   1.778   4.097  11.024 -0.3225 -0.0359  0.4298
   17TCq1    O6  270   1.571   4.034  11.084 -0.1151  0.3155  0.0379
   17TCq1    H1  271   1.538   4.422  11.582 -0.7847  2.1229  1.8434
   17TCq1    H2  272   1.502   4.119  11.277 -1.8355  1.8726  1.4801
   17TCq1    H3  273   1.841   4.311  11.115  0.8713 -0.1960  0.7529
   17TCq1    H4  274   1.622   4.490  11.444 -3.4248 -2.0922  1.1871
   18MPD2     C  275   2.122   4.641  11.322 -0.5595 -0.5783 -0.6895
   18MPD2    C1  276   2.078   4.564  11.220 -0.5646 -0.0909 -0.3968
   18MPD2    C2  277   2.162   4.544  11.111 -0.0428 -0.6131 -0.6341
   18MPD2    C3  278   2.287   4.599  11.108 -0.1097  0.2394 -0.1218
   18MPD2    C4  279   2.334   4.678  11.210  0.2068  0.4802  0.2697
   18MPD2    C5  280   2.255   4.697  11.320  0.7550 -0.2424  0.5524
   18MPD2     H  281   2.124   4.479  11.033 -0.1115 -2.0513  0.6121
   18MPD2    H1  282   2.432   4.722  11.200  0.1565  0.5603  0.1225
   18MPD2    H2  283   2.054   4.671  11.402 -0.8417 -0.6017 -0.9219
   18MPD2    H3  284   2.285   0.030  11.405  2.5418 -1.3522  0.7186
   18MPD2     N  285   2.376   4.595  10.998  0.2077 -0.4222 -0.5316
   18MPD2    H5  286   2.475   4.607  11.015  0.1503 -0.3416 -0.2651
   18MPD2    N1  287   1.956   4.495  11.210 -0.2344  0.5266 -0.1241
   18MPD2    H7  288   1.949   4.442  11.124  4.9753 -0.6619  0.2351
   19TMC2    C1  289   3.462   4.672  13.720  0.2584 -0.6347 -0.0435
   19TMC2    C2  290   3.497   4.682  13.587 -0.9469 -0.2876 -0.9141
   19TMC2    C3  291   3.422   4.613  13.495 -0.7640  0.6414 -0.4440
   19TMC2    C4  292   3.348   4.604  13.766 -0.3450 -0.3738 -0.7765
   19TMC2    C5  293   3.272   4.542  13.671 -0.4383 -0.7150 -0.2154
   19TMC2    C6  294   3.303   4.545  13.536  0.4445  0.6449 -0.0445
   19TMC2     C  295   3.510   0.058  13.799  0.6949  0.3681 -0.6015
   19TMC2     O  296   3.536   0.160  13.734  0.0197  0.1203 -0.2345
   19TMC2     H  297   3.590   0.007  13.566 -0.7244 -0.8142 -1.2533
   19TMC2    H1  298   3.319   4.621  13.869 -0.6125 -0.0688 -0.8995
   19TMC2    H2  299   3.247   4.478  13.473  0.9919 -0.2344  0.3996
   19TMC2    C7  300   3.152   4.477  13.720  0.4587 -0.3749  0.3169
   19TMC2    C8  301   3.485   4.559  13.382 -0.5200 -0.0634  0.7027
   19TMC2    O1  302   3.092   4.532  13.814  0.4565 -0.2140  0.4806
   19TMC2    O2  303   3.492   4.435  13.379  0.0013  0.2193 -0.2415
   19TMC2    O5  304   3.581   4.644  13.345 -0.1479 -0.0438  0.1604
   19TMC2    H5  305   3.569   0.006  13.384  2.5396  1.3121 -2.1683
   20MPD2     C  306   3.596   0.248  13.995 -0.0437  0.0097  0.3729
   20MPD2    C1  307   3.566   0.121  14.032  0.0758  0.2082 -0.0788
   20MPD2    C2  308   3.571   0.077  14.164  0.1589  0.0747  0.0991
   20MPD2    C3  309   3.611   0.170  14.257  0.4083 -0.5949 -0.2429
   20MPD2    C4  310   3.657   0.294  14.218  0.6978 -0.2271  0.0307
   20MPD2    C5  311   3.638   0.336  14.089 -0.3547  0.0767 -0.4045
   20MPD2     H  312   3.532   4.705  14.181 -1.6084  0.7271 -0.1426
   20MPD2    H1  313   3.695   0.367  14.288 -0.8954  0.0332  0.6356
   20MPD2    H2  314   3.602   0.282  13.892  0.1068  1.2539  0.7921
   20MPD2    H3  315   3.658   0.439  14.061  1.0621  0.2250  1.1613
   20MPD2     N  316   3.618   0.140  14.396  0.4703  0.2662 -0.1021
   20MPD2    H5  317   3.656   0.213  14.455 -0.6752  1.3252 -0.6578
   20MPD2    N1  318   3.532   0.025  13.928 -0.0396  0.0202 -0.4053
   20MPD2    H7  319   3.511   4.657  13.954 -1.4899  0.4204 -0.0761
   21MPD2     C  320   1.118   0.808  14.209  0.4848  0.8413 -0.5417
   21MPD2    C1  321   1.107   0.669  14.197  0.2525  0.4912 -0.1316
   21MPD2    C2  322   0.987   0.603  14.239 -0.0280 -0.2042 -0.3958
   21MPD2    C3  323   0.886   0.674  14.299  0.4475  0.5639 -0.0810
   21MPD2    C4  324   0.902   0.811  14.316  0.4493  0.5063  0.3493
   21MPD2    C5  325   1.015   0.867  14.263 -0.7584  0.0377 -0.3176
   21MPD2     H  326   0.976   0.496  14.228  1.1081 -0.4049  0.3855
   21MPD2    H1  327   0.823   0.869  14.362  1.2893  1.4519  0.5939
   21MPD2    H2  328   1.201   0.870  14.177  1.2106 -0.6764 -1.6233
   21MPD2    H3  329   1.010   0.975  14.273  0.5945  0.0248  0.5400
   21MPD2     N  330   0.773   0.622  14.369  0.2700  0.2682  0.0341
   21MPD2    H5  331   0.730   0.689  14.433  0.0134  0.1729 -0.0402
   21MPD2    N1  332   1.202   0.594  14.132  0.1733  1.0495  0.4367
   21MPD2    H7  333   1.179   0.495  14.128 -3.2460  1.8505  0.6034
   22TCq2    C1  334   0.727   0.494  14.362 -0.1357 -0.2282  0.2377
   22TCq2    O2  335   0.757   0.399  14.289 -0.1173  0.0366 -0.1579
   22TCq2    C2  336   0.617   0.472  14.458 -0.0479 -0.6479 -0.0699
   22TCq2    C3  337   0.623   0.348  14.515  0.0972 -0.0495  0.4503
   22TCq2    C4  338   0.592   0.336  14.651 -0.1555 -0.5996  0.6572
   22TCq2    C5  339   0.543   0.437  14.727 -0.2250 -0.0058  0.2043
   22TCq2    C6  340   0.522   0.547  14.657 -0.5075  0.3516 -0.2434
   22TCq2    C7  341   0.565   0.577  14.528  0.4465  0.5829 -0.2113
   22TCq2    C8  342   0.486   0.668  14.737  0.7647 -1.2494  0.1570
   22TCq2    O4  343   0.499   0.675  14.859 -0.1978 -0.7279  0.3489
   22TCq2    C9  344   0.618   0.207  14.709 -0.1615 -0.0734 -0.2295
   22TCq2    O5  345   0.681   0.125  14.636 -1.1802  0.3634  0.3107
   22TCq2    O6  346   0.579   0.194  14.828  0.3791  0.1267  0.7499
   22TCq2    H2  347   0.666   0.266  14.458 -0.2722  2.4394 -3.4170
   22TCq2    H3  348   0.514   0.435  14.831  0.9929  0.7982  0.5489
   22TCq2    H4  349   0.567   0.679  14.491  0.1955  0.8969  0.6523
   23MPD2     C  350   2.612   1.436  14.693  0.5039  0.4347  0.7165
   23MPD2    C1  351   2.492   1.445  14.763  0.2001  0.2889  0.6396
   23MPD2    C2  352   2.390   1.526  14.713 -0.5702 -0.1903  0.1444
   23MPD2    C3  353   2.401   1.571  14.583  0.0974  0.1402 -0.3781
   23MPD2    C4  354   2.513   1.551  14.510  0.0180  0.2234 -0.1244
   23MPD2    C5  355   2.621   1.489  14.569  0.4125  0.8060 -0.1264
   23MPD2     H  356   2.300   1.545  14.770 -0.7963  1.3542 -0.7454
   23MPD2    H1  357   2.519   1.602  14.415  0.8348  0.7530  0.2116
   23MPD2    H2  358   2.692   1.376  14.733  0.0265 -1.7270 -1.5294
   23MPD2    H3  359   2.710   1.470  14.510 -0.0970  1.4026 -1.0974
   23MPD2     N  360   2.299   1.654  14.515 -0.1822  0.0140  0.2948
   23MPD2    H5  361   2.318   1.702  14.428  0.1666  0.5163  0.6445
   23MPD2    N1  362   2.466   1.388  14.890  0.2253 -0.2937 -0.1148
   23MPD2    H7  363   2.383   1.423  14.937 -0.6105 -0.8897 -1.1531
   24TCq2    C1  364   2.180   1.684  14.564 -0.3969 -0.4836  0.3110
   24TCq2    O2  365   2.134   1.650  14.669  0.2287 -0.0005  0.4639
   24TCq2    C2  366   2.112   1.793  14.491  0.2487  0.7562  0.1547
   24TCq2    C3  367   2.169   1.848  14.379 -0.1504  0.2473  0.3139
   24TCq2    C4  368   2.111   1.957  14.325  0.2354  0.5006 -0.1849
   24TCq2    C5  369   2.018   2.028  14.395 -0.3874  0.0336  0.9760
   24TCq2    C6  370   1.972   1.972  14.511  0.1228  0.3851  0.5569
   24TCq2    C7  371   2.002   1.845  14.551 -0.5578 -0.1691 -0.1542
   24TCq2    C8  372   1.867   2.042  14.578  0.2031  0.8481 -0.3371
   24TCq2    O4  373   1.863   2.163  14.570  0.2285  0.0035 -0.4205
   24TCq2    C9  374   2.175   2.023  14.207 -0.0811 -0.5673  0.0824
   24TCq2    O5  375   2.117   2.133  14.180 -0.2321 -0.8703  0.1537
   24TCq2    O6  376   2.289   1.984  14.177 -0.2709  0.1510 -0.6282
   24TCq2    H2  377   2.259   1.813  14.328 -0.2723 -1.0376  0.9798
   24TCq2    H3  378   1.974   2.122  14.365 -1.5666 -0.5912  0.7602
   24TCq2    H4  379   1.959   1.792  14.635  2.0865 -0.2109  1.1764
   25TMC2    C1  380   0.973   3.682  11.283 -0.4767 -0.4925 -1.3845
   25TMC2    C2  381   1.011   3.815  11.272  0.4611  0.3133 -0.1725
   25TMC2    C3  382   0.992   3.882  11.390  0.0987  0.1854  0.7175
   25TMC2    C4  383   0.922   3.631  11.393  0.3878  0.1418  0.0025
   25TMC2    C5  384   0.921   3.703  11.514 -0.5860 -0.2375  0.5239
   25TMC2    C6  385   0.963   3.828  11.516  0.6229 -0.5331 -0.3388
   25TMC2     C  386   0.989   3.603  11.161  0.2180 -0.1086  0.6218
   25TMC2     O  387   1.045   3.657  11.069  0.3992  0.4182 -0.3000
   25TMC2     H  388   1.060   3.860  11.187  0.9432 -0.6134 -0.3899
   25TMC2    H1  389   0.875   3.534  11.384  3.6386 -1.3449 -1.1385
   25TMC2    H2  390   0.957   3.887  11.607 -0.8901  0.3510 -1.0121
   25TMC2    C7  391   0.886   3.639  11.641 -0.0084 -0.0195 -0.4403
   25TMC2    C8  392   1.060   4.009  11.387  0.1931  0.2483 -0.3121
   25TMC2    O1  393   0.878   3.718  11.728  0.3578  0.2963 -0.4281
   25TMC2    O2  394   1.075   4.063  11.283  0.3891 -0.3955 -0.8188
   25TMC2    O5  395   1.117   4.025  11.512  0.3625  0.2122 -0.0662
   25TMC2    H5  396   1.129   3.946  11.569 -0.9761 -0.2644 -0.4309
   26MPD2     C  397   1.047   3.197  10.880 -0.4312 -0.2314 -0.5316
   26MPD2    C1  398   0.921   3.186  10.925 -0.8511 -0.6143  0.7091
   26MPD2    C2  399   0.875   3.284  11.014  0.6442  0.1635  0.6317
   26MPD2    C3  400   0.964   3.382  11.060 -0.3404 -0.2790 -0.4447
   26MPD2    C4  401   1.096   3.380  11.015  0.3038 -0.1883 -0.6394
   26MPD2    C5  402   1.135   3.290  10.918  0.3873 -0.6585  0.5996
   26MPD2     H  403   0.776   3.288  11.058  1.2255 -0.1146  1.9796
   26MPD2    H1  404   1.171   3.450  11.049  0.0164  0.3876 -1.1858
   26MPD2    H2  405   1.081   3.130  10.802  0.0915  1.2008 -1.5313
   26MPD2    H3  406   1.235   3.289  10.876 -0.1360 -3.6101 -0.5551
   26MPD2     N  407   0.927   3.477  11.154  0.4894  0.3348  0.7850
   26MPD2    H5  408   0.850   3.447  11.213 -0.9495 -1.9233 -2.2676
   26MPD2    N1  409   0.842   3.081  10.875  0.0903  0.1387  0.1750
   26MPD2    H7  410   0.874   3.028  10.794 -2.1068 -2.0882  0.7421
   27TMC2    C1  411   0.365   0.977  12.015  0.0630  0.1146  0.0360
   27TMC2    C2  412   0.291   1.054  11.936 -0.6364 -0.7192 -0.5356
   27TMC2    C3  413   0.349   1.157  11.874  0.9600  0.2845  0.8766
   27TMC2    C4  414   0.501   1.000  12.035 -0.4494  0.6845  0.5064
   27TMC2    C5  415   0.558   1.095  11.961 -0.3071 -0.2460  0.3685
   27TMC2    C6  416   0.481   1.179  11.885 -0.4195  0.8199  0.3756
   27TMC2     C  417   0.300   0.910  12.129  0.3840  0.7478 -0.1467
   27TMC2     O  418   0.346   0.804  12.161  0.4893 -0.2026  0.2598
   27TMC2     H  419   0.185   1.033  11.930 -0.2747 -1.5893 -3.8300
   27TMC2    H1  420   0.553   0.955  12.119 -3.2253 -1.2657  1.1767
   27TMC2    H2  421   0.521   1.249  11.813  0.6856  0.6174  0.7980
   27TMC2    C7  422   0.666   1.163  12.030 -0.0226 -0.1325 -0.2742
   27TMC2    C8  423   0.291   1.227  11.763 -0.2168  0.4012 -0.0812
   27TMC2    O1  424   0.725   1.104  12.119  0.0588 -0.3691  0.3374
   27TMC2    O2  425   0.354   1.269  11.667 -0.2419  0.4040  0.0201
   27TMC2    O5  426   0.163   1.262  11.792  0.0241 -0.6688  0.0822
   27TMC2    H5  427   0.146   1.240  11.886  1.1834  2.0891  0.9587
   28MPD2     C  428   4.713   0.855  12.518  0.5123  0.1195  0.1412
   28MPD2    C1  429   4.671   0.967  12.451  0.1974 -0.4682  0.0922
   28MPD2    C2  430   0.012   1.005  12.343 -0.0562  0.0477  0.0042
   28MPD2    C3  431   0.115   0.929  12.295 -0.2234 -0.1839  0.3179
   28MPD2    C4  432   0.148   0.809  12.359 -0.0035 -0.1114 -0.0239
   28MPD2    C5  433   0.083   0.774  12.476 -0.1919 -0.5729  0.0907
   28MPD2     H  434   4.723   1.096  12.287  0.8539 -0.4998 -1.1686
   28MPD2    H1  435   0.221   0.735  12.329 -0.5585 -0.3330 -0.8193
   28MPD2    H2  436   4.664   0.814  12.606 -2.3150  2.6668 -0.2737
   28MPD2    H3  437   0.118   0.690  12.535  1.6771  0.9288  1.0921
   28MPD2     N  438   0.191   0.976  12.186 -0.3633 -0.1366  0.0624
   28MPD2    H5  439   0.167   1.070  12.156 -0.5967 -0.1339  0.2535
   28MPD2    N1  440   4.556   1.033  12.499  0.1278  0.9566  0.2329
   28MPD2    H7  441   4.508   0.980  12.571  1.4897 -2.8792 -1.7408
   29MPD2     C  442   3.884   3.282  13.959  0.0599  0.6465  0.1785
   29MPD2    C1  443   3.922   3.259  14.091 -0.4817  0.3415  0.1706
   29MPD2    C2  444   3.902   3.364  14.182  0.2152  0.2025 -0.5935
   29MPD2    C3  445   3.833   3.475  14.144 -0.0092  0.1163 -0.3707
   29MPD2    C4  446   3.785   3.481  14.016  0.2440  1.4638  0.1280
   29MPD2    C5  447   3.811   3.387  13.925  0.6148 -0.0134 -0.3065
   29MPD2     H  448   3.926   3.357  14.287  0.0351 -0.7891 -0.6140
   29MPD2    H1  449   3.727   3.559  13.969  0.5027  1.0677 -0.8727
   29MPD2    H2  450   3.905   3.212  13.878  1.0754  0.5323  0.5400
   29MPD2    H3  451   3.762   3.394  13.829 -2.6504  0.2990  1.3971
   29MPD2     N  452   3.795   3.586  14.221 -0.4531 -0.6895 -0.7426
   29MPD2    H5  453   3.763   3.665  14.166  2.7612 -0.0491 -1.6673
   29MPD2    N1  454   3.974   3.137  14.132 -0.3735  0.3707 -0.0063
   29MPD2    H7  455   4.009   3.132  14.227 -0.3424  1.3233  0.0363
   30TCq2    C1  456   3.803   3.594  14.362  0.5473 -1.0728 -0.4511
   30TCq2    O2  457   3.822   3.501  14.444  0.3394 -0.3565  0.2433
   30TCq2    C2  458   3.809   3.729  14.411  0.3142  0.1752  0.4108
   30TCq2    C3  459   3.819   3.743  14.545  0.2058 -0.2853  0.4975
   30TCq2    C4  460   3.867   3.860  14.599 -0.0354  0.2591  0.0211
   30TCq2    C5  461   3.901   3.971  14.517 -0.0460 -0.2844  0.4296
   30TCq2    C6  462   3.876   3.957  14.385 -0.1149  0.7324 -0.6214
   30TCq2    C7  463   3.839   3.835  14.326  0.0175  0.4303 -0.1186
   30TCq2    C8  464   3.930   4.049  14.289  0.4494 -0.1328  0.0126
   30TCq2    O4  465   3.872   4.068  14.187 -0.0171  0.3926 -0.3101
   30TCq2    C9  466   3.886   3.874  14.743  0.1474 -0.3496  0.8103
   30TCq2    O5  467   3.907   3.989  14.786 -0.2495 -0.0679  0.2526
   30TCq2    O6  468   3.912   3.767  14.804  0.3696 -0.1886  0.2539
   30TCq2    H2  469   3.820   3.659  14.613  3.3028  0.1961  1.0786
   30TCq2    H3  470   3.934   4.063  14.562 -0.5561  0.4012 -0.6059
   30TCq2    H4  471   3.819   3.826  14.220  1.5049  1.0337 -0.4512
   31MPD2     C  472   2.172   2.364  14.873 -0.9717  0.2598 -0.5293
   31MPD2    C1  473   2.036   2.399  14.871  0.1154 -0.4852  0.3126
   31MPD2    C2  474   1.961   2.380  14.988  0.2918  0.0749 -0.8159
   31MPD2    C3  475   2.022   2.329  15.104  0.7853 -0.1524 -1.0499
   31MPD2    C4  476   2.155   2.303  15.102 -0.6687 -0.6350  0.0375
   31MPD2    C5  477   2.230   2.316  14.992  0.1097 -0.0224  0.0378
   31MPD2     H  478   1.853   2.392  14.982  0.3624  0.7697 -0.6166
   31MPD2    H1  479   2.209   2.279  15.193 -0.1815  1.8546  0.3892
   31MPD2    H2  480   2.234   2.385  14.787 -0.8989  1.3388 -0.2154
   31MPD2    H3  481   2.338   2.313  14.997  0.2122  3.5247  0.1182
   31MPD2     N  482   1.959   2.308  15.226  0.1327  0.3172  0.6135
   31MPD2    H5  483   2.023   2.274  15.296  1.5229  1.8196  0.0697
   31MPD2    N1  484   1.970   2.439  14.747 -0.1910 -0.3750  0.2448
   31MPD2    H7  485   2.032   2.431  14.667 -3.1428 -0.4367 -2.0510
   32TCq2    C1  486   1.831   2.348  15.262  0.1014 -0.3267 -0.2531
   32TCq2    O2  487   1.752   2.414  15.197 -0.4834  1.4520  0.5040
   32TCq2    C2  488   1.790   2.332  15.404  0.3551  0.1697 -0.3244
   32TCq2    C3  489   1.655   2.357  15.426 -0.4915 -0.2833  0.0949
   32TCq2    C4  490   1.604   2.329  15.548 -0.7109  0.1634  0.0412
   32TCq2    C5  491   1.679   2.258  15.641  0.1219 -0.6727  0.1118
   32TCq2    C6  492   1.807   2.233  15.612  0.5447  0.3139 -0.1175
   32TCq2    C7  493   1.864   2.264  15.492 -0.8299 -0.1711 -0.0379
   32TCq2    C8  494   1.894   2.197  15.729 -0.2262 -0.9952 -0.3349
   32TCq2    O4  495   2.007   2.157  15.701 -0.5654 -0.3264  0.2249
   32TCq2    C9  496   1.464   2.365  15.570 -0.9598 -0.1608  0.7438
   32TCq2    O5  497   1.415   2.332  15.680 -0.0324  0.2079  0.4048
   32TCq2    O6  498   1.406   2.442  15.486  0.6710 -0.9484  0.2560
   32TCq2    H2  499   1.593   2.390  15.343 -2.1317 -0.9932  1.0347
   32TCq2    H3  500   1.628   2.213  15.726  1.9416  0.0863  1.6235
   32TCq2    H4  501   1.970   2.247  15.474 -0.8911 -0.3261 -0.2593
   33MPD2     C  502   2.764   4.128  10.388 -0.3008  0.3242 -0.1460
   33MPD2    C1  503   2.746   4.258  10.338  0.4153  0.2651  0.1942
   33MPD2    C2  504   2.794   4.295  10.217 -0.1788 -0.2473  0.2049
   33MPD2    C3  505   2.845   4.192  10.135 -0.3006  0.0188  0.9015
   33MPD2    C4  506   2.868   4.070  10.181  0.0198 -0.7582  0.2756
   33MPD2    C5  507   2.822   4.034  10.304 -0.4440 -0.3462 -0.6233
   33MPD2     H  508   2.798   4.396  10.180  0.8028  0.2104  1.5581
   33MPD2    H1  509   2.904   3.990  10.118 -1.5389 -0.8364 -0.5165
   33MPD2    H2  510   2.711   4.093  10.476  0.8503 -0.0162  0.4059
   33MPD2    H3  511   2.835   3.931  10.333  0.5132 -0.0903 -0.1359
   33MPD2     N  512   2.885   4.220  10.001 -0.0195  0.2895 -0.2265
   33MPD2    H5  513   2.934   4.147   9.950 -3.5852 -2.6379  0.5572
   33MPD2    N1  514   2.688   4.364  10.413 -0.3189  0.1913 -0.3101
   33MPD2    H7  515   2.716   4.458  10.384  3.0686 -0.2141  1.6175
   34TCq2    C1  516   2.846   4.327   9.924  0.5329 -0.2715 -0.3798
   34TCq2    O2  517   2.764   4.414   9.952  0.0222  0.3789  0.1439
   34TCq2    C2  518   2.887   4.318   9.785  0.2190 -0.5443 -0.0875
   34TCq2    C3  519   2.987   4.232   9.757 -0.4386  0.4758  0.4772
   34TCq2    C4  520   3.066   4.256   9.647 -0.3434  0.0153  0.1758
   34TCq2    C5  521   3.040   4.358   9.562  0.3906 -0.0511 -0.5508
   34TCq2    C6  522   2.929   4.438   9.591  0.2872 -0.0813  0.0637
   34TCq2    C7  523   2.851   4.417   9.700 -0.2837 -0.0971  0.1408
   34TCq2    C8  524   2.910   4.552   9.516  0.1752  0.2008  0.7427
   34TCq2    O4  525   2.846   4.645   9.571  0.4571  0.0700  0.4232
   34TCq2    C9  526   3.194   4.192   9.620 -0.5888 -0.3489  0.0347
   34TCq2    O5  527   3.276   4.244   9.545 -0.1696 -0.6059  0.3710
   34TCq2    O6  528   3.229   4.105   9.706  0.2591 -0.0240  0.3218
   34TCq2    H2  529   3.025   4.156   9.824 -0.0297  0.8363  0.6523
   34TCq2    H3  530   3.111   4.372   9.482 -0.9776  0.2549 -1.7047
   34TCq2    H4  531   2.778   4.492   9.728 -1.3733  0.1558 -3.2930
   35MPD2     C  532   4.117   1.853  11.367  0.4805 -0.6121 -0.1287
   35MPD2    C1  533   4.133   1.723  11.401  0.0090  0.1638  0.0768
   35MPD2    C2  534   4.066   1.627  11.328  0.4674  0.0693 -0.1448
   35MPD2    C3  535   4.013   1.664  11.205 -0.5043  0.1239  0.1999
   35MPD2    C4  536   4.008   1.795  11.175  0.0874  0.1162  0.1113
   35MPD2    C5  537   4.060   1.891  11.253 -0.1155 -0.3955  0.2921
   35MPD2     H  538   4.083   1.521  11.345  2.2858  0.7434  2.2811
   35MPD2    H1  539   3.946   1.826  11.092  2.2816 -1.5232 -2.1259
   35MPD2    H2  540   4.160   1.928  11.433  1.3762 -1.4396  0.2402
   35MPD2    H3  541   4.051   1.996  11.228  1.4023 -0.1430  0.7908
   35MPD2     N  542   3.950   1.557  11.129  0.0222 -0.2522  0.8357
   35MPD2    H5  543   3.929   1.473  11.182  2.5582 -0.1340  2.0375
   35MPD2    N1  544   4.193   1.700  11.522  0.5665  0.1291  0.1223
   35MPD2    H7  545   4.228   1.782  11.570  2.6551 -0.8498  0.2566
   36TCq2    C1  546   3.905   1.576  10.999 -1.0037  0.7412 -0.0554
   36TCq2    O2  547   3.912   1.675  10.932  0.3288  0.2454  0.0779
   36TCq2    C2  548   3.787   1.483  10.969 -0.0739  0.0358 -0.4838
   36TCq2    C3  549   3.732   1.501  10.850  0.0471 -0.0648 -0.3076
   36TCq2    C4  550   3.597   1.484  10.836 -0.2285 -0.0789  0.0857
   36TCq2    C5  551   3.530   1.415  10.928 -0.1574 -0.4669 -0.2956
   36TCq2    C6  552   3.596   1.380  11.042  0.5311 -0.5634  0.3480
   36TCq2    C7  553   3.718   1.426  11.068  0.6539  0.1321 -0.0357
   36TCq2    C8  554   3.514   1.308  11.146  0.7632 -0.7519 -0.4206
   36TCq2    O4  555   3.422   1.243  11.102  0.3834 -0.6891  0.0845
   36TCq2    C9  556   3.530   1.533  10.718 -0.1438  0.1463 -0.4592
   36TCq2    O5  557   3.598   1.591  10.628  0.5318  0.1528  0.4679
   36TCq2    O6  558   3.410   1.518  10.707  0.0630 -0.3255 -0.4709
   36TCq2    H2  559   3.789   1.549  10.772  0.0439  0.7707  0.2087
   36TCq2    H3  560   3.425   1.391  10.916 -0.0102 -1.4110  0.2906
   36TCq2    H4  561   3.773   1.390  11.155 -0.1108  0.9741  0.7864
   37TMC2    C1  562   0.905   1.089  11.284  0.1933 -0.0965  0.1571
   37TMC2    C2  563   0.867   0.994  11.193 -0.0151  0.1960  0.1929
   37TMC2    C3  564   0.965   0.927  11.128 -0.4082  0.1725  0.0190
   37TMC2    C4  565   1.031   1.108  11.324  0.5696 -0.5260  0.9988
   37TMC2    C5  566   1.124   1.038  11.263  0.1946  0.3049  0.2752
   37TMC2    C6  567   1.095   0.943  11.163 -0.3153 -0.5863 -0.9358
   37TMC2     C  568   0.806   1.129  11.380 -0.3269  1.0088 -0.2176
   37TMC2     O  569   0.701   1.155  11.325 -0.2329  0.1666  0.9720
   37TMC2     H  570   0.763   0.968  11.177 -0.1873 -0.7556  2.8519
   37TMC2    H1  571   1.059   1.185  11.396  3.7465 -0.4564 -0.3305
   37TMC2    H2  572   1.175   0.910  11.099  0.2528 -1.2448  0.1062
   37TMC2    C7  573   1.266   1.077  11.293  0.3584 -0.3903  0.3057
   37TMC2    C8  574   0.944   0.877  10.988 -0.1089 -0.3069  1.0501
   37TMC2    O1  575   1.285   1.167  11.371 -0.1824  0.0049 -0.4697
   37TMC2    O2  576   1.027   0.894  10.902 -0.1025  0.5047 -0.1580
   37TMC2    O5  577   0.813   0.852  10.968 -0.1911 -0.2970 -0.3501
   37TMC2    H5  578   0.769   0.813  11.047  0.3029 -2.0715 -0.9447
   38MPD2     C  579   0.741   1.475  11.744 -0.4075 -0.4888  0.6765
   38MPD2    C1  580   0.865   1.419  11.759 -0.1943 -0.4289 -0.3415
   38MPD2    C2  581   0.899   1.311  11.679  0.1765  0.3860 -0.6885
   38MPD2    C3  582   0.807   1.256  11.594  0.5111  0.0964 -0.0644
   38MPD2    C4  583   0.685   1.316  11.572 -0.0586  0.5039 -0.7947
   38MPD2    C5  584   0.656   1.427  11.644  0.1770  0.5536  0.2318
   38MPD2     H  585   0.993   1.261  11.699 -0.5490  0.3758  2.7153
   38MPD2    H1  586   0.611   1.280  11.501 -0.3861  0.9204 -0.6604
   38MPD2    H2  587   0.707   1.559  11.804 -0.7237  0.7549 -1.2530
   38MPD2    H3  588   0.559   1.475  11.632 -0.0295 -0.2562 -1.2822
   38MPD2     N  589   0.856   1.162  11.506 -0.0334 -0.2442 -0.2885
   38MPD2    H5  590   0.951   1.124  11.506 -0.5250 -1.4545  0.8309
   38MPD2    N1  591   0.961   1.460  11.852 -0.1043 -0.1812 -0.2977
   38MPD2    H7  592   1.049   1.409  11.855 -0.4843 -0.8264 -0.0879
   39MPD2     C  593   3.423   3.457   1.696 -0.6330 -0.4197 -0.3708
   39MPD2    C1  594   3.415   3.596   1.674  0.5277 -0.0029  0.3902
   39MPD2    C2  595   3.308   3.645   1.615  0.2111  0.5830  0.2780
   39MPD2    C3  596   3.198   3.568   1.598  0.0196 -0.6952 -0.0984
   39MPD2    C4  597   3.192   3.441   1.646 -0.1075  0.3910  0.3314
   39MPD2    C5  598   3.306   3.380   1.691  0.2247 -0.2439  0.4467
   39MPD2     H  599   3.309   3.746   1.574  0.7948  1.4392  2.3931
   39MPD2    H1  600   3.098   3.387   1.636  1.5512 -2.4955  0.1287
   39MPD2    H2  601   3.517   3.421   1.738 -0.4529 -0.5171 -0.8587
   39MPD2    H3  602   3.295   3.274   1.711  0.2476 -0.5971 -1.4230
   39MPD2     N  603   3.067   3.612   1.543 -0.0231 -0.5678 -0.2264
   39MPD2    H5  604   3.004   3.535   1.519 -1.9739  0.9454  0.0101
   39MPD2    N1  605   3.532   3.669   1.695 -0.1200  0.1345  0.0608
   39MPD2    H7  606   3.621   3.622   1.711 -0.5731 -0.7003  0.1145
   40TCq2    C1  607   3.548   3.802   1.706 -0.2271 -0.9229 -0.1170
   40TCq2    O2  608   3.467   3.894   1.717  0.7735  0.0087 -0.0154
   40TCq2    C2  609   3.687   3.835   1.755 -0.1273  0.4132 -0.1921
   40TCq2    C3  610   3.703   3.966   1.801  0.1950 -0.3412  0.3608
   40TCq2    C4  611   3.828   4.015   1.827  0.2465  0.6014 -0.1760
   40TCq2    C5  612   3.936   3.930   1.824  0.4365  0.1734 -0.6322
   40TCq2    C6  613   3.918   3.801   1.790 -0.2597  0.5225 -0.3242
   40TCq2    C7  614   3.793   3.749   1.755  0.3667 -0.5878  0.3235
   40TCq2    C8  615   4.038   3.718   1.774 -0.5724  0.5684 -0.1853
   40TCq2    O4  616   4.018   3.599   1.740 -0.3243 -0.6655  0.0137
   40TCq2    C9  617   3.848   4.151   1.865 -0.8907  0.2365 -0.2695
   40TCq2    O5  618   3.747   4.222   1.861  0.2330  0.2126 -0.2253
   40TCq2    O6  619   3.964   4.196   1.880 -0.3723 -0.0997 -0.0674
   40TCq2    H2  620   3.618   4.031   1.819  3.0183  2.9691  1.8307
   40TCq2    H3  621   4.030   3.969   1.861 -1.3577  1.9560  2.1221
   40TCq2    H4  622   3.788   3.644   1.728  0.2943 -0.6910  0.7435
   41TMC2    C1  623   2.790   0.960  13.446 -0.1922  0.3986  0.6077
   41TMC2    C2  624   2.809   0.873  13.343 -0.4697  0.3417  0.4058
   41TMC2    C3  625   2.811   0.919  13.212  0.0621  0.6709  0.3773
   41TMC2    C4  626   2.763   1.091  13.415 -0.1248  0.0802  0.2172
   41TMC2    C5  627   2.763   1.136  13.288  0.0810 -0.1002 -0.7379
   41TMC2    C6  628   2.790   1.054  13.184  0.3749 -0.1670 -0.0091
   41TMC2     C  629   2.816   0.908  13.579  1.1519 -0.7003  0.2665
   41TMC2     O  630   2.835   0.791  13.599  0.3318  0.6218  0.4716
   41TMC2     H  631   2.842   0.772  13.363 -2.5048  0.3269  3.7564
   41TMC2    H1  632   2.736   1.153  13.500 -2.0225 -1.6613  0.8717
   41TMC2    H2  633   2.790   1.096  13.084 -1.6420  1.9337  0.8723
   41TMC2    C7  634   2.727   1.275  13.264  0.7513  0.8622  0.0859
   41TMC2    C8  635   2.896   0.842  13.117  0.3996 -0.4249  0.1275
   41TMC2    O1  636   2.678   1.329  13.363  0.3182  0.4940 -0.0009
   41TMC2    O2  637   2.965   0.751  13.150 -0.0776  0.2284 -0.3701
   41TMC2    O5  638   2.861   0.878  12.992  0.6092  0.2689 -0.9343
   41TMC2    H5  639   2.799   0.951  12.969 -1.1438 -1.0343 -0.3354
   42MPD2     C  640   2.935   0.876  13.845  0.4340 -0.1134 -0.0194
   42MPD2    C1  641   2.865   0.987  13.808  0.0748  0.1696 -0.1409
   42MPD2    C2  642   2.838   1.088  13.897  0.2433 -0.2147 -0.2947
   42MPD2    C3  643   2.895   1.077  14.030 -0.1007 -0.0191 -0.2136
   42MPD2    C4  644   2.972   0.969  14.056 -1.5637 -0.2295  0.4681
   42MPD2    C5  645   2.985   0.865  13.972  0.3712 -0.0353 -0.1264
   42MPD2     H  646   2.774   1.172  13.877  2.2393  1.6066  0.9551
   42MPD2    H1  647   3.011   0.968  14.157  3.4953 -0.3526 -1.5088
   42MPD2    H2  648   2.962   0.800  13.772 -0.4750  0.0468 -0.5164
   42MPD2    H3  649   3.044   0.776  13.992  0.7444  0.1693 -0.2978
   42MPD2     N  650   2.901   1.180  14.119  0.4121 -0.2893 -0.3683
   42MPD2    H5  651   2.948   1.165  14.208  1.0806 -1.4788 -0.9275
   42MPD2    N1  652   2.811   1.000  13.680  0.3140  0.3238 -0.3699
   42MPD2    H7  653   2.764   1.086  13.655  0.6491 -0.2437 -2.9470
   43MPD2     C  654   4.283   4.308   0.160 -0.5156 -0.8838  0.2279
   43MPD2    C1  655   4.349   4.305   0.278 -0.3556  0.6404  0.1538
   43MPD2    C2  656   4.293   4.370   0.392  0.2380 -0.4939  0.3913
   43MPD2    C3  657   4.178   4.443   0.390  0.0900  0.1583  0.0437
   43MPD2    C4  658   4.116   4.449   0.269 -0.3633  0.4647 -0.5807
   43MPD2    C5  659   4.164   4.380   0.160  0.6878 -0.7950  0.5272
   43MPD2     H  660   4.348   4.361   0.485 -0.6882 -2.5396  0.7340
   43MPD2    H1  661   4.022   4.498   0.245 -0.5442  0.8157  0.8404
   43MPD2    H2  662   4.323   4.277   0.064  1.1042  0.6534  0.4114
   43MPD2    H3  663   4.111   4.396   0.067  2.5451  1.7454 -0.0868
   43MPD2     N  664   4.122   4.517   0.498 -0.4642  0.2584 -0.4875
   43MPD2    H5  665   4.034   4.561   0.474 -1.3653 -0.2232  1.8811
   43MPD2    N1  666   4.478   4.245   0.294  0.7829 -0.2860  0.1565
   43MPD2    H7  667   4.524   4.246   0.385  1.4251  1.1777 -0.1757
   44TCq2    C1  668   4.162   0.080   1.027  1.0155 -0.0586 -0.0740
   44TCq2    O2  669   4.241   4.719   1.064 -0.0753  0.0590  0.6433
   44TCq2    C2  670   4.116   0.060   0.890 -0.8103 -0.1124  0.2460
   44TCq2    C3  671   4.007   0.123   0.844 -0.2447 -0.4725 -0.2666
   44TCq2    C4  672   3.932   0.070   0.734 -0.9096 -0.1781 -0.4656
   44TCq2    C5  673   3.989   4.690   0.668  0.6202 -0.8334  0.0541
   44TCq2    C6  674   4.111   4.643   0.703  0.4010 -0.3070 -0.5251
   44TCq2    C7  675   4.183   4.696   0.814 -0.1904 -1.0550 -0.4712
   44TCq2    C8  676   4.175   4.540   0.624 -0.1807 -0.9891  0.1645
   44TCq2    O4  677   4.279   4.491   0.668  0.5429 -0.2224 -0.5481
   44TCq2    C9  678   3.802   0.113   0.692 -0.9729  0.7063  0.0334
   44TCq2    O5  679   3.744   0.189   0.776 -0.4773  0.2090 -0.3478
   44TCq2    O6  680   3.747   0.049   0.595 -0.1921  0.6170 -0.2216
   44TCq2    H2  681   3.958   0.207   0.893  1.1775 -2.1695  4.0290
   44TCq2    H3  682   3.932   4.635   0.593  1.7511 -0.9056 -0.7546
   44TCq2    H4  683   4.262   4.632   0.851  0.7898 -1.0032 -2.4557
   45TMC2    C1  684   0.755   0.924   9.527  0.0067  0.0002 -0.2039
   45TMC2    C2  685   0.847   0.869   9.439 -0.1627  0.0652 -0.3641
   45TMC2    C3  686   0.957   0.952   9.424 -0.7693 -0.3639  0.4087
   45TMC2    C4  687   0.779   1.040   9.603  0.0685  0.3721 -0.5604
   45TMC2    C5  688   0.895   1.110   9.581  0.3445 -0.2018  0.2045
   45TMC2    C6  689   0.983   1.068   9.487  0.9216 -0.1528  0.5184
   45TMC2     C  690   0.646   0.835   9.576 -0.1018  0.1785  0.3462
   45TMC2     O  691   0.576   0.880   9.662  0.5191 -0.0947 -0.0736
   45TMC2     H  692   0.845   0.771   9.392  1.1784  0.1608 -0.6189
   45TMC2    H1  693   0.699   1.072   9.669 -0.2624 -1.2675 -0.1724
   45TMC2    H2  694   1.082   1.110   9.474  1.0179 -0.0824  1.4895
   45TMC2    C7  695   0.899   1.246   9.638  0.4338  0.1124  0.3260
   45TMC2    C8  696   1.050   0.917   9.323 -0.4401 -0.0919 -0.2226
   45TMC2    O1  697   0.811   1.287   9.712  0.3384 -0.4329  0.1391
   45TMC2    O2  698   1.164   0.967   9.306 -0.2545  0.6559  0.3165
   45TMC2    O5  699   0.983   0.850   9.227 -0.3900  0.9053 -0.3692
   45TMC2    H5  700   0.887   0.851   9.248 -0.1250  0.8292  0.8107
   46MPD2     C  701   0.529   0.519   9.427 -0.5767  0.8748  0.4448
   46MPD2    C1  702   0.525   0.645   9.486 -0.3094  0.9590 -0.6428
   46MPD2    C2  703   0.402   0.713   9.511  0.1932 -0.1731 -0.3797
   46MPD2    C3  704   0.289   0.658   9.460 -0.1258 -0.7657  0.3731
   46MPD2    C4  705   0.294   0.525   9.410 -0.4380 -0.7392 -0.1176
   46MPD2    C5  706   0.413   0.462   9.391 -0.5818  0.2506  0.2815
   46MPD2     H  707   0.405   0.811   9.558 -1.7031 -0.5595  0.5896
   46MPD2    H1  708   0.207   0.475   9.368 -0.1631 -1.1575 -0.1835
   46MPD2    H2  709   0.627   0.482   9.399  0.0822  2.6133  0.4674
   46MPD2    H3  710   0.398   0.374   9.330  1.8609  1.4182 -2.0379
   46MPD2     N  711   0.173   0.746   9.454 -0.6340  0.2266 -0.1147
   46MPD2    H5  712   0.189   0.837   9.496 -0.2236 -0.1586  0.5492
   46MPD2    N1  713   0.644   0.718   9.505  0.0525 -0.1971  0.5921
   46MPD2    H7  714   0.720   0.685   9.447  0.3317  0.2940  0.6857
   47TMC2    C1  715   2.586   1.939   9.407 -0.0331  0.3472  0.6665
   47TMC2    C2  716   2.637   1.887   9.294  0.6075 -0.0448 -0.4397
   47TMC2    C3  717   2.550   1.850   9.198  0.0610  0.1367 -0.0949
   47TMC2    C4  718   2.456   1.973   9.422  0.1892 -0.0518  0.1694
   47TMC2    C5  719   2.370   1.944   9.324 -0.0337 -0.1405  0.3484
   47TMC2    C6  720   2.416   1.870   9.210  0.1098 -0.3789 -1.1573
   47TMC2     C  721   2.683   1.956   9.505  0.1867  0.2435  0.1064
   47TMC2     O  722   2.670   2.040   9.591 -0.1199  0.4516  0.6426
   47TMC2     H  723   2.742   1.900   9.268  0.2253 -1.1004 -2.5397
   47TMC2    H1  724   2.429   2.029   9.510  1.9087  0.1698  0.5440
   47TMC2    H2  725   2.342   1.836   9.139 -1.0066  2.0787 -1.1838
   47TMC2    C7  726   2.227   1.976   9.333 -0.1353 -0.2167 -0.5371
   47TMC2    C8  727   2.597   1.804   9.067  0.0723 -0.9167 -0.1927
   47TMC2    O1  728   2.191   1.999   9.449 -0.4484  0.5619  0.6941
   47TMC2    O2  729   2.545   1.843   8.965 -0.3119 -0.2285  0.6971
   47TMC2    O5  730   2.724   1.766   9.080  0.5578  0.3515  0.6164
   47TMC2    H5  731   2.745   1.731   9.169 -0.1983  0.7483  0.9544
   48MPD2     C  732   2.930   1.935   9.669 -0.2264  0.0214  0.1172
   48MPD2    C1  733   2.891   1.842   9.571  0.1833 -0.5927  0.4334
   48MPD2    C2  734   2.965   1.731   9.554  0.2912 -0.3618  0.2827
   48MPD2    C3  735   3.076   1.700   9.627  0.4455  0.6421  0.4126
   48MPD2    C4  736   3.113   1.797   9.718 -0.0830  0.0686  0.5513
   48MPD2    C5  737   3.038   1.907   9.747 -0.2995  0.1563 -0.0627
   48MPD2     H  738   2.937   1.670   9.469 -0.2691 -0.9599  0.8863
   48MPD2    H1  739   3.206   1.787   9.773  0.5269 -1.1493 -0.7336
   48MPD2    H2  740   2.878   2.027   9.691 -0.0025 -0.1450  1.3373
   48MPD2    H3  741   3.068   1.981   9.821  0.3000  0.9294 -1.0733
   48MPD2     N  742   3.147   1.582   9.602 -0.5885  0.1440 -0.0290
   48MPD2    H5  743   3.111   1.528   9.524  0.4692 -0.3715 -0.1639
   48MPD2    N1  744   2.775   1.853   9.497  1.0060  0.3927  0.3123
   48MPD2    H7  745   2.751   1.782   9.428  0.5478  0.9461 -0.1005
   49MPD2     C  746   0.685   3.395  10.510 -0.8087 -0.3753  0.0691
   49MPD2    C1  747   0.640   3.528  10.495  0.6413 -0.1417  0.1792
   49MPD2    C2  748   0.665   3.623  10.589 -0.3531 -0.1796  0.1066
   49MPD2    C3  749   0.752   3.594  10.698  0.1232 -0.4820 -0.3737
   49MPD2    C4  750   0.805   3.463  10.711  0.1361  0.0869  0.0389
   49MPD2    C5  751   0.773   3.371  10.613  0.2883  0.3569  0.0225
   49MPD2     H  752   0.624   3.721  10.565 -0.1836  0.1168  1.0446
   49MPD2    H1  753   0.882   3.452  10.787  0.7426 -0.0690 -0.6025
   49MPD2    H2  754   0.674   3.320  10.432 -2.6883 -0.7479  0.7059
   49MPD2    H3  755   0.832   3.280  10.623 -1.1345 -0.4829  0.8772
   49MPD2     N  756   0.804   3.697  10.783  0.0233  0.4456  0.3400
   49MPD2    H5  757   0.879   3.674  10.846  1.5622  0.6032 -1.4348
   49MPD2    N1  758   0.559   3.559  10.384  0.4467  0.1394  0.7646
   49MPD2    H7  759   0.525   3.655  10.380  0.7416  0.2937  2.0350
   50TCq2    C1  760   0.531   3.469  10.281 -0.1959  0.5890 -0.0981
   50TCq2    O2  761   0.539   3.349  10.259  0.1145  0.1734 -0.4494
   50TCq2    C2  762   0.466   3.549  10.174  0.6282 -0.4720  0.1851
   50TCq2    C3  763   0.363   3.488  10.101 -0.2005 -0.3105 -0.2040
   50TCq2    C4  764   0.289   3.562  10.018  0.1795 -0.0270  0.3253
   50TCq2    C5  765   0.299   3.703  10.007  0.7451 -0.0019 -0.0163
   50TCq2    C6  766   0.408   3.749  10.070 -0.6804 -0.6199  0.2564
   50TCq2    C7  767   0.487   3.687  10.157 -0.1934 -0.1095  0.5457
   50TCq2    C8  768   0.439   3.894  10.066  0.2323 -0.6725  0.0702
   50TCq2    O4  769   0.555   3.931  10.071 -0.0944  0.0899  0.0880
   50TCq2    C9  770   0.191   3.486   9.943  0.5283  0.1227 -0.5006
   50TCq2    O5  771   0.180   3.362   9.969 -0.1071  0.0429 -0.2423
   50TCq2    O6  772   0.136   3.544   9.847 -0.1779  0.3711 -0.2341
   50TCq2    H2  773   0.351   3.381  10.112  1.3758 -0.4685  0.0438
   50TCq2    H3  774   0.232   3.764   9.948  0.0933 -1.6358 -0.9741
   50TCq2    H4  775   0.556   3.741  10.220 -1.2897  2.4284 -0.4401
   51MPD2     C  776   0.469   3.768   1.006 -0.2908  0.0585 -0.3575
   51MPD2    C1  777   0.471   3.696   1.125  0.8077 -0.1180  0.7785
   51MPD2    C2  778   0.461   3.777   1.242 -0.2976  0.4141 -0.2848
   51MPD2    C3  779   0.447   3.912   1.238 -0.1280 -0.7004 -0.3595
   51MPD2    C4  780   0.434   3.972   1.122  0.0123 -0.3156  0.0051
   51MPD2    C5  781   0.444   3.903   1.004 -0.2339 -0.7489 -0.2433
   51MPD2     H  782   0.482   3.743   1.342  1.6979 -0.7685 -1.1036
   51MPD2    H1  783   0.423   4.080   1.123  1.4242 -0.1798 -0.2569
   51MPD2    H2  784   0.468   3.721   0.908  1.1400 -0.8330  0.0593
   51MPD2    H3  785   0.426   3.955   0.911  0.3985 -2.3337 -1.2530
   51MPD2     N  786   0.440   3.994   1.352  0.4698  0.1235  0.1898
   51MPD2    H5  787   0.436   4.095   1.346 -1.6851 -0.0387 -0.9750
   51MPD2    N1  788   0.497   3.555   1.128 -0.2438  0.3919 -0.0431
   51MPD2    H7  789   0.502   3.510   1.219 -1.0711  0.5001  0.0582
   52TCq2    C1  790   0.451   3.961   1.490  0.5718  0.1303 -0.2056
   52TCq2    O2  791   0.468   3.850   1.537 -0.1482 -0.1643 -0.0396
   52TCq2    C2  792   0.438   4.073   1.576 -0.0710  0.0940 -0.0294
   52TCq2    C3  793   0.385   4.056   1.698 -1.0039  0.4153  0.7830
   52TCq2    C4  794   0.395   4.158   1.790 -0.0339  0.4490 -0.5059
   52TCq2    C5  795   0.448   4.281   1.760 -0.1819  0.8808  0.0756
   52TCq2    C6  796   0.502   4.290   1.630 -0.1823  0.6118  1.0732
   52TCq2    C7  797   0.505   4.186   1.543 -0.1457  0.3621  0.3475
   52TCq2    C8  798   0.591   4.402   1.604 -0.6927  0.6745  1.0271
   52TCq2    O4  799   0.697   4.379   1.557 -0.1691  0.3087  0.2591
   52TCq2    C9  800   0.342   4.133   1.923  0.5291 -0.9670 -0.0009
   52TCq2    O5  801   0.308   4.017   1.959 -0.1391  0.2451  0.6376
   52TCq2    O6  802   0.339   4.229   2.003 -0.6088 -0.6258 -0.1726
   52TCq2    H2  803   0.336   3.966   1.734 -2.3604  0.7861 -0.1556
   52TCq2    H3  804   0.462   4.360   1.833  1.1947  2.2664 -1.6832
   52TCq2    H4  805   0.566   4.202   1.454 -1.3482 -0.4316 -0.6214
   53TMC2    C1  806   1.902   1.449  11.400 -0.6592 -0.1294 -0.7292
   53TMC2    C2  807   2.033   1.461  11.447 -0.0093  0.2735 -0.1549
   53TMC2    C3  808   2.048   1.561  11.538 -0.4440 -0.0259  0.5334
   53TMC2    C4  809   1.799   1.522  11.453  0.2434  0.0962  0.0950
   53TMC2    C5  810   1.829   1.625  11.535 -0.0468  0.1413  0.3098
   53TMC2    C6  811   1.953   1.647  11.584  0.1332  0.0707  0.6097
   53TMC2     C  812   1.869   1.330  11.318  0.2174  0.0723 -0.4572
   53TMC2     O  813   1.969   1.277  11.271 -0.1299 -0.2168 -0.0789
   53TMC2     H  814   2.115   1.407  11.402  1.3805  0.8653  1.6562
   53TMC2    H1  815   1.699   1.516  11.413  0.1939  2.4163 -0.1774
   53TMC2    H2  816   1.986   1.713  11.664  1.9757 -1.8149  1.3778
   53TMC2    C7  817   1.716   1.688  11.592 -0.2402 -1.1323  0.0670
   53TMC2    C8  818   2.180   1.597  11.585 -0.4846 -0.4254 -0.0264
   53TMC2    O1  819   1.604   1.637  11.580  0.5475  0.6705 -0.8086
   53TMC2    O2  820   2.238   1.699  11.609 -0.4455  0.1073  0.4491
   53TMC2    O5  821   2.228   1.485  11.625 -0.5122 -0.4900 -0.5504
   53TMC2    H5  822   2.160   1.415  11.611  0.0645 -0.4993 -3.2646
   54MPD2     C  823   1.768   1.083  11.191  0.8637  0.4655 -0.7205
   54MPD2    C1  824   1.691   1.171  11.259  0.3816  0.8401 -0.2316
   54MPD2    C2  825   1.557   1.144  11.276  0.0817  0.0372  0.6042
   54MPD2    C3  826   1.491   1.035  11.215 -0.3301  0.1698 -0.1468
   54MPD2    C4  827   1.569   0.943  11.144 -0.7637 -0.6265  0.1109
   54MPD2    C5  828   1.706   0.972  11.142  0.0651  0.7698  0.4059
   54MPD2     H  829   1.508   1.212  11.344 -1.8700 -1.3050  0.5399
   54MPD2    H1  830   1.527   0.863  11.084 -1.1793 -1.0666  0.9854
   54MPD2    H2  831   1.875   1.098  11.178  1.1206 -0.5950  0.1378
   54MPD2    H3  832   1.764   0.905  11.079 -0.5737 -0.2543  0.9099
   54MPD2     N  833   1.359   1.005  11.220  0.4313 -0.1276 -0.7933
   54MPD2    H5  834   1.333   0.918  11.176  4.4122 -0.6544 -2.1627
   54MPD2    N1  835   1.741   1.288  11.320 -0.0686 -0.0724  0.0694
   54MPD2    H7  836   1.665   1.335  11.368 -0.8198  0.7934 -1.9502
   55MPD2     C  837   2.043   4.327  17.448  0.6155  0.1216 -0.1154
   55MPD2    C1  838   1.990   4.239  17.545  0.0907 -0.1083 -0.2093
   55MPD2    C2  839   1.889   4.290  17.628 -0.3290  0.0932  0.0170
   55MPD2    C3  840   1.837   4.414  17.606 -0.5652 -0.3291 -1.0667
   55MPD2    C4  841   1.901   4.502  17.522  0.0774 -0.4284  0.0399
   55MPD2    C5  842   2.003   4.455  17.448 -0.1108  0.2092  0.1535
   55MPD2     H  843   1.838   4.216  17.688  1.6814 -0.5325  0.9593
   55MPD2    H1  844   1.864   4.604  17.511 -1.0960 -0.9480 -0.8431
   55MPD2    H2  845   2.114   4.303  17.369 -0.2317 -2.3610 -0.1163
   55MPD2    H3  846   2.039   4.515  17.365 -1.0197  0.1212 -0.3089
   55MPD2     N  847   1.719   4.456  17.669 -0.3798 -0.5523  0.4397
   55MPD2    H5  848   1.680   4.401   0.034  0.9683 -0.4369  1.2226
   55MPD2    N1  849   2.038   4.107  17.534  0.7003 -0.3821  0.0919
   55MPD2    H7  850   2.115   4.080  17.474  0.9958 -1.9671  1.1802
   56TCq2    C1  851   1.977   4.001  17.601  0.0885 -0.2899  0.7734
   56TCq2    O2  852   1.881   3.992  17.673 -0.0038  0.6991  0.0502
   56TCq2    C2  853   2.058   3.874  17.591 -0.1644 -0.2296  0.0329
   56TCq2    C3  854   2.149   3.867  17.487  0.0306  0.0931 -0.4135
   56TCq2    C4  855   2.250   3.776  17.500 -0.2839  0.4144  0.3955
   56TCq2    C5  856   2.254   3.679  17.596  0.0981  0.7601 -0.8543
   56TCq2    C6  857   2.163   3.698  17.698  0.1822  0.6216 -0.5386
   56TCq2    C7  858   2.068   3.798  17.705  0.3233  0.0449 -0.3674
   56TCq2    C8  859   2.194   3.627   0.117  0.3960 -0.1733  0.4221
   56TCq2    O4  860   2.287   3.546   0.114  0.6100 -0.1465 -0.4386
   56TCq2    C9  861   2.343   3.762  17.392  0.0405 -0.9605 -0.2872
   56TCq2    O5  862   2.411   3.655  17.386  0.4126 -0.1444  0.4319
   56TCq2    O6  863   2.356   3.861  17.318  0.1485  0.2661 -0.4945
   56TCq2    H2  864   2.147   3.925  17.396  0.5238 -0.3339 -0.6990
   56TCq2    H3  865   2.326   3.598  17.601  0.6115  1.3696  1.4586
   56TCq2    H4  866   2.018   3.821   0.088 -0.4898  3.0630 -1.5333
   57TMC2    C1  867   1.595   0.585  13.663  0.1732  0.3412 -0.0537
   57TMC2    C2  868   1.699   0.558  13.751  0.0156 -0.1754  0.3041
   57TMC2    C3  869   1.816   0.517  13.694 -0.2887 -0.2270 -0.4733
   57TMC2    C4  870   1.604   0.567  13.529  0.7518  0.3745 -0.1851
   57TMC2    C5  871   1.715   0.495  13.488  0.8611  0.0336 -0.8906
   57TMC2    C6  872   1.826   0.484  13.565  0.0920  0.8588  0.9361
   57TMC2     C  873   1.456   0.599  13.717 -0.3688  0.2047  0.1425
   57TMC2     O  874   1.446   0.677  13.807 -0.3953  0.1722  0.2506
   57TMC2     H  875   1.678   0.566  13.857  0.0375 -0.6039  0.3442
   57TMC2    H1  876   1.518   0.576  13.463  0.9487  1.7513 -0.2507
   57TMC2    H2  877   1.924   0.449  13.534 -1.2984 -2.5755  0.3602
   57TMC2    C7  878   1.725   0.469  13.345 -0.5325  0.2219 -0.1259
   57TMC2    C8  879   1.902   0.447  13.781 -0.2120  0.1278  0.1957
   57TMC2    O1  880   1.654   0.530  13.267  0.5041 -1.0663  0.2039
   57TMC2    O2  881   1.983   0.363  13.746 -0.0574 -0.0243  0.5467
   57TMC2    O5  882   1.937   0.520  13.887 -0.1244  0.2897 -0.2295
   57TMC2    H5  883   1.891   0.606  13.900 -0.7067 -0.2413  1.1329
   58MPD2     C  884   0.980   0.430  13.796  0.3541  0.6190 -0.3656
   58MPD2    C1  885   1.036   0.557  13.817 -0.0381  0.0079  0.2299
   58MPD2    C2  886   1.171   0.574  13.789  0.3688  1.0227  0.6031
   58MPD2    C3  887   1.244   0.478  13.722  0.6595 -0.7013  0.0024
   58MPD2    C4  888   1.191   0.356  13.704 -0.5014  0.4165 -0.0187
   58MPD2    C5  889   1.059   0.335  13.737  0.7826 -0.0711 -0.2726
   58MPD2     H  890   1.218   0.671  13.800  0.5063  0.8154  1.8992
   58MPD2    H1  891   1.258   0.279  13.666  0.6100  0.0485  2.7426
   58MPD2    H2  892   0.885   0.404  13.841  0.2500 -0.1835 -1.0419
   58MPD2    H3  893   1.024   0.234  13.718  1.6940 -0.5910  0.7558
   58MPD2     N  894   1.377   0.494  13.676  0.7953 -0.3175  0.4967
   58MPD2    H5  895   1.418   0.409  13.639  1.4977 -0.8497  2.5603
   58MPD2    N1  896   0.967   0.663  13.876  0.1209 -0.4354  0.2585
   58MPD2    H7  897   1.014   0.752  13.886 -0.2555 -0.1378 -0.6674
   59MPD2     C  898   4.236   0.537  13.048 -0.2852  0.8769  0.2668
   59MPD2    C1  899   4.233   0.660  12.981 -0.1041  0.0163 -0.2152
   59MPD2    C2  900   4.281   0.772  13.042  0.3406 -0.4501  1.1301
   59MPD2    C3  901   4.312   0.774  13.172  0.2228 -0.3515 -0.0075
   59MPD2    C4  902   4.304   0.659  13.242  0.4001  0.5066 -0.8396
   59MPD2    C5  903   4.266   0.544  13.181 -0.6451 -0.4354 -0.0703
   59MPD2     H  904   4.287   0.862  12.981  1.3635 -1.0853  0.2898
   59MPD2    H1  905   4.350   0.653  13.340 -2.2342  0.9387  0.4147
   59MPD2    H2  906   4.206   0.443  13.005 -1.5662  0.7718  1.3885
   59MPD2    H3  907   4.264   0.452  13.237  1.7236 -0.9550 -0.8477
   59MPD2     N  908   4.373   0.880  13.237 -0.2889  0.3049  0.7802
   59MPD2    H5  909   4.403   0.867  13.333 -1.3232 -1.2852  0.8869
   59MPD2    N1  910   4.214   0.669  12.842  0.5763  0.2548  0.1767
   59MPD2    H7  911   4.226   0.758  12.794  0.0655  1.5594  2.4609
   60TCq2    C1  912   4.173   0.563  12.757 -0.0077 -0.5825 -0.8012
   60TCq2    O2  913   4.135   0.451  12.786  0.1202  0.1257  0.1874
   60TCq2    C2  914   4.169   0.594  12.613  0.6424 -0.0550 -0.1085
   60TCq2    C3  915   4.046   0.567  12.567  0.0834 -0.2892 -0.4399
   60TCq2    C4  916   4.012   0.625  12.447  0.5659 -0.3655  0.1703
   60TCq2    C5  917   4.092   0.718  12.381 -0.1813 -0.1715  0.0595
   60TCq2    C6  918   4.219   0.734  12.432  0.2824  0.0492 -0.0106
   60TCq2    C7  919   4.252   0.680  12.547  0.0614 -0.1183 -0.0790
   60TCq2    C8  920   4.324   0.794  12.354 -0.3084  0.0733 -0.2711
   60TCq2    O4  921   4.441   0.756  12.370 -0.3236  0.2839 -0.3139
   60TCq2    C9  922   3.887   0.599  12.388 -0.1065 -1.0489 -0.2883
   60TCq2    O5  923   3.860   0.655  12.277 -0.4058 -0.2533 -0.3797
   60TCq2    O6  924   3.821   0.506  12.433 -0.2071 -0.1657 -0.7141
   60TCq2    H2  925   3.967   0.515  12.621  1.4037 -2.0735 -0.2576
   60TCq2    H3  926   4.067   0.763  12.285 -0.1559  2.8208  1.4552
   60TCq2    H4  927   4.351   0.697  12.587  0.1024 -0.4102 -0.0601
   61MPD2     C  928   3.427   1.946  15.262  0.3167  0.0427 -0.5441
   61MPD2    C1  929   3.426   2.087  15.256  0.2473  0.4348 -0.3159
   61MPD2    C2  930   3.424   2.142  15.127 -0.1003 -0.4148 -0.1467
   61MPD2    C3  931   3.440   2.066  15.009  0.1516  0.0194 -1.3205
   61MPD2    C4  932   3.435   1.922  15.025  0.8770 -0.1011  0.4611
   61MPD2    C5  933   3.424   1.870  15.148 -0.4116 -0.6034 -0.5149
   61MPD2     H  934   3.413   2.250  15.115  1.2691 -0.3254 -0.5657
   61MPD2    H1  935   3.439   1.849  14.945  0.1273  1.5880 -1.1326
   61MPD2    H2  936   3.418   1.898  15.359 -0.7969 -1.2003 -1.2579
   61MPD2    H3  937   3.410   1.763  15.159  0.8801 -0.7114  0.0990
   61MPD2     N  938   3.461   2.117  14.884 -0.3001  0.7447  0.3829
   61MPD2    H5  939   3.482   2.054  14.807  1.1959  0.1916  1.2477
   61MPD2    N1  940   3.418   2.171  15.369 -0.7577 -0.0325  0.2031
   61MPD2    H7  941   3.399   2.267  15.343 -0.2768 -0.0114 -0.0890
   62TCq2    C1  942   3.432   2.130  15.499 -0.3001  0.1968  0.6104
   62TCq2    O2  943   3.451   2.016  15.546 -0.5692 -0.3375  0.5005
   62TCq2    C2  944   3.395   2.240  15.584  0.4149  0.4024 -0.3333
   62TCq2    C3  945   3.422   2.231  15.722  0.4219  0.3701 -0.0278
   62TCq2    C4  946   3.380   2.321  15.819  0.1160  0.3539  0.0183
   62TCq2    C5  947   3.296   2.418  15.779  0.1665 -0.6579 -0.0706
   62TCq2    C6  948   3.260   2.427  15.644  0.1571 -0.3403 -0.2338
   62TCq2    C7  949   3.307   2.341  15.549 -0.1744  0.6138  0.3150
   62TCq2    C8  950   3.204   2.555  15.600 -0.0372  0.7674  0.1157
   62TCq2    O4  951   3.158   2.564  15.482  0.2082  0.0469 -0.2600
   62TCq2    C9  952   3.422   2.311  15.959 -0.7279  0.5243  0.1277
   62TCq2    O5  953   3.388   2.414  16.033  0.4019 -0.1334 -0.0975
   62TCq2    O6  954   3.469   2.199  16.000 -0.2675 -0.2698  0.1352
   62TCq2    H2  955   3.494   2.153  15.746 -0.6717 -0.9761 -1.1434
   62TCq2    H3  956   3.239   2.478  15.850  0.9800  0.8001 -0.6462
   62TCq2    H4  957   3.274   2.355  15.447 -2.3977 -4.0765  0.3985
   63TMC2    C1  958   2.659   1.986  10.479 -0.5467  0.7110  0.2036
   63TMC2    C2  959   2.764   1.899  10.473 -0.1128  0.5381 -0.5170
   63TMC2    C3  960   2.865   1.932  10.396 -0.0230  0.4784  0.3912
   63TMC2    C4  961   2.658   2.101  10.414 -0.1466  0.4106  0.0001
   63TMC2    C5  962   2.768   2.136  10.347 -0.3098  0.4977 -0.1448
   63TMC2    C6  963   2.871   2.051  10.323 -0.2996  0.2878 -0.7035
   63TMC2     C  964   2.541   1.953  10.557  0.2629 -0.2257  0.0165
   63TMC2     O  965   2.451   2.033  10.588  1.0312  0.0907 -0.8806
   63TMC2     H  966   2.773   1.821  10.547 -3.0876  2.3876  1.7887
   63TMC2    H1  967   2.573   2.167  10.421 -2.2876 -2.6548  2.7236
   63TMC2    H2  968   2.948   2.076  10.251  1.6922  0.1426  1.3641
   63TMC2    C7  969   2.778   2.282  10.310 -0.6138  0.0564 -0.1633
   63TMC2    C8  970   2.977   1.844  10.389  0.5290 -0.0699 -0.5836
   63TMC2    O1  971   2.676   2.341  10.285  0.3775  0.1486  0.7277
   63TMC2    O2  972   3.092   1.877  10.361  0.9667  0.7255 -0.2111
   63TMC2    O5  973   2.915   1.731  10.366 -0.8941  0.0035  0.0684
   63TMC2    H5  974   2.818   1.732  10.380 -0.9796  1.5316 -0.6957
   64MPD2     C  975   2.246   1.559  10.738 -0.0808  0.4756  0.4097
   64MPD2    C1  976   2.367   1.516  10.710 -0.3215 -0.6094 -0.1120
   64MPD2    C2  977   2.463   1.608  10.664  0.4415 -0.3601  0.4256
   64MPD2    C3  978   2.434   1.744  10.642  0.5229 -0.3515 -0.9116
   64MPD2    C4  979   2.308   1.785  10.666 -0.0148 -0.8008 -0.1001
   64MPD2    C5  980   2.221   1.693  10.715 -0.2154  0.3249  0.3499
   64MPD2     H  981   2.561   1.566  10.643 -0.0629 -0.9412 -0.7835
   64MPD2    H1  982   2.270   1.878  10.626 -0.2025 -0.2872  1.2877
   64MPD2    H2  983   2.167   1.505  10.790 -0.1337 -0.7866 -0.9876
   64MPD2    H3  984   2.119   1.725  10.732 -0.5875  0.3733 -1.9714
   64MPD2     N  985   2.534   1.814  10.577  0.3639  0.3111 -0.5934
   64MPD2    H5  986   2.613   1.764  10.538  0.0006 -0.3337 -0.5071
   64MPD2    N1  987   2.407   1.383  10.737 -0.0455  0.0511  0.7070
   64MPD2    H7  988   2.503   1.364  10.710 -0.5895 -2.0167  0.2356
   65MPD2     C  989   3.805   1.624  15.526 -0.3218 -1.4225  0.8762
   65MPD2    C1  990   3.777   1.618  15.386 -0.9694  0.1693 -0.0249
   65MPD2    C2  991   3.752   1.492  15.335 -0.1814  0.4838 -0.2917
   65MPD2    C3  992   3.739   1.379  15.412 -0.8233  0.8064 -0.2554
   65MPD2    C4  993   3.759   1.388  15.544  0.0423  0.3517  0.0343
   65MPD2    C5  994   3.791   1.510  15.601 -0.2201  0.4096 -0.5070
   65MPD2     H  995   3.726   1.488  15.229  0.6672 -0.7192 -0.4554
   65MPD2    H1  996   3.769   1.299  15.605 -0.5821 -0.0541 -0.4484
   65MPD2    H2  997   3.829   1.717  15.576  1.8910 -0.6744 -1.6104
   65MPD2    H3  998   3.818   1.525  15.705 -1.2328  2.5297 -0.5475
   65MPD2     N  999   3.694   1.251  15.366  0.0280  0.2511 -0.1117
   65MPD2    H5 1000   3.666   1.178  15.431 -0.6590  0.4339 -0.2022
   65MPD2    N1 1001   3.775   1.733  15.307  0.5853  0.5340  0.1750
   65MPD2    H7 1002   3.750   1.723  15.209  1.6030 -2.8614  0.2423
   66TCq2    C1 1003   3.796   1.863  15.351 -0.2859 -0.2349  0.5276
   66TCq2    O2 1004   3.810   1.909  15.465  0.3738 -0.0281  0.4091
   66TCq2    C2 1005   3.776   1.956  15.238  0.4895 -0.1093 -0.7099
   66TCq2    C3 1006   3.797   1.918  15.108 -0.9685  0.2731  0.0626
   66TCq2    C4 1007   3.808   2.016  15.011  0.4074 -0.1603 -0.4488
   66TCq2    C5 1008   3.799   2.145  15.043 -0.1084 -0.1149  0.5887
   66TCq2    C6 1009   3.789   2.182  15.174 -0.1218  0.1660 -0.4452
   66TCq2    C7 1010   3.786   2.087  15.277 -0.2668  1.0632 -0.5332
   66TCq2    C8 1011   3.713   2.302  15.199 -0.3469  0.1511  0.2870
   66TCq2    O4 1012   3.679   2.370  15.108  0.2353  0.1707  0.0089
   66TCq2    C9 1013   3.806   1.981  14.868 -0.9078 -0.3414  0.3092
   66TCq2    O5 1014   3.794   1.860  14.847  0.3160 -0.7856  0.6098
   66TCq2    O6 1015   3.841   2.071  14.783  0.2202  0.4242  0.5210
   66TCq2    H2 1016   3.818   1.816  15.078 -1.0323  0.2912 -0.0441
   66TCq2    H3 1017   3.803   2.221  14.966 -0.4627 -0.5324  0.1528
   66TCq2    H4 1018   3.782   2.115  15.382 -0.9706  1.7237 -0.7316
   67MPD2     C 1019   4.015   0.402  14.006 -0.3310 -0.0751 -0.3920
   67MPD2    C1 1020   3.951   0.522  13.981  0.3174 -0.5353  0.3387
   67MPD2    C2 1021   3.873   0.538  13.872 -0.5766 -0.4740  0.6959
   67MPD2    C3 1022   3.851   0.435  13.786 -0.2995 -0.3255  0.0633
   67MPD2    C4 1023   3.920   0.318  13.810 -0.2206  0.0097 -0.1117
   67MPD2    C5 1024   3.996   0.302  13.918 -0.5370  0.6239 -1.0216
   67MPD2     H 1025   3.828   0.636  13.856  1.3326  0.3884  0.5718
   67MPD2    H1 1026   3.902   0.224  13.758 -1.8735 -1.8058  3.6917
   67MPD2    H2 1027   4.090   0.396  14.084 -0.4780  0.2732 -0.2196
   67MPD2    H3 1028   4.047   0.207  13.923  1.8762  1.9859  0.1082
   67MPD2     N 1029   3.752   0.434  13.690  0.6653 -0.7165  0.1207
   67MPD2    H5 1030   3.733   0.342  13.652 -0.4468 -0.2581 -0.4379
   67MPD2    N1 1031   3.959   0.642  14.067 -0.3088 -0.1479  0.0607
   67MPD2    H7 1032   3.905   0.721  14.033  0.2205 -0.4337 -1.4542
   68TCq2    C1 1033   4.026   0.652  14.186  0.8129 -0.1153 -0.2634
   68TCq2    O2 1034   4.094   0.565  14.243 -0.1965  0.1682 -0.1365
   68TCq2    C2 1035   4.040   0.787  14.237 -0.1197  0.2019  0.1092
   68TCq2    C3 1036   3.953   0.889  14.202  0.1073  0.1668 -0.1488
   68TCq2    C4 1037   3.965   1.009  14.265  0.3707 -0.8544  0.2703
   68TCq2    C5 1038   4.065   1.031  14.358 -0.0943 -0.8359  0.4416
   68TCq2    C6 1039   4.143   0.925  14.393 -0.9649  0.8445  0.9052
   68TCq2    C7 1040   4.138   0.802  14.335  0.1001 -0.3305  0.1717
   68TCq2    C8 1041   4.251   0.947  14.491  0.0060 -0.7786 -0.0237
   68TCq2    O4 1042   4.352   0.875  14.476 -0.0718 -0.0453 -0.4781
   68TCq2    C9 1043   3.867   1.116  14.248 -0.4385 -0.2815  0.2998
   68TCq2    O5 1044   3.759   1.088  14.198 -0.5794 -0.2595  0.8966
   68TCq2    O6 1045   3.888   1.222  14.315  0.5929  0.6340 -0.2834
   68TCq2    H2 1046   3.880   0.876  14.123 -0.5788  0.1697  0.4886
   68TCq2    H3 1047   4.080   1.133  14.391 -1.2119  0.2124 -2.2994
   68TCq2    H4 1048   4.201   0.723  14.374 -0.0298  0.2501  1.5513
   69TMC2    C1 1049   1.700   2.291  12.303  0.8721 -0.7261  0.4815
   69TMC2    C2 1050   1.677   2.406  12.369 -0.1570 -0.1322  0.3957
   69TMC2    C3 1051   1.743   2.518  12.328 -0.0031 -0.4419 -0.9670
   69TMC2    C4 1052   1.780   2.289  12.196  0.0147  0.4123  0.2985
   69TMC2    C5 1053   1.833   2.405  12.143 -0.2092 -0.9025  0.2608
   69TMC2    C6 1054   1.823   2.516  12.216 -0.6085 -0.0674 -0.5014
   69TMC2     C 1055   1.658   2.164  12.362 -0.4205  0.8219 -0.4290
   69TMC2     O 1056   1.539   2.156  12.387  0.2025  0.0253  0.0196
   69TMC2     H 1057   1.617   2.410  12.459  0.1842 -1.0431  0.6667
   69TMC2    H1 1058   1.791   2.196  12.141  2.0900  1.5402 -1.1991
   69TMC2    H2 1059   1.850   2.609  12.166 -0.1517 -1.3781 -2.6908
   69TMC2    C7 1060   1.937   2.399  12.044  0.2117 -0.4352  0.4033
   69TMC2    C8 1061   1.761   2.621  12.426  0.2950  0.1427 -0.7620
   69TMC2    O1 1062   1.926   2.322  11.948 -0.3833  0.5395  0.0846
   69TMC2    O2 1063   1.692   2.630  12.528  0.5593 -0.6981  0.2778
   69TMC2    O5 1064   1.841   2.721  12.384 -0.3409  0.9275  0.2972
   69TMC2    H5 1065   1.910   2.695  12.319 -1.1464 -2.2320  0.7025
   70MPD2     C 1066   1.900   1.899  12.448 -1.0244 -0.4107  0.2190
   70MPD2    C1 1067   1.775   1.951  12.424 -0.2033  0.0970  0.5712
   70MPD2    C2 1068   1.658   1.872  12.442 -0.9548  0.3398  0.3750
   70MPD2    C3 1069   1.674   1.743  12.491 -0.7617  0.0811  1.2293
   70MPD2    C4 1070   1.800   1.703  12.529  0.2530 -0.1430  0.4319
   70MPD2    C5 1071   1.912   1.772  12.501  0.4579  1.0651  0.4683
   70MPD2     H 1072   1.560   1.910  12.414 -0.3858  2.1469  0.8941
   70MPD2    H1 1073   1.806   1.607  12.579 -0.8246 -0.6104 -0.3406
   70MPD2    H2 1074   1.990   1.949  12.414 -2.1415 -0.0263 -2.2208
   70MPD2    H3 1075   2.005   1.723  12.525 -0.9319 -1.4768  0.6557
   70MPD2     N 1076   1.562   1.657  12.510  0.0554 -0.5395 -0.1289
   70MPD2    H5 1077   1.587   1.567  12.550  0.5120 -0.0564  0.6663
   70MPD2    N1 1078   1.769   2.085  12.374  0.0318 -0.4754 -0.8557
   70MPD2    H7 1079   1.860   2.125  12.350 -0.1600 -1.8099 -3.7445
   71TMC2    C1 1080   2.564   2.130   0.750  0.1274 -0.7757  0.3078
   71TMC2    C2 1081   2.608   2.009   0.797 -0.3704 -0.9365 -0.3209
   71TMC2    C3 1082   2.522   1.909   0.773  0.3658  0.5331  0.1384
   71TMC2    C4 1083   2.447   2.152   0.686  0.3590 -0.4890  0.3468
   71TMC2    C5 1084   2.364   2.054   0.664 -1.5257  0.0406 -0.0933
   71TMC2    C6 1085   2.402   1.931   0.709 -0.4484 -0.4094 -0.1150
   71TMC2     C 1086   2.630   2.253   0.799  0.3939 -0.1432  0.6026
   71TMC2     O 1087   2.638   2.347   0.718  0.1793  0.1037  0.1870
   71TMC2     H 1088   2.700   1.995   0.853 -0.3048  1.3710  0.1234
   71TMC2    H1 1089   2.423   2.250   0.644  0.3184 -0.2147  1.0123
   71TMC2    H2 1090   2.331   1.849   0.699  0.3944 -1.2609  0.8788
   71TMC2    C7 1091   2.221   2.085   0.647  0.3895  0.0235  0.1481
   71TMC2    C8 1092   2.554   1.781   0.824  0.1659 -0.1165 -0.0381
   71TMC2    O1 1093   2.158   2.005   0.578 -0.1026  0.0997  0.3991
   71TMC2    O2 1094   2.670   1.765   0.860  0.1309 -0.6276 -0.6965
   71TMC2    O5 1095   2.440   1.759   0.903 -0.2115 -0.4507 -0.9285
   71TMC2    H5 1096   2.367   1.816   0.872 -0.6995 -0.7146 -0.2660
   72MPD2     C 1097   2.916   2.473   1.175  0.4405 -0.1838  0.6894
   72MPD2    C1 1098   2.898   2.512   1.046  0.9271 -0.1650 -0.1900
   72MPD2    C2 1099   2.809   2.432   0.968 -0.6326  0.6531  0.4065
   72MPD2    C3 1100   2.746   2.317   1.013  0.1196  0.1938  0.0543
   72MPD2    C4 1101   2.776   2.276   1.139 -0.2970 -0.4181  0.2793
   72MPD2    C5 1102   2.853   2.355   1.218 -0.0078 -0.2845 -0.2135
   72MPD2     H 1103   2.792   2.456   0.863 -4.2971  0.4843  0.9605
   72MPD2    H1 1104   2.737   2.185   1.184  0.1194  0.3134  2.1282
   72MPD2    H2 1105   2.980   2.534   1.238  0.2783  0.6716  0.0259
   72MPD2    H3 1106   2.869   2.328   1.321 -0.5032  0.5515  0.0834
   72MPD2     N 1107   2.665   2.233   0.934 -0.4734  0.9320  0.3168
   72MPD2    H5 1108   2.640   2.145   0.978 -2.1022  1.1275 -0.2124
   72MPD2    N1 1109   2.968   2.622   0.983  0.5700  0.6131  0.4457
   72MPD2    H7 1110   2.943   2.635   0.886  1.9603 -0.0987 -0.0091
   73TMC2    C1 1111   3.324   4.116  13.955  0.5446 -0.2915 -0.1383
   73TMC2    C2 1112   3.203   4.186  13.972 -0.1012 -0.2051  0.1644
   73TMC2    C3 1113   3.197   4.317  14.011  0.0995 -0.4953 -0.2553
   73TMC2    C4 1114   3.441   4.181  13.989  0.1150  0.5364 -0.5418
   73TMC2    C5 1115   3.430   4.310  14.033  0.2234  0.2625 -0.5146
   73TMC2    C6 1116   3.312   4.379  14.056  0.2632 -0.3570  0.2661
   73TMC2     C 1117   3.346   4.065  13.822  0.0525  0.0719  0.0146
   73TMC2     O 1118   3.451   4.107  13.772  0.3726  0.1914  0.0094
   73TMC2     H 1119   3.106   4.147  13.940  0.3231 -0.6548 -0.5756
   73TMC2    H1 1120   3.539   4.136  13.992 -0.9935 -2.0240 -2.2747
   73TMC2    H2 1121   3.307   4.486  14.074 -0.3385  0.3042 -3.7792
   73TMC2    C7 1122   3.539   4.398  13.994  0.3347 -0.4279 -0.2051
   73TMC2    C8 1123   3.089   4.338  14.104  0.7470  0.0218 -0.3520
   73TMC2    O1 1124   3.571   4.495  14.056  0.1220 -0.2192  0.0873
   73TMC2    O2 1125   3.011   4.245  14.120 -0.4512 -0.1554 -0.4541
   73TMC2    O5 1126   3.092   4.461  14.152 -0.6810 -0.1097 -0.5152
   73TMC2    H5 1127   3.144   4.530  14.106  0.1615  0.5052  1.3951
   74MPD2     C 1128   3.280   3.802  13.400  0.0137  0.3317 -0.0808
   74MPD2    C1 1129   3.367   3.904  13.422 -0.0848 -0.1013 -0.1425
   74MPD2    C2 1130   3.360   3.955  13.554 -0.0002  0.2798 -0.1627
   74MPD2    C3 1131   3.264   3.924  13.646 -0.2672  0.0978  0.5024
   74MPD2    C4 1132   3.165   3.836  13.604  0.2950  0.5330 -0.4739
   74MPD2    C5 1133   3.185   3.766  13.490  0.3775 -1.1644  0.1669
   74MPD2     H 1134   3.432   4.031  13.582  0.4291 -0.4908  0.8403
   74MPD2    H1 1135   3.081   3.816  13.670  1.9901 -0.4146  1.3610
   74MPD2    H2 1136   3.296   3.751  13.306 -0.7042 -1.2720  0.6727
   74MPD2    H3 1137   3.121   3.680  13.472  0.4110 -0.7033 -2.1530
   74MPD2     N 1138   3.247   3.979  13.771  0.5111 -0.0492 -0.0434
   74MPD2    H5 1139   3.172   3.948  13.832 -0.0850  2.4123  0.4576
   74MPD2    N1 1140   3.463   3.941  13.324  0.5010 -0.0531 -0.5718
   74MPD2    H7 1141   3.450   3.896  13.235  0.5003 -0.6410 -0.2698
   75TCq2    C1 1142   3.679   0.542  13.649 -0.3313  0.2361  0.1957
   75TCq2    O2 1143   3.696   0.660  13.673  0.4263  0.6544  0.1651
   75TCq2    C2 1144   3.580   0.508  13.546 -0.5543  0.0549 -0.2714
   75TCq2    C3 1145   3.567   0.382  13.508  0.9592  0.1435  0.0032
   75TCq2    C4 1146   3.474   0.355  13.412  0.2872  0.1812 -0.1933
   75TCq2    C5 1147   3.384   0.445  13.374 -0.1981 -0.0295  0.5307
   75TCq2    C6 1148   3.393   0.573  13.426 -0.6405 -0.5741  0.6385
   75TCq2    C7 1149   3.494   0.610  13.510  0.1982  0.0191  0.0302
   75TCq2    C8 1150   3.300   0.670  13.368 -0.2909 -0.6289  0.1666
   75TCq2    O4 1151   3.254   0.647  13.252 -0.6441 -0.0223  0.1403
   75TCq2    C9 1152   3.474   0.232  13.348 -0.5662  0.2431  0.4000
   75TCq2    O5 1153   3.578   0.170  13.376 -0.8283 -0.3216  0.9615
   75TCq2    O6 1154   3.374   0.195  13.283  0.2664  0.5463  0.2169
   75TCq2    H2 1155   3.629   0.297  13.535 -1.5826 -2.1484 -1.3856
   75TCq2    H3 1156   3.313   0.415  13.298 -1.2628 -0.6246  1.7596
   75TCq2    H4 1157   3.501   0.711  13.550 -0.9329 -0.2844  0.9660
   76MPD2     C 1158   3.009   2.022  11.580 -0.7703 -0.2813 -0.2259
   76MPD2    C1 1159   2.897   1.948  11.573  0.2742  0.0367 -0.1505
   76MPD2    C2 1160   2.914   1.808  11.567  0.5389 -0.4524 -1.2240
   76MPD2    C3 1161   3.038   1.746  11.592 -0.5551  0.1550  0.2827
   76MPD2    C4 1162   3.143   1.828  11.613 -0.6186 -0.1154 -0.2746
   76MPD2    C5 1163   3.127   1.967  11.597  0.0289  0.9072  0.0960
   76MPD2     H 1164   2.830   1.743  11.545  1.4064 -2.3337  1.1366
   76MPD2    H1 1165   3.243   1.790  11.628  0.1339  0.6667 -3.3856
   76MPD2    H2 1166   2.995   2.129  11.584  0.7319 -0.1191  0.6106
   76MPD2    H3 1167   3.209   2.036  11.611 -0.7809  1.8743  0.0897
   76MPD2     N 1168   3.064   1.605  11.600 -0.0663 -0.5094  0.0509
   76MPD2    H5 1169   3.156   1.575  11.630 -0.7554 -1.9339  0.7708
   76MPD2    N1 1170   2.765   1.991  11.557  0.5619 -0.6563  0.3094
   76MPD2    H7 1171   2.690   1.922  11.553  0.9161 -1.1124  1.3329
   77TCq2    C1 1172   2.967   1.514  11.552 -0.5858 -0.2710  0.1805
   77TCq2    O2 1173   2.872   1.528  11.473 -0.0120 -0.0562  0.7344
   77TCq2    C2 1174   3.010   1.376  11.586  0.1312 -0.2901  0.6029
   77TCq2    C3 1175   2.922   1.278  11.537 -0.0021  0.8238 -0.0319
   77TCq2    C4 1176   2.935   1.146  11.573  0.7049 -0.2784  0.4939
   77TCq2    C5 1177   3.032   1.113  11.669  0.1630  0.0663 -0.1644
   77TCq2    C6 1178   3.103   1.212  11.726 -0.4901 -0.7842 -0.5556
   77TCq2    C7 1179   3.093   1.344  11.688 -0.3662 -0.0453 -0.6653
   77TCq2    C8 1180   3.195   1.175  11.835  0.4309  0.4033  0.0512
   77TCq2    O4 1181   3.247   1.062  11.849  0.0629  0.3577 -0.4244
   77TCq2    C9 1182   2.848   1.036  11.528 -0.3005  0.4052 -0.0738
   77TCq2    O5 1183   2.753   1.064  11.450 -0.0471 -0.0042  0.1323
   77TCq2    O6 1184   2.857   0.925  11.586  0.2175  0.1884  0.1952
   77TCq2    H2 1185   2.842   1.301  11.468  1.0459  1.8108 -0.9234
   77TCq2    H3 1186   3.025   1.010  11.703 -0.6001  0.7761  1.7987
   77TCq2    H4 1187   3.137   1.429  11.740 -0.3335 -1.1347  1.0987
   78MPD1     C 1188   1.046   2.150   1.836 -0.0853 -0.2530 -0.6330
   78MPD1    C1 1189   1.097   2.021   1.827 -0.1634  0.0280  0.2142
   78MPD1    C2 1190   1.018   1.920   1.884 -0.6055 -0.4353 -0.1243
   78MPD1    C3 1191   0.892   1.948   1.942  0.5467  0.8661 -0.5464
   78MPD1    C4 1192   0.852   2.080   1.950 -0.7144  0.4935  0.0570
   78MPD1    C5 1193   0.932   2.186   1.904 -0.2176  0.0162  0.1624
   78MPD1     H 1194   1.034   1.819   1.847  1.0535 -0.5636  0.9504
   78MPD1    H1 1195   0.758   2.099   2.001 -2.5271 -2.0766 -2.2730
   78MPD1    H2 1196   1.107   2.225   1.787 -0.5856  2.3563  2.7210
   78MPD1    H3 1197   0.889   2.285   1.912  2.1914  0.9622  1.3212
   78MPD1     N 1198   0.802   1.846   1.979 -0.0103  0.1492  0.5951
   78MPD1    H5 1199   0.709   1.878   2.004 -0.5897 -1.4059  0.4661
   78MPD1    N1 1200   1.202   1.988   1.746  0.0562  0.1177  0.4810
   78MPD1    H6 1201   1.278   2.055   1.737  0.0393 -0.1837 -1.9284
   78MPD1    H7 1202   1.244   1.912   1.799 -0.3336 -2.0926 -2.3126
   79TCq2    C1 1203   0.841   1.721   2.007  1.3964 -0.2664  0.0462
   79TCq2    O2 1204   0.955   1.687   2.034  0.6954 -0.2840 -0.2901
   79TCq2    C2 1205   0.737   1.626   2.023 -0.0407 -0.5304  0.6281
   79TCq2    C3 1206   0.772   1.513   2.093  0.5017 -0.2213  0.5874
   79TCq2    C4 1207   0.675   1.439   2.142 -0.3253 -0.1661 -0.3656
   79TCq2    C5 1208   0.547   1.483   2.156  0.1657  0.2529 -0.1309
   79TCq2    C6 1209   0.518   1.601   2.099 -0.0305 -0.3688  0.1619
   79TCq2    C7 1210   0.608   1.672   2.030 -0.1305  0.2514 -0.4633
   79TCq2    C8 1211   0.373   1.644   2.075 -0.4881  0.6127 -0.2910
   79TCq2    O4 1212   0.356   1.760   2.045 -0.2053  0.3425 -0.2027
   79TCq2    C9 1213   0.712   1.313   2.196  0.3722 -0.4069  0.0714
   79TCq2    O5 1214   0.626   1.231   2.230  0.0978 -0.5606  0.1436
   79TCq2    O6 1215   0.832   1.294   2.207  0.0332 -0.1518 -0.2571
   79TCq2    H2 1216   0.870   1.475   2.069  0.5321  0.5294 -0.5077
   79TCq2    H3 1217   0.472   1.431   2.214  0.1698 -0.5581 -0.8513
   79TCq2    H4 1218   0.570   1.763   1.986  1.5425  2.3592  2.5103
   80MPD2     C 1219   1.918   1.473  11.881 -0.5793 -0.6005  0.5866
   80MPD2    C1 1220   1.811   1.398  11.825  0.2905  0.2852 -0.9556
   80MPD2    C2 1221   1.688   1.451  11.847 -0.1363  0.4022 -0.7668
   80MPD2    C3 1222   1.665   1.555  11.935 -0.9762  0.1789  0.1618
   80MPD2    C4 1223   1.777   1.620  11.984 -0.0013  0.2097 -0.2429
   80MPD2    C5 1224   1.898   1.588  11.950  0.2543  0.9840  0.6519
   80MPD2     H 1225   1.597   1.411  11.804 -0.0192 -1.3167  0.5680
   80MPD2    H1 1226   1.759   1.706  12.048  0.7293  2.6750 -3.3354
   80MPD2    H2 1227   2.018   1.431  11.878 -0.3540 -0.1599  2.0503
   80MPD2    H3 1228   1.978   1.640  12.000 -0.0444 -1.0700  3.2787
   80MPD2     N 1229   1.527   1.590  11.980  0.3588 -0.3065 -0.1746
   80MPD2    H5 1230   1.517   1.665  12.047 -1.6788  1.1566 -2.0913
   80MPD2    N1 1231   1.813   1.289  11.734 -0.2156  0.1555  0.6692
   80MPD2    H7 1232   1.724   1.254  11.702  0.9098 -0.6775 -1.5406
   81TCq2    C1 1233   1.929   1.236  11.682 -0.3089 -0.3230  0.2739
   81TCq2    O2 1234   2.045   1.283  11.688 -0.3091  0.0788 -0.1891
   81TCq2    C2 1235   1.905   1.111  11.612 -0.8506  0.5916  0.4131
   81TCq2    C3 1236   2.013   1.052  11.549  0.5154  0.1201  0.5577
   81TCq2    C4 1237   1.984   0.941  11.461  0.1117 -0.1142  0.1772
   81TCq2    C5 1238   1.858   0.890  11.446 -0.2714 -0.1326 -0.3453
   81TCq2    C6 1239   1.764   0.942  11.527 -0.8950 -0.3421 -0.6815
   81TCq2    C7 1240   1.781   1.050  11.611 -0.0527  0.1081 -0.0926
   81TCq2    C8 1241   1.630   0.879  11.516  0.0084  0.1278 -0.3990
   81TCq2    O4 1242   1.606   0.807  11.423  0.1791 -0.1536  0.0692
   81TCq2    C9 1243   2.104   0.895  11.399  0.2608  0.1426  0.0149
   81TCq2    O5 1244   2.207   0.964  11.404  0.4635 -0.5483  0.7234
   81TCq2    O6 1245   2.095   0.785  11.343 -0.2113  0.2307  0.4411
   81TCq2    H2 1246   2.115   1.084  11.567  1.3579 -1.4410 -1.4523
   81TCq2    H3 1247   1.844   0.806  11.379  0.5059 -1.2451  0.8906
   81TCq2    H4 1248   1.691   1.091  11.655 -1.0411 -0.2070 -1.8503
   82MPD2     C 1249   4.217   0.899  11.260  0.4185  0.5265 -0.1500
   82MPD2    C1 1250   4.283   0.824  11.162 -0.3607  0.4065  0.5015
   82MPD2    C2 1251   4.375   0.731  11.195  0.0700  0.2616 -0.0638
   82MPD2    C3 1252   4.409   0.705  11.328 -0.3162  0.4107 -0.1342
   82MPD2    C4 1253   4.347   0.777  11.426 -0.3136  0.1128 -0.4003
   82MPD2    C5 1254   4.254   0.870  11.394  0.2750 -0.7772  0.1604
   82MPD2     H 1255   4.433   0.683  11.117 -2.2037 -0.5851 -1.2517
   82MPD2    H1 1256   4.373   0.766  11.531 -0.0952 -2.9369 -0.7598
   82MPD2    H2 1257   4.146   0.977  11.234  0.4025  0.4321 -0.3908
   82MPD2    H3 1258   4.209   0.932  11.471 -0.7605 -1.8385  0.4034
   82MPD2     N 1259   4.513   0.610  11.350  0.3529 -0.4642 -0.4570
   82MPD2    H5 1260   4.542   0.560  11.267  2.6058  0.6897 -0.3487
   82MPD2    N1 1261   4.234   0.851  11.029 -0.2234 -0.2179  0.3083
   82MPD2    H7 1262   4.158   0.918  11.023 -0.8378 -1.3214 -4.0384
   83TCq2    C1 1263   4.576   0.589  11.467  0.6464  1.0677 -0.2388
   83TCq2    O2 1264   4.547   0.616  11.580 -0.2044 -0.2274 -0.8075
   83TCq2    C2 1265   4.679   0.485  11.452 -0.2603  1.0820 -0.9703
   83TCq2    C3 1266   0.048   0.494  11.355  0.0796  0.4872 -0.4148
   83TCq2    C4 1267   0.136   0.385  11.347 -0.0548 -0.2237 -0.2797
   83TCq2    C5 1268   0.127   0.276  11.422  0.4381  0.3897  0.3572
   83TCq2    C6 1269   0.032   0.268  11.519  0.2747 -0.0658  0.7221
   83TCq2    C7 1270   4.667   0.369  11.528 -0.2049 -1.1649 -0.1445
   83TCq2    C8 1271   4.705   0.140  11.558  0.8216 -0.4237  1.2167
   83TCq2    O4 1272   4.643   0.131  11.663  0.3106 -0.4189 -0.8162
   83TCq2    C9 1273   0.249   0.400  11.266  0.2245 -0.1614  0.4429
   83TCq2    O5 1274   0.252   0.497  11.185 -0.3983 -0.0864  0.1509
   83TCq2    O6 1275   0.349   0.357  11.337  0.2342  0.3359 -0.4698
   83TCq2    H2 1276   0.061   0.582  11.293 -0.4661  0.6532 -0.3003
   83TCq2    H3 1277   0.193   0.191  11.407 -1.2608 -0.5157 -2.1208
   83TCq2    H4 1278   4.600   0.364  11.613  0.2562  1.8548  0.4225
   84TCq2    C1 1279   0.748   3.822  10.792 -0.6191 -0.4040 -0.0539
   84TCq2    O2 1280   0.639   3.869  10.755  0.0669  0.4625 -0.6286
   84TCq2    C2 1281   0.814   3.918  10.876  0.1806  0.2521  0.7361
   84TCq2    C3 1282   0.950   3.924  10.870  0.4702  0.4140  0.2598
   84TCq2    C4 1283   1.014   4.021  10.939 -0.0691 -0.5691 -0.0911
   84TCq2    C5 1284   0.942   4.107  11.019 -0.6481 -0.5522  0.3344
   84TCq2    C6 1285   0.805   4.101  11.020 -0.3784 -0.2312 -0.0144
   84TCq2    C7 1286   0.735   4.005  10.953 -0.4109  0.0654  0.8007
   84TCq2    C8 1287   0.728   4.184  11.106 -0.0525  0.3965  0.3054
   84TCq2    O4 1288   0.762   4.299  11.133  0.6025  0.2753 -0.1278
   84TCq2    C9 1289   1.156   4.023  10.932  0.0497  0.0003 -0.3763
   84TCq2    O5 1290   1.207   3.930  10.867  0.3588  0.1718  0.2118
   84TCq2    O6 1291   1.227   4.100  11.002 -0.2460  0.3296 -0.1486
   84TCq2    H2 1292   1.005   3.854  10.808  0.3185  0.1071  0.4674
   84TCq2    H3 1293   1.002   4.174  11.081  1.1228 -1.3171 -0.5527
   84TCq2    H4 1294   0.626   4.006  10.953 -0.4140 -0.1118 -1.0343
   85MPD2     C 1295   1.538   2.393  16.438  0.7966  0.0237 -0.5248
   85MPD2    C1 1296   1.491   2.395  16.307  0.1563  0.4743 -0.4505
   85MPD2    C2 1297   1.531   2.491  16.221  0.2544  0.0839  0.0296
   85MPD2    C3 1298   1.621   2.581  16.263  0.7408 -0.5993  0.5307
   85MPD2    C4 1299   1.690   2.564  16.385 -0.1805  0.2675  0.1219
   85MPD2    C5 1300   1.649   2.471  16.472 -0.2804 -0.3803  0.1906
   85MPD2     H 1301   1.487   2.505  16.123 -2.9514  1.2988  1.6378
   85MPD2    H1 1302   1.767   2.639  16.400 -0.1984  0.1878  0.6145
   85MPD2    H2 1303   1.495   2.332  16.517 -0.6149  1.0496 -0.5096
   85MPD2    H3 1304   1.687   2.477  16.573  1.6162 -0.2031 -0.5390
   85MPD2     N 1305   1.644   2.702  16.184 -0.1853 -0.2314  0.3628
   85MPD2    H5 1306   1.612   2.695  16.088  1.2824 -2.0097  0.0183
   85MPD2    N1 1307   1.388   2.308  16.267 -0.2835  0.1877  0.2072
   85MPD2    H7 1308   1.330   2.338  16.189 -1.9587 -2.8974  0.2898
   86TCq2    C1 1309   1.679   2.823  16.234  0.5545  0.8768 -0.1573
   86TCq2    O2 1310   1.686   2.861  16.352  0.8130 -0.5099 -0.0714
   86TCq2    C2 1311   1.694   2.927  16.130  0.5452 -0.3673  0.3636
   86TCq2    C3 1312   1.653   3.050  16.164 -0.6552  0.3210 -0.1749
   86TCq2    C4 1313   1.694   3.158  16.087  0.7914 -0.7892 -0.4673
   86TCq2    C5 1314   1.776   3.138  15.977  0.5438 -0.1997  0.5421
   86TCq2    C6 1315   1.821   3.015  15.953 -0.2631  0.4539  0.0238
   86TCq2    C7 1316   1.791   2.910  16.037  0.4682  0.8202 -0.3000
   86TCq2    C8 1317   1.900   2.977  15.834  0.9866 -0.6800  0.5350
   86TCq2    O4 1318   1.971   2.879  15.838  0.2675 -0.5187  0.5139
   86TCq2    C9 1319   1.634   3.290  16.097  0.1301 -0.2028 -0.4588
   86TCq2    O5 1320   1.695   3.386  16.052 -0.3115  0.4896 -0.4054
   86TCq2    O6 1321   1.512   3.291  16.134  0.1028  0.4876  0.1699
   86TCq2    H2 1322   1.581   3.075  16.241 -2.4060  0.5365 -1.8676
   86TCq2    H3 1323   1.807   3.224  15.918  0.8288 -0.4171  0.3765
   86TCq2    H4 1324   1.834   2.812  16.019 -0.2466  0.1340  1.6765
   87MPD2     C 1325   3.790   1.598   1.175 -0.6333 -0.0596 -0.1897
   87MPD2    C1 1326   3.669   1.543   1.147  0.2918 -1.2230  0.4214
   87MPD2    C2 1327   3.560   1.640   1.139 -0.1842 -0.4943  0.4909
   87MPD2    C3 1328   3.576   1.773   1.152  0.0543 -0.1761  0.9340
   87MPD2    C4 1329   3.702   1.818   1.158  0.0951 -0.0046  0.0288
   87MPD2    C5 1330   3.809   1.735   1.178  0.0639  0.5121  0.4622
   87MPD2     H 1331   3.458   1.607   1.123  0.7339 -1.7015 -2.7527
   87MPD2    H1 1332   3.721   1.924   1.150  2.6537 -0.5531 -1.2451
   87MPD2    H2 1333   3.872   1.531   1.198 -1.7916 -0.4675  2.6521
   87MPD2    H3 1334   3.904   1.779   1.204  0.4533  0.7726 -1.3858
   87MPD2     N 1335   3.472   1.867   1.137 -0.1280 -0.0133 -0.0996
   87MPD2    H5 1336   3.492   1.964   1.157 -0.5236  0.2152 -0.8062
   87MPD2    N1 1337   3.648   1.399   1.114 -0.0826  0.0352 -0.8274
   87MPD2    H7 1338   3.735   1.348   1.101 -0.4935 -0.2573 -2.4531
   88TCq2    C1 1339   3.530   1.338   1.092 -0.6929  0.5777  0.0556
   88TCq2    O2 1340   3.416   1.388   1.093 -0.0726  0.8407  0.0747
   88TCq2    C2 1341   3.534   1.193   1.056 -0.4189 -0.9901 -0.8309
   88TCq2    C3 1342   3.419   1.131   1.009  0.9698 -0.2826  0.7887
   88TCq2    C4 1343   3.416   0.997   0.976  0.4356  0.3940  0.0815
   88TCq2    C5 1344   3.543   0.937   0.972 -0.9999 -0.9730 -0.4581
   88TCq2    C6 1345   3.656   0.994   1.012 -0.4714  0.8043  1.0536
   88TCq2    C7 1346   3.649   1.125   1.052 -0.1740  0.5832 -1.1442
   88TCq2    C8 1347   3.783   0.936   0.962 -0.6746  0.4406 -0.6026
   88TCq2    O4 1348   3.771   0.841   0.885  0.2289  0.1561 -0.0109
   88TCq2    C9 1349   3.299   0.937   0.914  0.4220 -0.0973 -0.7579
   88TCq2    O5 1350   3.313   0.814   0.877 -1.1059  0.4533 -0.1746
   88TCq2    O6 1351   3.187   1.000   0.911 -0.0672 -0.0988 -0.9817
   88TCq2    H2 1352   3.327   1.186   0.993  1.6839  1.1087  1.5238
   88TCq2    H3 1353   3.540   0.836   0.933  0.0052 -1.4273  0.6180
   88TCq2    H4 1354   3.741   1.178   1.073 -0.1328  0.4363 -0.9560
   89MPD2     C 1355   4.316   3.596   1.751 -0.2929  0.0012 -0.1042
   89MPD2    C1 1356   4.291   3.729   1.767  0.7683 -0.4059  0.5337
   89MPD2    C2 1357   4.393   3.819   1.742 -0.4260 -0.4085  0.0258
   89MPD2    C3 1358   4.517   3.785   1.700 -0.6708 -1.0861  0.0728
   89MPD2    C4 1359   4.547   3.650   1.696 -0.3339  0.2848 -0.3808
   89MPD2    C5 1360   4.450   3.556   1.710  0.0051 -0.5204  0.5141
   89MPD2     H 1361   4.372   3.925   1.746  2.0774  0.0520  1.2473
   89MPD2    H1 1362   4.641   3.611   1.656  0.6081  1.6840  0.4551
   89MPD2    H2 1363   4.237   3.524   1.770 -1.0666  0.9570  0.2678
   89MPD2    H3 1364   4.469   3.453   1.682 -1.7300 -1.1915  1.7920
   89MPD2     N 1365   4.601   3.890   1.659 -0.8105  0.0767 -0.1167
   89MPD2    H5 1366   4.573   3.986   1.677 -1.4778 -0.0050 -0.7379
   89MPD2    N1 1367   4.162   3.786   1.786  0.5120  0.5155  0.0616
   89MPD2    H7 1368   4.160   3.887   1.787 -2.1968  0.4768 -0.1941
   90TCq2    C1 1369   4.711   3.872   1.581  0.4635  1.0782  1.0559
   90TCq2    O2 1370   0.033   3.767   1.535  0.0082  0.8304  0.1316
   90TCq2    C2 1371   0.042   4.004   1.551 -0.5605 -0.1936  0.7509
   90TCq2    C3 1372   0.061   4.084   1.658 -0.4545 -0.4057  0.1909
   90TCq2    C4 1373   0.080   4.219   1.620 -0.2678 -0.6409 -0.0787
   90TCq2    C5 1374   0.080   4.267   1.494 -0.4409 -0.2034 -0.3752
   90TCq2    C6 1375   0.068   4.171   1.392  0.7684 -0.0362  0.2838
   90TCq2    C7 1376   0.056   4.037   1.424 -0.5830  0.5254  0.3307
   90TCq2    C8 1377   0.033   4.212   1.252  0.3786 -0.6367  0.2275
   90TCq2    O4 1378   4.691   4.132   1.194  0.0316 -0.1629 -0.1736
   90TCq2    C9 1379   0.069   4.313   1.732  0.3443  0.6820 -0.1179
   90TCq2    O5 1380   0.100   4.432   1.711  0.0032  0.3000  0.3280
   90TCq2    O6 1381   0.044   4.269   1.851  0.1235  0.0807 -0.5199
   90TCq2    H2 1382   0.066   4.052   1.761  0.6114  0.4140  0.3981
   90TCq2    H3 1383   0.083   4.373   1.470  0.8082  0.6053  3.2919
   90TCq2    H4 1384   0.031   3.959   1.354 -0.6416  0.6933  0.1624
   91TMC2    C1 1385   1.182   3.273  16.328 -0.0927  0.5087 -1.2363
   91TMC2    C2 1386   1.233   3.233  16.206  0.0509 -0.1680  0.2757
   91TMC2    C3 1387   1.166   3.272  16.096  0.6622 -0.6663 -0.6401
   91TMC2    C4 1388   1.064   3.346  16.343  0.3794  0.7951 -0.4477
   91TMC2    C5 1389   0.992   3.361  16.227 -0.0832  0.3127 -0.6428
   91TMC2    C6 1390   1.039   3.325  16.102 -0.1343 -0.3592  0.4618
   91TMC2     C 1391   1.278   3.289  16.440  0.1329 -0.1019  0.3746
   91TMC2     O 1392   1.229   3.283  16.551 -0.6611 -0.4604  0.4820
   91TMC2     H 1393   1.325   3.176  16.198  0.1953 -0.0938  1.4140
   91TMC2    H1 1394   1.034   3.397  16.434 -1.6046 -1.8423  0.3518
   91TMC2    H2 1395   0.987   3.366  16.017  0.7627 -0.4537 -0.1319
   91TMC2    C7 1396   0.861   3.412  16.235 -0.0330 -0.4730  0.4222
   91TMC2    C8 1397   1.196   3.203  15.963 -0.2388  0.4345  0.2620
   91TMC2    O1 1398   0.830   3.457  16.347 -0.3308 -0.3992 -0.2068
   91TMC2    O2 1399   1.132   3.238  15.867  0.1917  0.0743 -0.6275
   91TMC2    O5 1400   1.335   3.205  15.960  0.8786 -0.3291  0.1029
   91TMC2    H5 1401   1.389   3.224  16.039  1.4050  0.0161 -0.3397
   92MPD2     C 1402   1.505   3.367  16.617 -0.2810  0.0020 -0.1046
   92MPD2    C1 1403   1.503   3.371  16.481  0.5719  0.2745 -0.0747
   92MPD2    C2 1404   1.605   3.431  16.418 -0.9614  0.0352  0.2614
   92MPD2    C3 1405   1.714   3.485  16.486  0.0938  0.0195  0.0783
   92MPD2    C4 1406   1.719   3.470  16.621 -0.3778  0.1853  0.1368
   92MPD2    C5 1407   1.614   3.419  16.693 -0.0536  0.8870  0.3096
   92MPD2     H 1408   1.589   3.443  16.312 -2.2384  0.4862  0.5055
   92MPD2    H1 1409   1.799   3.516  16.679 -0.0357 -1.3560  0.8923
   92MPD2    H2 1410   1.422   3.325  16.673 -1.2266  0.6110 -1.0595
   92MPD2    H3 1411   1.617   3.397  16.799  2.5442  3.6646  0.7919
   92MPD2     N 1412   1.809   3.558  16.408  0.4018 -0.0190  0.3231
   92MPD2    H5 1413   1.794   3.557  16.308  0.7720 -3.5367  0.3072
   92MPD2    N1 1414   1.403   3.327  16.397 -0.2067  0.7546  0.4864
   92MPD2    H7 1415   1.421   3.345  16.299 -1.8699  0.7479  0.1855
   93MPD2     C 1416   2.843   3.137  13.636  0.1352 -0.6190 -0.3453
   93MPD2    C1 1417   2.825   3.271  13.666 -0.5243  0.0294 -0.0360
   93MPD2    C2 1418   2.702   3.328  13.646  0.4978 -0.8895 -0.3957
   93MPD2    C3 1419   2.592   3.253  13.617 -0.5008 -0.6712  0.1358
   93MPD2    C4 1420   2.610   3.123  13.584 -0.2335  0.5284 -0.8675
   93MPD2    C5 1421   2.733   3.067  13.599  0.2575  0.1045 -0.1640
   93MPD2     H 1422   2.686   3.432  13.672  0.7327 -0.7873 -0.6719
   93MPD2    H1 1423   2.522   3.065  13.555 -1.3357  0.7026  2.0964
   93MPD2    H2 1424   2.936   3.083  13.644  0.0504 -0.4607  1.7398
   93MPD2    H3 1425   2.755   2.964  13.573  3.7982  0.9736 -0.5555
   93MPD2     N 1426   2.466   3.315  13.605  0.0544  0.0140 -0.6453
   93MPD2    H5 1427   2.411   3.259  13.542  0.4777 -1.0337 -0.0826
   93MPD2    N1 1428   2.932   3.350  13.707 -0.1985  0.4126  0.2569
   93MPD2    H7 1429   2.920   3.450  13.703 -2.5795  0.0644 -1.2844
   94TCq2    C1 1430   3.067   3.330  13.705 -0.3643 -0.0731  0.1912
   94TCq2    O2 1431   3.127   3.235  13.659 -0.1026 -0.0765  0.2206
   94TCq2    C2 1432   3.131   3.445  13.774 -0.9596  0.4133 -0.2247
   94TCq2    C3 1433   3.053   3.538  13.844  0.2056 -0.5082  0.0174
   94TCq2    C4 1434   3.112   3.654  13.891 -1.3317  1.1256  0.6668
   94TCq2    C5 1435   3.243   3.679  13.871 -0.2551  0.2760 -0.3265
   94TCq2    C6 1436   3.315   3.582  13.808 -0.3831  0.2471  0.3031
   94TCq2    C7 1437   3.262   3.468  13.758  0.1896  0.0409  0.3182
   94TCq2    C8 1438   3.451   3.615  13.780 -0.0271 -0.5325  0.5381
   94TCq2    O4 1439   3.506   3.670  13.877 -0.6066 -0.1142  0.2897
   94TCq2    C9 1440   3.029   3.747  13.960 -0.1318 -0.0040  0.0519
   94TCq2    O5 1441   3.076   3.866  13.966  0.1294 -0.8180  0.0816
   94TCq2    O6 1442   2.922   3.702  14.011 -0.1234  0.6387 -0.0181
   94TCq2    H2 1443   2.945   3.535  13.853  0.2671 -0.8235  0.6555
   94TCq2    H3 1444   3.282   3.773  13.908 -1.7375  0.2327  1.3573
   94TCq2    H4 1445   3.327   3.395  13.711 -2.1682 -1.6460 -0.2805
   95TMC2    C1 1446   2.708   0.703  15.536  0.4478  0.9043  0.1963
   95TMC2    C2 1447   2.609   0.752  15.611  0.3625 -0.1609  0.5160
   95TMC2    C3 1448   2.524   0.665  15.671  0.2582  0.3100  0.4226
   95TMC2    C4 1449   2.729   0.564  15.528  0.1624 -0.1920 -0.0006
   95TMC2    C5 1450   2.631   0.480  15.571 -0.3604  0.5827  0.0992
   95TMC2    C6 1451   2.528   0.526  15.650 -0.2697  0.8879  1.1144
   95TMC2     C 1452   2.818   0.782  15.485  0.2085 -0.0389  0.2518
   95TMC2     O 1453   2.909   0.719  15.436  0.1417 -0.6092  0.4640
   95TMC2     H 1454   2.597   0.856  15.639  2.5741 -0.3028  1.9473
   95TMC2    H1 1455   2.820   0.525  15.485  0.4492  0.2826  0.1752
   95TMC2    H2 1456   2.450   0.457  15.682  1.2764 -0.8158  1.2433
   95TMC2    C7 1457   2.645   0.335  15.558 -0.3118 -0.2955  0.1811
   95TMC2    C8 1458   2.394   0.714  15.688  0.1158 -0.6421  0.1343
   95TMC2    O1 1459   2.585   0.265  15.642  0.7447  0.4093 -0.1350
   95TMC2    O2 1460   2.305   0.644  15.741  0.2094 -0.0470 -0.3590
   95TMC2    O5 1461   2.371   0.789  15.576  0.4951  0.1600 -0.1455
   95TMC2    H5 1462   2.448   0.835  15.536  0.2104  0.3529 -0.4772
   96MPD2     C 1463   3.139   1.189  15.512 -0.4977 -1.0942  0.2416
   96MPD2    C1 1464   3.153   1.062  15.455  0.3534  0.5381  0.5246
   96MPD2    C2 1465   3.045   0.975  15.451  0.4533 -0.5116 -0.3327
   96MPD2    C3 1466   2.924   1.004  15.506  0.1569 -0.1213  0.8468
   96MPD2    C4 1467   2.908   1.137  15.565  0.3715 -0.6889  0.6792
   96MPD2    C5 1468   3.015   1.228  15.553  0.0476 -0.1364 -0.1686
   96MPD2     H 1469   3.060   0.879  15.403  1.3585  0.1376 -1.3532
   96MPD2    H1 1470   2.813   1.165  15.608 -0.1664 -0.4458 -0.6706
   96MPD2    H2 1471   3.211   1.270  15.516 -1.3757 -0.2610 -0.6870
   96MPD2    H3 1472   3.007   1.326  15.600  1.2431 -0.6497  1.1331
   96MPD2     N 1473   2.813   0.911  15.519 -0.0444  0.0366  0.1770
   96MPD2    H5 1474   2.733   0.948  15.569 -0.5549 -1.0628  0.1849
   96MPD2    N1 1475   3.284   1.030  15.399  0.3545 -0.2043 -0.4603
   96MPD2    H7 1476   3.356   1.089  15.439  0.0273 -0.4707  0.5197
   97MPD2     C 1477   0.555   2.310   1.293  0.4654 -0.1369  0.1855
   97MPD2    C1 1478   0.487   2.423   1.248  0.2640 -0.2170 -0.0411
   97MPD2    C2 1479   0.507   2.462   1.119  0.2980 -0.0791 -0.3891
   97MPD2    C3 1480   0.592   2.399   1.030 -0.1922 -0.1292  0.2115
   97MPD2    C4 1481   0.669   2.295   1.084  0.5941 -0.1776  0.3790
   97MPD2    C5 1482   0.655   2.259   1.214  0.0578 -0.3254 -0.9076
   97MPD2     H 1483   0.445   2.541   1.079 -0.2380 -0.6192 -0.6431
   97MPD2    H1 1484   0.746   2.241   1.032 -0.5712 -1.7764  0.3206
   97MPD2    H2 1485   0.536   2.272   1.393 -2.0057  1.3996  0.3003
   97MPD2    H3 1486   0.721   2.183   1.254 -1.0673 -0.8251 -0.0135
   97MPD2     N 1487   0.609   2.436   0.897 -0.3366 -0.1086 -1.5044
   97MPD2    H5 1488   0.674   2.378   0.845 -0.6580 -1.0929 -0.8092
   97MPD2    N1 1489   0.395   2.481   1.337 -0.4355 -0.2279  0.3177
   97MPD2    H7 1490   0.374   2.427   1.420  0.4200 -0.9999  0.0327
   98TCq2    C1 1491   0.572   2.554   0.835  0.1243  0.2825 -0.0427
   98TCq2    O2 1492   0.521   2.653   0.888 -0.0883 -0.3617 -0.1818
   98TCq2    C2 1493   0.624   2.562   0.701 -0.6550 -0.0128 -0.2290
   98TCq2    C3 1494   0.691   2.452   0.646 -0.1205 -1.0125  0.2064
   98TCq2    C4 1495   0.763   2.481   0.530  0.1759 -0.2671 -0.5645
   98TCq2    C5 1496   0.764   2.607   0.474  0.6625 -0.9184  0.5178
   98TCq2    C6 1497   0.703   2.712   0.538 -0.3389  0.2480  0.1504
   98TCq2    C7 1498   0.631   2.691   0.649 -0.3744  0.4365 -0.1360
   98TCq2    C8 1499   0.747   2.852   0.510  0.1525 -0.1535 -0.8726
   98TCq2    O4 1500   0.836   2.874   0.432  0.1825  0.6208 -0.1936
   98TCq2    C9 1501   0.819   2.367   0.459  0.2736 -0.3879  0.4590
   98TCq2    O5 1502   0.846   2.381   0.336 -0.2267 -0.4097  0.1253
   98TCq2    O6 1503   0.870   2.272   0.525 -0.4177 -0.4924 -0.3566
   98TCq2    H2 1504   0.694   2.351   0.686 -1.6981 -0.8757  0.6831
   98TCq2    H3 1505   0.830   2.622   0.389  1.8752 -0.7137  1.4953
   98TCq2    H4 1506   0.593   2.773   0.709 -0.9643 -0.7554  1.1141
   99MPD2     C 1507   4.240   0.300   1.484  0.2282 -0.1619 -0.5009
   99MPD2    C1 1508   4.157   0.383   1.410 -0.3740  0.3345  0.6533
   99MPD2    C2 1509   4.107   0.332   1.296  0.9396 -0.0669  0.4382
   99MPD2    C3 1510   4.154   0.211   1.236 -0.5923 -0.2298 -0.5029
   99MPD2    C4 1511   4.246   0.135   1.309  1.0311  0.3228 -0.3450
   99MPD2    C5 1512   4.291   0.176   1.436 -0.3876 -0.8048  0.1046
   99MPD2     H 1513   4.052   0.395   1.226 -3.1752 -3.2195  0.8394
   99MPD2    H1 1514   4.266   0.032   1.279  0.6329  0.2592 -0.3935
   99MPD2    H2 1515   4.273   0.326   1.583 -1.0781 -0.5817  0.0380
   99MPD2    H3 1516   4.367   0.127   1.494  0.8026  0.7388 -0.1605
   99MPD2     N 1517   4.113   0.181   1.099  0.4927  0.2433 -0.3102
   99MPD2    H5 1518   4.038   0.238   1.062  0.4415  0.6086  0.3613
   99MPD2    N1 1519   4.117   0.503   1.471  0.1072 -0.1335 -0.1239
   99MPD2    H7 1520   4.039   0.549   1.425 -0.4616 -0.0333  0.9329
  100TCq2    C1 1521   4.188   0.566   1.570 -0.4654 -0.0057 -0.0459
  100TCq2    O2 1522   4.303   0.557   1.604 -0.0862  0.0553 -0.2581
  100TCq2    C2 1523   4.123   0.678   1.632  0.2945  0.1544  0.4334
  100TCq2    C3 1524   4.201   0.781   1.670  0.0699  0.5808  0.8445
  100TCq2    C4 1525   4.147   0.889   1.732 -0.6415 -0.0194 -0.2714
  100TCq2    C5 1526   4.010   0.906   1.751 -0.8172  0.0583  0.1485
  100TCq2    C6 1527   3.936   0.803   1.688  0.5775 -0.7245  0.2905
  100TCq2    C7 1528   3.986   0.690   1.627 -0.6868  0.4052  1.0899
  100TCq2    C8 1529   3.786   0.815   1.696  0.5111 -0.2197 -0.5926
  100TCq2    O4 1530   3.753   0.891   1.784  0.3314  0.2011  0.7078
  100TCq2    C9 1531   4.237   0.997   1.774 -0.3449 -0.2076 -0.8338
  100TCq2    O5 1532   4.188   1.090   1.840 -0.3560 -0.5356 -0.8161
  100TCq2    O6 1533   4.363   0.977   1.763 -0.5311 -0.2255 -0.2703
  100TCq2    H2 1534   4.307   0.767   1.655 -0.2042  0.6681 -1.2417
  100TCq2    H3 1535   3.966   0.990   1.802 -1.9978  0.7356 -2.0183
  100TCq2    H4 1536   3.920   0.611   1.593  1.0390  0.3716 -2.2513
  101MPD2     C 1537   4.412   1.775  12.851  0.3398 -0.5622  0.3802
  101MPD2    C1 1538   4.522   1.701  12.814 -0.4248 -0.0349  0.0158
  101MPD2    C2 1539   4.563   1.600  12.901 -0.8265 -0.7501  0.0949
  101MPD2    C3 1540   4.495   1.574  13.013  0.3696 -0.3276 -0.2439
  101MPD2    C4 1541   4.384   1.650  13.048 -0.9778  0.6035  0.7721
  101MPD2    C5 1542   4.341   1.753  12.965 -0.2086  0.0149 -0.4887
  101MPD2     H 1543   4.650   1.539  12.877 -1.2031 -1.6116  0.8785
  101MPD2    H1 1544   4.321   1.612  13.128 -1.8786  0.2981 -0.0883
  101MPD2    H2 1545   4.392   1.861  12.788  0.7457 -1.4931 -1.0203
  101MPD2    H3 1546   4.247   1.802  12.986 -0.1644  0.0052 -0.2597
  101MPD2     N 1547   4.537   1.470  13.099 -0.4225 -0.5156 -0.5303
  101MPD2    H5 1548   4.582   1.392  13.053 -1.7519 -0.7886 -1.3728
  101MPD2    N1 1549   4.590   1.739  12.700  0.0594  0.7810 -0.2963
  101MPD2    H7 1550   4.552   1.817  12.648  0.3255  0.4875 -0.9318
  102TCq2    C1 1551   0.303   1.829  12.313 -0.1146  0.1528  0.0589
  102TCq2    O2 1552   0.320   1.864  12.198  0.3829 -0.4185  0.8322
  102TCq2    C2 1553   0.178   1.758  12.348  0.2498  0.0733 -0.5836
  102TCq2    C3 1554   0.073   1.803  12.271 -0.0683 -0.2431 -0.3826
  102TCq2    C4 1555   4.680   1.808  12.315  0.5673 -0.3038 -0.4358
  102TCq2    C5 1556   4.637   1.779  12.440  0.2449 -0.0692 -0.1216
  102TCq2    C6 1557   0.012   1.745  12.524  0.1732 -0.3555 -0.1380
  102TCq2    C7 1558   0.145   1.732  12.480  1.3208  0.4508 -0.1262
  102TCq2    C8 1559   4.712   1.683  12.658  0.7521 -0.2621 -0.2283
  102TCq2    O4 1560   0.050   1.587  12.689 -0.2278 -0.3983 -0.0063
  102TCq2    C9 1561   4.582   1.841  12.216  0.1394  0.4177 -0.3648
  102TCq2    O5 1562   4.468   1.795  12.240 -0.1220 -0.3406 -0.2792
  102TCq2    O6 1563   4.619   1.904  12.114  0.2929 -0.1454 -0.0117
  102TCq2    H2 1564   0.086   1.823  12.165  0.6981 -0.6107 -0.3561
  102TCq2    H3 1565   4.531   1.766  12.458 -0.2851  1.3659 -2.2373
  102TCq2    H4 1566   0.221   1.709  12.554  2.1288 -1.4512 -1.5804
  103TMC2    C1 1567   3.111   1.689  12.410  0.9952 -0.0718  0.2176
  103TMC2    C2 1568   3.059   1.804  12.373 -0.3207  0.3578  0.3172
  103TMC2    C3 1569   2.953   1.853  12.450  0.1902  0.0047 -0.6382
  103TMC2    C4 1570   3.062   1.608  12.515 -0.5582  0.1611  0.0003
  103TMC2    C5 1571   2.961   1.670  12.592  0.1486 -0.1069 -0.4927
  103TMC2    C6 1572   2.904   1.790  12.560  0.5604 -0.0011 -0.2324
  103TMC2     C 1573   3.170   1.615  12.300  0.6199  0.1122  0.4699
  103TMC2     O 1574   3.169   1.666  12.191 -0.1456 -0.0271  0.1805
  103TMC2     H 1575   3.104   1.856  12.289  0.8349  0.9522  1.2923
  103TMC2    H1 1576   3.098   1.509  12.541  1.4720  0.7270 -0.6606
  103TMC2    H2 1577   2.807   1.815  12.600  2.5358  3.6839  2.2954
  103TMC2    C7 1578   2.918   1.594  12.711 -0.1156 -0.0625  0.2737
  103TMC2    C8 1579   2.896   1.980  12.399 -0.2204  0.1533 -0.0097
  103TMC2    O1 1580   2.971   1.487  12.731  0.4238 -0.7356 -0.4263
  103TMC2    O2 1581   2.911   2.026  12.289 -0.0023  0.2520 -0.0523
  103TMC2    O5 1582   2.879   2.048  12.514  0.4719  0.2980 -0.4236
  103TMC2    H5 1583   2.909   1.997  12.591  1.8844  0.6606 -0.7458
  104MPD2     C 1584   3.373   1.308  12.309  0.1704  0.4935  0.3188
  104MPD2    C1 1585   3.282   1.402  12.263 -0.2331  0.1582 -0.7410
  104MPD2    C2 1586   3.235   1.392  12.131 -0.8597 -0.7354 -0.1056
  104MPD2    C3 1587   3.264   1.284  12.051  0.6512  0.1797  0.5268
  104MPD2    C4 1588   3.356   1.196  12.099  0.8254  0.0490 -0.1816
  104MPD2    C5 1589   3.415   1.208  12.221  0.1710 -0.1582  0.1097
  104MPD2     H 1590   3.162   1.460  12.088 -1.0238 -0.2926  0.8728
  104MPD2    H1 1591   3.384   1.110  12.039 -2.5521 -0.9421 -0.3625
  104MPD2    H2 1592   3.404   1.307  12.413  2.5729  1.2348 -0.3934
  104MPD2    H3 1593   3.488   1.135  12.255  1.2503  2.0909  2.5962
  104MPD2     N 1594   3.193   1.278  11.930  0.2306 -1.0137 -0.3307
  104MPD2    H5 1595   3.126   1.353  11.917  0.1637 -0.6427  2.1578
  104MPD2    N1 1596   3.237   1.503  12.348  0.0420 -0.1099 -0.7889
  104MPD2    H7 1597   3.257   1.505  12.447  0.7572  1.1133 -0.9591
  105MPD2     C 1598   0.092   1.082  17.543 -0.4360 -0.3908  0.0104
  105MPD2    C1 1599   4.685   1.110  17.525  0.1509 -0.0589  0.5812
  105MPD2    C2 1600   4.600   1.061  17.621 -0.2513 -0.4773  0.4168
  105MPD2    C3 1601   4.644   0.975   0.004 -0.3709  0.0544 -0.3123
  105MPD2    C4 1602   0.047   0.934   0.010 -0.2724 -0.4459  0.4833
  105MPD2    C5 1603   0.137   0.989  17.631 -0.1251 -0.1004 -0.2013
  105MPD2     H 1604   4.494   1.082  17.620  0.1559  1.5825  0.8373
  105MPD2    H1 1605   0.072   0.866   0.090 -1.9944  0.6724  1.9836
  105MPD2    H2 1606   0.166   1.132  17.483  2.5166 -2.7012  1.7442
  105MPD2    H3 1607   0.242   0.970  17.650  0.0196  0.4489 -0.4356
  105MPD2     N 1608   4.544   0.928   0.099 -0.4484  0.0168  0.0728
  105MPD2    H5 1609   4.451   0.960   0.077  0.0331  1.4778  0.1059
  105MPD2    N1 1610   4.634   1.194  17.424  0.7485  0.1410  0.6134
  105MPD2    H7 1611   4.535   1.215  17.420  0.8214 -0.2576 -3.3423
  106TCq2    C1 1612   4.570   0.841   0.197 -0.0043 -0.8857 -0.4571
  106TCq2    O2 1613   4.672   0.782   0.231 -0.0088  0.0485  0.3886
  106TCq2    C2 1614   4.450   0.804   0.259 -0.0657  0.5105  0.1992
  106TCq2    C3 1615   4.332   0.813   0.181 -0.1329  0.9892  0.4813
  106TCq2    C4 1616   4.219   0.809   0.247 -0.7377 -0.4245 -0.7535
  106TCq2    C5 1617   4.217   0.800   0.384 -0.6593 -0.8020  0.3454
  106TCq2    C6 1618   4.329   0.791   0.460  0.6268 -0.2611 -0.7640
  106TCq2    C7 1619   4.449   0.783   0.394  0.4961  0.1217 -0.2491
  106TCq2    C8 1620   4.331   0.819   0.604 -0.1301 -0.3328  0.9858
  106TCq2    O4 1621   4.439   0.835   0.652 -0.6464  0.1177  0.0164
  106TCq2    C9 1622   4.093   0.823   0.176 -0.3199  0.1046  0.0445
  106TCq2    O5 1623   4.101   0.847   0.052 -0.6621  0.5514  0.0615
  106TCq2    O6 1624   3.988   0.820   0.243 -0.4021  0.1047  0.4703
  106TCq2    H2 1625   4.330   0.819   0.072  0.6179  3.1729  0.5821
  106TCq2    H3 1626   4.117   0.800   0.424 -0.9013  2.1067 -0.2333
  106TCq2    H4 1627   4.540   0.769   0.451 -0.3747 -1.4260  0.7931
  107TMC2    C1 1628   0.339   0.147  11.660 -0.2259  0.2114 -0.3559
  107TMC2    C2 1629   0.435   0.222  11.600  0.1738  0.3609  0.6464
  107TMC2    C3 1630   0.516   0.159  11.510 -0.2331 -0.1683  0.1573
  107TMC2    C4 1631   0.314   0.014  11.635  0.0120 -0.0871 -0.0969
  107TMC2    C5 1632   0.401   4.687  11.544 -0.5604 -0.4458  0.4186
  107TMC2    C6 1633   0.505   0.021  11.481 -0.4927  0.2443  0.0460
  107TMC2     C 1634   0.278   0.199  11.783  0.3038 -0.3908 -0.2626
  107TMC2     O 1635   0.244   0.117  11.866  0.6690  0.3822 -0.1670
  107TMC2     H 1636   0.450   0.326  11.624 -1.6604  1.0676 -1.2248
  107TMC2    H1 1637   0.230   4.691  11.682  0.1019 -1.4279 -1.3650
  107TMC2    H2 1638   0.591   4.704  11.433 -1.2538 -0.2692 -0.8544
  107TMC2    C7 1639   0.376   4.543  11.530  0.2289  0.3129  0.0373
  107TMC2    C8 1640   0.621   0.239  11.449 -0.2952 -0.1933  0.1911
  107TMC2    O1 1641   0.309   4.495  11.622 -0.4545 -0.8913 -0.2905
  107TMC2    O2 1642   0.737   0.226  11.484 -0.2819 -0.0751  0.3233
  107TMC2    O5 1643   0.568   0.362  11.436  0.0146  0.1614 -0.2304
  107TMC2    H5 1644   0.483   0.354  11.388 -0.9625  0.4077  1.4670
  108MPD2     C 1645   0.152   0.536  11.863  0.2224 -0.0677  0.2733
  108MPD2    C1 1646   0.207   0.411  11.891  0.3750 -0.1138  0.0775
  108MPD2    C2 1647   0.200   0.364  12.022 -0.3173 -0.3235  0.0098
  108MPD2    C3 1648   0.166   0.454  12.125 -0.0940 -0.7905  1.0948
  108MPD2    C4 1649   0.123   0.581  12.091 -0.0250  0.7264  0.1447
  108MPD2    C5 1650   0.112   0.620  11.963  0.0208 -0.0128  0.1269
  108MPD2     H 1651   0.244   0.267  12.045 -1.9044 -1.2404 -0.7450
  108MPD2    H1 1652   0.096   0.655  12.166  0.1440  0.9560 -0.0196
  108MPD2    H2 1653   0.158   0.581  11.764  0.7334 -1.1654 -0.2041
  108MPD2    H3 1654   0.084   0.722  11.943  3.6532  1.1339  0.8424
  108MPD2     N 1655   0.143   0.410  12.257 -0.0108  0.0788  0.4866
  108MPD2    H5 1656   0.088   0.471  12.317  0.5021 -0.0506  1.0740
  108MPD2    N1 1657   0.266   0.338  11.787 -0.7053  0.3410 -0.0015
  108MPD2    H7 1658   0.267   0.385  11.697 -1.1288  1.1794  0.4363
  109MPD2     C 1659   4.118   2.422   2.174 -0.0720  0.2891  0.5593
  109MPD2    C1 1660   4.220   2.328   2.179  0.0510  0.0069 -0.2099
  109MPD2    C2 1661   4.310   2.339   2.286  0.3136  0.2391  0.3233
  109MPD2    C3 1662   4.314   2.449   2.373  0.6777 -0.1111 -0.1352
  109MPD2    C4 1663   4.200   2.533   2.369  0.3725 -0.4190 -0.4941
  109MPD2    C5 1664   4.113   2.523   2.264  0.1406 -0.5979 -0.2376
  109MPD2     H 1665   4.406   2.288   2.280 -0.1868 -0.2445 -3.6008
  109MPD2    H1 1666   4.182   2.617   2.435  0.8653  0.7740 -1.8661
  109MPD2    H2 1667   4.050   2.416   2.089 -0.7240  0.2999  1.0787
  109MPD2    H3 1668   4.028   2.589   2.266  0.6318 -0.0392  2.0042
  109MPD2     N 1669   4.433   2.470   2.443 -0.1007  0.2331  0.2390
  109MPD2    H5 1670   4.517   2.414   2.429 -1.0894 -0.7700 -1.6190
  109MPD2    N1 1671   4.237   2.238   2.068 -0.2535 -0.2708 -0.3165
  109MPD2    H7 1672   4.168   2.245   1.994  0.5951 -0.7916 -1.1566
  110TCq2    C1 1673   4.448   2.554   2.553  0.6523  1.0650  0.2174
  110TCq2    O2 1674   4.354   2.606   2.614 -0.4985  0.5985 -0.0039
  110TCq2    C2 1675   4.591   2.571   2.591  0.9052  0.9103  0.4195
  110TCq2    C3 1676   4.621   2.608   2.721 -0.2160  0.1780 -0.3652
  110TCq2    C4 1677   0.023   2.596   2.763  0.3953 -0.0492 -0.3956
  110TCq2    C5 1678   0.121   2.560   2.672 -0.4190  0.7924  0.0584
  110TCq2    C6 1679   0.096   2.538   2.537 -0.0057  0.6133 -0.4938
  110TCq2    C7 1680   4.695   2.548   2.499  0.4679  0.4052 -0.0632
  110TCq2    C8 1681   0.204   2.499   2.447 -0.0900  0.2311  0.1859
  110TCq2    O4 1682   0.319   2.485   2.495 -0.3476 -0.4397  0.4560
  110TCq2    C9 1683   0.059   2.632   2.896 -0.7345  0.0022 -0.1396
  110TCq2    O5 1684   0.168   2.575   2.931  0.0359  0.3228  0.2579
  110TCq2    O6 1685   4.695   2.676   2.972 -0.2277  0.4155 -0.8571
  110TCq2    H2 1686   4.543   2.623   2.795 -0.5878 -0.9844 -0.5176
  110TCq2    H3 1687   0.222   2.568   2.711 -0.0467  1.2877 -0.9990
  110TCq2    H4 1688   4.675   2.520   2.396  1.5412 -0.2916 -0.0800
  111TMC2    C1 1689   0.159   1.623  11.279  0.0961 -0.3497 -0.0470
  111TMC2    C2 1690   0.136   1.493  11.251 -0.2125 -0.4425 -0.3047
  111TMC2    C3 1691   0.226   1.396  11.286 -0.4790  0.3888 -0.2398
  111TMC2    C4 1692   0.280   1.666  11.324  0.2041  0.5794 -0.3155
  111TMC2    C5 1693   0.376   1.571  11.346 -0.0814 -0.2505  0.7558
  111TMC2    C6 1694   0.351   1.436  11.336  0.0742 -0.0847  0.1041
  111TMC2     C 1695   0.072   1.713  11.206 -0.2896 -0.1344  0.5328
  111TMC2     O 1696   0.017   1.684  11.100  0.3563 -0.4957  0.9454
  111TMC2     H 1697   0.039   1.471  11.208 -0.2460 -0.5751 -0.1626
  111TMC2    H1 1698   0.307   1.771  11.329 -0.4305  0.6405  1.8186
  111TMC2    H2 1699   0.419   1.365  11.380  0.1454 -0.5371 -0.7403
  111TMC2    C7 1700   0.510   1.626  11.380 -0.3273  0.5176 -0.6721
  111TMC2    C8 1701   0.160   1.271  11.313  0.3428 -0.6591  0.1762
  111TMC2    O1 1702   0.511   1.740  11.432  0.4120 -0.9391 -0.2650
  111TMC2    O2 1703   0.057   1.226  11.259 -0.3432 -0.1149  0.4748
  111TMC2    O5 1704   0.206   1.230  11.431 -0.0110 -0.0520  0.0122
  111TMC2    H5 1705   0.273   1.289  11.471 -0.1361 -0.1424  0.3537
  112MPD2     C 1706   4.684   2.204  11.123 -0.4706 -0.0173 -0.0048
  112MPD2    C1 1707   4.698   2.105  11.032  0.4642 -0.4705 -0.1235
  112MPD2    C2 1708   0.013   1.979  11.074 -0.2568  0.1709  0.5984
  112MPD2    C3 1709   0.039   1.960  11.209  0.4085  0.0354 -0.1123
  112MPD2    C4 1710   0.020   2.053  11.305 -0.5079 -0.1661 -0.3597
  112MPD2    C5 1711   4.702   2.177  11.262 -0.0040  0.5899 -0.8969
  112MPD2     H 1712   0.020   1.895  11.007 -0.8431  1.3036 -0.8683
  112MPD2    H1 1713   0.055   2.034  11.405 -2.1660 -0.5793  0.1415
  112MPD2    H2 1714   4.650   2.306  11.106 -0.4487 -0.2027 -1.1510
  112MPD2    H3 1715   4.695   2.259  11.333  0.2478 -2.6467  2.8635
  112MPD2     N 1716   0.077   1.834  11.268 -0.1160 -0.0056 -0.6068
  112MPD2    H5 1717   0.107   1.841  11.365  2.9667  1.4422 -1.6476
  112MPD2    N1 1718   4.667   2.111  10.895  0.3549 -0.4632 -0.0212
  112MPD2    H7 1719   4.685   2.024  10.847 -1.0324 -0.6513 -0.2186
  113MPD2     C 1720   3.133   0.370   0.951 -0.5800  0.1745 -0.6008
  113MPD2    C1 1721   3.069   0.490   0.920 -0.0816 -0.0188  0.7080
  113MPD2    C2 1722   2.990   0.501   0.807 -0.1301  0.0197  0.0296
  113MPD2    C3 1723   2.954   0.391   0.730 -0.1400  0.0563 -0.5022
  113MPD2    C4 1724   3.021   0.268   0.761 -0.6582  0.1759 -0.0137
  113MPD2    C5 1725   3.119   0.266   0.864 -0.8387  0.5511 -0.7618
  113MPD2     H 1726   2.945   0.596   0.779 -0.3021  0.0317  0.3485
  113MPD2    H1 1727   3.003   0.182   0.698 -0.9056 -0.3084  0.7225
  113MPD2    H2 1728   3.201   0.357   1.035 -1.0126  0.6954 -0.1721
  113MPD2    H3 1729   3.176   0.175   0.879 -0.2449  0.7499 -1.8549
  113MPD2     N 1730   2.875   0.397   0.616 -0.1996  0.1411  0.0570
  113MPD2    H5 1731   2.851   0.307   0.576 -0.3299  0.4709 -0.6178
  113MPD2    N1 1732   3.083   0.608   0.995 -0.6402 -0.7470  0.4050
  113MPD2    H7 1733   3.027   0.691   0.978  1.7036  0.6975 -0.2520
  114TCq2    C1 1734   2.826   0.511   0.551 -0.5249 -0.3728 -0.1620
  114TCq2    O2 1735   2.868   0.626   0.559  0.6487  0.7982  0.2439
  114TCq2    C2 1736   2.741   0.472   0.439 -0.2572  0.0752  0.0812
  114TCq2    C3 1737   2.755   0.533   0.324  0.7368  0.4211  0.3432
  114TCq2    C4 1738   2.687   0.489   0.214  0.3979  0.6096  0.0481
  114TCq2    C5 1739   2.602   0.385   0.218 -0.2980  0.3242 -0.0655
  114TCq2    C6 1740   2.594   0.320   0.338 -0.2185  1.0220  0.2335
  114TCq2    C7 1741   2.646   0.371   0.452 -1.2932 -0.1914  0.8474
  114TCq2    C8 1742   2.516   0.199   0.339  0.1039 -0.0817 -0.3281
  114TCq2    O4 1743   2.499   0.144   0.228  0.2167 -0.2447  0.2401
  114TCq2    C9 1744   2.695   0.554   0.086  0.3222  0.9541  0.1288
  114TCq2    O5 1745   2.595   0.538   0.007  0.0829 -0.2687 -0.3240
  114TCq2    O6 1746   2.776   0.652   0.070  0.0944  0.4073 -0.2861
  114TCq2    H2 1747   2.830   0.610   0.312  1.5738 -0.4311  0.1380
  114TCq2    H3 1748   2.547   0.349   0.132 -0.3232  0.6760 -0.1974
  114TCq2    H4 1749   2.646   0.323   0.549 -2.2854 -1.1103  0.3940
  115TMC2    C1 1750   3.887   2.762  17.573 -0.3586  0.1080 -0.4225
  115TMC2    C2 1751   3.999   2.679  17.571 -0.4023  0.2752  0.0440
  115TMC2    C3 1752   4.121   2.740  17.541  0.4029  0.8291  0.5961
  115TMC2    C4 1753   3.898   2.895  17.553  0.0877  0.7559  0.7066
  115TMC2    C5 1754   4.019   2.950  17.523  0.2891  0.3951  0.2256
  115TMC2    C6 1755   4.137   2.877  17.511 -0.3842  0.3997 -0.1569
  115TMC2     C 1756   3.765   2.689  17.551 -0.1139 -0.1395  0.0681
  115TMC2     O 1757   3.778   2.568  17.548  0.0233  0.2309 -0.2032
  115TMC2     H 1758   3.991   2.571  17.578  2.9823  0.1470  2.0075
  115TMC2    H1 1759   3.814   2.962  17.561 -1.4324 -1.1265  0.5289
  115TMC2    H2 1760   4.236   2.915  17.490 -1.6091  4.0119  0.5039
  115TMC2    C7 1761   4.006   3.089  17.478 -0.5975  0.8661 -0.3507
  115TMC2    C8 1762   4.241   2.666  17.524 -0.7927  0.6154  0.4108
  115TMC2    O1 1763   3.897   3.125  17.439  0.3452 -0.3897  0.3666
  115TMC2    O2 1764   4.310   2.696  17.430 -0.0693  0.1967  0.1911
  115TMC2    O5 1765   4.236   2.545  17.585  0.1226 -0.3099  0.0964
  115TMC2    H5 1766   4.182   2.559  17.666  0.7983  2.4307  0.0948
  116MPD2     C 1767   3.265   2.662  17.421 -0.1548 -0.3054  0.4876
  116MPD2    C1 1768   3.359   2.564  17.420  0.0233 -0.5065 -0.6961
  116MPD2    C2 1769   3.484   2.596  17.469  0.7051 -0.2356  0.3212
  116MPD2    C3 1770   3.520   2.723  17.506  0.1424 -0.7483  0.3678
  116MPD2    C4 1771   3.417   2.815  17.512  0.4143 -0.3532  0.1738
  116MPD2    C5 1772   3.286   2.780  17.477  0.2628 -0.3691 -0.3927
  116MPD2     H 1773   3.565   2.524  17.471  3.6142  3.0810  0.4501
  116MPD2    H1 1774   3.450   2.913  17.545  0.0200 -0.5091  1.0311
  116MPD2    H2 1775   3.168   2.642  17.377  0.4947  0.3996 -1.2453
  116MPD2    H3 1776   3.213   2.859  17.465  1.8638  1.0953 -0.5474
  116MPD2     N 1777   3.651   2.763  17.545  0.1085 -0.1252  0.3943
  116MPD2    H5 1778   3.663   2.862  17.565 -0.0770 -0.5247  2.5084
  116MPD2    N1 1779   3.329   2.443  17.358 -0.2089 -0.1941  0.2419
  116MPD2    H7 1780   3.235   2.448  17.319 -1.0854 -0.5136  2.2840
  117TMC2    C1 1781   2.414   4.161  14.144 -0.5034  0.4302 -0.0418
  117TMC2    C2 1782   2.386   4.268  14.225  0.2951  0.4337  0.0239
  117TMC2    C3 1783   2.477   4.361  14.243 -0.1496 -0.3283 -0.7443
  117TMC2    C4 1784   2.519   4.172  14.055 -0.3335 -0.4865  0.8319
  117TMC2    C5 1785   2.607   4.283  14.073  0.3296 -0.2188 -0.3705
  117TMC2    C6 1786   2.585   4.384  14.159  0.5259  0.7883  0.4960
  117TMC2     C 1787   2.313   4.085  14.085  0.5102  0.8328  0.3708
  117TMC2     O 1788   2.332   3.968  14.057 -0.8901  0.2074  0.1977
  117TMC2     H 1789   2.308   4.272  14.301  0.5431 -1.6569  0.3974
  117TMC2    H1 1790   2.546   4.085  13.996 -0.0382  0.3601 -0.3004
  117TMC2    H2 1791   2.665   4.455  14.181 -1.1502  2.7744  0.2251
  117TMC2    C7 1792   2.715   4.306  13.980  0.0570  0.1408  0.2900
  117TMC2    C8 1793   2.461   4.449  14.357 -0.2659  0.1926 -0.0826
  117TMC2    O1 1794   2.748   4.425  13.957  0.0855 -0.3458 -0.8844
  117TMC2    O2 1795   2.413   4.403  14.459  0.0645  0.8480  0.6276
  117TMC2    O5 1796   2.478   4.580  14.329 -0.8769 -0.0606 -0.3983
  117TMC2    H5 1797   2.513   4.588  14.238 -1.0931 -1.2000 -0.5864
  118MPD2     C 1798   2.829   4.073  13.714 -0.4080  0.4686  0.2693
  118MPD2    C1 1799   2.835   4.188  13.797 -0.3615 -0.4947  0.1099
  118MPD2    C2 1800   2.931   4.283  13.776  0.5831  0.0397  0.7951
  118MPD2    C3 1801   3.027   4.258  13.681 -0.1276 -0.5161  0.5095
  118MPD2    C4 1802   3.012   4.151  13.597  0.8473 -0.1369  0.0297
  118MPD2    C5 1803   2.918   4.056  13.612  0.1214  0.3390  0.0886
  118MPD2     H 1804   2.934   4.374  13.835  1.6209  0.4118  0.1720
  118MPD2    H1 1805   3.073   4.140  13.508  1.3651  1.4078  0.1919
  118MPD2    H2 1806   2.757   3.994  13.726  0.2961 -0.0611  1.0090
  118MPD2    H3 1807   2.911   3.976  13.539  1.7098  1.2909 -1.1150
  118MPD2     N 1808   3.120   4.361  13.645  0.1915 -0.0089  0.0008
  118MPD2    H5 1809   3.183   4.329  13.572  2.2130  1.8356  0.9438
  118MPD2    N1 1810   2.741   4.192  13.904  0.5186 -0.1334  0.6873
  118MPD2    H7 1811   2.690   4.107  13.927  0.7541 -0.2599  0.7428
  119MPD2     C 1812   1.227   1.058  13.929 -0.0999  0.3842 -0.1878
  119MPD2    C1 1813   1.093   1.087  13.899 -0.2819 -0.4621 -0.1563
  119MPD2    C2 1814   1.050   1.071  13.762 -0.2150 -0.3828 -0.6834
  119MPD2    C3 1815   1.130   1.002  13.670 -0.1920  0.0445 -0.1443
  119MPD2    C4 1816   1.245   0.957  13.703  0.1040  0.2451 -0.1190
  119MPD2    C5 1817   1.292   0.981  13.837  0.4422 -0.3051 -0.0059
  119MPD2     H 1818   0.949   1.097  13.737 -0.4763  0.4246  1.1684
  119MPD2    H1 1819   1.294   0.883  13.641 -0.6369 -0.5003  0.1879
  119MPD2    H2 1820   1.273   1.086  14.023 -2.4463 -2.5348  1.7999
  119MPD2    H3 1821   1.389   0.938  13.862  0.4591 -1.1387 -1.4912
  119MPD2     N 1822   1.086   0.957  13.544  0.4477 -0.9046  0.1757
  119MPD2    H5 1823   1.153   0.895  13.499  3.0868  1.2874  1.0910
  119MPD2    N1 1824   1.003   1.134  13.997  0.5522  0.4850  0.4736
  119MPD2    H7 1825   1.044   1.173  14.082  0.9338  3.0010 -0.8662
  120TCq2    C1 1826   0.967   0.999  13.486 -0.3154  0.4004 -0.2345
  120TCq2    O2 1827   0.874   1.057  13.539  0.1887 -0.0538 -0.5647
  120TCq2    C2 1828   0.947   0.951  13.349  0.3609 -0.3093  1.0546
  120TCq2    C3 1829   1.046   0.905  13.265  1.1489  0.1676  0.1791
  120TCq2    C4 1830   1.010   0.819  13.163 -0.3465  0.3381 -0.0784
  120TCq2    C5 1831   0.880   0.790  13.141 -0.9084 -0.2562  0.0158
  120TCq2    C6 1832   0.782   0.845  13.225  0.5390 -0.2326  0.0260
  120TCq2    C7 1833   0.816   0.919  13.331 -0.7367  0.5557  0.1184
  120TCq2    C8 1834   0.638   0.846  13.182 -0.2651  0.5773 -0.5494
  120TCq2    O4 1835   0.616   0.817  13.066 -0.6396  0.1765  0.5268
  120TCq2    C9 1836   1.117   0.779  13.067  0.2175 -0.8235  0.0623
  120TCq2    O5 1837   1.072   0.717  12.964 -0.5778 -0.0603  0.3166
  120TCq2    O6 1838   1.235   0.814  13.080 -0.1751  0.4130 -0.3844
  120TCq2    H2 1839   1.152   0.915  13.286  1.3377 -3.0232  0.8178
  120TCq2    H3 1840   0.855   0.719  13.064  0.7036 -1.8089  0.8915
  120TCq2    H4 1841   0.739   0.969  13.389 -0.2313  1.9519 -0.4108
  121TMC2    C1 1842   2.404   2.578  13.966  1.0082  0.0403 -0.3895
  121TMC2    C2 1843   2.394   2.536  14.094 -0.2308 -0.1470  0.0214
  121TMC2    C3 1844   2.312   2.433  14.130  0.4071  0.0709  0.5205
  121TMC2    C4 1845   2.320   2.531  13.866  0.4898  0.0507 -0.3965
  121TMC2    C5 1846   2.232   2.431  13.904 -0.3782 -0.3485  0.3753
  121TMC2    C6 1847   2.228   2.384  14.033  0.0367  0.7660  0.2766
  121TMC2     C 1848   2.526   2.647  13.921 -0.9580  0.0948 -0.5186
  121TMC2     O 1849   2.574   2.719  14.010  0.0580 -0.4248  0.1324
  121TMC2     H 1850   2.463   2.557  14.175 -0.4263  1.2378 -0.1718
  121TMC2    H1 1851   2.326   2.578  13.768  0.1811  0.3958 -0.2504
  121TMC2    H2 1852   2.165   2.298  14.053 -2.5158  3.1705  2.4043
  121TMC2    C7 1853   2.154   2.382  13.790 -1.1289  0.4885  0.3483
  121TMC2    C8 1854   2.313   2.403  14.271  0.3702 -0.3074 -0.2628
  121TMC2    O1 1855   2.200   2.414  13.682  0.4914 -0.2001  0.1349
  121TMC2    O2 1856   2.358   2.474  14.363  0.1500  0.0533  0.2744
  121TMC2    O5 1857   2.198   2.328  14.296 -0.0170 -0.6331  0.4576
  121TMC2    H5 1858   2.170   2.260  14.231  2.4508 -2.5247  1.3805
  122MPD2     C 1859   2.791   2.733  13.807 -0.2888 -0.6754  0.3955
  122MPD2    C1 1860   2.686   2.682  13.740 -0.0538  0.5969 -0.3944
  122MPD2    C2 1861   2.705   2.668  13.605  0.2283 -0.4518  0.5820
  122MPD2    C3 1862   2.821   2.709  13.536  0.4004  0.3475  0.0698
  122MPD2    C4 1863   2.919   2.761  13.608 -0.7822  0.5661  0.1807
  122MPD2    C5 1864   2.904   2.776  13.744 -0.3112  0.6572  0.2242
  122MPD2     H 1865   2.627   2.621  13.546  0.3984  0.9489 -0.7664
  122MPD2    H1 1866   3.012   2.798  13.568 -2.1488  3.9815  0.1804
  122MPD2    H2 1867   2.794   2.759  13.912 -1.8516  0.5681  0.1206
  122MPD2    H3 1868   2.984   2.812  13.808  1.0816 -2.7328  0.4242
  122MPD2     N 1869   2.836   2.700  13.396 -0.1794 -0.0359 -0.0916
  122MPD2    H5 1870   2.926   2.729  13.357 -0.8976  1.6920 -0.4791
  122MPD2    N1 1871   2.569   2.625  13.791 -0.1902 -0.3654  0.3262
  122MPD2    H7 1872   2.526   2.551  13.737  0.9757 -0.8507  0.0646
  123MPD2     C 1873   0.107   4.199   9.331  0.2156 -0.0622  1.1353
  123MPD2    C1 1874   0.145   4.320   9.377 -0.3731 -0.4352  0.2711
  123MPD2    C2 1875   0.277   4.361   9.354 -0.2743 -0.1103  0.2452
  123MPD2    C3 1876   0.364   4.302   9.267 -0.0607 -0.2616  0.5862
  123MPD2    C4 1877   0.324   4.184   9.213  0.5555  0.3199  0.1238
  123MPD2    C5 1878   0.201   4.129   9.255  0.5016 -1.0026  0.1599
  123MPD2     H 1879   0.318   4.451   9.397 -0.9247  0.3212 -0.0481
  123MPD2    H1 1880   0.385   4.137   9.137  0.4914 -0.5847  0.6345
  123MPD2    H2 1881   0.016   4.145   9.356  0.5904 -0.4261  1.7193
  123MPD2    H3 1882   0.175   4.030   9.218  0.5056 -1.0332  0.2377
  123MPD2     N 1883   0.482   4.368   9.235  0.8471  1.0508  0.0922
  123MPD2    H5 1884   0.497   4.456   9.284  2.0558 -0.0179  1.6366
  123MPD2    N1 1885   0.046   4.385   9.458 -0.1491 -0.0053 -0.8203
  123MPD2    H7 1886   4.690   4.332   9.481 -0.3899  1.4986  1.8060
  124TCq2    C1 1887   0.565   4.345   9.128  0.2223  0.4352  0.1117
  124TCq2    O2 1888   0.542   4.266   9.035 -0.1940 -0.4498  0.0482
  124TCq2    C2 1889   0.666   4.453   9.121  0.5604 -0.3525  0.5314
  124TCq2    C3 1890   0.713   4.468   8.994  0.4582 -0.4803  0.3893
  124TCq2    C4 1891   0.806   4.565   8.979  0.8330  0.1674 -0.1950
  124TCq2    C5 1892   0.842   4.640   9.086  0.1014  1.0922  0.4802
  124TCq2    C6 1893   0.781   4.635   9.208  0.0851  0.5076 -0.1087
  124TCq2    C7 1894   0.698   4.527   9.233  0.4758 -0.0641  0.1614
  124TCq2    C8 1895   0.841   4.704   9.320  0.0594  0.2426 -0.5598
  124TCq2    O4 1896   0.798   4.667   9.426 -0.8853 -0.4649 -0.2132
  124TCq2    C9 1897   0.859   4.583   8.847  0.0045  0.2169 -0.1865
  124TCq2    O5 1898   0.959   4.660   8.837  0.5298  0.2901 -0.0648
  124TCq2    O6 1899   0.825   4.491   8.766  0.0328 -0.3786 -0.2818
  124TCq2    H2 1900   0.672   4.410   8.912  1.1844 -2.4195  1.3799
  124TCq2    H3 1901   0.912   4.719   9.060  0.9492 -0.4471 -1.8482
  124TCq2    H4 1902   0.656   4.505   9.330 -0.1049  2.0687  0.3956
  125TMC2    C1 1903   1.594   2.123   9.786  0.0698 -0.1070 -0.8263
  125TMC2    C2 1904   1.531   2.242   9.824 -0.5541  0.2707  0.7989
  125TMC2    C3 1905   1.511   2.344   9.738  0.2551  0.1356 -0.1927
  125TMC2    C4 1906   1.606   2.093   9.651 -0.2248 -0.4615  0.2395
  125TMC2    C5 1907   1.569   2.194   9.565 -0.5507  0.0453  0.3319
  125TMC2    C6 1908   1.542   2.322   9.603 -0.2523  0.0358 -0.1704
  125TMC2     C 1909   1.609   2.030   9.898 -0.2217 -0.2011 -0.8425
  125TMC2     O 1910   1.601   2.074  10.011 -0.3689  0.2308  0.4489
  125TMC2     H 1911   1.508   2.251   9.930 -0.1066  0.0523  0.9162
  125TMC2    H1 1912   1.622   1.994   9.611  0.8251  0.1209 -0.7489
  125TMC2    H2 1913   1.510   2.385   9.521 -2.2275  1.8040  1.9313
  125TMC2    C7 1914   1.618   2.170   9.430 -0.2692  0.0724  0.5021
  125TMC2    C8 1915   1.436   2.464   9.778 -0.3730 -0.8115  0.1896
  125TMC2    O1 1916   1.576   2.238   9.334 -0.1205 -0.2736  0.5517
  125TMC2    O2 1917   1.362   2.468   9.873 -0.4408 -0.6636 -0.2788
  125TMC2    O5 1918   1.474   2.549   9.691  0.1341  0.1740  0.1886
  125TMC2    H5 1919   1.558   2.530   9.644  0.0244 -0.0420  0.0777
  126MPD1     C 1920   1.614   1.547  10.097  0.1050  0.2777  0.0040
  126MPD1    C1 1921   1.681   1.543   9.978  0.0845 -0.1171  0.2048
  126MPD1    C2 1922   1.690   1.656   9.898  0.5513  0.6636 -0.5409
  126MPD1    C3 1923   1.632   1.776   9.950 -0.3492 -0.0024 -0.5143
  126MPD1    C4 1924   1.559   1.775  10.069 -0.5771  0.5950  0.3867
  126MPD1    C5 1925   1.551   1.656  10.138  0.3702 -0.2064  0.1785
  126MPD1     H 1926   1.736   1.661   9.800  1.9988  1.0637  0.1672
  126MPD1    H1 1927   1.513   1.868  10.103  0.8825  1.1312  0.8920
  126MPD1    H2 1928   1.606   1.461  10.162 -2.1229  0.1195 -0.4727
  126MPD1    H3 1929   1.500   1.660  10.234 -1.7580 -1.4613 -0.8883
  126MPD1     N 1930   1.642   1.894   9.867  0.4629  0.2837  0.1331
  126MPD1    H5 1931   1.665   1.877   9.769  0.1368 -2.5875  0.5353
  126MPD1    N1 1932   1.747   1.425   9.935  0.1024  0.2981  0.1674
  126MPD1    H6 1933   1.757   1.420   9.834  0.7016  1.5048  0.1585
  126MPD1    H7 1934   1.726   1.343   9.991 -0.3116 -0.7786 -1.5726
  127MPD2     C 1935   3.036   0.832   9.027 -1.5217 -0.4964  0.2868
  127MPD2    C1 1936   2.945   0.825   9.136  1.0663 -0.0025  0.7639
  127MPD2    C2 1937   2.972   0.909   9.244  0.9038  0.9747  0.0403
  127MPD2    C3 1938   3.082   0.984   9.252  0.0429 -0.1680  0.8400
  127MPD2    C4 1939   3.169   0.992   9.140  0.4343 -0.0052 -0.5839
  127MPD2    C5 1940   3.146   0.917   9.032  0.2401 -0.5429 -0.4313
  127MPD2     H 1941   2.907   0.912   9.331 -0.5503  0.7746 -1.0430
  127MPD2    H1 1942   3.263   1.044   9.156 -0.0677  1.5750 -2.8775
  127MPD2    H2 1943   3.028   0.773   8.937 -0.8695 -1.3686  0.8020
  127MPD2    H3 1944   3.233   0.910   8.967  1.4832 -0.8359  1.2549
  127MPD2     N 1945   3.100   1.058   9.370 -0.1078 -0.1325  0.1914
  127MPD2    H5 1946   3.023   1.054   9.436  0.9362 -0.5282  1.3971
  127MPD2    N1 1947   2.833   0.739   9.121  0.0211  0.0769 -0.8272
  127MPD2    H7 1948   2.818   0.690   9.033 -0.1260  0.0641 -0.7934
  128TCq2    C1 1949   2.738   0.716   9.220 -0.0948 -0.5025 -0.0141
  128TCq2    O2 1950   2.721   0.776   9.322 -0.1495 -0.3642 -0.1576
  128TCq2    C2 1951   2.658   0.595   9.210 -0.2536 -0.6901 -0.1742
  128TCq2    C3 1952   2.575   0.568   9.314  0.9449  0.2156 -0.8642
  128TCq2    C4 1953   2.524   0.442   9.316 -0.1768  0.2113  0.3224
  128TCq2    C5 1954   2.565   0.341   9.229 -0.6275 -0.2840  0.4668
  128TCq2    C6 1955   2.646   0.378   9.128  0.6460 -0.5005  0.1816
  128TCq2    C7 1956   2.693   0.501   9.108 -0.7522 -0.3228  0.0850
  128TCq2    C8 1957   2.725   0.271   9.078  0.2079  0.1114  0.7581
  128TCq2    O4 1958   2.767   0.280   8.962  0.6352 -0.7635  0.1667
  128TCq2    C9 1959   2.446   0.415   9.431  0.0182  0.1575  0.2556
  128TCq2    O5 1960   2.434   0.499   9.523  0.6194 -0.4647 -0.5755
  128TCq2    O6 1961   2.408   0.297   9.441 -0.4838 -0.4590  0.4328
  128TCq2    H2 1962   2.557   0.644   9.390 -0.7893 -1.4242  0.3605
  128TCq2    H3 1963   2.525   0.241   9.240  1.8068 -1.1772  1.1263
  128TCq2    H4 1964   2.760   0.524   9.026 -0.8905  1.6261  0.5178
  129MPD2     C 1965   0.516   2.722   1.687  0.3053 -0.6841 -0.2191
  129MPD2    C1 1966   0.576   2.674   1.574  0.4379 -0.1027 -0.8258
  129MPD2    C2 1967   0.598   2.764   1.471  0.1725  0.2433 -0.3462
  129MPD2    C3 1968   0.550   2.894   1.475 -0.4524 -0.5104 -0.5461
  129MPD2    C4 1969   0.494   2.947   1.589  1.0920  0.0852 -0.4379
  129MPD2    C5 1970   0.479   2.863   1.695 -0.0711  0.7000 -0.5894
  129MPD2     H 1971   0.658   2.724   1.391 -0.7761  0.9136 -1.3992
  129MPD2    H1 1972   0.454   3.048   1.591 -0.1101 -0.4175  0.7332
  129MPD2    H2 1973   0.493   2.661   1.773 -1.0326 -1.2638 -0.9935
  129MPD2    H3 1974   0.436   2.910   1.783 -1.1337 -2.2226  0.4631
  129MPD2     N 1975   0.566   2.978   1.359 -0.9076 -0.6769 -0.4075
  129MPD2    H5 1976   0.606   2.929   1.279 -0.5300 -0.2174 -0.4943
  129MPD2    N1 1977   0.630   2.548   1.563  0.4320 -0.1308  0.3490
  129MPD2    H7 1978   0.700   2.540   1.491  0.9821 -0.5886  0.9383
  130TCq2    C1 1979   0.599   2.444   1.648 -0.0572 -0.5340 -0.1259
  130TCq2    O2 1980   0.493   2.430   1.711  0.4341 -0.3552  0.1402
  130TCq2    C2 1981   0.694   2.336   1.628 -0.0074  0.0641  0.3576
  130TCq2    C3 1982   0.820   2.364   1.568  1.0949  0.2542  0.0246
  130TCq2    C4 1983   0.891   2.255   1.532 -0.2120  0.1337  0.0918
  130TCq2    C5 1984   0.842   2.131   1.548 -0.2393 -0.1935  0.2111
  130TCq2    C6 1985   0.722   2.109   1.610 -0.0558  0.0411  0.0154
  130TCq2    C7 1986   0.643   2.212   1.653  0.9504 -0.3981 -0.5685
  130TCq2    C8 1987   0.681   1.971   1.638  0.1221 -0.6944 -0.9107
  130TCq2    O4 1988   0.581   1.953   1.705 -0.4167  0.3431 -0.2646
  130TCq2    C9 1989   1.008   2.279   1.447 -0.0136 -0.1008  0.4017
  130TCq2    O5 1990   1.095   2.186   1.443 -0.5519  0.0212  0.5873
  130TCq2    O6 1991   1.020   2.390   1.386 -0.5245  0.5070 -0.0976
  130TCq2    H2 1992   0.861   2.462   1.547  1.3173 -0.0633 -1.0069
  130TCq2    H3 1993   0.878   2.058   1.476 -1.0063 -1.9810  1.6373
  130TCq2    H4 1994   0.543   2.204   1.696  1.7805  0.2070  1.4698
  131MPD2     C 1995   0.044   0.580   9.796 -0.2393 -0.5810 -0.3452
  131MPD2    C1 1996   0.134   0.469   9.794 -0.0375  0.2331 -0.1189
  131MPD2    C2 1997   0.094   0.345   9.755 -0.2980 -0.6478 -0.3158
  131MPD2    C3 1998   4.689   0.330   9.711  1.1089 -0.7195  0.0385
  131MPD2    C4 1999   4.602   0.436   9.706 -0.5512  0.4587 -0.7548
  131MPD2    C5 2000   4.651   0.563   9.737  0.5431 -0.4777  0.1479
  131MPD2     H 2001   0.156   0.257   9.748  0.5948  0.1357 -2.2542
  131MPD2    H1 2002   4.505   0.439   9.658 -0.5250 -0.0495 -0.8393
  131MPD2    H2 2003   0.078   0.679   9.823 -1.6639  0.2735 -1.6401
  131MPD2    H3 2004   4.578   0.642   9.728  1.0250  0.0353  0.7960
  131MPD2     N 2005   4.653   0.197   9.691  0.5065  0.1647 -0.1601
  131MPD2    H5 2006   4.725   0.126   9.677 -0.6824 -0.9965 -0.4248
  131MPD2    N1 2007   0.271   0.499   9.833  0.1111 -0.2683  0.3689
  131MPD2    H7 2008   0.296   0.589   9.872 -1.1995  1.0925 -1.9702
  132TCq2    C1 2009   0.814   0.576   9.725  0.3322 -0.3841  0.0359
  132TCq2    O2 2010   0.825   0.483   9.648  0.3866 -0.9613 -0.2542
  132TCq2    C2 2011   0.694   0.562   9.812  0.3188 -0.7303 -0.3633
  132TCq2    C3 2012   0.685   0.641   9.923 -0.4389  0.7677 -0.3697
  132TCq2    C4 2013   0.580   0.630  10.010 -0.2961 -0.4269  0.4415
  132TCq2    C5 2014   0.479   0.541   9.986 -0.3039  0.7904 -0.3670
  132TCq2    C6 2015   0.497   0.464   9.878 -1.0771 -0.1349  0.5014
  132TCq2    C7 2016   0.606   0.459   9.797 -0.8396  0.2121  0.1812
  132TCq2    C8 2017   0.375   0.415   9.813 -0.1578  0.8728 -0.4274
  132TCq2    O4 2018   0.388   0.308   9.751 -0.4158  0.0413 -0.6633
  132TCq2    C9 2019   0.565   0.728  10.118  0.3216 -0.1942  0.5855
  132TCq2    O5 2020   0.464   0.710  10.197  0.0477 -0.0704  0.3627
  132TCq2    O6 2021   0.617   0.840  10.093 -0.2858  0.1847  0.0408
  132TCq2    H2 2022   0.762   0.709   9.958  0.8510 -0.1456 -1.4288
  132TCq2    H3 2023   0.390   0.542  10.048 -0.1727 -2.5518 -0.1540
  132TCq2    H4 2024   0.606   0.402   9.705 -0.5286  3.5513 -1.8613
  133MPD2     C 2025   0.162   1.640   9.610 -0.1787  0.3980  0.5902
  133MPD2    C1 2026   0.206   1.573   9.498 -0.2218 -0.3261 -0.1434
  133MPD2    C2 2027   0.148   1.450   9.465 -0.9432 -0.0763  0.2087
  133MPD2    C3 2028   0.068   1.380   9.552 -0.3505 -0.1273 -0.5082
  133MPD2    C4 2029   0.038   1.443   9.675 -0.3957  0.1041 -0.1952
  133MPD2    C5 2030   0.079   1.574   9.695 -0.5294 -0.9339  0.7566
  133MPD2     H 2031   0.176   1.388   9.380  2.2763  1.1375  0.3659
  133MPD2    H1 2032   4.691   1.408   9.745 -0.5640  2.8925  1.0049
  133MPD2    H2 2033   0.202   1.737   9.636 -1.2756  1.1117 -0.3899
  133MPD2    H3 2034   0.044   1.619   9.787 -0.3121 -0.1306  0.4390
  133MPD2     N 2035   0.002   1.257   9.521  0.0670 -0.3511 -0.2985
  133MPD2    H5 2036   4.668   1.217   9.591 -0.1587  1.4053  0.4985
  133MPD2    N1 2037   0.296   1.636   9.409  0.1707  0.0977  0.1378
  133MPD2    H7 2038   0.333   1.725   9.441  3.5601 -1.4833  0.5587
  134TCq2    C1 2039   0.324   1.597   9.280  0.6084 -0.3636  0.0860
  134TCq2    O2 2040   0.270   1.514   9.208  0.1753  0.4631 -0.2706
  134TCq2    C2 2041   0.390   1.710   9.215 -0.0967  0.1192  0.5680
  134TCq2    C3 2042   0.477   1.674   9.116  0.3155  0.3241 -0.2014
  134TCq2    C4 2043   0.565   1.769   9.069  0.9585  0.1244  0.1080
  134TCq2    C5 2044   0.553   1.901   9.116 -0.5416 -0.3880 -0.2159
  134TCq2    C6 2045   0.468   1.928   9.224 -0.0791 -0.5790  0.1457
  134TCq2    C7 2046   0.387   1.834   9.268 -0.8962 -0.7757 -0.4755
  134TCq2    C8 2047   0.458   2.061   9.286 -0.8632 -0.6114 -0.2975
  134TCq2    O4 2048   0.366   2.084   9.363  0.2611 -0.3300 -0.8846
  134TCq2    C9 2049   0.649   1.743   8.957 -0.0786 -0.2747  1.3649
  134TCq2    O5 2050   0.722   1.840   8.918  0.1270  0.8864 -0.0541
  134TCq2    O6 2051   0.642   1.629   8.902  0.5977 -0.1136 -0.1948
  134TCq2    H2 2052   0.477   1.575   9.070 -1.6973 -0.6003  1.7685
  134TCq2    H3 2053   0.618   1.976   9.071 -1.1253 -0.2588 -0.8278
  134TCq2    H4 2054   0.310   1.851   9.342 -0.2171  1.2991 -0.2243
  135MPD2     C 2055   2.106   2.342   9.285  0.4181 -0.1273  0.6303
  135MPD2    C1 2056   2.204   2.338   9.381  0.1702 -1.4365 -0.5666
  135MPD2    C2 2057   2.337   2.326   9.341 -0.2336 -0.1986 -0.1445
  135MPD2    C3 2058   2.366   2.298   9.211  1.3028  1.2809  0.2762
  135MPD2    C4 2059   2.262   2.293   9.117  0.5642  0.3774 -0.3937
  135MPD2    C5 2060   2.132   2.328   9.151 -0.1113 -0.2071 -0.3279
  135MPD2     H 2061   2.417   2.336   9.413  0.5564 -2.4301 -0.6790
  135MPD2    H1 2062   2.282   2.250   9.020  1.2937  0.1406 -0.1444
  135MPD2    H2 2063   2.000   2.345   9.311  0.4678  1.2823  0.6264
  135MPD2    H3 2064   2.048   2.331   9.082 -1.9152 -0.9446  1.8057
  135MPD2     N 2065   2.500   2.279   9.164  0.1899  0.1919 -0.0820
  135MPD2    H5 2066   2.509   2.276   9.062 -1.1756 -1.3013 -0.1571
  135MPD2    N1 2067   2.174   2.340   9.520 -0.1463 -0.0477 -0.0068
  135MPD2    H7 2068   2.249   2.297   9.571  0.3900 -1.2629 -1.8177
  136TCq2    C1 2069   2.048   2.365   9.576 -0.5088  0.3440 -0.1411
  136TCq2    O2 2070   1.968   2.444   9.528 -0.3408 -0.1422  0.0809
  136TCq2    C2 2071   2.040   2.330   9.717  0.4405  0.2313  0.9471
  136TCq2    C3 2072   2.063   2.199   9.748  0.0150  0.0336  0.7518
  136TCq2    C4 2073   2.003   2.152   9.864  1.1051  0.6236  0.6174
  136TCq2    C5 2074   1.933   2.231   9.943  0.0982 -0.2070  0.3662
  136TCq2    C6 2075   1.914   2.368   9.909  0.5828  0.1009 -0.0233
  136TCq2    C7 2076   1.980   2.418   9.799  0.0149  0.1265  0.4978
  136TCq2    C8 2077   1.802   2.443   9.944 -0.4743 -0.1233 -0.0553
  136TCq2    O4 2078   1.765   2.533   9.871  0.2887 -0.0171  0.6080
  136TCq2    C9 2079   2.008   2.014   9.900  0.0415  0.5253 -0.3500
  136TCq2    O5 2080   2.105   1.953   9.838 -0.2459 -0.4726 -0.5510
  136TCq2    O6 2081   1.961   1.972  10.007  0.0076  0.3740  0.3282
  136TCq2    H2 2082   2.115   2.129   9.684  0.7859  0.8205  0.5175
  136TCq2    H3 2083   1.871   2.187  10.021  0.4437  0.5862  1.0904
  136TCq2    H4 2084   1.976   2.522   9.768  0.2665  0.0108  0.0709
  137MPD2     C 2085   2.731   1.767   9.899  0.3116  0.3237 -0.4450
  137MPD2    C1 2086   2.607   1.707   9.878 -0.2040  0.8086 -0.4312
  137MPD2    C2 2087   2.507   1.740   9.966  0.7609 -0.2704  0.0258
  137MPD2    C3 2088   2.527   1.849  10.048 -0.0792 -0.3357  0.6611
  137MPD2    C4 2089   2.644   1.911  10.060 -0.0022  0.3552 -0.6996
  137MPD2    C5 2090   2.757   1.865   9.991  0.2254 -0.0205  0.8256
  137MPD2     H 2091   2.405   1.704   9.973 -0.2093  2.7292  1.2239
  137MPD2    H1 2092   2.659   1.999  10.121  0.7223  0.5008 -1.0906
  137MPD2    H2 2093   2.815   1.749   9.833  1.3830  1.0354  0.7134
  137MPD2    H3 2094   2.853   1.916   9.990 -0.5809  1.5207  0.3493
  137MPD2     N 2095   2.414   1.901  10.121  0.1632 -0.4883  0.6213
  137MPD2    H5 2096   2.330   1.845  10.127  0.2483 -0.4804  2.0200
  137MPD2    N1 2097   2.593   1.618   9.773  0.2176  0.0455  0.1039
  137MPD2    H7 2098   2.674   1.601   9.715 -0.5868  1.4440 -1.4233
  138TCq2    C1 2099   2.475   1.559   9.738 -0.2311 -0.2731  0.9303
  138TCq2    O2 2100   2.376   1.538   9.804 -0.0140  0.0670  0.3700
  138TCq2    C2 2101   2.480   1.493   9.606 -0.2226  0.2006  0.6974
  138TCq2    C3 2102   2.565   1.545   9.510 -0.4731 -0.1472  0.2078
  138TCq2    C4 2103   2.560   1.489   9.391  0.0398  0.7586  0.0452
  138TCq2    C5 2104   2.477   1.386   9.362 -0.9292 -0.4948 -0.1135
  138TCq2    C6 2105   2.383   1.350   9.451  0.4073 -0.8561 -0.1380
  138TCq2    C7 2106   2.386   1.400   9.577 -0.2531  0.1152  0.5116
  138TCq2    C8 2107   2.279   1.265   9.402 -0.0253 -0.8973  1.1976
  138TCq2    O4 2108   2.312   1.182   9.319  0.0742 -0.1632  0.4228
  138TCq2    C9 2109   2.662   1.523   9.300  0.3735 -0.0479  0.3157
  138TCq2    O5 2110   2.730   1.627   9.323  0.5868 -0.0552  0.4914
  138TCq2    O6 2111   2.686   1.438   9.207  0.5911  0.6124 -0.5714
  138TCq2    H2 2112   2.637   1.623   9.533  0.5437 -0.8233 -0.6837
  138TCq2    H3 2113   2.470   1.349   9.260 -0.1209  0.8349 -0.6638
  138TCq2    H4 2114   2.321   1.360   9.653 -0.7632 -0.1995 -0.0888
  139TMC2    C1 2115   2.322   0.441  13.188  0.2620  0.3545  0.4882
  139TMC2    C2 2116   2.316   0.475  13.052  0.3606 -0.3747  1.2411
  139TMC2    C3 2117   2.245   0.581  13.014  0.5692 -0.0891  0.0022
  139TMC2    C4 2118   2.262   0.522  13.283 -0.0497  0.3053 -0.1962
  139TMC2    C5 2119   2.198   0.635  13.237 -0.3704 -0.9276  0.5403
  139TMC2    C6 2120   2.180   0.665  13.105 -0.0763  0.5387 -0.2201
  139TMC2     C 2121   2.404   0.334  13.230  0.1496 -0.6710 -0.0087
  139TMC2     O 2122   2.450   0.259  13.142  0.1907 -0.3020 -0.0333
  139TMC2     H 2123   2.363   0.419  12.973  0.8086  2.0673 -0.2265
  139TMC2    H1 2124   2.275   0.506  13.389 -1.2294 -0.1667 -0.1234
  139TMC2    H2 2125   2.135   0.756  13.066 -1.4701  0.7112  1.7684
  139TMC2    C7 2126   2.107   0.718  13.317 -0.3199 -0.8649 -0.5403
  139TMC2    C8 2127   2.231   0.607  12.870  0.2834  0.0246  0.4385
  139TMC2    O1 2128   2.022   0.786  13.264 -0.0495 -0.1477  0.1429
  139TMC2    O2 2129   2.309   0.559  12.789 -0.0101 -0.0277 -0.2482
  139TMC2    O5 2130   2.099   0.627  12.841 -0.2510 -0.1276 -0.6209
  139TMC2    H5 2131   2.041   0.646  12.918  3.1589 -1.1872  2.1828
  140MPD2     C 2132   2.345   0.100  13.488 -0.2376  0.0426  1.0904
  140MPD2    C1 2133   2.424   0.161  13.404 -0.0775 -0.4141 -0.0446
  140MPD2    C2 2134   2.548   0.113  13.382  0.5338  0.0475  0.5841
  140MPD2    C3 2135   2.593   4.718  13.434 -0.1305 -0.0054  0.1306
  140MPD2    C4 2136   2.502   4.646  13.510  0.5805 -0.3439  0.4664
  140MPD2    C5 2137   2.383   4.709  13.540 -0.6044 -0.0002 -0.1652
  140MPD2     H 2138   2.617   0.171  13.323  1.1752 -0.5523  0.7451
  140MPD2    H1 2139   2.525   4.558  13.569  0.3798 -0.8997 -0.2826
  140MPD2    H2 2140   2.247   0.136  13.515 -0.8169 -0.8636  0.1776
  140MPD2    H3 2141   2.318   4.649  13.602  1.9044 -1.6033  0.9455
  140MPD2     N 2142   2.726   4.673  13.412  0.5341 -0.3338  0.3703
  140MPD2    H5 2143   2.785   0.010  13.361 -0.4334  1.5878  1.6818
  140MPD2    N1 2144   2.370   0.281  13.351 -0.2758 -0.0515  0.4075
  140MPD2    H7 2145   2.305   0.332  13.410  0.9420 -0.5401  2.2053
  141TCq2    C1 2146   2.862   1.305  14.086  0.0998  0.0094  0.2587
  141TCq2    O2 2147   2.801   1.347  13.986 -0.3019  0.6588  0.1342
  141TCq2    C2 2148   2.888   1.410  14.188  0.1928  0.3195 -0.2848
  141TCq2    C3 2149   2.929   1.377  14.316  0.3873  0.2808 -0.1434
  141TCq2    C4 2150   2.958   1.483  14.400  0.1952 -0.2334 -0.4855
  141TCq2    C5 2151   2.935   1.614  14.367 -0.0076 -0.4360  0.5085
  141TCq2    C6 2152   2.899   1.644  14.238  0.3867  0.0099  0.7252
  141TCq2    C7 2153   2.879   1.541  14.148 -0.4850  0.0121 -0.2420
  141TCq2    C8 2154   2.892   1.783  14.193  0.0555  0.3266 -0.0057
  141TCq2    O4 2155   2.837   1.802  14.083  0.2044 -0.5309 -0.0080
  141TCq2    C9 2156   3.008   1.454  14.530 -0.3608  0.2080  0.7192
  141TCq2    O5 2157   3.033   1.551  14.600  0.8794  0.1897 -0.2013
  141TCq2    O6 2158   3.012   1.332  14.563  0.1364  0.5955 -0.2534
  141TCq2    H2 2159   2.963   1.281  14.352  0.5361  0.5944  0.5405
  141TCq2    H3 2160   2.951   1.689  14.443 -0.5562  0.1645  0.0280
  141TCq2    H4 2161   2.862   1.571  14.046  0.5005 -1.1539 -0.7460
  142MPD2     C 2162   0.591   4.401  10.603  0.0409 -0.4754 -0.2879
  142MPD2    C1 2163   0.538   4.433  10.482 -0.2025 -0.1878  0.3390
  142MPD2    C2 2164   0.613   4.530  10.411 -0.2822  0.6617  0.9012
  142MPD2    C3 2165   0.737   4.570  10.452 -0.0801 -0.2334  0.1933
  142MPD2    C4 2166   0.786   4.527  10.567  0.0388  0.4495 -0.0902
  142MPD2    C5 2167   0.717   4.445  10.639  0.2155 -0.1184 -1.1201
  142MPD2     H 2168   0.579   4.570  10.316  0.7749 -0.6089 -0.0113
  142MPD2    H1 2169   0.885   4.548  10.605 -0.2607  0.1900  0.8384
  142MPD2    H2 2170   0.540   4.330  10.667  0.1769  2.3533  2.9859
  142MPD2    H3 2171   0.760   4.401  10.729  0.5950  2.3891 -0.0779
  142MPD2     N 2172   0.826   4.650  10.372  0.1361 -0.6656 -0.0973
  142MPD2    H5 2173   0.920   4.675  10.402 -0.4811  1.6560 -0.1188
  142MPD2    N1 2174   0.415   4.384  10.436  0.4055  0.4870 -0.1696
  142MPD2    H7 2175   0.383   4.301  10.484 -1.0069  0.4167 -1.2293
  143TCq2    C1 2176   0.800   4.693  10.246 -0.0101  0.0356  0.4296
  143TCq2    O2 2177   0.701   4.670  10.176 -0.3447 -0.4258  0.4369
  143TCq2    C2 2178   0.920   0.013  10.170  0.3456  0.2827  0.5302
  143TCq2    C3 2179   1.048   0.015  10.225 -0.3815  0.5309  0.7707
  143TCq2    C4 2180   1.154   0.057  10.153 -0.1217 -0.6264  0.0620
  143TCq2    C5 2181   1.139   0.069  10.020 -0.5160  0.2385  1.0565
  143TCq2    C6 2182   1.013   0.077   9.970  0.1955 -0.1962 -0.7629
  143TCq2    C7 2183   0.899   0.038  10.036  0.3259  0.4106 -0.1927
  143TCq2    C8 2184   0.998   0.079   9.827  0.3049 -0.4114  0.5361
  143TCq2    O4 2185   0.915   0.003   9.783  0.0692 -0.3383 -0.6819
  143TCq2    C9 2186   1.284   0.060  10.212  0.3034 -0.2612 -0.3094
  143TCq2    O5 2187   1.376   0.108  10.141  0.0264  0.4364 -0.3795
  143TCq2    O6 2188   1.296   4.723  10.320 -0.0787 -0.9509 -0.0096
  143TCq2    H2 2189   1.057   0.024  10.332  1.3514  0.8775  0.6051
  143TCq2    H3 2190   1.226   0.100   9.963 -2.0209  0.9846 -0.8331
  143TCq2    H4 2191   0.802   0.040   9.986  0.7215 -1.1458 -1.0202
  144MPD2     C 2192   2.530   4.279   0.711  0.0846  0.0505  0.2212
  144MPD2    C1 2193   2.575   4.178   0.629 -0.2673  0.2579 -0.1203
  144MPD2    C2 2194   2.708   4.138   0.634  0.7759 -0.2502 -0.3708
  144MPD2    C3 2195   2.797   4.205   0.712 -0.0702  0.1533 -0.3102
  144MPD2    C4 2196   2.747   4.296   0.807 -0.1569 -0.0755 -0.0604
  144MPD2    C5 2197   2.619   4.336   0.802 -0.4231  0.3269  0.0514
  144MPD2     H 2198   2.735   4.056   0.568  2.5901 -0.8726  1.1620
  144MPD2    H1 2199   2.811   4.345   0.879 -1.6945  1.1620  0.4756
  144MPD2    H2 2200   2.432   4.325   0.712  0.3384  0.5911 -0.0726
  144MPD2    H3 2201   2.586   4.412   0.871  0.1507  1.4816 -0.9496
  144MPD2     N 2202   2.935   4.175   0.723  0.6042  0.3073  0.0895
  144MPD2    H5 2203   2.995   4.235   0.778 -0.5656 -1.7762  3.6170
  144MPD2    N1 2204   2.496   4.123   0.524  0.5336 -0.0209 -0.1531
  144MPD2    H7 2205   2.533   4.052   0.462  0.0458  0.1078 -0.5881
  145TCq2    C1 2206   2.983   4.055   0.685 -0.2857 -0.0182  0.1394
  145TCq2    O2 2207   2.933   3.955   0.638 -0.3575 -0.5306 -0.0150
  145TCq2    C2 2208   3.114   4.041   0.730 -0.0010  0.4260  0.6078
  145TCq2    C3 2209   3.196   3.984   0.633  0.0678  0.3102  0.4370
  145TCq2    C4 2210   3.327   3.986   0.662 -0.3132  0.0156 -0.3406
  145TCq2    C5 2211   3.378   4.037   0.782 -0.0809 -0.2965  0.0398
  145TCq2    C6 2212   3.292   4.097   0.865 -0.3604  0.5889  0.3391
  145TCq2    C7 2213   3.158   4.104   0.844 -0.6623  0.4640 -0.1700
  145TCq2    C8 2214   3.357   4.134   0.986 -0.0265  0.2913  0.3345
  145TCq2    O4 2215   3.460   4.078   1.023 -0.0680  0.0009  0.0927
  145TCq2    C9 2216   3.417   3.944   0.553 -0.0496  1.3535  0.1672
  145TCq2    O5 2217   3.372   3.879   0.455  0.4646 -0.8353  0.4674
  145TCq2    O6 2218   3.537   3.958   0.584  0.2086  0.0092  0.1350
  145TCq2    H2 2219   3.157   3.948   0.539 -0.6588 -0.9739  1.2226
  145TCq2    H3 2220   3.483   4.016   0.801  0.6570  2.0687 -1.3877
  145TCq2    H4 2221   3.085   4.142   0.915 -0.5991 -0.6787  0.4982
  146TMC2    C1 2222   0.721   1.965  11.273 -0.5161 -0.3613 -0.3652
  146TMC2    C2 2223   0.720   1.909  11.147  0.2397 -0.1487  0.1589
  146TMC2    C3 2224   0.842   1.869  11.091  0.6307  0.1194 -0.8719
  146TMC2    C4 2225   0.839   1.986  11.337 -0.1387  0.7691  0.1058
  146TMC2    C5 2226   0.958   1.957  11.275  0.2748  0.8550 -1.3576
  146TMC2    C6 2227   0.963   1.898  11.156 -0.2731  0.9846 -0.1457
  146TMC2     C 2228   0.592   2.016  11.327 -0.0277 -0.0923  0.3039
  146TMC2     O 2229   0.513   2.054  11.242 -0.2272  0.2152  0.1674
  146TMC2     H 2230   0.627   1.884  11.098  0.4444 -1.3688  0.3720
  146TMC2    H1 2231   0.836   2.024  11.439 -2.3977  1.1543 -0.1081
  146TMC2    H2 2232   1.055   1.850  11.124  0.3206  2.2205 -0.2930
  146TMC2    C7 2233   1.093   1.998  11.334 -0.0341 -0.0892  0.0708
  146TMC2    C8 2234   0.846   1.830  10.949  0.6945  0.5054 -0.7202
  146TMC2    O1 2235   1.193   1.952  11.281 -0.5063 -0.2365  0.2515
  146TMC2    O2 2236   0.952   1.781  10.910 -0.2030 -0.1553  0.3817
  146TMC2    O5 2237   0.778   1.930  10.880 -0.2152 -0.2215 -0.5318
  146TMC2    H5 2238   0.721   1.995  10.926  1.0626  0.5645 -0.0421
  147MPD2     C 2239   1.396   2.266  11.645  0.7794  0.9954 -0.6224
  147MPD2    C1 2240   1.276   2.274  11.704 -0.4431 -0.9133  0.2118
  147MPD2    C2 2241   1.171   2.220  11.627 -0.3637  0.0391  0.4937
  147MPD2    C3 2242   1.193   2.153  11.503 -0.3435  0.0490 -0.2745
  147MPD2    C4 2243   1.321   2.152  11.445 -0.4910 -0.7380 -0.2570
  147MPD2    C5 2244   1.418   2.208  11.524 -0.2525 -0.6527  0.5414
  147MPD2     H 2245   1.069   2.228  11.664  0.1004  0.6198  1.6336
  147MPD2    H1 2246   1.337   2.127  11.340  0.1875  3.7582 -1.2265
  147MPD2    H2 2247   1.485   2.314  11.683  0.5228  0.5728  0.5289
  147MPD2    H3 2248   1.517   2.211  11.480  0.6345 -1.9608  2.4211
  147MPD2     N 2249   1.081   2.098  11.431 -0.7628 -0.3527 -0.8998
  147MPD2    H5 2250   0.992   2.145  11.438 -0.1194  0.6691  0.4224
  147MPD2    N1 2251   1.272   2.343  11.831  0.0438  0.1691  0.2542
  147MPD2    H7 2252   1.365   2.374  11.858  0.5615 -1.4260  0.2911
  148MPD2     C 2253   0.293   1.261  10.316  0.3591 -0.1144 -0.3370
  148MPD2    C1 2254   0.346   1.135  10.313  0.0136 -0.1787  0.1707
  148MPD2    C2 2255   0.276   1.026  10.354 -0.2382  0.3460  0.3507
  148MPD2    C3 2256   0.136   1.039  10.380  0.3475 -1.1204  0.3130
  148MPD2    C4 2257   0.082   1.165  10.386  0.3012  0.2238 -0.6200
  148MPD2    C5 2258   0.158   1.277  10.351  0.4611  0.3048  0.1095
  148MPD2     H 2259   0.321   0.927  10.352  0.4960  0.6830  0.1841
  148MPD2    H1 2260   4.707   1.176  10.420  0.5531  0.1010  0.1713
  148MPD2    H2 2261   0.348   1.350  10.288  2.7166 -1.9080 -1.4192
  148MPD2    H3 2262   0.114   1.376  10.349  0.8598  0.4406 -1.4667
  148MPD2     N 2263   0.048   0.926  10.394 -0.2788 -0.0857 -0.5062
  148MPD2    H5 2264   4.675   0.942  10.397 -0.0146  1.1722  2.1000
  148MPD2    N1 2265   0.480   1.118  10.276  0.6128  0.1667 -0.4055
  148MPD2    H7 2266   0.509   1.022  10.261  2.3431  0.5580  0.4441
  149TCq2    C1 2267   0.576   1.216  10.276 -0.9601 -0.3597  0.2845
  149TCq2    O2 2268   0.582   1.335  10.255 -0.0416 -0.4018 -0.7170
  149TCq2    C2 2269   0.709   1.152  10.276 -0.0260  0.7752  0.5266
  149TCq2    C3 2270   0.815   1.233  10.244  0.5295 -0.8058 -0.0311
  149TCq2    C4 2271   0.934   1.165  10.246 -0.4003  0.1758 -0.2638
  149TCq2    C5 2272   0.946   1.028  10.244  0.2577 -0.3639 -0.3083
  149TCq2    C6 2273   0.838   0.955  10.279 -0.1282 -0.7537  0.2996
  149TCq2    C7 2274   0.720   1.019  10.307 -0.3752 -0.0053 -0.3447
  149TCq2    C8 2275   0.843   0.812  10.297 -0.0830  0.4058 -0.4590
  149TCq2    O4 2276   0.759   0.768  10.376 -0.0430 -0.7344 -0.1294
  149TCq2    C9 2277   1.041   1.234  10.182  0.8452 -0.4653  0.0912
  149TCq2    O5 2278   1.015   1.353  10.148  0.8086  0.3161  0.3939
  149TCq2    O6 2279   1.154   1.186  10.181 -0.1634  0.1869  0.3657
  149TCq2    H2 2280   0.802   1.334  10.206  3.9608 -1.0570 -1.8138
  149TCq2    H3 2281   1.039   0.974  10.232  1.6195  2.6228 -3.2048
  149TCq2    H4 2282   0.643   0.967  10.363 -0.8826  1.1837  0.0709
  150MPD2     C 2283   1.829   0.250  12.033  1.2037 -0.2118  0.2083
  150MPD2    C1 2284   1.831   0.361  11.945  0.1599 -0.0354 -0.3147
  150MPD2    C2 2285   1.953   0.411  11.902 -0.5647 -1.0170  0.3270
  150MPD2    C3 2286   2.067   0.340  11.932 -0.0743 -0.3861 -0.3180
  150MPD2    C4 2287   2.061   0.229  12.017 -0.2099 -0.0836 -0.0324
  150MPD2    C5 2288   1.947   0.176  12.056  0.0675  0.0553 -0.2450
  150MPD2     H 2289   1.961   0.483  11.821 -0.0747 -0.2858  1.0256
  150MPD2    H1 2290   2.147   0.167  12.041 -1.8207 -2.7792 -1.2753
  150MPD2    H2 2291   1.732   0.217  12.069  0.1936  0.4649 -1.9261
  150MPD2    H3 2292   1.958   0.088  12.119  0.7170  1.4108  1.5554
  150MPD2     N 2293   2.188   0.397  11.884  0.2595 -0.0675  0.0883
  150MPD2    H5 2294   2.181   0.493  11.851 -0.0710  0.2517  1.0812
  150MPD2    N1 2295   1.701   0.405  11.897 -0.2275 -0.4617 -0.2632
  150MPD2    H7 2296   1.624   0.340  11.911  0.9009 -2.0204 -1.3254
  151TCq2    C1 2297   2.314   0.346  11.899  0.6339  0.6571 -0.2953
  151TCq2    O2 2298   2.356   0.241  11.942 -0.4243  0.6563  1.0501
  151TCq2    C2 2299   2.417   0.440  11.857 -0.6173 -0.2259  1.2326
  151TCq2    C3 2300   2.385   0.518  11.755  0.1795  0.2734  0.8622
  151TCq2    C4 2301   2.467   0.622  11.718 -0.0282 -0.4085 -0.1763
  151TCq2    C5 2302   2.580   0.652  11.792  0.2899 -0.3794  0.0273
  151TCq2    C6 2303   2.604   0.581  11.903 -0.4210 -1.3029 -0.3642
  151TCq2    C7 2304   2.527   0.470  11.932  0.9782 -0.1928 -0.1844
  151TCq2    C8 2305   2.727   0.606  11.986 -0.0692 -0.5231 -0.4593
  151TCq2    O4 2306   2.796   0.696  11.941 -0.5074 -0.0039 -0.2246
  151TCq2    C9 2307   2.432   0.693  11.600  0.2382 -0.2196 -0.4631
  151TCq2    O5 2308   2.323   0.664  11.543  0.5618  0.0590  0.0988
  151TCq2    O6 2309   2.515   0.777  11.556  0.0968  0.0339 -0.4413
  151TCq2    H2 2310   2.305   0.485  11.691 -0.1394 -1.6686  2.2351
  151TCq2    H3 2311   2.647   0.731  11.762 -2.4806  2.0474  0.2991
  151TCq2    H4 2312   2.563   0.396  12.003  0.1653  0.6438  1.0995
  152MPD2     C 2313   1.891   0.635  12.547  0.6446  0.1858  0.0500
  152MPD2    C1 2314   1.874   0.652  12.414 -0.1070  0.0368  0.3527
  152MPD2    C2 2315   1.747   0.655  12.359  0.1541 -0.4346 -0.1640
  152MPD2    C3 2316   1.641   0.637  12.444 -0.1531  0.5850 -0.1319
  152MPD2    C4 2317   1.660   0.622  12.579 -0.0525  0.0617 -0.2270
  152MPD2    C5 2318   1.784   0.621  12.632  0.0560  0.0661  0.0015
  152MPD2     H 2319   1.738   0.676  12.253 -3.0347  2.3051  0.6163
  152MPD2    H1 2320   1.583   0.605  12.654  0.6151  1.7887  0.8464
  152MPD2    H2 2321   1.994   0.626  12.582  0.3958 -0.5461  0.5974
  152MPD2    H3 2322   1.811   0.594  12.734 -0.3503  0.0440  0.1045
  152MPD2     N 2323   1.518   0.638  12.377  0.0839  0.2350 -0.1021
  152MPD2    H5 2324   1.519   0.630  12.276 -3.7849  1.1572 -0.2279
  152MPD2    N1 2325   1.996   0.665  12.337 -0.2794  0.0428 -0.5436
  152MPD2    H7 2326   2.080   0.647  12.392 -1.9102  1.5752  2.4878
  153TCq2    C1 2327   2.010   0.714  12.211  0.1130  0.1327  0.4125
  153TCq2    O2 2328   1.920   0.757  12.137 -0.6284  0.5043  0.6292
  153TCq2    C2 2329   2.145   0.682  12.155 -0.8256  0.9001  0.5622
  153TCq2    C3 2330   2.198   0.564  12.194 -0.2715 -0.1252  0.1117
  153TCq2    C4 2331   2.334   0.561  12.217  0.3401 -0.2016  0.2610
  153TCq2    C5 2332   2.422   0.668  12.207 -0.0873 -0.0036 -0.0097
  153TCq2    C6 2333   2.362   0.789  12.161  0.3351  0.1247  0.7998
  153TCq2    C7 2334   2.226   0.792  12.129 -0.6492  0.7582  0.2215
  153TCq2    C8 2335   2.447   0.899  12.128  0.8401 -0.8560  0.1201
  153TCq2    O4 2336   2.438   0.945  12.015 -0.2597  0.2918 -0.3741
  153TCq2    C9 2337   2.389   0.436  12.245 -0.2312  0.3807 -0.6920
  153TCq2    O5 2338   2.510   0.422  12.241  0.2791  0.1955 -0.1752
  153TCq2    O6 2339   2.314   0.360  12.306  0.9238  0.0128 -0.6608
  153TCq2    H2 2340   2.144   0.472  12.212 -3.2696  1.5935 -0.0156
  153TCq2    H3 2341   2.526   0.647  12.231  0.2237 -1.2473 -2.4248
  153TCq2    H4 2342   2.167   0.875  12.093  0.2054  1.2700  0.0144
  154MPD2     C 2343   3.642   1.234   0.009  0.2442 -0.3394 -0.1672
  154MPD2    C1 2344   3.601   1.352   0.063  0.8718  0.2603  0.4082
  154MPD2    C2 2345   3.472   1.368   0.109 -0.0505 -0.0395  0.0879
  154MPD2    C3 2346   3.390   1.258   0.105  0.5574  0.2626 -0.1752
  154MPD2    C4 2347   3.437   1.134   0.055 -0.3415  0.2410  0.3057
  154MPD2    C5 2348   3.559   1.121   0.005  0.3494 -0.7858  0.3011
  154MPD2     H 2349   3.426   1.457   0.151  1.6076 -0.0988  2.0459
  154MPD2    H1 2350   3.373   1.047   0.050 -1.2154  0.9573 -0.7600
  154MPD2    H2 2351   3.744   1.228  17.685 -0.1952  0.5406 -1.5395
  154MPD2    H3 2352   3.596   1.025  17.683  2.8472 -0.1381  1.2351
  154MPD2     N 2353   3.258   1.267   0.149  0.3298 -0.1053 -0.8350
  154MPD2    H5 2354   3.225   1.359   0.175 -3.0638 -1.2826 -0.9148
  154MPD2    N1 2355   3.688   1.463   0.068  0.1045 -0.7130 -0.1253
  154MPD2    H7 2356   3.775   1.447   0.017  1.8424  0.6233  2.4338
  155TCq2    C1 2357   3.656   1.594   0.111 -0.3272  0.2223  0.3041
  155TCq2    O2 2358   3.548   1.629   0.152 -0.4709 -0.0591 -0.1365
  155TCq2    C2 2359   3.766   1.685   0.118  0.7506 -0.3743  0.0901
  155TCq2    C3 2360   3.891   1.635   0.146 -0.6988 -0.3660  0.4035
  155TCq2    C4 2361   3.998   1.724   0.159  0.3091  0.3178 -0.4986
  155TCq2    C5 2362   3.971   1.857   0.130 -0.4260 -0.0622  0.4099
  155TCq2    C6 2363   3.838   1.902   0.117  0.7634  0.2236  0.0333
  155TCq2    C7 2364   3.734   1.815   0.125 -0.0550  0.0607 -0.0096
  155TCq2    C8 2365   3.802   2.043   0.133  0.2962 -0.1077  0.3913
  155TCq2    O4 2366   3.693   2.072   0.087 -0.2014 -0.4216  0.0847
  155TCq2    C9 2367   4.127   1.683   0.187 -0.9584 -0.4370 -1.2200
  155TCq2    O5 2368   4.135   1.557   0.195 -0.1976  0.2540  0.9987
  155TCq2    O6 2369   4.223   1.770   0.187  0.2529 -0.0937 -0.3371
  155TCq2    H2 2370   3.903   1.527   0.153 -3.1078 -0.7404 -1.2814
  155TCq2    H3 2371   4.053   1.929   0.129  1.3030 -2.0480 -1.6127
  155TCq2    H4 2372   3.631   1.848   0.121  0.3823  1.3685 -0.5006
  156MPD2     C 2373   1.845   2.793  11.666 -0.2044 -0.9283  0.3060
  156MPD2    C1 2374   1.938   2.896  11.651 -0.9539 -0.0057  0.0459
  156MPD2    C2 2375   2.022   2.929  11.756  0.1038 -0.2400 -0.3430
  156MPD2    C3 2376   2.016   2.854  11.870  0.1111  0.1185  0.2317
  156MPD2    C4 2377   1.931   2.750  11.881  0.6106 -0.0047 -0.2997
  156MPD2    C5 2378   1.845   2.724  11.783 -0.7190 -0.0068  1.0918
  156MPD2     H 2379   2.091   3.012  11.744  0.1847 -0.2381  0.1618
  156MPD2    H1 2380   1.933   2.684  11.967  1.3016  2.5547  1.6719
  156MPD2    H2 2381   1.771   2.765  11.592 -0.4391 -0.0307  0.1933
  156MPD2    H3 2382   1.782   2.637  11.794  2.2442 -2.1786  0.9982
  156MPD2     N 2383   2.110   2.891  11.972  0.2580  1.1946 -0.2767
  156MPD2    H5 2384   2.173   2.966  11.948  1.6720 -1.0258 -3.5548
  156MPD2    N1 2385   1.928   2.973  11.531 -0.0603 -0.0633  0.3894
  156MPD2    H7 2386   1.846   2.957  11.473 -1.2417 -1.0817  2.3331
  157TCq2    C1 2387   2.011   3.074  11.493 -0.6651  0.0680 -1.4306
  157TCq2    O2 2388   2.119   3.108  11.544 -0.3155 -0.0823 -0.5269
  157TCq2    C2 2389   1.943   3.146  11.383  0.7029 -0.2398  0.7818
  157TCq2    C3 2390   1.850   3.082  11.300 -0.2614  0.7424 -0.4002
  157TCq2    C4 2391   1.771   3.166  11.216  0.1504  0.3289  0.5946
  157TCq2    C5 2392   1.762   3.303  11.236  0.3850  0.2412 -0.1553
  157TCq2    C6 2393   1.853   3.355  11.324 -0.6203 -0.0979 -0.1405
  157TCq2    C7 2394   1.951   3.283  11.389 -0.3636  0.5334  0.2100
  157TCq2    C8 2395   1.850   3.494  11.353 -0.7619  0.3544 -0.6292
  157TCq2    O4 2396   1.956   3.548  11.385 -0.1792  0.8149 -0.2315
  157TCq2    C9 2397   1.675   3.112  11.122 -0.2098 -0.1132 -0.7114
  157TCq2    O5 2398   1.673   2.984  11.101 -0.4609  0.0678 -0.0551
  157TCq2    O6 2399   1.595   3.192  11.067 -0.1103 -0.9009  0.3730
  157TCq2    H2 2400   1.845   2.976  11.277  0.0187  0.4193  1.0374
  157TCq2    H3 2401   1.689   3.364  11.184 -1.4272 -0.3245  1.6960
  157TCq2    H4 2402   2.020   3.334  11.456 -1.0258 -1.3562  2.3339
  158TMC2    C1 2403   2.032   1.868  13.011  0.1183 -0.3664 -0.0929
  158TMC2    C2 2404   2.054   1.947  12.905 -0.2680 -0.5216  0.3857
  158TMC2    C3 2405   1.949   1.963  12.817 -0.3677 -0.5225  0.2131
  158TMC2    C4 2406   1.925   1.779  13.019 -0.0599  0.0982 -0.3839
  158TMC2    C5 2407   1.821   1.800  12.939  0.0742 -0.2652 -0.0033
  158TMC2    C6 2408   1.832   1.891  12.839  0.4516  0.8337  0.3201
  158TMC2     C 2409   2.137   1.844  13.106 -0.1184  0.2250  0.1084
  158TMC2     O 2410   2.247   1.817  13.057  0.3576 -0.8108 -0.8773
  158TMC2     H 2411   2.141   2.011  12.899 -1.2058  0.5449 -1.9885
  158TMC2    H1 2412   1.916   1.711  13.102 -0.1761  0.3361 -0.2003
  158TMC2    H2 2413   1.759   1.910  12.761  2.2059  0.0730 -1.5121
  158TMC2    C7 2414   1.692   1.746  12.973  0.1089 -0.5579 -0.4358
  158TMC2    C8 2415   1.931   2.066  12.715 -0.2068  0.1793  0.6493
  158TMC2    O1 2416   1.606   1.817  12.920 -0.0195  0.0654 -0.1084
  158TMC2    O2 2417   1.840   2.146  12.713  0.2840 -0.4110  0.1062
  158TMC2    O5 2418   2.058   2.099  12.690 -0.5954  0.4227  0.3992
  158TMC2    H5 2419   2.123   2.027  12.707  0.8410  1.2869 -1.4783
  159MPD2     C 2420   2.330   1.859  13.572 -0.4584 -0.5086 -0.1144
  159MPD2    C1 2421   2.193   1.862  13.586 -0.4154 -0.3613  0.4842
  159MPD2    C2 2422   2.113   1.852  13.473  0.3747 -0.4531  0.5579
  159MPD2    C3 2423   2.174   1.859  13.349 -0.4013  0.1312  0.0736
  159MPD2    C4 2424   2.310   1.857  13.338  0.4921  0.4128  0.2328
  159MPD2    C5 2425   2.394   1.853  13.448 -0.1935 -0.4724  0.2932
  159MPD2     H 2426   2.004   1.850  13.478  0.3984 -1.0552  0.7464
  159MPD2    H1 2427   2.358   1.876  13.242 -0.0650  1.4923  0.1654
  159MPD2    H2 2428   2.395   1.857  13.659  2.1059  3.2943 -1.9730
  159MPD2    H3 2429   2.502   1.857  13.443 -0.2602  0.2520 -0.5548
  159MPD2     N 2430   2.088   1.861  13.236  0.2924 -0.1561  0.3330
  159MPD2    H5 2431   1.988   1.869  13.254  0.3974  1.5683  0.1013
  159MPD2    N1 2432   2.145   1.883  13.717  0.7458  0.1902  0.7022
  159MPD2    H7 2433   2.208   1.890  13.796  1.4323 -1.4597  0.2984
  160TMC2    C1 2434   1.609   0.009   0.888  0.3396 -0.5272 -0.0239
  160TMC2    C2 2435   1.647   0.062   1.013 -0.6949  0.0031 -0.6923
  160TMC2    C3 2436   1.777   0.099   1.019  0.5032 -0.7720 -0.2215
  160TMC2    C4 2437   1.693   0.005   0.778 -0.4809  0.6167  0.4981
  160TMC2    C5 2438   1.823   0.048   0.792  0.1526  0.1377 -0.6510
  160TMC2    C6 2439   1.870   0.100   0.910 -0.8050 -0.5372 -0.0014
  160TMC2     C 2440   1.484   4.677   0.874 -0.1818 -0.0584  0.0022
  160TMC2     O 2441   1.480   4.578   0.800  0.0917  0.1836 -0.5190
  160TMC2     H 2442   1.582   0.051   1.099 -0.2284  0.2887 -0.3088
  160TMC2    H1 2443   1.662   4.696   0.681 -2.2762  2.0629  0.4989
  160TMC2    H2 2444   1.976   0.107   0.934 -1.0713  1.6819  0.5708
  160TMC2    C7 2445   1.888   0.079   0.668  0.1764 -0.1381  0.2238
  160TMC2    C8 2446   1.839   0.138   1.137  0.2837  0.1479  0.4023
  160TMC2    O1 2447   1.819   0.062   0.571  0.7016 -0.4826 -0.0207
  160TMC2    O2 2448   1.958   0.163   1.148 -0.2621 -0.0713 -0.5541
  160TMC2    O5 2449   1.744   0.202   1.213 -0.4706 -0.3520 -0.2332
  160TMC2    H5 2450   1.648   0.195   1.193 -0.8786 -1.1607  2.0268
  161MPD2     C 2451   1.256   4.540   0.966  0.0962  0.0546  0.1973
  161MPD2    C1 2452   1.286   4.668   1.005  0.7756  0.9265  0.2012
  161MPD2    C2 2453   1.206   0.012   1.091 -0.2654  0.3630  0.7058
  161MPD2    C3 2454   1.097   4.678   1.148 -0.1820  0.2664 -0.0989
  161MPD2    C4 2455   1.066   4.547   1.101  0.4062 -0.0297 -0.0272
  161MPD2    C5 2456   1.153   4.476   1.026  0.1593 -0.3132  0.1826
  161MPD2     H 2457   1.241   0.113   1.112  0.0363 -0.3256  3.5365
  161MPD2    H1 2458   0.975   4.497   1.133 -0.2658  0.8461 -0.5857
  161MPD2    H2 2459   1.306   4.481   0.890 -1.1567  0.4668 -0.9526
  161MPD2    H3 2460   1.128   4.374   1.001 -0.2420  0.0959 -1.0893
  161MPD2     N 2461   1.009   0.019   1.237 -0.5136 -0.1443  0.6005
  161MPD2    H5 2462   0.946   4.678   1.276  1.1644 -3.0335 -1.7999
  161MPD2    N1 2463   1.394   0.002   0.959 -0.1735 -0.0302  0.3070
  161MPD2    H7 2464   1.401   0.099   0.990 -0.4409  0.0226  0.1976
  162TMC2    C1 2465   4.447   2.105   1.283 -0.1536 -0.0393  0.1847
  162TMC2    C2 2466   4.376   2.219   1.310  0.3891 -0.1822 -0.3490
  162TMC2    C3 2467   4.276   2.213   1.402 -0.1999  0.4805  0.5253
  162TMC2    C4 2468   4.424   1.991   1.356  0.7838  0.2300 -0.1907
  162TMC2    C5 2469   4.327   1.985   1.452 -0.0891 -0.2179  0.0964
  162TMC2    C6 2470   4.249   2.096   1.472 -0.3188  0.1849 -0.0210
  162TMC2     C 2471   4.505   2.085   1.149  0.3935  0.1843 -0.0274
  162TMC2     O 2472   4.533   1.967   1.131 -0.0635  0.2513  0.1353
  162TMC2     H 2473   4.375   2.313   1.256  3.8272  0.5053  0.7743
  162TMC2    H1 2474   4.489   1.906   1.338  0.8254 -0.0085  1.0556
  162TMC2    H2 2475   4.165   2.085   1.540  0.6446  0.3231  1.2043
  162TMC2    C7 2476   4.287   1.858   1.509 -0.2457  0.5029  0.4449
  162TMC2    C8 2477   4.205   2.332   1.437 -0.2631  0.2015  0.3977
  162TMC2    O1 2478   4.175   1.855   1.558  0.0463 -0.1957 -0.0562
  162TMC2    O2 2479   4.279   2.428   1.456  0.4017  0.3654 -0.7299
  162TMC2    O5 2480   4.087   2.326   1.375  0.2573  0.0533 -0.1970
  162TMC2    H5 2481   4.054   2.233   1.380 -1.4872  0.7778  1.6985
  163MPD2     C 2482   4.639   2.236   0.675 -0.2884 -0.4295  0.1053
  163MPD2    C1 2483   4.638   2.110   0.731 -0.1685  0.4620 -0.3766
  163MPD2    C2 2484   4.589   2.091   0.859 -0.3105  0.0094  0.0377
  163MPD2    C3 2485   4.548   2.203   0.928 -0.0152 -0.0316 -0.2323
  163MPD2    C4 2486   4.551   2.327   0.866  0.7784 -0.4661 -0.7628
  163MPD2    C5 2487   4.591   2.342   0.742  0.6344 -0.0947  0.4087
  163MPD2     H 2488   4.585   1.991   0.900  0.6617 -0.3212 -0.6924
  163MPD2    H1 2489   4.518   2.411   0.927 -1.6936 -1.1090 -1.2157
  163MPD2    H2 2490   4.668   2.259   0.573 -1.4064 -3.2358 -0.8346
  163MPD2    H3 2491   4.595   2.442   0.700  0.0711  0.2937  1.2718
  163MPD2     N 2492   4.503   2.197   1.063 -0.6419  0.0171 -0.4206
  163MPD2    H5 2493   4.481   2.282   1.113  0.3962  0.6945 -1.1171
  163MPD2    N1 2494   4.679   2.004   0.646  0.0035  0.4402  0.1393
  163MPD2    H7 2495   4.681   2.029   0.547 -1.8131  1.0358  0.2487
  164TCq2    C1 2496   1.040   0.885  10.591 -0.0971  0.7542 -0.4430
  164TCq2    O2 2497   0.995   0.780  10.634  0.4235 -0.0922  0.0295
  164TCq2    C2 2498   0.966   1.006  10.639  0.7294  0.6010 -0.6903
  164TCq2    C3 2499   1.030   1.126  10.617 -0.4692 -0.0850 -0.1455
  164TCq2    C4 2500   0.966   1.248  10.615  0.2068  0.0442  0.1233
  164TCq2    C5 2501   0.832   1.246  10.632  0.4890  0.0605  0.2942
  164TCq2    C6 2502   0.766   1.122  10.662 -0.1294  0.0409  0.2501
  164TCq2    C7 2503   0.830   1.001  10.667 -0.4328  0.5590  0.4197
  164TCq2    C8 2504   0.627   1.134  10.692 -0.3136  0.3050  0.2715
  164TCq2    O4 2505   0.576   1.244  10.670  0.1907 -0.4496  0.4078
  164TCq2    C9 2506   1.044   1.371  10.592 -0.1247 -0.4569  0.2901
  164TCq2    O5 2507   0.981   1.483  10.601 -0.0482 -0.0262  0.1883
  164TCq2    O6 2508   1.152   1.351  10.532  0.0127 -0.0365 -0.8588
  164TCq2    H2 2509   1.138   1.136  10.611 -0.8941  4.2027 -0.7441
  164TCq2    H3 2510   0.787   1.345  10.624 -1.1098 -0.9052 -2.9814
  164TCq2    H4 2511   0.771   0.911  10.677  0.3560 -0.0230 -0.1538
  165MPD2     C 2512   0.505   4.724   1.757  0.0406 -0.5813 -0.0654
  165MPD2    C1 2513   0.589   4.636   1.694 -0.2509  0.2525  0.2786
  165MPD2    C2 2514   0.724   4.673   1.672  0.1459  0.3802  0.1589
  165MPD2    C3 2515   0.779   0.068   1.724 -1.0733  1.3703  0.0091
  165MPD2    C4 2516   0.687   0.151   1.789 -0.1947 -0.2988  0.4319
  165MPD2    C5 2517   0.557   0.115   1.805  0.5785 -0.9480 -0.2664
  165MPD2     H 2518   0.782   4.594   1.626  1.1197 -1.0039  3.8236
  165MPD2    H1 2519   0.720   0.244   1.835  0.4519  0.2447 -1.1247
  165MPD2    H2 2520   0.404   4.686   1.765 -0.4652  0.2617 -2.3575
  165MPD2    H3 2521   0.487   0.180   1.855  0.3478 -1.1029 -0.3872
  165MPD2     N 2522   0.915   0.103   1.713 -0.8058  0.5666  0.3148
  165MPD2    H5 2523   0.950   0.180   1.768 -1.5922  0.6026  0.7588
  165MPD2    N1 2524   0.535   4.511   1.663 -0.1647 -0.7777 -0.3446
  165MPD2    H7 2525   0.435   4.512   1.678  0.2935 -0.4261  2.6248
  166TCq2    C1 2526   1.003   0.027   1.645  0.9370 -0.8560  0.0626
  166TCq2    O2 2527   0.993   4.665   1.558 -0.4637  0.2048 -0.0032
  166TCq2    C2 2528   1.132   0.081   1.672 -0.7388  0.8037  0.7879
  166TCq2    C3 2529   1.162   0.145   1.793 -0.1556  0.0387  0.1312
  166TCq2    C4 2530   1.290   0.203   1.809  0.0230  0.2266  0.8634
  166TCq2    C5 2531   1.381   0.179   1.713 -0.4004  0.0206  0.0717
  166TCq2    C6 2532   1.356   0.101   1.604 -0.8577  0.4837  0.4566
  166TCq2    C7 2533   1.224   0.058   1.577 -0.0143  0.0634 -0.1682
  166TCq2    C8 2534   1.470   0.040   1.530 -0.1059  0.3429 -0.8870
  166TCq2    O4 2535   1.587   0.071   1.544 -0.5634  0.8964  0.0831
  166TCq2    C9 2536   1.328   0.269   1.926 -0.1386 -0.0543  0.5464
  166TCq2    O5 2537   1.266   0.242   2.032  0.2630 -0.8978  0.0940
  166TCq2    O6 2538   1.440   0.328   1.925  0.0943  0.8145  0.7006
  166TCq2    H2 2539   1.090   0.151   1.874  0.3312  2.4725  0.3985
  166TCq2    H3 2540   1.482   0.202   1.742 -0.7002  0.3328  0.8547
  166TCq2    H4 2541   1.203   4.727   1.488  2.4887  1.8337 -1.9406
  167TMC2    C1 2542   0.417   1.387  12.693 -0.3230  0.3269 -0.8797
  167TMC2    C2 2543   0.332   1.458  12.773 -0.4978 -0.5521 -0.2001
  167TMC2    C3 2544   0.253   1.392  12.857  0.0885 -0.1048  0.0102
  167TMC2    C4 2545   0.438   1.252  12.709  0.4835 -0.0947  0.6222
  167TMC2    C5 2546   0.374   1.187  12.810  0.0902 -0.5304 -0.4921
  167TMC2    C6 2547   0.282   1.260  12.877 -0.5814  0.4194 -0.4444
  167TMC2     C 2548   0.480   1.457  12.582 -0.2955 -0.1559 -0.1820
  167TMC2     O 2549   0.471   1.578  12.594  0.8122  0.3406  0.1180
  167TMC2     H 2550   0.322   1.565  12.757  1.1293 -0.3877 -0.0677
  167TMC2    H1 2551   0.513   1.196  12.655 -0.9254 -0.8495 -0.5468
  167TMC2    H2 2552   0.232   1.224  12.967 -1.8115 -0.0208 -1.3095
  167TMC2    C7 2553   0.342   1.042  12.803  0.6959  0.0807  0.0590
  167TMC2    C8 2554   0.221   1.463  12.983 -0.3426 -0.0436  0.3702
  167TMC2    O1 2555   0.303   0.990  12.905 -1.1391  0.9859 -0.1300
  167TMC2    O2 2556   0.252   1.421  13.093  0.4356  0.7517  0.1172
  167TMC2    O5 2557   0.161   1.573  12.952  0.0279  0.4124 -0.7397
  167TMC2    H5 2558   0.135   1.566  12.858 -0.9677 -1.7841 -0.2964
  168MPD2     C 2559   0.633   1.564  12.349  0.3912 -0.4440  0.0946
  168MPD2    C1 2560   0.594   1.434  12.361  0.1843  0.5919  0.3039
  168MPD2    C2 2561   0.622   1.340  12.259 -0.3235 -0.2063 -0.6354
  168MPD2    C3 2562   0.655   1.383  12.135  0.6269  0.2865  0.8695
  168MPD2    C4 2563   0.655   1.521  12.113 -0.3736  0.1779  0.6282
  168MPD2    C5 2564   0.654   1.607  12.223  0.5200 -0.4188  0.3985
  168MPD2     H 2565   0.589   1.239  12.277  0.1087 -0.5252 -1.6247
  168MPD2    H1 2566   0.670   1.546  12.009 -1.1071 -2.0316 -0.0163
  168MPD2    H2 2567   0.617   1.634  12.430  1.6384 -1.5808  1.3211
  168MPD2    H3 2568   0.669   1.714  12.213 -0.3788 -0.0643  2.6786
  168MPD2     N 2569   0.654   1.296  12.020 -0.4008 -0.5075 -0.0223
  168MPD2    H5 2570   0.649   1.330  11.925 -0.2443 -0.1563  0.0929
  168MPD2    N1 2571   0.533   1.384  12.483  0.1123  0.2416 -0.3460
  168MPD2    H7 2572   0.493   1.291  12.483  0.0994  0.2529  0.5368
  169MPD1     C 2573   3.828   4.538   8.882 -0.4009 -0.0523  0.1140
  169MPD1    C1 2574   3.741   4.488   8.978  0.1066 -0.2419 -0.4656
  169MPD1    C2 2575   3.676   4.569   9.058 -0.7128  0.2539 -0.0650
  169MPD1    C3 2576   3.718   4.701   9.077  0.7803  0.7203  0.5549
  169MPD1    C4 2577   3.812   0.022   8.991  0.3331 -0.1186  0.2983
  169MPD1    C5 2578   3.861   4.674   8.886 -0.0256  0.6976  0.0692
  169MPD1     H 2579   3.605   4.515   9.119 -0.3663  2.3290  2.1740
  169MPD1    H1 2580   3.854   0.120   9.011 -1.6305  1.0405 -1.3029
  169MPD1    H2 2581   3.880   4.478   8.808  1.0072 -0.1799  1.2205
  169MPD1    H3 2582   3.934   4.707   8.814 -0.4770 -1.2290 -1.2853
  169MPD1     N 2583   3.667   0.047   9.192 -0.1383 -0.0982  0.1112
  169MPD1    H5 2584   3.627   4.715   9.265 -0.0665 -1.5426 -1.0126
  169MPD1    N1 2585   3.700   4.354   8.965 -0.0309 -0.1421  0.1931
  169MPD1    H6 2586   3.773   4.301   8.918 -0.2535  0.5891 -0.9655
  169MPD1    H7 2587   3.668   4.312   9.052  0.5901 -0.2873  0.3501
  170MPD1     C 2588   4.718   3.236  13.011  0.0251  0.2913  0.3203
  170MPD1    C1 2589   4.668   3.257  13.138  0.2189 -0.4732 -0.5206
  170MPD1    C2 2590   0.026   3.318  13.229 -0.5628 -0.1966 -0.0150
  170MPD1    C3 2591   0.148   3.374  13.189  0.4780 -0.1061  0.4520
  170MPD1    C4 2592   0.189   3.350  13.058  0.4335  0.0422 -0.3883
  170MPD1    C5 2593   0.112   3.277  12.976  0.4386 -0.9324  0.0462
  170MPD1     H 2594   4.725   3.344  13.331  0.0890 -1.1731  0.4237
  170MPD1    H1 2595   0.285   3.381  13.019  0.1380  2.5851  0.9444
  170MPD1    H2 2596   4.654   3.185  12.940  1.5526  2.0821 -2.3806
  170MPD1    H3 2597   0.133   3.279  12.869 -0.3769  0.7487 -0.0904
  170MPD1     N 2598   0.239   3.423  13.289 -0.2062  0.0693  0.2381
  170MPD1    H5 2599   0.219   3.404  13.386  1.1613  0.1457  0.5336
  170MPD1    N1 2600   4.549   3.193  13.176  0.3156  0.1576  0.2153
  170MPD1    H6 2601   4.492   3.227  13.253  0.0974 -1.3606  0.7201
  170MPD1    H7 2602   4.491   3.186  13.093 -0.4820  2.1712  0.6091
  171MPD1     C 2603   4.012   0.103  15.336  0.0369  0.0466 -0.3078
  171MPD1    C1 2604   4.123   0.023  15.313 -0.1208  0.6741 -0.4328
  171MPD1    C2 2605   4.151   4.663  15.419 -0.5825  0.5108  0.0739
  171MPD1    C3 2606   4.094   4.665  15.542  0.5001  0.0753 -0.0874
  171MPD1    C4 2607   3.991   0.028  15.560 -0.1775 -0.1723  0.3712
  171MPD1    C5 2608   3.945   0.103  15.451  0.5232  0.4245 -0.6224
  171MPD1     H 2609   4.228   4.591  15.394 -1.5466 -0.9159  1.2656
  171MPD1    H1 2610   3.946   0.037  15.658  0.1802  0.6648  0.4579
  171MPD1    H2 2611   3.975   0.172  15.261 -4.3551 -1.5892  0.3242
  171MPD1    H3 2612   3.863   0.171  15.470  2.1651  2.0131  0.8062
  171MPD1     N 2613   4.138   4.577  15.647  0.1253 -0.6611  0.7604
  171MPD1    H5 2614   4.072   4.585  15.725 -1.0027 -0.0154 -0.2512
  171MPD1    N1 2615   4.181   0.013  15.183 -0.6597 -0.5234  0.6975
  171MPD1    H6 2616   4.157   0.096  15.129 -0.1351 -1.1666 -0.5153
  171MPD1    H7 2617   4.279   4.715  15.176 -0.9667 -1.4019 -0.4082
  172MPD1     C 2618   2.660   3.631   0.126 -0.3152  0.4069  0.5269
  172MPD1    C1 2619   2.610   3.737   0.202  0.4280 -0.0385 -0.0030
  172MPD1    C2 2620   2.689   3.836   0.247  0.9024  0.2258  0.7290
  172MPD1    C3 2621   2.828   3.839   0.223  0.0286 -0.1516  0.4239
  172MPD1    C4 2622   2.882   3.735   0.147  0.3261  0.4617 -0.1881
  172MPD1    C5 2623   2.795   3.632   0.105 -0.2478 -0.5132  0.5226
  172MPD1     H 2624   2.636   3.913   0.301 -1.1900 -0.4935 -0.3056
  172MPD1    H1 2625   2.986   3.726   0.116  0.7074 -0.0784  1.2155
  172MPD1    H2 2626   2.594   3.565   0.070  1.6291 -0.0511 -1.2208
  172MPD1    H3 2627   2.837   3.547   0.053 -0.5001 -0.4711  0.2506
  172MPD1     N 2628   2.909   3.948   0.260 -0.4034  0.0996  0.6878
  172MPD1    H5 2629   3.009   3.932   0.250 -0.6318 -0.8642 -0.0086
  172MPD1    N1 2630   2.468   3.755   0.203 -0.2496 -0.2845  0.1665
  172MPD1    H6 2631   2.421   3.667   0.186  2.9453 -2.0495  0.5317
  172MPD1    H7 2632   2.450   3.782   0.300  1.9689 -0.8200  0.7158
  173MPD1     C 2633   4.145   4.098  13.772  0.3286  0.0773 -0.0447
  173MPD1    C1 2634   4.111   4.084  13.901 -0.5104  0.2121  0.3052
  173MPD1    C2 2635   4.208   4.055  13.990 -0.4435  0.4344  0.4924
  173MPD1    C3 2636   4.343   4.056  13.955  0.1852 -0.2940  0.3048
  173MPD1    C4 2637   4.376   4.080  13.822  0.3428 -0.5928  0.7967
  173MPD1    C5 2638   4.277   4.094  13.734  0.1977  0.3710 -0.0696
  173MPD1     H 2639   4.170   4.038  14.090 -0.3417 -0.5313  0.3713
  173MPD1    H1 2640   4.476   4.063  13.783 -0.0678 -1.9095  0.3502
  173MPD1    H2 2641   4.066   4.126  13.704 -1.2304  1.5532  2.4139
  173MPD1    H3 2642   4.293   4.103  13.627  1.9464 -1.5968  0.0359
  173MPD1     N 2643   4.437   4.017  14.050  0.5045 -0.5851 -0.1340
  173MPD1    H5 2644   4.394   3.978  14.134  3.5893 -3.6354  0.0190
  173MPD1    N1 2645   3.976   4.079  13.941 -0.3964 -0.2243 -0.2090
  173MPD1    H6 2646   3.915   4.148  13.899 -1.1379 -0.8156 -0.0883
  173MPD1    H7 2647   3.963   4.081  14.042  0.7412 -0.9873 -0.0396
  174MPD1     C 2648   0.627   3.557  14.033  0.0371 -0.9933 -0.3866
  174MPD1    C1 2649   0.546   3.504  14.125  0.4052 -0.3361  0.2779
  174MPD1    C2 2650   0.420   3.561  14.148  0.4241  0.5062  0.4691
  174MPD1    C3 2651   0.388   3.678  14.082  0.3380  0.0194 -0.5797
  174MPD1    C4 2652   0.479   3.735  13.995  0.0309 -0.3681 -0.2176
  174MPD1    C5 2653   0.598   3.675  13.971 -0.3485  0.3175  0.2040
  174MPD1     H 2654   0.359   3.500  14.213  2.0124 -0.3891  1.1181
  174MPD1    H1 2655   0.474   3.836  13.956 -0.5003 -0.8073 -1.2762
  174MPD1    H2 2656   0.727   3.517  14.025  0.8278  0.9482 -0.3426
  174MPD1    H3 2657   0.671   3.720  13.905 -2.6119  0.4708 -2.1498
  174MPD1     N 2658   0.264   3.744  14.117 -0.0782 -0.3209 -0.0835
  174MPD1    H5 2659   0.256   3.837  14.077 -0.6234 -0.6050 -0.6324
  174MPD1    N1 2660   0.586   3.391  14.197  0.5597  0.2309 -0.3013
  174MPD1    H6 2661   0.606   3.320  14.126 -1.4391 -0.3086 -0.3235
  174MPD1    H7 2662   0.509   3.355  14.254 -0.0307  2.5489  0.3568
  175MPD1     C 2663   3.208   0.442  15.396  0.3678  0.2108  0.9201
  175MPD1    C1 2664   3.145   0.506  15.500  0.0660  0.3816 -0.0867
  175MPD1    C2 2665   3.082   0.433  15.598 -0.1582 -0.2332 -0.2204
  175MPD1    C3 2666   3.077   0.293  15.593 -0.1110 -0.0093 -1.0705
  175MPD1    C4 2667   3.128   0.237  15.482  0.2229  0.8814  0.0254
  175MPD1    C5 2668   3.192   0.307  15.382  0.2997 -0.7579  0.0985
  175MPD1     H 2669   3.046   0.483  15.688 -0.9724  0.4492 -0.9188
  175MPD1    H1 2670   3.115   0.129  15.487 -0.2855  0.9249 -0.4086
  175MPD1    H2 2671   3.256   0.495  15.314 -2.7364  0.0402 -1.0146
  175MPD1    H3 2672   3.242   0.252  15.303  1.5922  0.7686 -0.1468
  175MPD1     N 2673   3.026   0.206  15.691  0.3968 -0.0579  0.8382
  175MPD1    H5 2674   3.034   0.105  15.680 -1.8978 -0.2003  0.4448
  175MPD1    N1 2675   3.162   0.638  15.516  0.1957  0.4233 -0.1550
  175MPD1    H6 2676   3.068   0.676  15.526  0.7834  1.7060  0.4912
  175MPD1    H7 2677   3.213   0.674  15.436  1.8534 -2.6191 -0.5025
  176MPD1     C 2678   3.789   2.688  17.172 -0.3016  0.6502  0.2711
  176MPD1    C1 2679   3.914   2.754  17.189  0.1114  0.1328 -0.1366
  176MPD1    C2 2680   4.017   2.674  17.233 -0.0758 -0.1616 -0.0222
  176MPD1    C3 2681   3.997   2.539  17.261  0.4203 -0.0043 -0.0259
  176MPD1    C4 2682   3.871   2.487  17.248 -0.0296  0.1269 -0.9406
  176MPD1    C5 2683   3.767   2.555  17.200 -0.1626  0.3095  0.1698
  176MPD1     H 2684   4.116   2.717  17.246 -0.0993 -0.2384  0.3924
  176MPD1    H1 2685   3.858   2.379  17.251  1.8505 -0.0471  0.7914
  176MPD1    H2 2686   3.703   2.739  17.130  0.0430  1.9953  1.2143
  176MPD1    H3 2687   3.675   2.504  17.177 -0.2387  1.2159 -1.5084
  176MPD1     N 2688   4.111   2.454  17.286 -0.4050  0.8413 -0.8185
  176MPD1    H5 2689   4.193   2.513  17.299  0.3283 -0.5621  0.8902
  176MPD1    N1 2690   3.946   2.880  17.132  0.3028 -0.0052 -0.3819
  176MPD1    H6 2691   4.025   2.912  17.187 -0.7787 -0.7892  1.6585
  176MPD1    H7 2692   3.869   2.946  17.129 -0.3618 -0.6908  1.5034
  177MPD1     C 2693   2.783   0.905  10.161  0.2823 -0.4077  0.2566
  177MPD1    C1 2694   2.745   0.894  10.030  0.0334  0.2710  0.1335
  177MPD1    C2 2695   2.825   0.949   9.935  0.0916  0.4666  1.1102
  177MPD1    C3 2696   2.955   0.999   9.970 -1.1252 -0.1207  0.1259
  177MPD1    C4 2697   2.992   1.005  10.105 -0.3338  0.0532 -0.5373
  177MPD1    C5 2698   2.901   0.963  10.197 -0.0249  0.2051  0.0745
  177MPD1     H 2699   2.795   0.945   9.831  2.1995  1.5509  0.4737
  177MPD1    H1 2700   3.089   1.036  10.142  1.3716 -2.3188 -3.1020
  177MPD1    H2 2701   2.715   0.874  10.240  0.3455 -0.8242  0.1431
  177MPD1    H3 2702   2.920   0.964  10.304 -1.7936  1.4108  0.3721
  177MPD1     N 2703   3.031   1.047   9.866 -0.3448 -0.2029  0.2016
  177MPD1    H5 2704   2.986   1.039   9.776  1.2238 -1.6262 -0.4630
  177MPD1    N1 2705   2.612   0.866  10.001 -0.7325  0.2656 -0.4407
  177MPD1    H6 2706   2.590   0.835   9.906  3.3626  1.4329 -1.7892
  177MPD1    H7 2707   2.580   0.801  10.072 -0.2918  2.3947  1.6651
  178MPD1     C 2708   1.390   2.143   0.350 -0.1907 -0.2766  0.0604
  178MPD1    C1 2709   1.281   2.227   0.350 -0.1518  0.4730 -0.7871
  178MPD1    C2 2710   1.267   2.298   0.234  0.0004  0.8285  0.1190
  178MPD1    C3 2711   1.348   2.274   0.121 -0.7504  0.2058 -0.4100
  178MPD1    C4 2712   1.464   2.195   0.132 -0.2984  0.1393  0.2248
  178MPD1    C5 2713   1.487   2.126   0.249  0.1946  0.7543 -0.2206
  178MPD1     H 2714   1.182   2.365   0.221 -0.3067  0.7343  1.6816
  178MPD1    H1 2715   1.534   2.191   0.050 -1.0537 -0.7624 -0.3639
  178MPD1    H2 2716   1.402   2.093   0.446  0.5613  1.0162  0.6509
  178MPD1    H3 2717   1.573   2.060   0.255 -1.0143 -0.9398 -1.9063
  178MPD1     N 2718   1.322   2.328  17.704 -0.6871  0.0878  1.1296
  178MPD1    H5 2719   1.392   2.334  17.631 -0.1734 -0.2034  1.6067
  178MPD1    N1 2720   1.191   2.232   0.454  0.6869  0.2896  0.3986
  178MPD1    H6 2721   1.234   2.218   0.545  0.5248  0.3420  0.4828
  178MPD1    H7 2722   1.126   2.311   0.454  0.2886 -0.0376  0.5144
  179MPD1     C 2723   0.903   0.583  15.147  0.3128  0.4107  0.3227
  179MPD1    C1 2724   0.779   0.611  15.104  0.2136  0.0483  0.1842
  179MPD1    C2 2725   0.692   0.683  15.183  0.5417 -0.6148 -0.4784
  179MPD1    C3 2726   0.719   0.705  15.316 -1.0788 -0.6759 -0.0371
  179MPD1    C4 2727   0.852   0.676  15.361 -0.4637 -0.7207  0.0453
  179MPD1    C5 2728   0.934   0.617  15.272 -0.3942 -0.3210 -0.4713
  179MPD1     H 2729   0.597   0.709  15.139  1.7140  1.3974 -1.8340
  179MPD1    H1 2730   0.883   0.683  15.465  0.0531  0.6050 -0.2024
  179MPD1    H2 2731   0.971   0.527  15.083 -1.9415  0.0016 -1.7101
  179MPD1    H3 2732   1.034   0.586  15.299 -1.4683 -2.2720  1.2203
  179MPD1     N 2733   0.632   0.767  15.408 -0.3115  0.0914  0.3616
  179MPD1    H5 2734   0.673   0.771  15.501 -1.3725  2.1983  0.7514
  179MPD1    N1 2735   0.737   0.576  14.977 -0.2891  0.4113  0.0840
  179MPD1    H6 2736   0.647   0.611  14.945 -0.8490  0.5195  1.7996
  179MPD1    H7 2737   0.814   0.605  14.917 -0.8612  0.7012 -0.5130
  180MPD1     C 2738   4.562   2.182  13.220 -0.7214  0.2874  0.0310
  180MPD1    C1 2739   4.697   2.207  13.238 -0.0432  0.1796 -0.5282
  180MPD1    C2 2740   0.027   2.174  13.362 -0.4711  0.1966  0.0324
  180MPD1    C3 2741   4.680   2.133  13.474  0.0026  0.0546 -0.2554
  180MPD1    C4 2742   4.543   2.138  13.457 -0.2038  0.1406  0.2763
  180MPD1    C5 2743   4.486   2.162  13.335  0.3312  0.5486  0.8244
  180MPD1     H 2744   0.134   2.182  13.369 -0.3401 -1.8766  0.1983
  180MPD1    H1 2745   4.488   2.107  13.544  0.0552 -0.9759  0.0501
  180MPD1    H2 2746   4.513   2.190  13.124  1.3699  3.7086 -0.7668
  180MPD1    H3 2747   4.378   2.153  13.328  0.3258  0.8876  0.4443
  180MPD1     N 2748   0.018   2.104  13.598  0.4673 -0.7110 -0.3065
  180MPD1    H5 2749   0.119   2.088  13.599  0.1623 -2.6084 -0.5116
  180MPD1    N1 2750   0.048   2.223  13.121  0.0959 -0.5889  0.4666
  180MPD1    H6 2751   0.132   2.271  13.153 -0.0113  0.8569 -1.4563
  180MPD1    H7 2752   0.009   2.267  13.038  1.8608 -0.2301 -0.1777
  181MPD1     C 2753   2.640   3.283   9.735 -0.4086 -0.4698 -0.4622
  181MPD1    C1 2754   2.673   3.420   9.761  0.1835  0.1897 -0.0198
  181MPD1    C2 2755   2.786   3.452   9.838 -0.0831  0.1678  0.5260
  181MPD1    C3 2756   2.875   3.348   9.872  0.4323  0.4328 -0.4615
  181MPD1    C4 2757   2.844   3.221   9.828  0.1337  0.1308 -0.0623
  181MPD1    C5 2758   2.732   3.185   9.753  0.0679  0.4824  0.6067
  181MPD1     H 2759   2.801   3.555   9.865  0.2578  0.0812  0.6654
  181MPD1    H1 2760   2.927   3.153   9.841  0.3881  0.5315  0.3878
  181MPD1    H2 2761   2.553   3.249   9.681 -0.6375  0.7740 -0.8816
  181MPD1    H3 2762   2.712   3.086   9.714 -1.1408  0.2902  1.7122
  181MPD1     N 2763   3.003   3.367   9.938  0.3729  0.0197  0.3921
  181MPD1    H5 2764   3.063   3.286   9.945 -0.7353 -0.9861 -1.8849
  181MPD1    N1 2765   2.572   3.518   9.736  0.0937  0.2666  0.3772
  181MPD1    H6 2766   2.601   3.615   9.729 -2.0724  0.8287 -0.6106
  181MPD1    H7 2767   2.529   3.492   9.647 -0.0542  3.8945 -0.5852
  182MPD1     C 2768   2.861   3.433   1.789  1.1480  0.0180 -0.1985
  182MPD1    C1 2769   2.849   3.573   1.781  0.5165 -0.0009  0.2075
  182MPD1    C2 2770   2.750   3.624   1.695  0.0929 -0.7547 -0.0032
  182MPD1    C3 2771   2.680   3.540   1.614 -0.4909 -0.2776  0.1671
  182MPD1    C4 2772   2.709   3.403   1.613  0.0534  0.2408  0.5246
  182MPD1    C5 2773   2.794   3.352   1.707 -0.5896  0.8190 -0.7641
  182MPD1     H 2774   2.722   3.728   1.701  1.3307 -0.4520  0.4845
  182MPD1    H1 2775   2.668   3.334   1.541 -1.7454 -0.4377  2.1960
  182MPD1    H2 2776   2.923   3.388   1.866  0.2573  0.4899  0.7887
  182MPD1    H3 2777   2.801   3.244   1.718  1.4516  1.0596  0.2556
  182MPD1     N 2778   2.571   3.576   1.528  0.3820 -0.8808 -0.1340
  182MPD1    H5 2779   2.508   3.507   1.489 -1.9915  1.1518  0.1068
  182MPD1    N1 2780   2.919   3.650   1.882 -0.8128  0.0541  0.2330
  182MPD1    H6 2781   3.011   3.616   1.907 -0.8925 -0.5046 -0.2402
  182MPD1    H7 2782   2.929   3.747   1.853  0.8532  0.6205  2.7010
  183MPD1     C 2783   2.932   3.130   9.098  0.3538 -0.3246  0.8453
  183MPD1    C1 2784   3.042   3.064   9.159 -0.1161  1.6290  0.1315
  183MPD1    C2 2785   3.138   3.151   9.209  0.4253  0.1775  0.0566
  183MPD1    C3 2786   3.138   3.278   9.183  0.9117  0.0899 -0.4085
  183MPD1    C4 2787   3.037   3.341   9.113  0.5783  0.1823  0.0768
  183MPD1    C5 2788   2.933   3.267   9.078 -0.0771 -0.9726 -0.1809
  183MPD1     H 2789   3.219   3.117   9.272 -0.4804 -1.0147  0.5864
  183MPD1    H1 2790   3.035   3.445   9.083 -2.1184  0.3833  0.9401
  183MPD1    H2 2791   2.841   3.079   9.071  0.8694 -0.2678 -1.0026
  183MPD1    H3 2792   2.853   3.309   9.019  0.5026  0.7037  0.2277
  183MPD1     N 2793   3.247   3.350   9.235 -0.5436 -0.7136  0.8107
  183MPD1    H5 2794   3.318   3.293   9.280  0.4182 -1.0868 -1.1891
  183MPD1    N1 2795   3.038   2.927   9.192 -0.2608 -0.2024  0.1474
  183MPD1    H6 2796   2.988   2.868   9.125 -1.9623  2.0941 -0.5893
  183MPD1    H7 2797   3.133   2.892   9.205 -1.4455 -1.9695  3.9573
  184MPD1     C 2798   1.625   1.029  10.037 -0.0510  0.3974  0.1006
  184MPD1    C1 2799   1.732   1.108  10.069  0.6797 -0.1683 -0.6514
  184MPD1    C2 2800   1.845   1.097   9.990 -0.3297 -0.3145  0.2757
  184MPD1    C3 2801   1.848   0.993   9.894  0.3788 -0.1904 -0.4391
  184MPD1    C4 2802   1.739   0.921   9.861  0.3458 -0.7086 -0.6906
  184MPD1    C5 2803   1.630   0.932   9.940 -0.5972  0.1415 -0.3440
  184MPD1     H 2804   1.929   1.163  10.004  0.6280 -1.4525 -0.1615
  184MPD1    H1 2805   1.751   0.856   9.775  0.3569 -3.4736  1.3705
  184MPD1    H2 2806   1.524   1.035  10.075 -0.4587  2.0234 -1.2575
  184MPD1    H3 2807   1.542   0.878   9.908 -0.7874  1.3868 -1.8990
  184MPD1     N 2808   1.966   0.974   9.818  0.3894 -0.6268  1.0868
  184MPD1    H5 2809   1.974   0.886   9.768 -1.2049  0.0314 -0.3097
  184MPD1    N1 2810   1.714   1.218  10.154 -0.1350 -0.5472 -0.0791
  184MPD1    H6 2811   1.648   1.197  10.228 -0.3872 -4.0834 -1.3168
  184MPD1    H7 2812   1.797   1.256  10.201  0.5211 -0.8968 -0.9467
  185MPD1     C 2813   2.306   0.631   8.937  0.9135 -0.1266  0.0101
  185MPD1    C1 2814   2.211   0.582   9.023  0.5599  0.0877 -0.3987
  185MPD1    C2 2815   2.198   0.641   9.146 -0.3121  0.6160 -0.6431
  185MPD1    C3 2816   2.286   0.743   9.190 -0.1384  0.7319 -0.8296
  185MPD1    C4 2817   2.385   0.787   9.100 -0.2027  0.0555 -0.2775
  185MPD1    C5 2818   2.386   0.735   8.971  0.4677  0.4799  0.3283
  185MPD1     H 2819   2.129   0.590   9.212  1.8961 -0.7238  0.6042
  185MPD1    H1 2820   2.444   0.871   9.136  1.3296 -1.2584  0.2655
  185MPD1    H2 2821   2.323   0.583   8.841  3.5885  0.4880  0.1651
  185MPD1    H3 2822   2.474   0.749   8.909  1.4575 -0.4895  1.5140
  185MPD1     N 2823   2.287   0.808   9.317 -0.3569  0.3059 -0.0664
  185MPD1    H5 2824   2.346   0.889   9.334  1.7263 -1.3344  0.5305
  185MPD1    N1 2825   2.118   0.494   8.977  0.1263 -0.1625  0.3094
  185MPD1    H6 2826   2.087   0.435   9.054 -2.5442  1.8553  0.7729
  185MPD1    H7 2827   2.156   0.424   8.913  0.3072 -0.8223  1.1429
  186MPD1     C 2828   0.714   0.638  15.890 -0.2738 -0.2463 -0.4618
  186MPD1    C1 2829   0.769   0.746  15.824 -0.0587  0.5557 -0.0392
  186MPD1    C2 2830   0.778   0.867  15.890 -0.5611 -0.0497  0.0824
  186MPD1    C3 2831   0.765   0.872  16.032  0.4077  0.2724 -0.2349
  186MPD1    C4 2832   0.719   0.756  16.094  0.0241  0.5101  0.4367
  186MPD1    C5 2833   0.683   0.646  16.022 -0.0821 -0.6206 -0.2253
  186MPD1     H 2834   0.804   0.956  15.834  0.3204 -1.0998 -1.1962
  186MPD1    H1 2835   0.703   0.755  16.201  1.0486  0.8848  0.5904
  186MPD1    H2 2836   0.673   0.557  15.830  0.1120 -1.1314  0.4781
  186MPD1    H3 2837   0.628   0.559  16.055 -0.5468 -0.4825 -0.6216
  186MPD1     N 2838   0.800   0.980  16.127  0.3333  0.1699  0.1364
  186MPD1    H5 2839   0.809   0.961  16.227  0.4439 -0.7865 -0.0518
  186MPD1    N1 2840   0.781   0.743  15.683  0.0652  1.1156 -0.5106
  186MPD1    H6 2841   0.850   0.809  15.649  1.6065  0.8394  2.1583
  186MPD1    H7 2842   0.811   0.652  15.649 -0.2826  0.0610  2.0110
  187MPD1     C 2843   4.444   3.516   0.087  0.4924 -0.3287  0.4305
  187MPD1    C1 2844   4.358   3.432   0.009 -0.3148 -0.2908  0.0203
  187MPD1    C2 2845   4.417   3.333  17.643 -0.0751  0.4129 -0.0077
  187MPD1    C3 2846   4.553   3.330  17.634  0.1313  0.3111  0.4831
  187MPD1    C4 2847   4.636   3.404  17.707 -0.4649 -0.3198 -0.2527
  187MPD1    C5 2848   4.581   3.499   0.077 -0.1104  0.3204  0.1537
  187MPD1     H 2849   4.361   3.262  17.583  2.2883  0.6605 -2.5023
  187MPD1    H1 2850   0.016   3.396  17.697 -0.8664 -2.8329 -2.5873
  187MPD1    H2 2851   4.404   3.581   0.164  0.1482  0.5254 -0.4694
  187MPD1    H3 2852   4.643   3.571   0.129  0.5478  1.2351 -1.8865
  187MPD1     N 2853   4.629   3.243  17.543  1.2302 -0.6084  0.1456
  187MPD1    H5 2854   0.003   3.249  17.545  1.4615 -4.0795 -0.6190
  187MPD1    N1 2855   4.218   3.432   0.010  0.4931  0.7241 -0.1696
  187MPD1    H6 2856   4.176   3.519   0.041 -0.4856 -0.4892  1.8831
  187MPD1    H7 2857   4.174   3.407  17.632  0.2865  1.4302 -0.2693
  188MPD1     C 2858   1.150   2.360   9.378 -0.1864  0.3280 -0.1148
  188MPD1    C1 2859   1.095   2.290   9.270 -0.2403 -0.2179 -0.3886
  188MPD1    C2 2860   1.020   2.175   9.290  0.2743 -0.1726  0.2451
  188MPD1    C3 2861   1.000   2.132   9.419  0.8065 -0.0263 -0.2633
  188MPD1    C4 2862   1.059   2.197   9.526 -0.5394 -0.1908 -0.2934
  188MPD1    C5 2863   1.126   2.314   9.509  0.4637 -0.0743 -0.6630
  188MPD1     H 2864   0.975   2.127   9.204  1.2381 -0.5782 -0.0376
  188MPD1    H1 2865   1.039   2.162   9.627 -1.4957  0.0710 -0.3921
  188MPD1    H2 2866   1.194   2.458   9.362 -0.1091  0.2889 -0.1383
  188MPD1    H3 2867   1.147   2.380   9.593 -2.1052  1.4639 -1.2228
  188MPD1     N 2868   0.913   2.025   9.452  0.0807 -0.2947 -0.4040
  188MPD1    H5 2869   0.915   1.989   9.547 -0.7787 -0.4589 -0.4496
  188MPD1    N1 2870   1.096   2.350   9.142 -0.2527 -0.2616 -0.2358
  188MPD1    H6 2871   1.180   2.407   9.131 -0.4063  0.3224  1.6211
  188MPD1    H7 2872   1.095   2.285   9.063  0.9123  1.1838 -1.4320
  189MPD1     C 2873   1.838   3.222   0.497 -0.3404  0.4558 -0.1704
  189MPD1    C1 2874   1.731   3.188   0.579 -0.1804 -0.3064  0.4562
  189MPD1    C2 2875   1.619   3.280   0.579  0.0871 -0.0258  0.6964
  189MPD1    C3 2876   1.606   3.388   0.495 -0.3897 -0.4781  1.0145
  189MPD1    C4 2877   1.719   3.421   0.423 -0.3373  0.1612 -0.4190
  189MPD1    C5 2878   1.827   3.341   0.427  0.7287 -0.2450 -0.0053
  189MPD1     H 2879   1.535   3.246   0.638 -0.6847 -0.9525 -0.9340
  189MPD1    H1 2880   1.729   3.504   0.353 -1.0970  1.9115  1.5330
  189MPD1    H2 2881   1.925   3.157   0.490  0.3759  1.6397 -2.3084
  189MPD1    H3 2882   1.921   3.365   0.379  1.4584 -0.7875  1.1329
  189MPD1     N 2883   1.473   3.447   0.486 -0.1352 -0.1520 -0.2940
  189MPD1    H5 2884   1.406   3.401   0.546 -0.0727  0.4583  0.2401
  189MPD1    N1 2885   1.733   3.070   0.658 -0.5282  0.4277 -0.3412
  189MPD1    H6 2886   1.638   3.034   0.657  0.4182 -2.1258  0.4262
  189MPD1    H7 2887   1.813   3.011   0.634 -0.5566  0.6092 -0.8670
  190MPD1     C 2888   0.469   2.409  15.059  0.4147 -0.5471  0.4315
  190MPD1    C1 2889   0.565   2.315  15.013 -0.0228  1.0785 -0.6671
  190MPD1    C2 2890   0.610   2.224  15.111  0.2649  0.4301 -0.5134
  190MPD1    C3 2891   0.576   2.237  15.242 -0.3219 -0.4213  0.2837
  190MPD1    C4 2892   0.475   2.326  15.282 -0.0093  0.2197 -0.4180
  190MPD1    C5 2893   0.412   2.404  15.185 -0.0948 -0.5726 -0.0104
  190MPD1     H 2894   0.680   2.148  15.078  0.4127 -1.1222  3.3760
  190MPD1    H1 2895   0.442   2.337  15.384  3.8495  0.2957  0.8173
  190MPD1    H2 2896   0.422   2.478  14.991  0.5849 -1.6657 -0.8150
  190MPD1    H3 2897   0.334   2.475  15.210  0.4000  0.2628 -0.8341
  190MPD1     N 2898   0.649   2.162  15.332  0.4276 -0.7872  0.2761
  190MPD1    H5 2899   0.721   2.103  15.291  2.5990  2.7291 -0.9138
  190MPD1    N1 2900   0.581   2.285  14.879 -0.2081  0.5311  1.2498
  190MPD1    H6 2901   0.589   2.361  14.812 -2.1743  0.1234  0.5319
  190MPD1    H7 2902   0.663   2.227  14.864 -1.5295 -1.2072  0.5915
  191MPD1     C 2903   4.689   3.163  12.481  0.3725  0.0573 -0.0006
  191MPD1    C1 2904   4.693   3.105  12.354 -0.6155 -0.3228 -0.5271
  191MPD1    C2 2905   0.034   3.166  12.253  0.3223  0.2976 -0.0532
  191MPD1    C3 2906   0.099   3.284  12.273  0.3103 -0.1654  0.2118
  191MPD1    C4 2907   0.099   3.343  12.399  0.3148 -0.1677 -0.1092
  191MPD1    C5 2908   0.032   3.278  12.502  0.2469 -0.0421  0.2589
  191MPD1     H 2909   0.039   3.120  12.155  1.0915  0.2875 -0.0130
  191MPD1    H1 2910   0.150   3.438  12.413  0.0571 -0.0476 -0.0004
  191MPD1    H2 2911   4.626   3.124  12.559  1.0728  1.8978  1.4940
  191MPD1    H3 2912   0.029   3.318  12.603 -1.6428 -0.7371  0.4680
  191MPD1     N 2913   0.162   3.346  12.160  0.1082  0.5396 -0.5292
  191MPD1    H5 2914   0.169   3.292  12.074 -0.1703  0.6204 -0.6031
  191MPD1    N1 2915   4.629   2.980  12.326  0.7600  0.2610 -0.4513
  191MPD1    H6 2916   4.595   2.974  12.230 -0.8452 -1.6279  0.2336
  191MPD1    H7 2917   4.556   2.961  12.395  0.9359  1.4121  0.0602
  192MPD1     C 2918   4.470   3.587  11.305  0.2824 -0.4907  0.3984
  192MPD1    C1 2919   4.450   3.505  11.411 -0.3816 -0.5124  0.8326
  192MPD1    C2 2920   4.544   3.489  11.508 -0.4773  0.5591  0.6121
  192MPD1    C3 2921   4.662   3.563  11.497 -0.2356 -0.2777 -0.8946
  192MPD1    C4 2922   4.684   3.653  11.392 -0.0688  0.3192  0.1370
  192MPD1    C5 2923   4.583   3.659  11.296 -0.4955 -0.1661 -0.1828
  192MPD1     H 2924   4.523   3.409  11.578 -0.9832 -0.3418 -0.5562
  192MPD1    H1 2925   0.046   3.713  11.383 -1.3104  1.5133 -4.2218
  192MPD1    H2 2926   4.391   3.601  11.232  2.2805  0.1411 -1.6538
  192MPD1    H3 2927   4.602   3.719  11.207  1.0284  0.0411  0.2768
  192MPD1     N 2928   0.043   3.550  11.585 -0.1789 -0.3357  0.5340
  192MPD1    H5 2929   0.130   3.600  11.578 -0.3613 -0.2023 -0.7132
  192MPD1    N1 2930   4.316   3.456  11.441 -0.7397 -0.7531  0.1613
  192MPD1    H6 2931   4.256   3.452  11.360 -3.3140  2.7824  1.8888
  192MPD1    H7 2932   4.322   3.362  11.480 -0.4307 -0.9852 -0.4506
  193MPD1     C 2933   4.285   4.341  17.450  0.0910  0.6181 -0.5131
  193MPD1    C1 2934   4.300   4.272  17.336 -0.3657 -0.0132 -0.0683
  193MPD1    C2 2935   4.343   4.338  17.223 -0.5835  0.1800  0.0997
  193MPD1    C3 2936   4.350   4.471  17.215  0.1245 -0.0540  0.2838
  193MPD1    C4 2937   4.313   4.543  17.321 -0.4558 -0.5318  0.3432
  193MPD1    C5 2938   4.283   4.480  17.441  0.6184  0.3046 -0.3871
  193MPD1     H 2939   4.366   4.276  17.137  1.8694  0.0117  0.8870
  193MPD1    H1 2940   4.308   4.651  17.321 -0.6042 -0.5375 -1.6132
  193MPD1    H2 2941   4.260   4.293  17.544  1.5616 -0.6905 -0.7899
  193MPD1    H3 2942   4.256   4.542  17.526 -0.0575  0.1785 -0.5163
  193MPD1     N 2943   4.380   4.545  17.099 -0.4443  0.1240 -0.8859
  193MPD1    H5 2944   4.378   4.646  17.114 -1.2844 -0.1623  0.8579
  193MPD1    N1 2945   4.299   4.130  17.334  0.5787  0.3591  0.2834
  193MPD1    H6 2946   4.223   4.092  17.389 -0.4929  0.7554 -0.9104
  193MPD1    H7 2947   4.284   4.100  17.238 -1.2205  0.0782  0.6453
  194MPD1     C 2948   1.675   2.057  16.239  0.1697  0.1841 -0.1202
  194MPD1    C1 2949   1.702   1.982  16.133  0.4573  0.5014 -0.0384
  194MPD1    C2 2950   1.815   1.903  16.146 -0.2868 -0.4329 -0.4087
  194MPD1    C3 2951   1.890   1.886  16.263 -0.1183  0.1592  0.6742
  194MPD1    C4 2952   1.856   1.969  16.367  0.3853 -0.9847 -0.5475
  194MPD1    C5 2953   1.748   2.058  16.355 -0.2162 -0.2571 -0.9991
  194MPD1     H 2954   1.845   1.836  16.067 -0.1852  0.2854 -0.9737
  194MPD1    H1 2955   1.903   1.966  16.464 -0.9868 -1.1966  0.1060
  194MPD1    H2 2956   1.579   2.107  16.234 -0.1858 -0.3862  0.9347
  194MPD1    H3 2957   1.730   2.127  16.436  0.6876 -0.8967 -0.2603
  194MPD1     N 2958   1.995   1.793  16.276  0.5133 -0.7842 -0.5514
  194MPD1    H5 2959   2.043   1.799  16.366 -1.3343  0.8315  0.3312
  194MPD1    N1 2960   1.634   1.991  16.009 -0.6687 -0.3584  0.3725
  194MPD1    H6 2961   1.581   2.078  16.009  0.4971  0.3417 -1.3960
  194MPD1    H7 2962   1.706   2.002  15.938 -0.6396  0.9172  0.6062
  195MPD1     C 2963   0.116   3.300   0.853 -0.4480 -0.4463 -1.0162
  195MPD1    C1 2964   4.706   3.324   0.841 -0.4889 -0.3191 -0.0067
  195MPD1    C2 2965   4.637   3.300   0.719  0.1605  0.0837  0.4012
  195MPD1    C3 2966   4.713   3.266   0.607 -0.6129  1.1360 -0.4633
  195MPD1    C4 2967   0.120   3.236   0.624  0.3955  0.1924  0.1999
  195MPD1    C5 2968   0.183   3.253   0.749  0.4631 -0.3769  0.4287
  195MPD1     H 2969   4.530   3.314   0.710  0.5248  3.8946  2.2425
  195MPD1    H1 2970   0.180   3.214   0.537  4.2761  1.1867  2.5865
  195MPD1    H2 2971   0.162   3.314   0.950 -0.0856 -2.6964 -0.8568
  195MPD1    H3 2972   0.291   3.238   0.749  0.6452  0.8977  0.6895
  195MPD1     N 2973   4.663   3.252   0.479  0.3855 -0.3412 -0.2984
  195MPD1    H5 2974   0.018   3.232   0.423  0.4296 -2.0310  0.3908
  195MPD1    N1 2975   4.637   3.362   0.955 -0.6379  0.2603  0.8162
  195MPD1    H6 2976   4.536   3.369   0.945 -0.5290 -2.0751 -1.8299
  195MPD1    H7 2977   4.664   3.311   1.039 -1.5499 -2.4027 -0.5134
  196MPD1     C 2978   3.026   2.602   0.147  0.0332 -0.3974  0.0516
  196MPD1    C1 2979   3.131   2.683   0.167 -0.2483  0.2787 -0.6741
  196MPD1    C2 2980   3.156   2.732   0.295 -0.5041  0.4385  0.6863
  196MPD1    C3 2981   3.074   2.689   0.407 -0.5659 -0.1234  0.1723
  196MPD1    C4 2982   2.962   2.628   0.378 -0.8467  0.2490  0.4445
  196MPD1    C5 2983   2.937   2.577   0.250 -0.2317 -0.6988  0.7187
  196MPD1     H 2984   3.250   2.785   0.306  0.3247 -0.6417 -1.1452
  196MPD1    H1 2985   2.892   2.603   0.457 -1.8486 -0.4599 -0.6636
  196MPD1    H2 2986   2.999   2.554   0.054 -2.6140  0.3253  0.4507
  196MPD1    H3 2987   2.851   2.511   0.240  2.7732 -4.5229 -0.2471
  196MPD1     N 2988   3.099   2.732   0.538  0.1829  0.0927  0.3894
  196MPD1    H5 2989   3.028   2.695   0.600 -1.3315  1.6868 -0.3913
  196MPD1    N1 2990   3.218   2.700   0.063  0.3374 -0.1476  0.4972
  196MPD1    H6 2991   3.165   2.683  17.689  0.5232  1.5363  0.0621
  196MPD1    H7 2992   3.269   2.787   0.074 -1.7631  1.3417 -1.6611
  197MPD1     C 2993   2.412   4.593  17.270  0.6846 -0.4432 -1.2875
  197MPD1    C1 2994   2.535   4.631  17.328  0.7079  0.3519 -0.2658
  197MPD1    C2 2995   2.628   4.707  17.252 -0.4122 -0.2139 -0.2815
  197MPD1    C3 2996   2.603   0.014  17.122 -0.3895 -0.1544  0.5913
  197MPD1    C4 2997   2.487   4.692  17.063 -0.0537  0.3741  0.0505
  197MPD1    C5 2998   2.392   4.618  17.137  0.1176 -0.3146  0.4604
  197MPD1     H 2999   2.717   0.016  17.300 -0.7690  0.0282  0.1888
  197MPD1    H1 3000   2.476   4.711  16.957 -3.5306 -1.6279  0.0573
  197MPD1    H2 3001   2.344   4.531  17.327  1.1303 -0.5173 -0.8317
  197MPD1    H3 3002   2.296   4.585  17.099  0.2563  0.3735 -0.5133
  197MPD1     N 3003   2.687   0.089  17.043  0.6352  0.9847  0.0144
  197MPD1    H5 3004   2.662   0.105  16.946 -0.1762 -0.4124 -0.0077
  197MPD1    N1 3005   2.539   4.613  17.470  0.2746  0.8223  0.0443
  197MPD1    H6 3006   2.637   4.598  17.493  0.3775 -0.0565 -0.9538
  197MPD1    H7 3007   2.488   4.526  17.487  0.5197  0.7268  0.3006
  198MPD1     C 3008   4.232   3.633  15.515 -0.5582 -0.0823  0.4231
  198MPD1    C1 3009   4.280   3.579  15.398  0.2151 -0.0123 -0.1399
  198MPD1    C2 3010   4.411   3.532  15.396  0.7899  0.1746 -0.1378
  198MPD1    C3 3011   4.464   3.497  15.519 -0.0748  0.0948 -0.1315
  198MPD1    C4 3012   4.408   3.543  15.638 -0.1385  0.0158  0.6943
  198MPD1    C5 3013   4.301   3.621  15.632  0.2576  0.4866  0.1520
  198MPD1     H 3014   4.465   3.496  15.309 -0.7183  0.6697 -1.2719
  198MPD1    H1 3015   4.458   3.531  15.733 -0.1394  0.0165  0.6949
  198MPD1    H2 3016   4.139   3.689  15.526  0.2523  1.2444  0.5617
  198MPD1    H3 3017   4.267   3.666  15.725 -1.4694  1.2884 -0.8629
  198MPD1     N 3018   4.589   3.435  15.541  0.6125  0.8753  0.2533
  198MPD1    H5 3019   4.606   3.417  15.640 -2.2627  0.8736  0.7543
  198MPD1    N1 3020   4.230   3.610  15.272 -0.0924 -0.1679  0.5792
  198MPD1    H6 3021   4.241   3.532  15.207 -0.0277 -0.2319  0.6681
  198MPD1    H7 3022   4.129   3.609  15.284 -0.0195 -0.6033  1.1122
  199MPD1     C 3023   4.573   3.660   9.410 -0.3628  0.4833  0.2696
  199MPD1    C1 3024   4.565   3.796   9.433 -0.7209 -0.1787  0.0676
  199MPD1    C2 3025   4.443   3.847   9.477  0.3822 -0.1069 -0.5405
  199MPD1    C3 3026   4.350   3.756   9.512  0.2650 -0.2108 -0.3290
  199MPD1    C4 3027   4.366   3.622   9.494  0.2747  0.5442 -0.7388
  199MPD1    C5 3028   4.477   3.572   9.443 -0.4714 -0.2075 -0.8340
  199MPD1     H 3029   4.435   3.951   9.504  1.4003 -0.7090  2.1120
  199MPD1    H1 3030   4.284   3.552   9.508 -0.9468  2.0812 -0.2246
  199MPD1    H2 3031   4.655   3.612   9.358 -1.3094 -0.2600 -0.5209
  199MPD1    H3 3032   4.494   3.465   9.433  1.9078 -0.0085  1.0787
  199MPD1     N 3033   4.228   3.797   9.562  0.7075 -0.1772 -0.4693
  199MPD1    H5 3034   4.159   3.724   9.576  1.1303 -0.6604 -0.9137
  199MPD1    N1 3035   4.670   3.883   9.399  0.3051  0.1534 -0.2566
  199MPD1    H6 3036   0.029   3.833   9.383 -1.2738 -2.3938 -0.9016
  199MPD1    H7 3037   4.688   3.952   9.472  0.9718 -1.2673  0.9181
  200MPD1     C 3038   1.000   0.171  15.268 -0.1912 -0.1366  0.3812
  200MPD1    C1 3039   1.120   0.215  15.217  0.5585  0.5192  0.0423
  200MPD1    C2 3040   1.206   0.130  15.152  0.0542 -0.6100 -0.3105
  200MPD1    C3 3041   1.164   0.002  15.125  0.3096  0.2786 -0.5189
  200MPD1    C4 3042   1.049   4.684  15.177  0.4119 -0.0735 -0.6455
  200MPD1    C5 3043   0.964   0.037  15.248  0.8971 -0.1061 -0.1699
  200MPD1     H 3044   1.291   0.170  15.098  0.1778 -0.8012 -0.2570
  200MPD1    H1 3045   1.004   4.591  15.147 -0.3727  0.7315 -1.9560
  200MPD1    H2 3046   0.932   0.244  15.310  1.9965  2.2715 -0.2623
  200MPD1    H3 3047   0.862   0.003  15.264  0.7011  0.8645  0.6074
  200MPD1     N 3048   1.264   4.649  15.063 -0.3891 -0.4483  0.9128
  200MPD1    H5 3049   1.357   4.689  15.053 -0.6906  0.4064  1.5520
  200MPD1    N1 3050   1.141   0.349  15.211  0.1002 -0.6726 -0.5517
  200MPD1    H6 3051   1.085   0.394  15.283  0.3515 -0.6370 -0.3776
  200MPD1    H7 3052   1.239   0.376  15.220 -0.1342 -0.1026  0.3410
  201MPD1     C 3053   3.303   2.757  13.760 -0.2951  0.1719 -0.1314
  201MPD1    C1 3054   3.411   2.836  13.781  0.3013  0.1738 -1.0971
  201MPD1    C2 3055   3.519   2.814  13.705 -0.4952 -0.3149 -0.4689
  201MPD1    C3 3056   3.532   2.697  13.631 -0.2607  1.1143  0.0397
  201MPD1    C4 3057   3.427   2.617  13.614  0.0928 -0.9169 -0.7533
  201MPD1    C5 3058   3.307   2.654  13.672  0.1494  0.2852  0.2259
  201MPD1     H 3059   3.606   2.878  13.711  0.3117 -1.0783 -4.4842
  201MPD1    H1 3060   3.424   2.534  13.544  1.8134 -2.0033  0.4955
  201MPD1    H2 3061   3.210   2.763  13.816 -1.1690  0.1966 -1.5969
  201MPD1    H3 3062   3.217   2.603  13.641  1.2041  0.4246 -3.1793
  201MPD1     N 3063   3.657   2.673  13.574  0.5934  0.3883  0.9139
  201MPD1    H5 3064   3.728   2.739  13.606 -0.0961  1.1874  0.7756
  201MPD1    N1 3065   3.405   2.950  13.867 -1.0146 -0.0373  0.3529
  201MPD1    H6 3066   3.347   2.932  13.950 -0.5942  1.1337  0.8911
  201MPD1    H7 3067   3.495   2.985  13.898  0.4990 -3.4277 -0.2257
  202MPD1     C 3068   3.263   2.108   8.767  0.1544 -0.4567  0.4888
  202MPD1    C1 3069   3.270   2.245   8.760  0.2353 -0.4084  0.2053
  202MPD1    C2 3070   3.332   2.307   8.868  0.1707  0.7540  0.1342
  202MPD1    C3 3071   3.355   2.239   8.986  0.0213 -0.7057 -0.2622
  202MPD1    C4 3072   3.318   2.106   8.996 -0.9385 -0.0001  1.0081
  202MPD1    C5 3073   3.285   2.046   8.880  0.2434  0.1577 -0.3312
  202MPD1     H 3074   3.372   2.407   8.855  1.3683  0.3395  0.6401
  202MPD1    H1 3075   3.359   2.040   9.072 -1.2676 -1.0759  0.2456
  202MPD1    H2 3076   3.219   2.051   8.686  0.8320 -0.1231 -0.1172
  202MPD1    H3 3077   3.268   1.939   8.888  1.8184 -0.1023 -0.3867
  202MPD1     N 3078   3.433   2.291   9.095 -0.2248 -0.1851  0.5353
  202MPD1    H5 3079   3.439   2.249   9.187  2.5010  0.1666  0.5226
  202MPD1    N1 3080   3.295   2.301   8.634 -0.6501  0.0607  0.5931
  202MPD1    H6 3081   3.260   2.396   8.627  0.8103  0.5630  0.0280
  202MPD1    H7 3082   3.236   2.254   8.565  0.4608 -0.3340 -0.1029
  203MPD1     C 3083   1.817   3.701  12.008  0.0600 -0.1774  0.3482
  203MPD1    C1 3084   1.899   3.682  11.905 -0.0779  0.0949 -0.5982
  203MPD1    C2 3085   2.028   3.635  11.924  0.4840 -0.4833 -0.6515
  203MPD1    C3 3086   2.073   3.596  12.048 -0.3992  0.7577 -0.2503
  203MPD1    C4 3087   1.987   3.608  12.155  0.3431 -0.2909  0.4798
  203MPD1    C5 3088   1.859   3.662  12.133  0.0685 -0.4385 -0.6477
  203MPD1     H 3089   2.097   3.638  11.841  0.9080 -0.7308 -0.3096
  203MPD1    H1 3090   2.009   3.590  12.259 -1.7494 -2.3277  0.5826
  203MPD1    H2 3091   1.723   3.754  12.003  0.1707 -0.0648 -0.5555
  203MPD1    H3 3092   1.791   3.679  12.215 -0.5991 -0.0209 -1.2960
  203MPD1     N 3093   2.210   3.549  12.060 -0.6485  0.2511  0.9539
  203MPD1    H5 3094   2.265   3.546  11.974 -1.1211  2.5058  0.5745
  203MPD1    N1 3095   1.852   3.715  11.775  0.1320 -0.2910 -0.7095
  203MPD1    H6 3096   1.751   3.725  11.766 -0.2171 -2.8054  0.2091
  203MPD1    H7 3097   1.892   3.653  11.705 -0.1666  2.0138 -2.9261
  204MPD1     C 3098   1.901   0.431   0.034  0.2906  0.0992  0.1512
  204MPD1    C1 3099   1.811   0.326   0.066 -0.4686  0.2496 -0.4721
  204MPD1    C2 3100   1.767   0.244  17.679 -0.4069  1.3276 -0.0931
  204MPD1    C3 3101   1.808   0.262  17.540  0.3066 -0.2458  0.4919
  204MPD1    C4 3102   1.899   0.361  17.522  1.0086  0.1542 -0.2885
  204MPD1    C5 3103   1.946   0.441  17.623 -0.0556 -0.7553 -0.6724
  204MPD1     H 3104   1.688   0.175  17.703  1.8801 -0.2919  2.8400
  204MPD1    H1 3105   1.943   0.381  17.425  0.9830 -2.9701 -0.9138
  204MPD1    H2 3106   1.940   0.494   0.113 -1.6217  0.4566  0.8123
  204MPD1    H3 3107   2.019   0.517  17.597  2.5025 -2.5034  1.3333
  204MPD1     N 3108   1.758   0.179  17.437 -1.5087 -0.5787  0.3258
  204MPD1    H5 3109   1.712   0.092  17.461 -0.7751 -0.5997  1.5938
  204MPD1    N1 3110   1.766   0.309   0.197  0.4261  0.1304  0.0907
  204MPD1    H6 3111   1.830   0.354   0.261 -1.6300  1.5836  1.1158
  204MPD1    H7 3112   1.755   0.211   0.222 -1.7051  1.1145  3.0177
  205MPD1     C 3113   2.554   3.408  16.918  0.1156 -0.5863 -0.0171
  205MPD1    C1 3114   2.512   3.530  16.879  0.2553 -0.2516 -0.1187
  205MPD1    C2 3115   2.394   3.580  16.935 -0.0316  0.0102  0.1773
  205MPD1    C3 3116   2.306   3.494  17.010  0.4265  0.6481 -0.5481
  205MPD1    C4 3117   2.350   3.363  17.038 -0.4257  0.1044 -0.2065
  205MPD1    C5 3118   2.470   3.319  16.984  0.2714 -0.5327 -0.4277
  205MPD1     H 3119   2.367   3.681  16.906  1.3353  0.5814  0.9223
  205MPD1    H1 3120   2.290   3.294  17.095  1.6464 -1.9163 -0.4883
  205MPD1    H2 3121   2.648   3.371  16.878 -0.7348 -0.6233 -1.9614
  205MPD1    H3 3122   2.508   3.220  17.006  1.1763 -0.4166 -1.4631
  205MPD1     N 3123   2.186   3.530  17.072 -0.1954  0.0786  0.1278
  205MPD1    H5 3124   2.135   3.457  17.120  0.2825 -1.0953 -1.1463
  205MPD1    N1 3125   2.598   3.625  16.801 -0.0105 -0.7161  0.1582
  205MPD1    H6 3126   2.556   3.681  16.727 -0.6360 -2.9855 -1.2378
  205MPD1    H7 3127   2.684   3.588  16.762 -0.0245  0.8163 -1.2994
  206MPD1     C 3128   2.905   1.966  16.906  0.3637  0.1902  0.0288
  206MPD1    C1 3129   2.882   1.840  16.851  0.2506  0.7316  0.5504
  206MPD1    C2 3130   2.817   1.838  16.729  0.0065 -0.2920  1.2341
  206MPD1    C3 3131   2.748   1.947  16.674 -0.1024 -0.4987  0.6302
  206MPD1    C4 3132   2.767   2.071  16.743 -0.2992 -0.3567 -0.1549
  206MPD1    C5 3133   2.852   2.078  16.856 -0.1132 -0.5199  0.5233
  206MPD1     H 3134   2.808   1.744  16.676  1.3391 -0.6439  1.6264
  206MPD1    H1 3135   2.720   2.158  16.699 -0.2761  0.6456  1.8140
  206MPD1    H2 3136   2.968   1.984  16.993  2.1033  0.1307 -1.2030
  206MPD1    H3 3137   2.861   2.174  16.906  1.0293  0.1535 -0.9676
  206MPD1     N 3138   2.658   1.946  16.559  0.5084  0.2141 -0.2819
  206MPD1    H5 3139   2.606   2.031  16.537  0.1101 -0.1907 -0.9044
  206MPD1    N1 3140   2.946   1.722  16.904 -0.3116  0.2717  0.1696
  206MPD1    H6 3141   2.952   1.720  17.006  2.2412  0.1936  0.0205
  206MPD1    H7 3142   2.892   1.641  16.877  1.4502 -0.8116 -0.1088
  207MPD1     C 3143   4.267   0.086  10.320 -0.1229  0.1219 -0.4486
  207MPD1    C1 3144   4.242   4.689  10.262 -0.7840 -0.2354  0.1366
  207MPD1    C2 3145   4.347   4.597  10.246 -0.5027 -0.4227  0.4243
  207MPD1    C3 3146   4.464   4.627  10.306 -0.5538  0.0025 -0.0538
  207MPD1    C4 3147   4.486   0.021  10.371 -0.3805 -0.3469 -0.3027
  207MPD1    C5 3148   4.386   0.107  10.387 -0.2166 -0.1737  0.3554
  207MPD1     H 3149   4.335   4.507  10.188  1.5123 -0.5508  0.2270
  207MPD1    H1 3150   4.581   0.041  10.419  0.2393 -1.8677 -0.8825
  207MPD1    H2 3151   4.192   0.164  10.326  0.9086  1.2816 -2.6439
  207MPD1    H3 3152   4.403   0.196  10.446  0.1429  0.5692 -0.8635
  207MPD1     N 3153   4.578   4.546  10.293  0.5189 -0.7038  0.0025
  207MPD1    H5 3154   4.660   4.576  10.344 -0.3256 -2.1930  2.2361
  207MPD1    N1 3155   4.127   4.683  10.184 -0.2323  0.0391  0.3532
  207MPD1    H6 3156   4.044   4.727  10.224 -0.5451 -1.7535  1.6512
  207MPD1    H7 3157   4.093   4.591  10.156 -0.0608 -0.0671  0.4901
  208MPD1     C 3158   3.104   3.455   0.315  0.2964  0.2640 -0.5064
  208MPD1    C1 3159   3.030   3.504   0.421  0.3267 -0.1467 -0.1523
  208MPD1    C2 3160   2.891   3.467   0.440  0.1184 -0.2274 -0.2556
  208MPD1    C3 3161   2.836   3.376   0.351 -0.2765  0.1573  0.1475
  208MPD1    C4 3162   2.915   3.329   0.248 -0.1000 -0.1503  0.6423
  208MPD1    C5 3163   3.046   3.366   0.228 -0.2276 -0.0312  0.2493
  208MPD1     H 3164   2.823   3.504   0.515  0.4019 -1.5111  0.6375
  208MPD1    H1 3165   2.877   3.271   0.165  0.4529 -0.4308  0.5891
  208MPD1    H2 3166   3.206   3.487   0.296 -0.3766  2.5554 -0.2881
  208MPD1    H3 3167   3.091   3.331   0.136 -1.0648 -0.0430 -0.1650
  208MPD1     N 3168   2.705   3.336   0.375  0.0293 -0.0289 -0.0233
  208MPD1    H5 3169   2.668   3.367   0.465 -0.7310  0.9408 -0.6697
  208MPD1    N1 3170   3.083   3.614   0.496  0.1894  0.6236 -0.5703
  208MPD1    H6 3171   3.184   3.620   0.504  0.2721 -0.7029 -0.5953
  208MPD1    H7 3172   3.051   3.616   0.592  0.3242  0.1257 -0.5156
  209MPD1     C 3173   0.322   2.548  10.415  0.5924  0.1053  0.9430
  209MPD1    C1 3174   0.311   2.578  10.549  1.4384  0.0298  0.2246
  209MPD1    C2 3175   0.312   2.710  10.581  0.1264  0.3356  0.7249
  209MPD1    C3 3176   0.339   2.814  10.488 -0.3350  0.2966 -0.3234
  209MPD1    C4 3177   0.336   2.779  10.351  0.4725  0.0998 -0.5702
  209MPD1    C5 3178   0.332   2.646  10.321 -0.2096  0.0736  0.0696
  209MPD1     H 3179   0.291   2.742  10.682 -0.9596 -1.6325  1.1268
  209MPD1    H1 3180   0.356   2.841  10.264 -0.3173  2.2952  0.7844
  209MPD1    H2 3181   0.321   2.445  10.380  0.3455  0.1532  0.8021
  209MPD1    H3 3182   0.326   2.632  10.214  1.0926 -0.8086  0.1140
  209MPD1     N 3183   0.344   2.954  10.532  0.5175  0.4287 -0.6766
  209MPD1    H5 3184   0.333   2.962  10.633 -2.0352  0.8140 -0.9858
  209MPD1    N1 3185   0.268   2.477  10.639 -0.3269 -0.1549  0.7188
  209MPD1    H6 3186   0.260   2.507  10.735  0.8840  3.6723 -0.3975
  209MPD1    H7 3187   0.319   2.391  10.620 -0.1813  0.1531 -0.2839
  210MPD1     C 3188   0.594   3.504  11.290 -0.2178  0.7732 -1.0727
  210MPD1    C1 3189   0.592   3.599  11.197 -0.2780  0.1247 -0.9242
  210MPD1    C2 3190   0.549   3.562  11.071  0.3707  0.2116 -0.0002
  210MPD1    C3 3191   0.508   3.438  11.041  0.2527  0.2967 -0.6128
  210MPD1    C4 3192   0.530   3.340  11.130 -0.1035  0.1687 -0.1282
  210MPD1    C5 3193   0.563   3.375  11.258  0.8880  0.6498 -0.3765
  210MPD1     H 3194   0.553   3.644  11.000  2.4139 -0.9705 -1.2513
  210MPD1    H1 3195   0.501   3.236  11.123 -0.0541  0.1708 -0.3587
  210MPD1    H2 3196   0.627   3.526  11.391 -1.8473 -1.0163 -0.1531
  210MPD1    H3 3197   0.563   3.303  11.339  0.4409 -0.0040 -0.9599
  210MPD1     N 3198   0.458   3.419  10.912  0.6221  0.6108  0.1528
  210MPD1    H5 3199   0.444   3.504  10.859  2.3003 -0.2103 -1.6629
  210MPD1    N1 3200   0.620   3.732  11.225 -0.7702  0.1614  0.1085
  210MPD1    H6 3201   0.651   3.726  11.321 -2.6942  0.7845  0.7702
  210MPD1    H7 3202   0.530   3.780  11.221 -1.5136 -1.2816 -0.3362
  211MPD1     C 3203   2.850   3.883  16.179  0.5903  0.4578 -0.4341
  211MPD1    C1 3204   2.787   3.982  16.246  0.4731  0.1360 -0.3940
  211MPD1    C2 3205   2.653   3.956  16.284  0.2992 -0.6349  0.0744
  211MPD1    C3 3206   2.576   3.854  16.237  0.2137 -0.4631 -0.3841
  211MPD1    C4 3207   2.642   3.775  16.143  0.0011 -0.2015 -0.0342
  211MPD1    C5 3208   2.778   3.784  16.126 -0.8165 -0.0693 -0.0152
  211MPD1     H 3209   2.605   4.028  16.350  2.0974  0.3065  0.3540
  211MPD1    H1 3210   2.604   3.678  16.113 -0.5299  0.1772 -0.5781
  211MPD1    H2 3211   2.955   3.890  16.155  0.8451 -1.1805  0.1678
  211MPD1    H3 3212   2.819   3.701  16.070  0.6455 -1.0275  2.4602
  211MPD1     N 3213   2.433   3.838  16.268  0.5882 -0.1992  0.1737
  211MPD1    H5 3214   2.395   3.909  16.331 -0.7065  0.0717 -0.9191
  211MPD1    N1 3215   2.858   4.089  16.300 -0.7379  0.5690 -0.5388
  211MPD1    H6 3216   2.940   4.109  16.242 -1.1570 -3.5098 -2.5316
  211MPD1    H7 3217   2.796   4.169  16.291 -0.3795  0.6990 -2.0058
  212MPD1     C 3218   2.238   1.551  17.100 -0.4799  0.2682 -0.1568
  212MPD1    C1 3219   2.153   1.648  17.053  0.1869 -0.2346 -0.6238
  212MPD1    C2 3220   2.017   1.617  17.043  0.3457  0.0954  1.2696
  212MPD1    C3 3221   1.970   1.481  17.052  0.0076 -0.4242  0.0563
  212MPD1    C4 3222   2.065   1.389  17.093  0.2094 -0.5704  0.1457
  212MPD1    C5 3223   2.194   1.423  17.115  0.6204  0.1658  0.0677
  212MPD1     H 3224   1.942   1.694  17.031 -0.1354 -0.2634  1.9916
  212MPD1    H1 3225   2.034   1.287  17.112 -0.6329 -0.8953 -2.9664
  212MPD1    H2 3226   2.342   1.574  17.120  0.1668  0.0203 -3.1098
  212MPD1    H3 3227   2.259   1.351  17.162  0.4644  0.0335  0.0830
  212MPD1     N 3228   1.835   1.435  17.045  0.1595  0.7223  0.2457
  212MPD1    H5 3229   1.809   1.344  17.081  3.8072 -0.7830 -0.9156
  212MPD1    N1 3230   2.191   1.785  17.050 -0.2082 -0.7080 -0.2228
  212MPD1    H6 3231   2.139   1.843  16.984 -0.9671  0.0056  0.9817
  212MPD1    H7 3232   2.287   1.791  17.018 -0.6348  0.7229 -1.2762
  213MPD1     C 3233   4.579   2.640  15.925  1.0656 -0.0433  0.7582
  213MPD1    C1 3234   4.514   2.531  15.873  0.4985 -0.3860 -0.1489
  213MPD1    C2 3235   4.457   2.542  15.753 -0.4449 -0.0378  0.5265
  213MPD1    C3 3236   4.436   2.668  15.699  0.1176  0.2630  0.7468
  213MPD1    C4 3237   4.482   2.781  15.764 -0.7123 -0.2228  0.2815
  213MPD1    C5 3238   4.561   2.768  15.872 -0.2917 -0.7979 -0.1833
  213MPD1     H 3239   4.418   2.454  15.704  0.6779  0.4255 -1.2299
  213MPD1    H1 3240   4.458   2.880  15.727 -0.3694 -0.5071 -0.7122
  213MPD1    H2 3241   4.627   2.629  16.022  2.4533  0.0487  0.0735
  213MPD1    H3 3242   4.601   2.847  15.936  1.0867 -1.2202 -0.5199
  213MPD1     N 3243   4.367   2.667  15.572 -0.1386 -0.2854  0.4228
  213MPD1    H5 3244   4.343   2.576  15.535  0.2467  0.3339 -1.3166
  213MPD1    N1 3245   4.544   2.404  15.928 -0.2369 -0.4340 -0.7038
  213MPD1    H6 3246   4.549   2.422  16.029  0.1158  1.4736 -1.0516
  213MPD1    H7 3247   4.470   2.336  15.917  0.8657 -1.6480 -0.6781
  214MPD1     C 3248   4.149   1.982  15.110 -0.4655  0.3573  0.0595
  214MPD1    C1 3249   4.135   2.074  15.015 -0.7801  0.6449  0.1705
  214MPD1    C2 3250   4.148   2.208  15.050  0.3090  0.2824  0.1854
  214MPD1    C3 3251   4.167   2.257  15.181  0.2419 -0.1703  0.5201
  214MPD1    C4 3252   4.180   2.156  15.275 -0.3732 -0.0972 -0.4158
  214MPD1    C5 3253   4.175   2.026  15.241  0.3883  0.1318  0.2272
  214MPD1     H 3254   4.144   2.284  14.974 -3.6988  1.1659  1.3025
  214MPD1    H1 3255   4.198   2.185  15.378 -1.4786 -0.9829  0.0199
  214MPD1    H2 3256   4.153   1.875  15.091 -0.0881  0.4055 -0.1352
  214MPD1    H3 3257   4.196   1.954  15.319  0.5679  0.4866  0.5056
  214MPD1     N 3258   4.167   2.396  15.213 -0.0209  0.2828 -0.1867
  214MPD1    H5 3259   4.207   2.422  15.303  1.6713 -2.1500 -0.2415
  214MPD1    N1 3260   4.143   2.042  14.881  0.2212 -0.5607 -0.5317
  214MPD1    H6 3261   4.100   1.950  14.886 -1.7535  0.4771  2.0994
  214MPD1    H7 3262   4.240   2.022  14.858 -0.3646 -0.8955 -2.6347
  215MPD1     C 3263   4.649   3.077  10.559 -0.6241 -0.5307  0.3333
  215MPD1    C1 3264   4.722   3.034  10.664 -0.3920  1.2964  0.2390
  215MPD1    C2 3265   0.031   3.127  10.763 -0.0622  0.3524 -0.1615
  215MPD1    C3 3266   0.002   3.259  10.757 -0.1713  0.3257 -0.5403
  215MPD1    C4 3267   4.663   3.300  10.641 -0.7503 -0.8410 -0.1309
  215MPD1    C5 3268   4.627   3.213  10.539  0.0051 -0.5772  0.4340
  215MPD1     H 3269   0.061   3.083  10.858  2.3539 -0.1416 -1.1527
  215MPD1    H1 3270   4.640   3.404  10.625  0.7275 -0.3727  0.8134
  215MPD1    H2 3271   4.625   3.012  10.476 -1.4525 -0.4748  0.5199
  215MPD1    H3 3272   4.571   3.242  10.451  0.2951  0.2473  0.5207
  215MPD1     N 3273   0.036   3.344  10.866  0.0904  0.2849  0.6650
  215MPD1    H5 3274   0.091   3.294  10.935 -0.5828  0.2708  1.1860
  215MPD1    N1 3275   4.726   2.899  10.690  0.3424  0.0192 -0.0836
  215MPD1    H6 3276   0.070   2.865  10.754 -0.9097 -0.1274  1.2343
  215MPD1    H7 3277   0.002   2.843  10.605 -2.1614  0.6258 -0.6037
  216MPD1     C 3278   1.805   1.063  16.012  0.4373 -0.1231 -0.5118
  216MPD1    C1 3279   1.820   0.925  16.008  0.1484  0.6429  0.3166
  216MPD1    C2 3280   1.803   0.854  16.126  0.1666 -0.6662 -0.3454
  216MPD1    C3 3281   1.784   0.918  16.249 -0.9391 -0.3051 -0.1873
  216MPD1    C4 3282   1.788   1.056  16.254  0.2331  0.4245  0.4735
  216MPD1    C5 3283   1.799   1.130  16.133  0.2879  0.6160  0.2641
  216MPD1     H 3284   1.795   0.747  16.116 -1.2034 -0.7040  1.2514
  216MPD1    H1 3285   1.767   1.117  16.341  1.4732 -2.8508  3.0868
  216MPD1    H2 3286   1.803   1.125  15.924 -0.5572  0.9356  0.2573
  216MPD1    H3 3287   1.805   1.238  16.138 -0.2748  0.5964  1.5278
  216MPD1     N 3288   1.770   0.838  16.360  0.6268 -0.0297 -0.8158
  216MPD1    H5 3289   1.743   0.742  16.338  2.2327 -0.2792 -1.7262
  216MPD1    N1 3290   1.812   0.851  15.886  0.7091 -0.1192  0.1304
  216MPD1    H6 3291   1.850   0.908  15.810  2.0423  0.1146  0.9687
  216MPD1    H7 3292   1.872   0.770  15.897  1.4482  0.7034  2.1102
  217MPD1     C 3293   2.554   2.271   8.378  0.0461  0.1378  0.2948
  217MPD1    C1 3294   2.686   2.302   8.409 -0.5489 -0.7547 -0.6153
  217MPD1    C2 3295   2.720   2.275   8.534 -0.8457  0.0113  0.2680
  217MPD1    C3 3296   2.644   2.212   8.622 -0.6590  0.0339 -0.8690
  217MPD1    C4 3297   2.515   2.167   8.586 -0.3991  0.5985 -0.2379
  217MPD1    C5 3298   2.472   2.211   8.462  0.3692 -0.5830  0.2962
  217MPD1     H 3299   2.815   2.312   8.570 -0.7519 -0.1936  0.2284
  217MPD1    H1 3300   2.448   2.106   8.647  3.1767 -1.2873  1.8252
  217MPD1    H2 3301   2.511   2.293   8.281 -1.3840 -0.8062  0.7190
  217MPD1    H3 3302   2.374   2.172   8.436 -0.5624  2.3623 -0.6359
  217MPD1     N 3303   2.691   2.196   8.753 -0.4665 -0.0844 -0.4135
  217MPD1    H5 3304   2.620   2.167   8.820  1.7763 -3.9719  0.3322
  217MPD1    N1 3305   2.769   2.383   8.325 -0.6310 -0.4624  0.2821
  217MPD1    H6 3306   2.745   2.359   8.229  0.9667 -0.7119 -0.0673
  217MPD1    H7 3307   2.869   2.365   8.339 -0.9318 -2.0610  0.4150
  218MPD1     C 3308   3.877   4.520  12.969  0.7262 -0.3335 -0.3964
  218MPD1    C1 3309   4.016   4.533  12.964  1.4250 -0.2654 -1.1097
  218MPD1    C2 3310   4.088   4.418  12.926 -0.0893  0.0722  1.0816
  218MPD1    C3 3311   4.034   4.294  12.890  0.4580  0.0391  0.4925
  218MPD1    C4 3312   3.896   4.290  12.896  0.0106  0.0969 -0.4943
  218MPD1    C5 3313   3.822   4.404  12.927  0.2248  0.2259  0.7419
  218MPD1     H 3314   4.196   4.412  12.918 -0.2292 -1.2874  0.2920
  218MPD1    H1 3315   3.836   4.200  12.899 -0.0386  0.1724  0.9974
  218MPD1    H2 3316   3.817   4.607  12.992 -0.4824 -0.8125 -1.7438
  218MPD1    H3 3317   3.715   4.395  12.941  0.5059 -0.4289  2.4342
  218MPD1     N 3318   4.117   4.184  12.857 -0.5035  0.0137 -0.2572
  218MPD1    H5 3319   4.217   4.201  12.868 -0.7750 -0.2681  2.6279
  218MPD1    N1 3320   4.071   4.654  13.009 -0.5502  0.2426 -0.0869
  218MPD1    H6 3321   4.007   0.005  12.997 -0.9114 -0.2117 -1.1207
  218MPD1    H7 3322   4.160   4.670  12.962  0.5534 -0.8693  1.5946
  219MPD1     C 3323   0.249   3.784  12.512  0.0337 -0.2039 -0.0881
  219MPD1    C1 3324   0.175   3.898  12.503  1.0199 -0.2070 -0.3083
  219MPD1    C2 3325   0.049   3.910  12.553  0.1895  0.3797 -1.1999
  219MPD1    C3 3326   4.722   3.806  12.619 -0.0188 -0.5844  0.5070
  219MPD1    C4 3327   0.061   3.687  12.629 -0.2828 -0.1397  0.1104
  219MPD1    C5 3328   0.190   3.682  12.578  0.0398 -0.6162 -0.4003
  219MPD1     H 3329   4.716   3.995  12.522  1.7397  1.8760 -0.1897
  219MPD1    H1 3330   0.020   3.612  12.696  1.9351 -0.2166  1.3947
  219MPD1    H2 3331   0.351   3.768  12.482 -0.6384 -1.9927 -1.4139
  219MPD1    H3 3332   0.253   3.596  12.601 -0.4917 -0.3259  2.1300
  219MPD1     N 3333   4.593   3.816  12.671  0.0312  0.1943  0.2518
  219MPD1    H5 3334   4.557   3.729  12.709  1.6694 -0.0372  1.2592
  219MPD1    N1 3335   0.224   3.995  12.415 -0.1117 -0.0610  0.3740
  219MPD1    H6 3336   0.322   4.021  12.417 -0.4582  1.2788 -0.2810
  219MPD1    H7 3337   0.160   4.070  12.391 -0.8175 -0.8971 -0.3238
  220MPD1     C 3338   4.060   4.632  11.195 -0.4612 -0.5176 -0.0098
  220MPD1    C1 3339   4.057   4.510  11.120 -0.2776  0.1346 -0.6803
  220MPD1    C2 3340   4.144   4.487  11.019  0.8772  0.6599 -0.2848
  220MPD1    C3 3341   4.234   4.587  10.989  0.2386 -0.4497  1.0494
  220MPD1    C4 3342   4.245   4.702  11.068  0.1457  0.5743 -0.0182
  220MPD1    C5 3343   4.159   4.727  11.172  0.1661  0.0659  0.5391
  220MPD1     H 3344   4.127   4.398  10.960 -1.7665  1.7124 -1.0984
  220MPD1    H1 3345   4.325   0.045  11.051 -0.6525  2.1312  2.7313
  220MPD1    H2 3346   3.992   4.645  11.278 -0.4164 -0.2925 -0.0083
  220MPD1    H3 3347   4.169   0.093  11.226 -4.1746  0.8657 -0.0354
  220MPD1     N 3348   4.322   4.565  10.875 -0.2583 -0.1465 -0.1783
  220MPD1    H5 3349   4.315   4.473  10.833 -1.4644  0.0271 -0.3345
  220MPD1    N1 3350   3.944   4.429  11.140  0.7126  0.5632  0.0231
  220MPD1    H6 3351   3.895   4.451  11.226 -1.4299 -1.9678 -0.5231
  220MPD1    H7 3352   3.884   4.466  11.066 -0.9828  2.7044  2.4547
  221MPD1     C 3353   1.746   2.759  16.815 -0.4051 -0.1616 -0.0873
  221MPD1    C1 3354   1.838   2.801  16.906 -0.2046  1.0238  0.0006
  221MPD1    C2 3355   1.955   2.848  16.861  0.3494  0.3760 -0.2919
  221MPD1    C3 3356   1.992   2.837  16.726  0.2307  0.4031 -0.3196
  221MPD1    C4 3357   1.900   2.785  16.640 -0.1569 -0.3675 -0.9567
  221MPD1    C5 3358   1.780   2.742  16.687 -0.1886 -0.6268  0.2155
  221MPD1     H 3359   2.023   2.900  16.927 -0.7381  0.6043  0.6470
  221MPD1    H1 3360   1.907   2.781  16.531  0.0411 -1.4112 -0.9002
  221MPD1    H2 3361   1.651   2.720  16.851  0.0895 -0.2745  1.1066
  221MPD1    H3 3362   1.705   2.699  16.621  0.7363 -0.4688 -0.9494
  221MPD1     N 3363   2.116   2.877  16.669 -0.6303 -0.0258 -0.0317
  221MPD1    H5 3364   2.133   2.861  16.571  1.2710 -2.5033  0.6850
  221MPD1    N1 3365   1.800   2.797  17.046 -0.5116  0.0837  0.6965
  221MPD1    H6 3366   1.831   2.877  17.101  0.2927  0.4470 -0.2785
  221MPD1    H7 3367   1.700   2.779  17.055 -0.4029 -0.3220  1.0685
  222MPD1     C 3368   2.530   2.229  17.008  0.1191  0.6348  0.8428
  222MPD1    C1 3369   2.508   2.297  17.127 -0.2005  0.9347  0.1936
  222MPD1    C2 3370   2.375   2.295  17.182 -0.2486 -0.4147  0.3290
  222MPD1    C3 3371   2.270   2.236  17.111  0.4494  0.2695  1.0409
  222MPD1    C4 3372   2.295   2.184  16.987  0.4049  0.2518  0.5998
  222MPD1    C5 3373   2.422   2.179  16.946  0.4490  0.1991 -0.2486
  222MPD1     H 3374   2.352   2.342  17.277  0.6608 -0.3813  0.5234
  222MPD1    H1 3375   2.220   2.131  16.930 -0.2024  0.8993  0.7961
  222MPD1    H2 3376   2.628   2.239  16.963  0.1150  0.9616  0.9087
  222MPD1    H3 3377   2.441   2.128  16.852  0.0765 -0.1957 -0.1117
  222MPD1     N 3378   2.136   2.224  17.163 -0.5414  0.2923  0.2719
  222MPD1    H5 3379   2.073   2.179  17.098 -0.9476 -0.4152  1.1671
  222MPD1    N1 3380   2.618   2.340  17.208  0.2416  0.0999 -1.3136
  222MPD1    H6 3381   2.696   2.387  17.163  2.1615 -2.3192 -0.5023
  222MPD1    H7 3382   2.592   2.399  17.286  2.6576 -0.4797 -0.0873
  223MPD1     C 3383   1.322   1.956  16.784  0.1828 -0.3386  0.6147
  223MPD1    C1 3384   1.288   2.078  16.844  0.2722  0.1213 -0.2806
  223MPD1    C2 3385   1.368   2.116  16.950 -0.1942 -0.1065  0.3585
  223MPD1    C3 3386   1.475   2.048  16.999  0.6899  0.5930  0.4142
  223MPD1    C4 3387   1.499   1.928  16.941 -0.1913  0.7747  0.2836
  223MPD1    C5 3388   1.421   1.880  16.841  0.5919 -0.2768 -0.0202
  223MPD1     H 3389   1.355   2.212  16.998  0.3866 -0.7176  1.7475
  223MPD1    H1 3390   1.585   1.867  16.966 -0.1207  1.2052  1.0916
  223MPD1    H2 3391   1.274   1.919  16.694 -2.3478 -1.9073  2.6020
  223MPD1    H3 3392   1.468   1.792  16.798 -0.0636 -0.7056  0.1531
  223MPD1     N 3393   1.558   2.122  17.091 -0.6935 -0.1635 -0.1005
  223MPD1    H5 3394   1.526   2.214  17.119  1.3846  0.3322  0.6551
  223MPD1    N1 3395   1.193   2.159  16.789 -0.7754 -0.2537  0.7895
  223MPD1    H6 3396   1.113   2.108  16.752 -0.7001  1.1387 -1.2654
  223MPD1    H7 3397   1.160   2.224  16.861 -0.4351  0.1237  0.6053
  224MPD1     C 3398   3.127   2.547   8.884  0.1306  0.0989  0.1927
  224MPD1    C1 3399   3.219   2.645   8.916 -0.0852  0.0553  0.3261
  224MPD1    C2 3400   3.236   2.686   9.045  0.4055  0.0280 -0.5577
  224MPD1    C3 3401   3.180   2.607   9.142  0.1944 -0.5073  0.2747
  224MPD1    C4 3402   3.103   2.500   9.109  0.1594  0.0734 -0.1132
  224MPD1    C5 3403   3.066   2.478   8.978  0.2970 -0.2538  0.9395
  224MPD1     H 3404   3.311   2.760   9.070 -0.2534  0.0131  1.4415
  224MPD1    H1 3405   3.050   2.437   9.180 -0.2559 -0.1216 -0.5885
  224MPD1    H2 3406   3.107   2.521   8.780 -0.9398  0.8343  0.2188
  224MPD1    H3 3407   3.011   2.387   8.954  1.1811 -0.4757 -0.2463
  224MPD1     N 3408   3.217   2.627   9.279 -0.2699  0.0801  0.1285
  224MPD1    H5 3409   3.196   2.555   9.347 -2.1590  0.8855  0.3826
  224MPD1    N1 3410   3.254   2.729   8.807  0.4644  0.1356  0.0849
  224MPD1    H6 3411   3.251   2.675   8.720 -0.4719  1.3303 -0.6302
  224MPD1    H7 3412   3.354   2.743   8.816  0.5082  0.3080 -0.6336
  225MPD1     C 3413   4.607   4.529  12.727  0.1624  0.4883 -0.4649
  225MPD1    C1 3414   4.572   4.396  12.687  0.4838  0.0633  0.2017
  225MPD1    C2 3415   4.439   4.373  12.652 -0.1069  0.1715 -0.2977
  225MPD1    C3 3416   4.343   4.470  12.674 -0.4984 -0.6889  0.9211
  225MPD1    C4 3417   4.379   4.595  12.728 -0.3834 -0.2243 -0.3432
  225MPD1    C5 3418   4.510   4.622  12.760 -0.1036  0.1530 -0.1011
  225MPD1     H 3419   4.411   4.277  12.610 -0.9693  0.0471  0.5499
  225MPD1    H1 3420   4.305   4.669  12.755 -0.8612 -0.6808 -0.3925
  225MPD1    H2 3421   4.709   4.562  12.744 -0.5834  1.5297  2.0139
  225MPD1    H3 3422   4.541   4.716  12.803  0.7403  0.3439 -1.1108
  225MPD1     N 3423   4.208   4.455  12.633 -0.2177  0.2636  0.1386
  225MPD1    H5 3424   4.143   4.532  12.640 -0.6077  0.0805 -1.2653
  225MPD1    N1 3425   4.667   4.299  12.649  0.5737 -0.3550 -0.3801
  225MPD1    H6 3426   0.024   4.298  12.705 -0.9484 -0.7968  1.9425
  225MPD1    H7 3427   4.625   4.206  12.657  0.4590 -0.1930  0.8036
  226MPD1     C 3428   3.123   4.344  10.238 -0.4268 -0.2919  0.1707
  226MPD1    C1 3429   3.184   4.266  10.142 -0.3277  0.5237  0.6478
  226MPD1    C2 3430   3.223   4.321  10.023  0.0696  0.5244  0.4174
  226MPD1    C3 3431   3.190   4.448   9.987 -0.0215  0.8242 -0.1844
  226MPD1    C4 3432   3.115   4.522  10.083 -0.4395 -0.8231 -0.1055
  226MPD1    C5 3433   3.075   4.466  10.201  0.1205  0.0320 -0.8933
  226MPD1     H 3434   3.282   4.263   9.953  0.4013  0.9175  0.3733
  226MPD1    H1 3435   3.068   4.616  10.060 -1.6632 -1.5544 -0.5824
  226MPD1    H2 3436   3.090   4.304  10.333  0.0463 -2.3857 -0.5480
  226MPD1    H3 3437   3.013   4.517  10.275 -0.3610  0.7078 -1.7552
  226MPD1     N 3438   3.224   4.496   9.861  0.0192  0.0901 -0.2501
  226MPD1    H5 3439   3.261   4.428   9.795 -0.9449 -1.4790  0.8078
  226MPD1    N1 3440   3.214   4.128  10.178  0.1710 -0.4833  0.6227
  226MPD1    H6 3441   3.206   4.062  10.102 -0.5061  1.3025 -0.8596
  226MPD1    H7 3442   3.156   4.091  10.253  0.5028  0.2792  1.2725
  227MPD1     C 3443   3.080   0.466   9.047 -0.3280 -0.8118  0.2787
  227MPD1    C1 3444   3.176   0.380   9.004 -0.6131 -0.0340  0.6491
  227MPD1    C2 3445   3.218   0.286   9.096  0.6714 -0.0367 -0.1922
  227MPD1    C3 3446   3.171   0.279   9.227 -0.6581  0.6252 -0.1817
  227MPD1    C4 3447   3.081   0.373   9.271  0.1022  0.1412 -0.4551
  227MPD1    C5 3448   3.034   0.467   9.178  0.5779 -0.6493  0.0559
  227MPD1     H 3449   3.295   0.213   9.073 -0.2724 -1.3246  0.8488
  227MPD1    H1 3450   3.046   0.380   9.374 -1.2123  0.3844 -0.9219
  227MPD1    H2 3451   3.041   0.537   8.975  0.6852  1.4701  1.9831
  227MPD1    H3 3452   2.967   0.540   9.223 -1.6592 -2.3089 -0.5826
  227MPD1     N 3453   3.214   0.166   9.304  0.1901 -0.5036 -0.1334
  227MPD1    H5 3454   3.281   0.102   9.262 -1.1889 -1.4086 -0.9430
  227MPD1    N1 3455   3.214   0.382   8.873  0.2117  0.7153  0.2956
  227MPD1    H6 3456   3.307   0.345   8.859  0.1939  0.4117  0.9979
  227MPD1    H7 3457   3.216   0.475   8.830 -2.8263  1.5291  1.8776
  228MPD1     C 3458   1.655   3.011  12.149 -0.0825  0.6851 -0.5583
  228MPD1    C1 3459   1.670   2.936  12.037 -0.4585 -0.2707  0.1611
  228MPD1    C2 3460   1.619   2.806  12.036 -0.2589  0.1308  1.4532
  228MPD1    C3 3461   1.552   2.760  12.150 -0.9274 -0.3166  0.7334
  228MPD1    C4 3462   1.541   2.834  12.260 -0.4922  0.5335 -0.1964
  228MPD1    C5 3463   1.600   2.957  12.257  0.1837  0.5338 -0.4025
  228MPD1     H 3464   1.619   2.741  11.949 -0.0498  0.5615  1.1263
  228MPD1    H1 3465   1.496   2.810  12.356 -1.1842 -0.5288 -0.7848
  228MPD1    H2 3466   1.687   3.114  12.159  0.1861  0.2858  2.8315
  228MPD1    H3 3467   1.581   3.020  12.343 -0.4157 -0.0184 -0.1340
  228MPD1     N 3468   1.495   2.632  12.145  0.0655 -0.3145  0.6882
  228MPD1    H5 3469   1.513   2.572  12.066  1.8306  0.3215  0.6179
  228MPD1    N1 3470   1.719   2.999  11.919 -0.5422  0.7468  0.5049
  228MPD1    H6 3471   1.800   3.059  11.928  0.7830 -0.9589 -0.0280
  228MPD1    H7 3472   1.739   2.930  11.847  1.1137  1.0681  0.6732
  229MPD1     C 3473   0.220   1.317  14.243  0.6273 -0.1055  0.4894
  229MPD1    C1 3474   0.265   1.400  14.341 -0.3729  0.8389 -0.0372
  229MPD1    C2 3475   0.360   1.350  14.431  0.4021 -0.5213  0.5084
  229MPD1    C3 3476   0.406   1.224  14.441 -0.3173  0.4282 -0.9784
  229MPD1    C4 3477   0.340   1.139  14.352  0.6564  0.5067 -0.6514
  229MPD1    C5 3478   0.254   1.185  14.250  0.2169 -0.1597 -0.1308
  229MPD1     H 3479   0.396   1.416  14.509 -0.2817 -0.0806  0.4537
  229MPD1    H1 3480   0.348   1.031  14.357 -1.9726  0.3144 -0.8758
  229MPD1    H2 3481   0.153   1.352  14.165 -1.8292 -1.4615  1.9880
  229MPD1    H3 3482   0.205   1.108  14.190  0.2881  0.2054 -0.6615
  229MPD1     N 3483   0.491   1.170  14.545 -0.3941 -0.9226  0.2699
  229MPD1    H5 3484   0.513   1.071  14.545 -1.3635 -1.1265 -2.0318
  229MPD1    N1 3485   0.238   1.537  14.343  0.3631 -0.6459 -0.1420
  229MPD1    H6 3486   0.150   1.558  14.296  0.4378 -1.0457 -0.4648
  229MPD1    H7 3487   0.237   1.582  14.434 -0.3167  0.1725 -0.5506
  230MPD1     C 3488   0.816   1.045  15.552  0.2870 -0.1079 -0.2817
  230MPD1    C1 3489   0.932   1.034  15.484 -0.7158 -0.2337  0.5650
  230MPD1    C2 3490   0.924   1.056  15.344 -0.4042 -0.4655 -0.0478
  230MPD1    C3 3491   0.812   1.098  15.280  0.1067 -0.1886  0.0514
  230MPD1    C4 3492   0.698   1.111  15.351 -0.2353  0.5827 -0.3865
  230MPD1    C5 3493   0.701   1.087  15.486 -0.5214 -0.0302  0.3701
  230MPD1     H 3494   1.005   1.037  15.274  0.7789  2.6410  0.4834
  230MPD1    H1 3495   0.607   1.134  15.297 -1.3805  3.0223  2.5703
  230MPD1    H2 3496   0.810   1.016  15.656 -0.1216 -0.7557 -0.4853
  230MPD1    H3 3497   0.611   1.111  15.542 -0.4355  1.8397 -0.2776
  230MPD1     N 3498   0.818   1.104  15.134  0.3820 -0.2335 -0.4932
  230MPD1    H5 3499   0.906   1.075  15.092 -0.0139 -0.8144 -0.9229
  230MPD1    N1 3500   1.044   0.965  15.540  0.5580  0.4164 -0.5021
  230MPD1    H6 3501   1.131   1.008  15.506 -0.7512  2.0490 -1.7781
  230MPD1    H7 3502   1.050   0.972  15.641 -1.6650 -1.8945 -0.2444
  231MPD1     C 3503   3.475   2.933  15.283  0.7616  0.2241 -0.0244
  231MPD1    C1 3504   3.498   2.876  15.160  0.4406 -1.2764  0.1624
  231MPD1    C2 3505   3.624   2.894  15.103 -0.2968 -0.6845 -0.0825
  231MPD1    C3 3506   3.724   2.970  15.165 -0.3057  0.0488  0.6248
  231MPD1    C4 3507   3.704   3.012  15.296  0.0838 -0.1784 -0.0869
  231MPD1    C5 3508   3.578   2.994  15.353  0.0254  0.0471 -0.1697
  231MPD1     H 3509   3.635   2.863  15.000  1.5634 -0.2766 -0.0089
  231MPD1    H1 3510   3.776   3.060  15.361  1.4912  0.4656 -2.0973
  231MPD1    H2 3511   3.377   2.922  15.327  2.2652 -0.8115  3.0607
  231MPD1    H3 3512   3.562   3.040  15.450  2.0072 -0.9738  0.6308
  231MPD1     N 3513   3.843   2.997  15.086  0.5061 -0.0242  0.3408
  231MPD1    H5 3514   3.858   2.951  14.997  2.8732  0.1191  0.6609
  231MPD1    N1 3515   3.391   2.809  15.086 -0.6304  0.7573 -0.2617
  231MPD1    H6 3516   3.334   2.759  15.154  1.2621  0.3660  1.0496
  231MPD1    H7 3517   3.422   2.742  15.016  1.7105  1.2641  0.2669
  232MPD1     C 3518   0.947   4.649   0.193  0.3730 -0.4602 -0.5538
  232MPD1    C1 3519   0.958   0.045   0.252  0.0976 -0.6362  0.4759
  232MPD1    C2 3520   0.881   0.153   0.207 -0.2955  0.6247 -0.3736
  232MPD1    C3 3521   0.801   0.143   0.095  0.8327  0.2031  0.4277
  232MPD1    C4 3522   0.791   0.019   0.036 -0.6574  0.0594 -0.5784
  232MPD1    C5 3523   0.866   4.643   0.083  0.2473 -0.2846  0.1267
  232MPD1     H 3524   0.895   0.250   0.254 -0.1196 -0.9416  2.7657
  232MPD1    H1 3525   0.730   0.000  17.660  0.6522 -1.2465 -1.2254
  232MPD1    H2 3526   0.995   4.556   0.221  0.9586  0.1862  0.5959
  232MPD1    H3 3527   0.867   4.550   0.027 -0.8501  1.5104 -2.8957
  232MPD1     N 3528   0.741   0.262   0.045 -0.2024  1.2103 -0.0207
  232MPD1    H5 3529   0.769   0.348   0.090 -0.1125  0.5966  1.0937
  232MPD1    N1 3530   1.030   0.062   0.368 -0.5266  0.1342 -0.3136
  232MPD1    H6 3531   1.070   0.154   0.383 -1.1151  0.1810  0.9335
  232MPD1    H7 3532   1.109   4.727   0.383  0.9491  2.6256  2.1366
  233MPD1     C 3533   0.655   4.167   0.744 -0.7270  0.6252 -0.2407
  233MPD1    C1 3534   0.773   4.237   0.784 -0.0517 -0.6550 -0.4586
  233MPD1    C2 3535   0.887   4.174   0.831 -0.6083  0.2683  0.1999
  233MPD1    C3 3536   0.890   4.039   0.823  0.4670 -0.4911 -0.7658
  233MPD1    C4 3537   0.784   3.965   0.772 -0.3348  0.0844 -0.1470
  233MPD1    C5 3538   0.668   4.032   0.726  0.4602 -0.9048 -0.0049
  233MPD1     H 3539   0.975   4.228   0.863  0.4269  0.5233 -3.0003
  233MPD1    H1 3540   0.796   3.859   0.754  2.0920  0.2221  0.6272
  233MPD1    H2 3541   0.568   4.224   0.714 -1.2340  1.0424  2.0301
  233MPD1    H3 3542   0.582   3.980   0.683 -1.7342  2.1383  0.7018
  233MPD1     N 3543   0.999   3.965   0.874 -0.6466  0.1475  0.5154
  233MPD1    H5 3544   0.990   3.866   0.852 -1.1063  0.7176 -1.9531
  233MPD1    N1 3545   0.747   4.370   0.816 -0.0767  0.1695 -1.0842
  233MPD1    H6 3546   0.690   4.414   0.744 -0.1719 -1.1774 -1.8433
  233MPD1    H7 3547   0.833   4.425   0.810 -0.9307  1.7113  1.1993
  234MPD1     C 3548   3.515   0.963   9.700 -0.0996 -0.3854 -0.3399
  234MPD1    C1 3549   3.500   1.005   9.567  0.9667 -0.0814  1.1754
  234MPD1    C2 3550   3.539   1.134   9.535 -0.1356  0.5693 -0.2837
  234MPD1    C3 3551   3.590   1.226   9.632 -0.1755 -0.3739  0.2038
  234MPD1    C4 3552   3.595   1.182   9.764  0.5684  0.2293 -0.5064
  234MPD1    C5 3553   3.555   1.052   9.791  0.5521  0.1671  0.0745
  234MPD1     H 3554   3.542   1.166   9.432 -2.1973  0.4610 -0.3600
  234MPD1    H1 3555   3.614   1.242   9.853  1.8313  0.3366 -0.8422
  234MPD1    H2 3556   3.490   0.863   9.732  0.1226  0.5475  2.7327
  234MPD1    H3 3557   3.577   1.033   9.896 -0.8181  0.9446  0.5032
  234MPD1     N 3558   3.613   1.363   9.599  0.1606  0.1699 -0.4668
  234MPD1    H5 3559   3.599   1.398   9.505  1.2835  1.2862 -0.2273
  234MPD1    N1 3560   3.473   0.920   9.456 -0.1645 -0.1761  0.2305
  234MPD1    H6 3561   3.426   0.836   9.489  1.8549 -0.8883  1.3273
  234MPD1    H7 3562   3.418   0.971   9.387 -0.5469  0.7099  1.1852
  235MPD1     C 3563   4.028   4.356  10.145  0.4319 -0.2797  0.1588
  235MPD1    C1 3564   3.979   4.441  10.051 -0.2318  0.3304 -0.2253
  235MPD1    C2 3565   4.067   4.474   9.945 -0.3905 -0.2254  0.0668
  235MPD1    C3 3566   4.187   4.412   9.920 -0.3886 -0.4046  0.2938
  235MPD1    C4 3567   4.234   4.324  10.015  0.3557  0.0925 -0.7060
  235MPD1    C5 3568   4.148   4.283  10.111 -0.1216  0.6829  1.3389
  235MPD1     H 3569   4.018   4.542   9.876  0.4270  1.1069  0.8027
  235MPD1    H1 3570   4.329   4.273  10.008  0.2509 -0.2585  0.4827
  235MPD1    H2 3571   3.966   4.313  10.223  0.8390 -1.3196 -0.1025
  235MPD1    H3 3572   4.187   4.209  10.179 -2.5529 -0.7766  1.1559
  235MPD1     N 3573   4.268   4.467   9.818  0.5469 -0.3514 -0.4168
  235MPD1    H5 3574   4.229   4.546   9.768  0.1232  0.9491  1.9452
  235MPD1    N1 3575   3.864   4.522  10.076 -0.4515  0.0082  0.0230
  235MPD1    H6 3576   3.800   4.485  10.146 -0.1258 -0.8984 -0.1609
  235MPD1    H7 3577   3.818   4.531   9.986  0.7452  0.7132 -0.5220
  236MPD1     C 3578   3.956   0.390  10.263 -0.2525 -0.5811  0.0240
  236MPD1    C1 3579   4.047   0.475  10.201  0.8191 -0.0938 -0.4224
  236MPD1    C2 3580   4.147   0.531  10.277  0.0332 -0.1843  0.7479
  236MPD1    C3 3581   4.164   0.493  10.412  0.2654 -0.5782 -0.9673
  236MPD1    C4 3582   4.075   0.407  10.467 -0.6550  0.2586  0.2269
  236MPD1    C5 3583   3.973   0.358  10.395  0.3045  0.5000 -0.0563
  236MPD1     H 3584   4.205   0.601  10.218  0.8403 -0.2495  1.4550
  236MPD1    H1 3585   4.091   0.384  10.572 -1.3941  0.9308  0.4844
  236MPD1    H2 3586   3.873   0.340  10.215  0.7282 -0.3383 -1.9336
  236MPD1    H3 3587   3.901   0.290  10.440  0.1903  1.0695  0.6229
  236MPD1     N 3588   4.274   0.556  10.484 -0.0627  0.1030  0.1395
  236MPD1    H5 3589   4.287   0.520  10.578 -0.6873 -1.5875 -0.4233
  236MPD1    N1 3590   4.018   0.518  10.075 -1.1325 -0.0932  0.2177
  236MPD1    H6 3591   4.100   0.542  10.020 -0.2099  1.3408  2.2053
  236MPD1    H7 3592   3.971   0.440  10.029 -1.8092 -0.7461  1.9863
  237MPD1     C 3593   3.678   0.023  15.648 -0.1482 -0.4458 -0.0293
  237MPD1    C1 3594   3.657   4.660  15.741 -0.7130 -0.0515  0.2139
  237MPD1    C2 3595   3.640   4.535  15.698  0.1507  0.5153  0.4572
  237MPD1    C3 3596   3.634   4.502  15.565  0.2120 -0.1283 -0.5138
  237MPD1    C4 3597   3.650   4.595  15.460 -0.2435  0.4034  0.8378
  237MPD1    C5 3598   3.665   4.724  15.513 -0.6822  0.1356 -0.0910
  237MPD1     H 3599   3.607   4.460  15.769  1.8189 -1.9676 -1.3926
  237MPD1    H1 3600   3.635   4.570  15.356 -1.6186 -4.0814  2.1579
  237MPD1    H2 3601   3.689   0.125  15.683 -2.5377 -0.6961  1.4795
  237MPD1    H3 3602   3.674   0.077  15.441  1.8184 -0.2115 -0.1383
  237MPD1     N 3603   3.609   4.366  15.526 -0.6067  0.1015  0.0126
  237MPD1    H5 3604   3.602   4.338  15.429  0.6360 -2.7046  0.7186
  237MPD1    N1 3605   3.672   4.683  15.880  0.0195  0.2224  0.4670
  237MPD1    H6 3606   3.606   4.631  15.937 -1.2102 -0.0585 -1.1873
  237MPD1    H7 3607   3.686   0.053  15.906  1.1824  0.4423 -0.9836
  238MPD1     C 3608   1.204   2.715  15.021 -0.2854 -0.2653  0.2214
  238MPD1    C1 3609   1.089   2.664  15.082 -0.5541 -0.4812  0.0858
  238MPD1    C2 3610   0.982   2.635  15.000  0.6836  0.1748 -0.2117
  238MPD1    C3 3611   0.971   2.684  14.870 -0.1492 -0.5206 -0.2083
  238MPD1    C4 3612   1.082   2.746  14.817  0.4202  0.1205  0.0339
  238MPD1    C5 3613   1.199   2.762  14.888 -0.4875 -0.1283 -0.0283
  238MPD1     H 3614   0.893   2.591  15.043  1.7986 -2.6591 -0.7793
  238MPD1    H1 3615   1.083   2.765  14.710  4.0220 -1.7746 -0.2735
  238MPD1    H2 3616   1.294   2.750  15.070 -1.4538  1.4670  1.1506
  238MPD1    H3 3617   1.288   2.801  14.840 -1.6105  0.9282 -1.2558
  238MPD1     N 3618   0.848   2.682  14.792  0.0791 -0.5575 -0.0762
  238MPD1    H5 3619   0.855   2.717  14.697 -1.7366  2.0757  0.7715
  238MPD1    N1 3620   1.097   2.611  15.214 -0.7632  0.7925  0.3048
  238MPD1    H6 3621   1.167   2.661  15.269 -0.1248 -0.3926  0.5667
  238MPD1    H7 3622   1.006   2.631  15.256 -0.1562 -1.6835  2.8028
  239MPD1     C 3623   1.252   3.485  14.711 -0.4696  0.3316  0.5415
  239MPD1    C1 3624   1.179   3.591  14.756  0.8329 -0.6979 -0.3140
  239MPD1    C2 3625   1.101   3.674  14.676 -0.1185  0.7631 -0.8747
  239MPD1    C3 3626   1.086   3.638  14.543  0.1957 -0.4395 -0.4631
  239MPD1    C4 3627   1.142   3.519  14.503  0.4471 -0.3839  0.7236
  239MPD1    C5 3628   1.218   3.442  14.587  0.8707 -0.0627  0.0100
  239MPD1     H 3629   1.053   3.759  14.723 -1.6843 -0.9113  0.5535
  239MPD1    H1 3630   1.121   3.480  14.404  0.4629 -0.4752  0.7570
  239MPD1    H2 3631   1.318   3.428  14.775  0.9498 -2.5998 -3.5405
  239MPD1    H3 3632   1.249   3.345  14.550 -0.4808  0.6483 -2.9219
  239MPD1     N 3633   0.997   3.698  14.448  0.5223 -0.2645 -0.5308
  239MPD1    H5 3634   1.004   3.654  14.357  0.8902  1.9806 -1.5822
  239MPD1    N1 3635   1.199   3.645  14.885  0.1191 -0.1654 -0.1072
  239MPD1    H6 3636   1.124   3.710  14.910  0.5275 -0.0085  0.7280
  239MPD1    H7 3637   1.212   3.574  14.957 -0.1033  0.5332  0.6210
  240MPD1     C 3638   0.247   3.086  13.324  0.1901 -0.0474  0.2291
  240MPD1    C1 3639   0.144   3.028  13.399  0.2237 -0.2771 -0.3018
  240MPD1    C2 3640   0.178   2.975  13.519  0.2828  0.7870 -0.0478
  240MPD1    C3 3641   0.294   2.996  13.581 -0.6520 -0.2701 -0.0039
  240MPD1    C4 3642   0.391   3.068  13.514  0.4582 -0.0729  0.5989
  240MPD1    C5 3643   0.371   3.100  13.381 -0.3377  0.2256 -0.1624
  240MPD1     H 3644   0.108   2.913  13.574 -0.2148  1.6533  0.3153
  240MPD1    H1 3645   0.490   3.087  13.553  1.2628 -0.1364 -1.4281
  240MPD1    H2 3646   0.237   3.136  13.229 -2.2396 -1.0731 -0.0578
  240MPD1    H3 3647   0.442   3.150  13.317  0.6282 -1.9702 -0.7888
  240MPD1     N 3648   0.315   2.931  13.707  0.8405  0.5281  0.0157
  240MPD1    H5 3649   0.229   2.897  13.748  0.8213  0.6454  0.0735
  240MPD1    N1 3650   0.018   2.998  13.336 -0.0864 -0.1781 -0.4825
  240MPD1    H6 3651   4.660   2.996  13.393 -0.4883  3.6628 -0.9827
  240MPD1    H7 3652   0.002   3.062  13.259 -1.3845  0.2154  0.0952
  241MPD1     C 3653   1.101   3.004  14.350  0.4597  0.8066 -0.0163
  241MPD1    C1 3654   0.979   3.055  14.392  0.2264 -0.0606  0.1496
  241MPD1    C2 3655   0.856   3.019  14.334  0.5392 -0.4337 -0.9756
  241MPD1    C3 3656   0.862   2.927  14.231  0.1739 -0.1778 -1.0573
  241MPD1    C4 3657   0.984   2.879  14.182 -0.1079  0.3558  0.3601
  241MPD1    C5 3658   1.101   2.916  14.244 -0.2440 -0.0895 -0.7877
  241MPD1     H 3659   0.769   3.072  14.370  0.6156 -1.6930  1.0907
  241MPD1    H1 3660   0.975   2.811  14.098 -0.6465  0.8391  0.0275
  241MPD1    H2 3661   1.191   3.023  14.407 -0.2127  3.0695  0.2707
  241MPD1    H3 3662   1.193   2.867  14.212  0.6354 -0.4464  2.2674
  241MPD1     N 3663   0.740   2.878  14.179  0.3656  0.1756 -0.3776
  241MPD1    H5 3664   0.742   2.813  14.100  1.7289 -1.6847  1.1940
  241MPD1    N1 3665   0.965   3.132  14.510  0.3792 -0.4087 -0.0163
  241MPD1    H6 3666   1.052   3.178  14.538 -0.0625 -0.9825  2.2820
  241MPD1    H7 3667   0.881   3.187  14.523  1.1554  0.5681  0.9256
  242MPD1     C 3668   0.061   2.470  15.611  0.1662  0.6618 -0.4336
  242MPD1    C1 3669   0.010   2.461  15.487 -0.9350  0.2986  0.5292
  242MPD1    C2 3670   0.058   2.369  15.402 -0.0577  1.0482  0.0849
  242MPD1    C3 3671   0.143   2.266  15.441 -0.7394  0.6937  0.2626
  242MPD1    C4 3672   0.184   2.269  15.577  0.6675 -0.5990 -0.0506
  242MPD1    C5 3673   0.140   2.372  15.655 -0.8069 -0.4170 -0.3530
  242MPD1     H 3674   0.034   2.367  15.296  0.5151  2.4358 -0.0753
  242MPD1    H1 3675   0.254   2.195  15.616 -1.6382 -1.8791  1.6788
  242MPD1    H2 3676   0.043   2.559  15.670  1.9642 -0.7683  2.2759
  242MPD1    H3 3677   0.179   2.374  15.756 -0.3930 -0.9446 -0.5034
  242MPD1     N 3678   0.200   2.165  15.368  0.4810  0.1086  0.0596
  242MPD1    H5 3679   0.249   2.087  15.411 -1.0517  1.0501  3.5505
  242MPD1    N1 3680   4.667   2.567  15.435 -0.1502 -0.3164  0.1538
  242MPD1    H6 3681   4.605   2.532  15.362 -1.2470 -1.0025  1.4072
  242MPD1    H7 3682   4.607   2.611  15.505 -1.7065  1.4410 -2.2884
  243MPD1     C 3683   1.363   0.259  17.650 -0.7131  0.1174  0.1053
  243MPD1    C1 3684   1.247   0.188  17.684  0.1989 -0.0304 -0.2511
  243MPD1    C2 3685   1.195   0.108  17.585  0.3011  0.0885 -0.5492
  243MPD1    C3 3686   1.260   0.071  17.467  0.1136 -0.3526  0.0768
  243MPD1    C4 3687   1.374   0.139  17.437 -0.1419 -0.2058  0.4496
  243MPD1    C5 3688   1.425   0.228  17.532 -0.0307 -1.0223  0.1040
  243MPD1     H 3689   1.109   0.048  17.614 -0.1015  0.6066 -0.6682
  243MPD1    H1 3690   1.426   0.130  17.343  0.0821 -0.9052  0.6444
  243MPD1    H2 3691   1.392   0.345  17.710 -0.2461 -0.9663  1.4145
  243MPD1    H3 3692   1.507   0.290  17.500  0.2435 -0.9141  1.0005
  243MPD1     N 3693   1.210   4.695  17.381 -0.5248  0.9071 -0.0941
  243MPD1    H5 3694   1.122   4.651  17.407  1.3386 -1.9608  1.3994
  243MPD1    N1 3695   1.169   0.230   0.077  0.2016 -0.7019 -0.0892
  243MPD1    H6 3696   1.236   0.247   0.152 -1.0068 -0.4141  0.9240
  243MPD1    H7 3697   1.110   0.159   0.119 -1.4619  0.4083 -0.5432
  244MPD1     C 3698   0.528   0.142  17.057 -0.3785 -0.5959  0.0706
  244MPD1    C1 3699   0.557   0.098  17.185 -0.1508 -0.3893  0.2701
  244MPD1    C2 3700   0.639   4.717  17.205 -0.5513 -0.2164 -0.1192
  244MPD1    C3 3701   0.709   4.669  17.091  0.4659 -0.1543  0.0634
  244MPD1    C4 3702   0.683   4.715  16.958  0.5390  0.4078  1.0711
  244MPD1    C5 3703   0.577   0.074  16.948  0.1889 -0.1189 -0.1047
  244MPD1     H 3704   0.659   4.684  17.306 -1.6459  0.2974  0.2669
  244MPD1    H1 3705   0.732   4.676  16.869 -1.5941 -0.6769  0.3776
  244MPD1    H2 3706   0.476   0.236  17.042  2.3443  0.7387 -1.0276
  244MPD1    H3 3707   0.554   0.111  16.849 -1.0277  0.0864  0.2599
  244MPD1     N 3708   0.825   4.589  17.113  0.3223 -0.0145  0.0556
  244MPD1    H5 3709   0.850   4.560  17.207  0.3620 -1.6485 -0.4593
  244MPD1    N1 3710   0.494   0.148  17.295  0.3421  0.5185 -0.0126
  244MPD1    H6 3711   0.468   0.245  17.274 -0.3621  0.3080 -0.0991
  244MPD1    H7 3712   0.549   0.150  17.380 -0.1607 -0.7219  0.3270
  245MPD1     C 3713   3.657   0.466  13.151  0.2467 -0.5683  0.3443
  245MPD1    C1 3714   3.761   0.451  13.236  0.0256 -0.8713  0.0403
  245MPD1    C2 3715   3.850   0.558  13.258 -0.8504  0.1276  0.3259
  245MPD1    C3 3716   3.825   0.679  13.200  0.0934 -0.0255  0.0543
  245MPD1    C4 3717   3.723   0.694  13.111  0.0396  0.3574 -0.0509
  245MPD1    C5 3718   3.640   0.588  13.088  0.3773 -0.5528  0.0027
  245MPD1     H 3719   3.936   0.543  13.322 -0.4664 -1.0965 -0.4734
  245MPD1    H1 3720   3.700   0.789  13.064  1.0732  0.8436  0.4101
  245MPD1    H2 3721   3.584   0.387  13.140  1.4836 -1.4663 -1.2541
  245MPD1    H3 3722   3.554   0.602  13.023 -0.6246  1.5631  1.7781
  245MPD1     N 3723   3.927   0.774  13.218  0.5436  0.2678 -0.7901
  245MPD1    H5 3724   3.987   0.767  13.299  1.4105  0.7280 -1.3902
  245MPD1    N1 3725   3.786   0.322  13.278  0.1746 -0.1469 -0.7495
  245MPD1    H6 3726   3.699   0.275  13.301  1.2511 -0.4297  2.7568
  245MPD1    H7 3727   3.842   0.320  13.363 -1.8860  0.5763  0.6318
  246MPD1     C 3728   0.659   2.524   9.346 -0.8768  0.3691 -0.6860
  246MPD1    C1 3729   0.755   2.441   9.287  0.1478  0.3835  0.5992
  246MPD1    C2 3730   0.713   2.318   9.250 -0.5450 -0.5974 -0.2608
  246MPD1    C3 3731   0.603   2.261   9.301  0.5513 -0.2697 -1.0227
  246MPD1    C4 3732   0.528   2.333   9.394  0.2958  0.7343 -0.0481
  246MPD1    C5 3733   0.551   2.463   9.405 -0.0395 -0.7118  0.5720
  246MPD1     H 3734   0.778   2.254   9.192  1.8196  3.1047 -1.6811
  246MPD1    H1 3735   0.433   2.300   9.435  0.0816  0.4786 -0.7451
  246MPD1    H2 3736   0.679   2.630   9.359 -0.6133  0.2177  0.1518
  246MPD1    H3 3737   0.476   2.518   9.461 -0.2478 -0.5371  0.1169
  246MPD1     N 3738   0.573   2.130   9.250 -0.5476  0.0301 -0.3393
  246MPD1    H5 3739   0.650   2.091   9.197 -1.1428 -0.4320 -0.8489
  246MPD1    N1 3740   0.861   2.501   9.215 -0.9559  0.7064 -0.1193
  246MPD1    H6 3741   0.941   2.439   9.199 -1.4970 -0.0609  0.1511
  246MPD1    H7 3742   0.906   2.577   9.265 -2.7558  0.6362  1.5797
  247MPD1     C 3743   2.860   4.667  15.309 -0.2796 -0.1687  1.2697
  247MPD1    C1 3744   2.759   4.667  15.403 -0.1461  0.5900  0.3887
  247MPD1    C2 3745   2.704   0.059  15.445  0.1316 -0.0004 -0.0829
  247MPD1    C3 3746   2.773   0.176  15.417  0.3644 -0.0494 -0.0971
  247MPD1    C4 3747   2.874   0.172  15.321  0.7080 -0.2125 -0.0464
  247MPD1    C5 3748   2.908   0.054  15.262  0.3705 -0.3153  0.3904
  247MPD1     H 3749   2.618   0.063  15.511  1.1208 -0.2953  1.2283
  247MPD1    H1 3750   2.927   0.262  15.293  1.2230 -0.0775  1.3392
  247MPD1    H2 3751   2.896   4.573  15.268  1.1816 -0.1014  2.4005
  247MPD1    H3 3752   2.984   0.067  15.186 -1.2113 -1.3708 -1.3685
  247MPD1     N 3753   2.731   0.304  15.455 -0.2995  0.6169  0.1261
  247MPD1    H5 3754   2.776   0.384  15.412  1.0660 -0.1108  0.1905
  247MPD1    N1 3755   2.705   4.547  15.438 -0.1061 -0.4240 -0.5806
  247MPD1    H6 3756   2.771   4.470  15.438 -0.1466 -0.4599  0.3962
  247MPD1    H7 3757   2.661   4.545  15.530  1.2754 -0.1006  0.0850
  248MPD1     C 3758   3.920   2.515   0.277 -0.0877  0.2395 -0.2641
  248MPD1    C1 3759   4.009   2.434   0.339  0.1459  0.1936 -0.2857
  248MPD1    C2 3760   4.001   2.301   0.306  0.4915 -0.0599 -0.2334
  248MPD1    C3 3761   3.897   2.252   0.225  0.0273  0.5989  0.3407
  248MPD1    C4 3762   3.803   2.334   0.180  0.5300  0.5643 -0.7776
  248MPD1    C5 3763   3.817   2.463   0.203 -0.4324 -0.2563  0.2031
  248MPD1     H 3764   4.072   2.226   0.340  0.2763  1.2596  3.0586
  248MPD1    H1 3765   3.718   2.302   0.121 -0.6339  2.2853 -0.0329
  248MPD1    H2 3766   3.932   2.621   0.291  1.1235  0.2863 -1.7238
  248MPD1    H3 3767   3.746   2.533   0.160 -1.0716 -0.3755  1.0535
  248MPD1     N 3768   3.898   2.116   0.207  0.7581  0.0204 -0.1739
  248MPD1    H5 3769   3.972   2.066   0.255  0.3738 -1.7399 -1.3974
  248MPD1    N1 3770   4.122   2.495   0.396  0.3473 -0.5839 -0.5243
  248MPD1    H6 3771   4.090   2.572   0.455 -2.6107 -1.8999 -0.4068
  248MPD1    H7 3772   4.168   2.429   0.459  3.1024 -0.5542 -2.5074
  249MPD1     C 3773   0.258   4.375   9.958  0.5777 -0.4850 -1.1846
  249MPD1    C1 3774   0.149   4.282   9.950 -0.2101 -0.2606  1.1507
  249MPD1    C2 3775   0.185   4.149   9.977 -0.0197 -0.3700 -0.5888
  249MPD1    C3 3776   0.309   4.112  10.021  0.1903 -0.2090  0.3267
  249MPD1    C4 3777   0.411   4.201  10.035 -0.9770  0.5427 -0.5647
  249MPD1    C5 3778   0.379   4.332  10.003  0.1251  0.2939  0.7510
  249MPD1     H 3779   0.110   4.072   9.961 -0.3821 -0.8325  3.1981
  249MPD1    H1 3780   0.511   4.176  10.067 -0.6178  1.9324 -0.6364
  249MPD1    H2 3781   0.245   4.477   9.924 -1.9942  0.0252  1.3649
  249MPD1    H3 3782   0.462   4.399  10.021  1.0531 -0.5207 -0.5045
  249MPD1     N 3783   0.325   3.970  10.055  0.1774 -0.2616  0.5316
  249MPD1    H5 3784   0.241   3.915  10.043  1.2267 -2.0111  1.2949
  249MPD1    N1 3785   0.034   4.321   9.881  0.2567 -0.1109 -0.0577
  249MPD1    H6 3786   4.675   4.271   9.898  0.2901 -0.6631 -1.5772
  249MPD1    H7 3787   0.012   4.416   9.911 -1.2295 -0.7493  0.8894
  250MPD2     C 3788   2.515   4.014  13.034 -0.1240  0.3651  0.5713
  250MPD2    C1 3789   2.395   4.063  13.076  0.3371 -0.1298 -0.1528
  250MPD2    C2 3790   2.276   3.989  13.068  0.6673 -0.6992 -0.0540
  250MPD2    C3 3791   2.288   3.866  13.003  0.9712 -0.4515  0.3020
  250MPD2    C4 3792   2.412   3.815  12.967 -0.4570  0.5144 -0.1193
  250MPD2    C5 3793   2.526   3.890  12.984  0.4614 -0.1388 -1.5596
  250MPD2     H 3794   2.183   4.023  13.112  0.7420  1.1411 -1.3279
  250MPD2    H1 3795   2.410   3.712  12.935  3.0647  0.3273  0.2339
  250MPD2    H2 3796   2.603   4.077  13.033 -1.0966  1.7624  2.5375
  250MPD2    H3 3797   2.623   3.849  12.960  0.6747 -0.7599  0.3246
  250MPD2     N 3798   2.178   3.778  12.984  0.1961 -0.3822  0.0300
  250MPD2    H5 3799   2.191   3.687  12.940 -1.1337 -1.5681  2.1204
  250MPD2    N1 3800   2.405   4.201  13.117  0.6380  0.6635 -0.8010
  250MPD2    H7 3801   2.488   4.258  13.100  0.2856  1.0989 -1.0714
  251TMC3    C1 3802   2.342   4.414  13.187  0.5639 -0.3344 -0.4235
  251TMC3    C2 3803   2.236   4.500  13.195  0.2110  0.5776 -0.2421
  251TMC3    C3 3804   2.256   4.627  13.146 -0.3268 -0.1470  0.7379
  251TMC3    C4 3805   2.463   4.456  13.141 -0.3813  0.1701  0.3934
  251TMC3    C5 3806   2.482   4.587  13.114 -1.0008 -0.0870  0.4717
  251TMC3    C6 3807   2.381   4.674  13.116 -0.1496  0.4725 -0.3618
  251TMC3     C 3808   2.297   4.280  13.148  0.5817 -0.0114  0.2064
  251TMC3     O 3809   2.175   4.255  13.144 -0.0067  0.7337  0.6536
  251TMC3     H 3810   2.137   4.460  13.214 -0.1653  1.9996  0.8293
  251TMC3    H1 3811   2.544   4.385  13.151  1.0573  1.9612  1.2618
  251TMC3    H2 3812   2.392   0.050  13.088  1.8708  1.1367  2.8293
  251TMC3    C7 3813   2.616   4.635  13.087 -0.0525 -0.3416  0.2934
  251TMC3    C8 3814   2.148   4.726  13.166  0.6414 -0.0888 -0.1777
  251TMC3    O1 3815   2.698   4.546  13.097  0.3555  0.5762 -0.3598
  251TMC3    O2 3816   2.076   4.687  13.256 -0.1548  0.5129  0.2046
  252TMC3    C1 3817   3.615   0.221   9.325 -0.0944  0.5724  0.3088
  252TMC3    C2 3818   3.563   0.348   9.331  0.5197  0.6890  0.4075
  252TMC3    C3 3819   3.520   0.393   9.450  0.0456 -0.8245  0.2106
  252TMC3    C4 3820   3.633   0.144   9.442 -0.0914  0.5646 -0.1721
  252TMC3    C5 3821   3.596   0.201   9.561 -0.3205  0.0953  0.1617
  252TMC3    C6 3822   3.520   0.319   9.560 -0.2195 -0.0881  0.1192
  252TMC3     C 3823   3.675   0.182   9.206  0.4896  0.1132  0.3466
  252TMC3     O 3824   3.690   0.267   9.124 -0.3822 -0.2066 -0.3724
  252TMC3     H 3825   3.566   0.415   9.245 -0.5160 -0.2417 -0.3409
  252TMC3    H1 3826   3.676   0.045   9.433 -2.7936 -0.5358 -0.9522
  252TMC3    H2 3827   3.477   0.353   9.653 -0.6588 -0.9861  0.2460
  252TMC3    C7 3828   3.600   0.120   9.677  0.2687 -0.6080  0.6294
  252TMC3    C8 3829   3.441   0.514   9.432  0.4705  0.3345 -0.1570
  252TMC3    O1 3830   3.525   0.158   9.762 -0.1698 -0.0260 -0.6208
  252TMC3    O2 3831   3.383   0.530   9.325 -0.3824 -0.3051  0.1447
  253MPD2     C 3832   3.303   4.677  15.276 -0.0935  0.6441 -0.4078
  253MPD2    C1 3833   3.217   4.569  15.261 -0.4950  0.1257  0.0549
  253MPD2    C2 3834   3.197   4.481  15.367  0.0891 -1.0846 -0.6254
  253MPD2    C3 3835   3.258   4.505  15.490 -0.4190 -0.0736  0.1184
  253MPD2    C4 3836   3.339   4.617  15.502  0.3005  0.2057  0.5968
  253MPD2    C5 3837   3.356   4.703  15.395  0.0599 -0.3613  0.4468
  253MPD2     H 3838   3.149   4.386  15.347 -2.4133 -0.3497  1.8661
  253MPD2    H1 3839   3.384   4.635  15.599 -3.3193  1.4451  2.0453
  253MPD2    H2 3840   3.323   0.021  15.198  2.0777  1.8712  1.2829
  253MPD2    H3 3841   3.413   0.067  15.410 -0.8420  0.6363 -2.1746
  253MPD2     N 3842   3.255   4.423  15.601  0.5930  0.3731  0.0640
  253MPD2    H5 3843   3.298   4.456  15.687  1.5438  0.3242 -0.3978
  253MPD2    N1 3844   3.156   4.532  15.137  0.4695  0.3406  0.6440
  253MPD2    H7 3845   3.101   4.448  15.141  1.2714 -0.1882  0.5605
  254TMC3    C1 3846   3.207   4.218  15.735 -0.0112  0.5273  0.1394
  254TMC3    C2 3847   3.092   4.150  15.768  0.5336 -0.6272  0.4251
  254TMC3    C3 3848   3.088   4.087  15.883  0.2092  0.0412 -0.0401
  254TMC3    C4 3849   3.321   4.228  15.815  0.2361  0.0746  0.6413
  254TMC3    C5 3850   3.316   4.154  15.937 -0.0577  0.1723  0.4911
  254TMC3    C6 3851   3.199   4.084  15.968 -0.4836  0.3090 -0.1060
  254TMC3     C 3852   3.195   4.298  15.610  0.1821  0.0152 -0.4731
  254TMC3     O 3853   3.124   4.243  15.522  0.3161  0.4604 -0.1552
  254TMC3     H 3854   3.002   4.148  15.708  1.2299 -1.1926 -0.6068
  254TMC3    H1 3855   3.404   4.297  15.809 -0.5464  0.9330 -0.2849
  254TMC3    H2 3856   3.177   4.044  16.066  2.5921  2.3469  1.4039
  254TMC3    C7 3857   3.402   4.179  16.046  0.2846 -0.5514 -0.9013
  254TMC3    C8 3858   2.969   4.131  15.962  0.1080  0.2417  0.2313
  254TMC3    O1 3859   3.356   4.161  16.160  0.2912  0.2966  0.2736
  254TMC3    O2 3860   2.995   4.196  16.063 -0.0380  0.1077 -0.4471
  255MPD2     C 3861   1.548   1.629  10.521 -0.0294 -0.5669  0.0053
  255MPD2    C1 3862   1.531   1.763  10.482 -0.2756 -0.6696  0.6502
  255MPD2    C2 3863   1.635   1.843  10.441  0.4291  0.0582  0.5722
  255MPD2    C3 3864   1.759   1.793  10.444  0.3008  0.3110 -0.8716
  255MPD2    C4 3865   1.785   1.675  10.515 -0.5029 -0.0546 -0.3618
  255MPD2    C5 3866   1.676   1.593  10.544 -0.6432  0.4551 -0.1997
  255MPD2     H 3867   1.621   1.945  10.408  1.8885  0.0818  0.0411
  255MPD2    H1 3868   1.886   1.640  10.533  0.3261  1.5005 -2.0528
  255MPD2    H2 3869   1.465   1.568  10.556  0.2084 -0.2608  1.1134
  255MPD2    H3 3870   1.680   1.491  10.581  0.7782  1.2996  1.9506
  255MPD2     N 3871   1.869   1.868  10.403  0.2322  0.2997  0.0136
  255MPD2    H5 3872   1.850   1.958  10.360  0.9469  0.7499  0.6328
  255MPD2    N1 3873   1.406   1.818  10.494  0.1867 -0.3753 -1.1717
  255MPD2    H7 3874   1.336   1.758  10.536  1.0450 -0.4576  0.1489
  256TMC3    C1 3875   1.229   1.986  10.475 -0.0063  0.1847  0.3113
  256TMC3    C2 3876   1.231   2.117  10.474  0.0910 -0.4719  0.6124
  256TMC3    C3 3877   1.157   2.193  10.392  0.4481  0.1663 -0.1964
  256TMC3    C4 3878   1.141   1.915  10.395  0.2334 -0.1167  0.6075
  256TMC3    C5 3879   1.091   1.986  10.287  0.1933 -0.0029  0.4767
  256TMC3    C6 3880   1.098   2.123  10.286  0.7614  0.9105  0.0792
  256TMC3     C 3881   1.364   1.943  10.453 -0.1261 -0.5023 -0.2778
  256TMC3     O 3882   1.425   2.029  10.394 -0.0022 -0.0723 -0.2332
  256TMC3     H 3883   1.311   2.153  10.538 -0.2956  0.0281  0.8087
  256TMC3    H1 3884   1.148   1.807  10.389 -1.0236 -0.1567 -0.1299
  256TMC3    H2 3885   1.034   2.165  10.210 -0.3745 -0.5331  0.2456
  256TMC3    C7 3886   1.138   1.923  10.165 -0.1909  0.0488 -0.3662
  256TMC3    C8 3887   1.213   2.323  10.350  0.0053  0.1851 -0.7429
  256TMC3    O1 3888   1.128   1.804  10.160 -0.1749  0.0282 -0.2568
  256TMC3    O2 3889   1.138   2.419  10.335 -0.0394  0.3807  0.8539
  257MPD2     C 3890   0.586   4.300  13.215 -0.2576  0.2304  0.4616
  257MPD2    C1 3891   0.591   4.195  13.121  0.3572 -0.6035  0.6489
  257MPD2    C2 3892   0.600   4.066  13.159  0.6756  0.6646  0.3645
  257MPD2    C3 3893   0.613   4.032  13.290  0.1751  0.0097 -0.2376
  257MPD2    C4 3894   0.612   4.130  13.385 -0.4430 -0.8647  0.8510
  257MPD2    C5 3895   0.600   4.265  13.349  0.2805 -0.4263 -0.4460
  257MPD2     H 3896   0.613   3.987  13.085 -1.8038  1.1601 -0.6052
  257MPD2    H1 3897   0.602   4.116  13.492 -0.6294 -0.8931  0.8304
  257MPD2    H2 3898   0.576   4.406  13.194  3.2523  0.3597 -0.5893
  257MPD2    H3 3899   0.596   4.343  13.424 -2.0913 -1.0494  0.0996
  257MPD2     N 3900   0.639   3.900  13.323  0.0761  0.2626  0.3815
  257MPD2    H5 3901   0.646   3.834  13.247 -1.3764 -1.2354  1.5646
  257MPD2    N1 3902   0.590   4.234  12.987  0.1573  0.1795 -0.1733
  257MPD2    H7 3903   0.577   4.334  12.975 -0.5972 -0.0066 -0.8515
  258TMC3    C1 3904   0.591   3.703  13.448  0.2485 -0.2632 -0.7058
  258TMC3    C2 3905   0.507   3.662  13.351  0.2596  0.3740 -0.2693
  258TMC3    C3 3906   0.426   3.549  13.373 -0.2887 -0.0402 -0.3540
  258TMC3    C4 3907   0.613   3.635  13.567  0.6578 -0.7955  0.3716
  258TMC3    C5 3908   0.549   3.516  13.566  0.2831 -0.2212 -0.1816
  258TMC3    C6 3909   0.456   3.473  13.480  0.5645  0.5173 -0.7212
  258TMC3     C 3910   0.621   3.845  13.448 -0.3400 -0.3642  0.6930
  258TMC3     O 3911   0.612   3.893  13.557  0.4202 -0.5849 -0.0331
  258TMC3     H 3912   0.498   3.719  13.259  0.8268  1.1181  0.1397
  258TMC3    H1 3913   0.669   3.686  13.645 -0.3408 -0.0345  0.5867
  258TMC3    H2 3914   0.409   3.378  13.499 -1.8480  1.5067 -1.7161
  258TMC3    C7 3915   0.588   3.419  13.663  0.3528  0.6971  0.4702
  258TMC3    C8 3916   0.350   3.496  13.259  0.0358 -0.4037  0.5886
  258TMC3    O1 3917   0.507   3.333  13.695 -0.2395 -0.0909 -0.2266
  258TMC3    O2 3918   0.397   3.515  13.146  0.2476  0.0238 -0.1209
  259MPD2     C 3919   4.004   0.438   0.686 -0.6029 -0.3161 -0.3868
  259MPD2    C1 3920   4.137   0.470   0.701  0.5599 -0.5897 -0.1312
  259MPD2    C2 3921   4.226   0.471   0.595 -0.0405 -0.1693 -0.1579
  259MPD2    C3 3922   4.168   0.452   0.470  0.0823 -0.3953  0.2159
  259MPD2    C4 3923   4.034   0.411   0.453 -0.1991  0.8646 -1.0480
  259MPD2    C5 3924   3.953   0.408   0.562  0.5099  0.2887  0.1029
  259MPD2     H 3925   4.329   0.503   0.605 -0.4376  0.2961  2.6432
  259MPD2    H1 3926   3.996   0.394   0.353  1.9808 -0.5170 -1.6351
  259MPD2    H2 3927   3.937   0.437   0.771 -0.4633  1.6039 -0.2345
  259MPD2    H3 3928   3.849   0.379   0.548  0.7743  0.7785 -2.9863
  259MPD2     N 3929   4.252   0.462   0.356  0.0460 -0.0238 -0.6998
  259MPD2    H5 3930   4.343   0.493   0.389  0.2593 -1.2487 -0.1139
  259MPD2    N1 3931   4.165   0.509   0.835  0.3128 -0.2067 -0.2868
  259MPD2    H7 3932   4.088   0.492   0.899  0.3500 -1.1328 -0.4888
  260TMC3    C1 3933   4.339   0.414   0.148  0.1882  0.4482 -0.2107
  260TMC3    C2 3934   4.334   0.467   0.026  0.4115  0.1227  0.2314
  260TMC3    C3 3935   4.425   0.424  17.643  0.7173  0.0330 -0.1016
  260TMC3    C4 3936   4.441   0.329   0.189  0.2506 -0.5630  0.5725
  260TMC3    C5 3937   4.530   0.285   0.091  0.5197 -0.8612  0.4037
  260TMC3    C6 3938   4.519   0.327  17.676  0.2400  0.2461  0.2025
  260TMC3     C 3939   4.224   0.450   0.223 -0.0489  0.2428 -0.2036
  260TMC3     O 3940   4.113   0.457   0.173  0.2140  0.3541  0.0603
  260TMC3     H 3941   4.243   0.521   0.002  0.1366 -0.8432 -0.8782
  260TMC3    H1 3942   4.445   0.301   0.293 -0.6944 -0.5731  0.6124
  260TMC3    H2 3943   4.570   0.267  17.602  0.4123 -0.8187  1.1766
  260TMC3    C7 3944   4.641   0.198   0.127 -0.4894 -0.1716  0.1015
  260TMC3    C8 3945   4.462   0.530  17.548 -0.0407 -0.2942 -0.3422
  260TMC3    O1 3946   4.683   0.123   0.040  0.1132 -0.6352 -0.1136
  260TMC3    O2 3947   4.386   0.623  17.541 -0.2966  0.0519  0.1545
  261MPD2     C 3948   1.364   3.871  12.835  1.3932  0.2013 -0.0462
  261MPD2    C1 3949   1.493   3.911  12.817 -0.8457  0.4037  0.7659
  261MPD2    C2 3950   1.518   4.037  12.759  0.2847 -0.2835 -0.0527
  261MPD2    C3 3951   1.414   4.123  12.718 -0.6142  0.5302 -0.2046
  261MPD2    C4 3952   1.281   4.082  12.732  0.1726  0.2319 -0.1921
  261MPD2    C5 3953   1.264   3.962  12.796 -0.0961  0.4905  0.2944
  261MPD2     H 3954   1.621   4.065  12.743  0.3084 -0.5352 -0.3416
  261MPD2    H1 3955   1.199   4.139  12.688  1.2762  1.3462 -0.8169
  261MPD2    H2 3956   1.346   3.768  12.863 -0.0561  0.8471  1.3644
  261MPD2    H3 3957   1.160   3.930  12.799  0.3337 -0.8011  1.4182
  261MPD2     N 3958   1.456   4.239  12.655 -0.1078  0.4873 -0.1757
  261MPD2    H5 3959   1.554   4.246  12.631 -0.2888  1.5172 -0.6136
  261MPD2    N1 3960   1.601   3.830  12.856 -0.4481 -0.2046  0.6592
  261MPD2    H7 3961   1.693   3.857  12.822  0.0334 -0.8218  1.4545
  262TMC3    C1 3962   1.439   4.454  12.558 -0.6694 -0.4739 -0.1479
  262TMC3    C2 3963   1.358   4.546  12.491  0.6756 -0.2970  0.2835
  262TMC3    C3 3964   1.424   4.669  12.474 -0.5408  0.2116  0.5453
  262TMC3    C4 3965   1.575   4.467  12.592  0.9593 -0.3371 -0.2264
  262TMC3    C5 3966   1.628   4.588  12.569 -0.0484  0.3780  0.6083
  262TMC3    C6 3967   1.553   4.690  12.517 -0.4346 -0.5106 -0.0308
  262TMC3     C 3968   1.369   4.339  12.612 -0.1889 -0.0649 -0.5804
  262TMC3     O 3969   1.249   4.334  12.598  0.4979 -0.5355  0.0924
  262TMC3     H 3970   1.257   4.528  12.456  0.6420 -0.6506  0.5594
  262TMC3    H1 3971   1.635   4.399  12.651  0.0603  0.9354  2.1649
  262TMC3    H2 3972   1.602   0.058  12.500 -0.2184 -0.7534 -0.7579
  262TMC3    C7 3973   1.746   4.578  12.476  0.1386  0.1533 -0.0819
  262TMC3    C8 3974   1.382   0.024  12.367 -0.0402  0.5362 -0.4336
  262TMC3    O1 3975   1.830   4.493  12.513 -0.8559  0.1937  0.2745
  262TMC3    O2 3976   1.474   0.081  12.308 -0.5902 -1.0456  0.0031
  263MPD2     C 3977   2.325   3.320  11.146 -0.6391  0.0885  0.1798
  263MPD2    C1 3978   2.457   3.289  11.120  0.0246 -0.5168  0.4723
  263MPD2    C2 3979   2.541   3.391  11.087 -0.3840 -0.3870 -0.1747
  263MPD2    C3 3980   2.499   3.524  11.095  0.2285 -0.1090  0.0538
  263MPD2    C4 3981   2.369   3.556  11.124  0.2985  0.0812 -0.1546
  263MPD2    C5 3982   2.279   3.451  11.140  0.1977 -0.7238 -0.0676
  263MPD2     H 3983   2.648   3.381  11.071  0.1468  0.4441  2.7768
  263MPD2    H1 3984   2.320   3.652  11.137  0.4712  0.0036  1.0562
  263MPD2    H2 3985   2.254   3.238  11.153  0.1527 -0.6130  0.0451
  263MPD2    H3 3986   2.176   3.483  11.137  0.1127 -1.2247 -2.6910
  263MPD2     N 3987   2.595   3.629  11.075  0.3140  0.0753  0.7502
  263MPD2    H5 3988   2.690   3.601  11.052  0.7118  0.7884  1.5394
  263MPD2    N1 3989   2.503   3.161  11.161 -0.0221  0.4261 -0.1138
  263MPD2    H7 3990   2.433   3.108  11.211  0.6040  0.8543  1.2062
  264TMC3    C1 3991   2.709   3.840  11.155  0.0228 -0.0204 -0.4566
  264TMC3    C2 3992   2.709   3.907  11.278  0.7489 -0.4921  0.5603
  264TMC3    C3 3993   2.759   4.035  11.283  0.1850 -0.4721 -0.8876
  264TMC3    C4 3994   2.769   3.889  11.045 -0.4309 -0.4500  0.1925
  264TMC3    C5 3995   2.809   4.014  11.045  0.4165  0.3198 -0.3306
  264TMC3    C6 3996   2.813   4.084  11.164  0.4608  0.1974  0.7132
  264TMC3     C 3997   2.583   3.759  11.126  0.0469  0.0448  0.7021
  264TMC3     O 3998   2.481   3.808  11.167 -0.1668  0.8753  0.1680
  264TMC3     H 3999   2.639   3.873  11.353 -0.3260  1.7837  0.6030
  264TMC3    H1 4000   2.778   3.829  10.956  2.9657 -0.1424  0.3205
  264TMC3    H2 4001   2.840   4.189  11.162 -0.0008  0.3249  1.4024
  264TMC3    C7 4002   2.932   4.039  10.974  0.2724  0.3690 -0.3037
  264TMC3    C8 4003   2.843   4.076  11.394 -0.8200  1.1868 -0.3205
  264TMC3    O1 4004   2.941   4.001  10.859 -0.2002 -0.1885  0.4685
  264TMC3    O2 4005   2.947   4.136  11.365  0.4008 -0.3276 -0.0932
  265MPD2     C 4006   4.601   3.868  15.769  0.1149 -0.6954 -0.1879
  265MPD2    C1 4007   4.541   3.952  15.674  0.1458  0.3108  0.2478
  265MPD2    C2 4008   4.558   3.929  15.534  0.3847 -0.2750  0.0647
  265MPD2    C3 4009   4.643   3.829  15.493 -0.3404 -0.0177  0.3166
  265MPD2    C4 4010   4.698   3.747  15.588  0.1118  0.0881 -0.0308
  265MPD2    C5 4011   4.681   3.766  15.718  0.0947  0.2570 -0.2657
  265MPD2     H 4012   4.506   3.991  15.462  2.5487  4.4141  2.5634
  265MPD2    H1 4013   0.028   3.659  15.562 -0.1175  0.1080 -0.5938
  265MPD2    H2 4014   4.585   3.874  15.876  0.2213  0.8354 -0.2570
  265MPD2    H3 4015   4.725   3.696  15.788  0.8995  1.0474  0.0228
  265MPD2     N 4016   4.668   3.796  15.358 -0.6303 -0.6246  0.1811
  265MPD2    H5 4017   0.003   3.716  15.349 -0.7100 -0.6903  0.2177
  265MPD2    N1 4018   4.456   4.054  15.714  0.9665  0.0485  0.6137
  265MPD2    H7 4019   4.407   4.107  15.642 -1.9622 -1.2799  1.6172
  266TMC3    C1 4020   4.351   4.209  15.848  0.1323 -0.3069  0.5347
  266TMC3    C2 4021   4.302   4.247  15.974  1.0689 -0.9071 -0.4634
  266TMC3    C3 4022   4.245   4.368  15.985 -0.2606  0.6879 -0.6244
  266TMC3    C4 4023   4.332   4.289  15.739  0.5764  0.4185 -0.1412
  266TMC3    C5 4024   4.261   4.406  15.758  0.5528  0.1600  0.5243
  266TMC3    C6 4025   4.213   4.445  15.878  0.8343  0.4037 -0.1304
  266TMC3     C 4026   4.432   4.088  15.846  0.4408 -0.1715 -0.1719
  266TMC3     O 4027   4.480   4.055  15.953 -0.2489 -0.3971  0.8220
  266TMC3     H 4028   4.317   4.179  16.058  0.9738 -0.3370  0.0149
  266TMC3    H1 4029   4.360   4.266  15.636 -0.1529  1.3716 -0.5538
  266TMC3    H2 4030   4.152   4.533  15.890  0.1572 -0.0141 -0.4942
  266TMC3    C7 4031   4.236   4.483  15.643  0.0340  0.7167 -0.2196
  266TMC3    C8 4032   4.214   4.420  16.118 -0.0294 -0.3393 -0.9618
  266TMC3    O1 4033   4.312   4.459  15.552 -0.3738 -0.0564 -0.0128
  266TMC3    O2 4034   4.194   4.344  16.214  0.3636 -0.0441  0.0486
  267MPD2     C 4035   2.264   0.619  17.304 -0.0754 -0.6991  0.3415
  267MPD2    C1 4036   2.276   0.722  17.216  0.0076  0.4247  0.5073
  267MPD2    C2 4037   2.193   0.728  17.106  0.1464 -0.3030  0.0844
  267MPD2    C3 4038   2.087   0.641  17.092  0.0963 -0.5762 -0.3445
  267MPD2    C4 4039   2.082   0.537  17.188  0.2600  0.0006 -0.7101
  267MPD2    C5 4040   2.169   0.524  17.288  0.2184  0.7680  1.0131
  267MPD2     H 4041   2.213   0.806  17.034  1.4889  0.4619  1.2887
  267MPD2    H1 4042   2.006   0.464  17.166 -0.2785  0.9817 -2.0813
  267MPD2    H2 4043   2.343   0.614  17.378  0.8360 -1.0926 -0.6681
  267MPD2    H3 4044   2.156   0.435  17.348  0.9570 -0.9183 -1.2998
  267MPD2     N 4045   1.997   0.636  16.981  0.0534  0.3363  0.2843
  267MPD2    H5 4046   1.922   0.568  16.974  1.2100 -0.9570  0.4122
  267MPD2    N1 4047   2.376   0.811  17.252 -0.7197 -0.0190 -0.2733
  267MPD2    H7 4048   2.429   0.798  17.337 -3.0958 -1.3729  1.0196
  268TMC3    C1 4049   2.530   0.991  17.250  0.3311  0.0049  0.4158
  268TMC3    C2 4050   2.580   1.096  17.179  0.3702  0.8087  0.2022
  268TMC3    C3 4051   2.619   1.212  17.249 -0.3661  0.1600 -0.2579
  268TMC3    C4 4052   2.527   0.999  17.384 -0.1412  0.6531 -0.1845
  268TMC3    C5 4053   2.569   1.109  17.452 -0.8571 -0.1481  0.1940
  268TMC3    C6 4054   2.620   1.214  17.382 -0.3080  0.3491 -0.4933
  268TMC3     C 4055   2.416   0.926  17.182  0.1985  0.2009 -0.3815
  268TMC3     O 4056   2.367   0.970  17.080 -0.3154  0.7589 -0.1631
  268TMC3     H 4057   2.613   1.087  17.076  0.1096  1.6538  0.0427
  268TMC3    H1 4058   2.482   0.917  17.437 -1.5385  0.9015 -0.9853
  268TMC3    H2 4059   2.660   1.303  17.430 -0.3681  1.1000 -1.8508
  268TMC3    C7 4060   2.566   1.103  17.596  0.0870 -0.4763 -0.2344
  268TMC3    C8 4061   2.635   1.348  17.184  0.1576  0.1083 -0.3567
  268TMC3    O1 4062   2.563   0.987  17.635 -0.1805  0.2935 -0.8552
  268TMC3    O2 4063   2.672   1.446  17.253 -0.2403  0.2553 -0.3644
  269MPD2     C 4064   2.327   4.284  15.721 -0.7924 -0.7941  0.2403
  269MPD2    C1 4065   2.201   4.313  15.748  0.1532 -0.1928  0.4332
  269MPD2    C2 4066   2.153   4.446  15.735  0.8055  0.0645 -0.1376
  269MPD2    C3 4067   2.236   4.551  15.690  0.0192 -0.1349 -0.3420
  269MPD2    C4 4068   2.360   4.502  15.644 -0.2197  0.1030  0.0155
  269MPD2    C5 4069   2.403   4.380  15.656  0.1585 -0.2441 -0.1956
  269MPD2     H 4070   2.053   4.475  15.766  0.6671 -0.6366  0.0547
  269MPD2    H1 4071   2.432   4.574  15.606  0.1011 -0.0804  0.2754
  269MPD2    H2 4072   2.353   4.180  15.733  2.8477  0.2512  1.3281
  269MPD2    H3 4073   2.507   4.353  15.642 -0.3842 -2.0193 -0.7945
  269MPD2     N 4074   2.189   4.675  15.670 -0.3526 -0.9168 -0.3615
  269MPD2    H5 4075   2.089   4.692  15.680  0.0702  2.5449 -1.8765
  269MPD2    N1 4076   2.116   4.199  15.781 -0.4195 -0.8203 -0.0854
  269MPD2    H7 4077   2.157   4.107  15.791 -2.0644 -1.5708 -0.1998
  270TMC3    C1 4078   1.927   4.082  15.867  0.2987 -0.6867  0.3566
  270TMC3    C2 4079   1.795   4.062  15.852 -0.0905 -1.1388 -1.1781
  270TMC3    C3 4080   1.754   3.929  15.835  0.2081 -0.2616  0.1291
  270TMC3    C4 4081   2.012   3.983  15.888 -0.0140  0.1924 -0.3656
  270TMC3    C5 4082   1.966   3.858  15.885 -0.3847  0.2494 -0.2905
  270TMC3    C6 4083   1.839   3.828  15.849 -0.0445  0.2501  0.3258
  270TMC3     C 4084   1.981   4.215  15.820  0.2322  0.1367 -0.0031
  270TMC3     O 4085   1.904   4.315  15.833 -0.0317  0.0454 -0.4896
  270TMC3     H 4086   1.726   4.142  15.831  0.5746 -0.2895 -0.1233
  270TMC3    H1 4087   2.112   4.009  15.922 -0.8222  1.2667  1.2169
  270TMC3    H2 4088   1.817   3.725  15.824  2.3841 -0.3954  0.7954
  270TMC3    C7 4089   2.061   3.745  15.889  0.7671 -0.2002 -0.0992
  270TMC3    C8 4090   1.654   3.920  15.731  0.6266 -0.3277  0.5748
  270TMC3    O1 4091   2.173   3.764  15.843  0.8660 -0.2222 -0.1809
  270TMC3    O2 4092   1.562   3.997  15.735 -0.0319 -0.2013  0.4434
  271MPD2     C 4093   1.231   4.057  14.032  0.0501 -0.7248  0.5177
  271MPD2    C1 4094   1.156   4.071  14.151  0.1366  0.0639  0.4477
  271MPD2    C2 4095   1.059   4.167  14.158 -0.3900 -0.3485  0.6408
  271MPD2    C3 4096   1.015   4.226  14.041  0.2978  0.2168  0.1323
  271MPD2    C4 4097   1.088   4.207  13.926 -0.0495  0.4637 -0.4727
  271MPD2    C5 4098   1.204   4.130  13.925 -0.1569 -0.2039  0.6656
  271MPD2     H 4099   1.000   4.180  14.248 -0.1826  1.5338  0.4913
  271MPD2    H1 4100   1.049   4.249  13.834 -0.5500 -0.2140 -0.5655
  271MPD2    H2 4101   1.327   4.008  14.041  0.7861  0.7429  0.7310
  271MPD2    H3 4102   1.255   4.119  13.830  0.0394  1.8225  0.5328
  271MPD2     N 4103   0.901   4.309  14.030 -0.2365  0.2041  0.0516
  271MPD2    H5 4104   0.876   4.345  13.939  0.4378  0.5316 -0.0068
  271MPD2    N1 4105   1.188   4.009  14.279  0.3606 -0.3541 -0.6013
  271MPD2    H7 4106   1.140   4.036  14.364  1.4431  0.5972 -0.2945
  272TMC3    C1 4107   1.290   3.860  14.420  0.8114 -0.0244  0.1618
  272TMC3    C2 4108   1.391   3.769  14.424 -0.3432  0.2007 -0.2609
  272TMC3    C3 4109   1.453   3.734  14.542 -0.5056 -0.1248 -0.2644
  272TMC3    C4 4110   1.263   3.943  14.525  0.4664  0.2628  0.7287
  272TMC3    C5 4111   1.340   3.923  14.640  0.0562  0.0016 -0.5509
  272TMC3    C6 4112   1.427   3.817  14.650  0.5059 -0.4923  0.0671
  272TMC3     C 4113   1.283   3.910  14.286 -0.5202  0.2479 -0.6099
  272TMC3     O 4114   1.359   3.869  14.200 -0.2123 -0.9758  0.2889
  272TMC3     H 4115   1.402   3.700  14.341  2.7957 -1.7942  1.8380
  272TMC3    H1 4116   1.196   4.028  14.515 -1.1549 -1.2652 -1.4873
  272TMC3    H2 4117   1.481   3.805  14.743 -1.0279  0.3430  1.0702
  272TMC3    C7 4118   1.291   3.989  14.762 -0.3946  0.1765  0.7536
  272TMC3    C8 4119   1.592   3.686  14.518 -1.2581 -0.0337 -0.5751
  272TMC3    O1 4120   1.174   4.021  14.764 -0.1133  0.3692  0.0391
  272TMC3    O2 4121   1.629   3.706  14.404  1.1905  0.1798  0.5824
  273MPD2     C 4122   3.016   2.282  11.358 -0.5338  0.0180 -0.1408
  273MPD2    C1 4123   3.124   2.352  11.307  0.0840  0.4541  0.2892
  273MPD2    C2 4124   3.136   2.367  11.173 -0.7751  0.7158  0.0995
  273MPD2    C3 4125   3.043   2.313  11.091  0.0130  0.6718 -0.2478
  273MPD2    C4 4126   2.934   2.240  11.142 -0.9451 -0.0603 -0.2692
  273MPD2    C5 4127   2.923   2.223  11.277 -0.2725  0.2521 -0.4263
  273MPD2     H 4128   3.217   2.421  11.125 -0.1517 -0.3404 -0.0397
  273MPD2    H1 4129   2.854   2.203  11.078 -1.4015  0.9628 -0.2924
  273MPD2    H2 4130   2.992   2.276  11.464  0.9142  0.0231  0.1846
  273MPD2    H3 4131   2.839   2.174  11.326  1.8067 -1.6864  1.1971
  273MPD2     N 4132   3.073   2.312  10.952 -0.1590 -1.0865  0.8252
  273MPD2    H5 4133   3.160   2.356  10.924 -0.8172 -0.5728 -0.4399
  273MPD2    N1 4134   3.222   2.400  11.400 -0.3381  0.2285  0.0664
  273MPD2    H7 4135   3.192   2.396  11.497 -0.7918  2.1200  0.0031
  274TMC3    C1 4136   3.031   2.319  10.722  0.2367  0.1563 -0.3352
  274TMC3    C2 4137   2.922   2.367  10.656  0.1763  0.1069 -0.5149
  274TMC3    C3 4138   2.945   2.475  10.579 -0.1639  0.0796  0.0423
  274TMC3    C4 4139   3.154   2.379  10.712  0.3253 -0.0938  0.4615
  274TMC3    C5 4140   3.165   2.496  10.638 -0.3365 -0.1197 -0.2450
  274TMC3    C6 4141   3.065   2.538  10.558 -0.1375  0.1954  0.3058
  274TMC3     C 4142   2.992   2.266  10.853  0.1020 -1.1699 -0.3367
  274TMC3     O 4143   2.886   2.204  10.857 -0.2683 -0.5149  0.0956
  274TMC3     H 4144   2.820   2.328  10.659  0.5470 -0.7854  0.6443
  274TMC3    H1 4145   3.247   2.336  10.747  0.5319  0.0758  0.1208
  274TMC3    H2 4146   3.086   2.629  10.503  1.2902 -0.3750 -0.1067
  274TMC3    C7 4147   3.172   2.605  10.735  0.3549  0.0205  0.2300
  274TMC3    C8 4148   2.825   2.558  10.558 -0.6715 -0.4491 -0.0983
  274TMC3    O1 4149   3.086   2.695  10.727  0.5429  0.5304  0.8340
  274TMC3    O2 4150   2.710   2.512  10.560  0.3092  0.8818  0.0555
  275MPD2     C 4151   2.530   0.413  14.171 -1.1710  0.2281  0.2469
  275MPD2    C1 4152   2.469   0.438  14.289 -0.3686  0.0960  0.4347
  275MPD2    C2 4153   2.383   0.343  14.344  0.1194 -0.7382 -0.5979
  275MPD2    C3 4154   2.357   0.222  14.285 -0.0411  0.5964  0.5000
  275MPD2    C4 4155   2.413   0.206  14.163 -0.0826  0.9052  0.1785
  275MPD2    C5 4156   2.500   0.296  14.111 -0.0665 -0.7010 -0.9039
  275MPD2     H 4157   2.336   0.366  14.439  0.0413  0.5788 -0.9540
  275MPD2    H1 4158   2.402   0.109  14.115 -2.1014  0.4927  1.4482
  275MPD2    H2 4159   2.600   0.477  14.118 -2.3004 -0.0421 -1.6022
  275MPD2    H3 4160   2.547   0.276  14.015  3.0472 -0.1018  0.5190
  275MPD2     N 4161   2.289   0.112  14.343 -0.1855  0.5747  0.4920
  275MPD2    H5 4162   2.258   0.041  14.278 -0.2614 -0.0527  1.2121
  275MPD2    N1 4163   2.487   0.558  14.354 -0.4300  0.4077 -1.0789
  275MPD2    H7 4164   2.447   0.571  14.446  0.4036  0.6337 -0.7492
  276TMC3    C1 4165   2.596   0.734  14.441  0.4492  0.2444 -0.0264
  276TMC3    C2 4166   2.496   0.722  14.534  0.2540  0.2806  0.4770
  276TMC3    C3 4167   2.521   0.735  14.666 -0.2981  0.3357 -0.4849
  276TMC3    C4 4168   2.721   0.762  14.487 -0.0962 -0.1023  0.6943
  276TMC3    C5 4169   2.741   0.776  14.621 -0.4053 -0.1640 -0.1688
  276TMC3    C6 4170   2.645   0.751  14.715 -0.0736 -0.2949  0.1940
  276TMC3     C 4171   2.582   0.650  14.324  0.1662  0.2821  0.1155
  276TMC3     O 4172   2.649   0.680  14.225  0.3673 -0.0826  0.0472
  276TMC3     H 4173   2.393   0.720  14.500 -0.7083  1.0609  3.3119
  276TMC3    H1 4174   2.797   0.760  14.409 -0.5747 -0.0889  0.2278
  276TMC3    H2 4175   2.655   0.764  14.822  1.4570  4.0849 -0.4481
  276TMC3    C7 4176   2.874   0.816  14.675 -0.1612  0.5721  0.3479
  276TMC3    C8 4177   2.440   0.627  14.731  0.4106  0.3897 -0.1621
  276TMC3    O1 4178   2.881   0.842  14.796  0.4581  0.2745 -0.7522
  276TMC3    O2 4179   2.322   0.609  14.697  0.1777 -0.7057 -0.0116
  277MPD2     C 4180   0.212   3.779  13.581 -0.1888  0.3573 -0.6304
  277MPD2    C1 4181   0.103   3.849  13.533  0.1761 -0.4023  0.1700
  277MPD2    C2 4182   4.709   3.851  13.597  0.2551 -0.6333 -0.0959
  277MPD2    C3 4183   4.687   3.783  13.710  0.2588  0.0881  0.1665
  277MPD2    C4 4184   0.069   3.713  13.757 -0.6786 -0.5175 -0.0564
  277MPD2    C5 4185   0.197   3.719  13.701  0.0104  0.2958  0.9122
  277MPD2     H 4186   4.629   3.907  13.549 -0.4660 -1.9546 -0.4196
  277MPD2    H1 4187   0.068   3.650  13.846 -0.6909 -1.6866 -0.8902
  277MPD2    H2 4188   0.310   3.792  13.536  0.2646  1.6485  0.7299
  277MPD2    H3 4189   0.283   3.661  13.732 -0.2092  0.3348  1.5773
  277MPD2     N 4190   4.559   3.775  13.762  0.0467 -0.4380 -0.3243
  277MPD2    H5 4191   4.483   3.815  13.707 -1.3267 -3.4883 -0.6569
  277MPD2    N1 4192   0.109   3.913  13.413 -0.0127 -0.9334 -0.2867
  277MPD2    H7 4193   0.025   3.955  13.374  0.0900 -1.1194 -0.7138
  278TMC3    C1 4194   4.388   3.685  13.892 -0.3543  0.2703  0.7538
  278TMC3    C2 4195   4.359   3.581  13.979 -0.1606 -0.2939 -0.3874
  278TMC3    C3 4196   4.244   3.499  13.956  0.2379  0.3056  0.4056
  278TMC3    C4 4197   4.305   3.717  13.792  1.0733 -0.1550 -0.4883
  278TMC3    C5 4198   4.186   3.656  13.789  0.2156  0.0600  0.1677
  278TMC3    C6 4199   4.155   3.546  13.865 -0.6155  0.1573  0.3258
  278TMC3     C 4200   4.530   3.702  13.872 -0.0052  0.4729  0.1725
  278TMC3     O 4201   4.602   3.641  13.951 -0.1724  0.4355  0.0626
  278TMC3     H 4202   4.435   3.555  14.052 -0.1541 -0.0258 -0.2968
  278TMC3    H1 4203   4.311   3.810  13.736 -1.4854  1.7639  2.4812
  278TMC3    H2 4204   4.057   3.502  13.852 -0.7959  0.7540 -0.3654
  278TMC3    C7 4205   4.101   3.694  13.677  0.2613 -0.3860 -0.0748
  278TMC3    C8 4206   4.278   3.361  13.955  0.2840 -0.2142 -0.0616
  278TMC3    O1 4207   4.146   3.739  13.571 -0.2991  0.1188 -0.1456
  278TMC3    O2 4208   4.383   3.330  14.017  0.6229 -0.6965 -0.7493
  279MPD2     C 4209   3.238   4.264  17.594  0.2170  0.0488  0.5085
  279MPD2    C1 4210   3.303   4.295   0.003 -0.1727 -0.5560  0.3493
  279MPD2    C2 4211   3.401   4.394   0.006  0.5965  0.2107  0.2623
  279MPD2    C3 4212   3.440   4.456  17.595  1.1248  0.0686  0.2299
  279MPD2    C4 4213   3.379   4.420  17.477 -0.1897  0.2185 -0.6016
  279MPD2    C5 4214   3.274   4.330  17.479  0.7717 -0.6134 -0.1583
  279MPD2     H 4215   3.452   4.422   0.097 -0.3827 -0.0884  0.9023
  279MPD2    H1 4216   3.411   4.465  17.384 -0.7699  1.4337 -0.2122
  279MPD2    H2 4217   3.171   4.179  17.595  0.3822 -0.0563  3.3851
  279MPD2    H3 4218   3.232   4.303  17.383  0.5680  2.3607 -0.8937
  279MPD2     N 4219   3.546   4.542  17.585 -0.2294  0.5957 -0.3627
  279MPD2    H5 4220   3.568   4.579  17.493  0.1896 -0.1088 -0.5478
  279MPD2    N1 4221   3.250   4.230   0.114 -0.1908  0.0224 -0.0486
  279MPD2    H7 4222   3.162   4.180   0.110  0.1579 -0.3753 -2.1965
  280TMC3    C1 4223   3.205   4.192   0.342 -0.8667 -0.6351 -0.8639
  280TMC3    C2 4224   3.103   4.125   0.280 -0.3434  0.2572  0.1406
  280TMC3    C3 4225   2.976   4.162   0.324 -0.8529  0.3232 -0.3233
  280TMC3    C4 4226   3.190   4.287   0.438  1.2155 -0.2454 -0.4657
  280TMC3    C5 4227   3.064   4.337   0.460 -0.8812  0.3535  0.1230
  280TMC3    C6 4228   2.958   4.269   0.407  0.1917  0.1967 -0.0297
  280TMC3     C 4229   3.301   4.239   0.246 -0.2978 -0.2570 -0.1999
  280TMC3     O 4230   3.407   4.283   0.282 -0.1757 -0.4451  0.0411
  280TMC3     H 4231   3.117   4.043   0.210 -2.7026 -0.6402  0.7136
  280TMC3    H1 4232   3.278   4.339   0.475  0.2512  0.6411  0.5668
  280TMC3    H2 4233   2.860   4.308   0.435  0.2337  1.2157 -1.2928
  280TMC3    C7 4234   3.054   4.478   0.471 -0.0030  0.4956  0.7043
  280TMC3    C8 4235   2.863   4.073   0.297  0.3516 -0.0391 -0.9055
  280TMC3    O1 4236   3.148   4.529   0.532  0.3663 -0.0820  0.4662
  280TMC3    O2 4237   2.752   4.118   0.322 -0.1932 -0.4934 -0.3354
  281TMC3    C1 4238   2.903   4.519  13.388 -0.1759  0.4299 -0.7703
  281TMC3    C2 4239   2.965   4.611  13.311 -0.4416  0.7660 -0.0776
  281TMC3    C3 4240   3.056   4.565  13.209 -1.2430 -0.1301  0.0949
  281TMC3    C4 4241   2.928   4.382  13.371 -0.2223  0.3285 -0.6599
  281TMC3    C5 4242   3.007   4.343  13.267  0.5079 -0.1094 -0.1061
  281TMC3    C6 4243   3.077   4.431  13.185 -0.1246 -0.7668  0.1626
  281TMC3     C 4244   2.776   4.554  13.452 -0.0852 -0.2494  0.5526
  281TMC3     O 4245   2.726   4.469  13.522  0.5412 -0.2742 -0.3011
  281TMC3     H 4246   2.958   4.714  13.342  0.3043  0.4817  1.0757
  281TMC3    H1 4247   2.876   4.315  13.438  0.9710  0.9926  0.9192
  281TMC3    H2 4248   3.134   4.393  13.102  0.1610  1.4458 -0.6656
  281TMC3    C7 4249   3.006   4.205  13.231 -0.6895  0.8294 -0.3996
  281TMC3    C8 4250   3.159   4.645  13.147 -1.1506  0.6939 -0.1889
  281TMC3    O1 4251   3.104   4.152  13.178 -0.2987  0.2432  0.0567
  281TMC3    O2 4252   3.272   4.609  13.185  0.2399  0.2008  0.2577
  282MPD2     C 4253   4.406   1.126  14.936 -0.2165 -0.2822  0.2434
  282MPD2    C1 4254   4.274   1.150  14.926 -0.8004 -0.0547  0.3208
  282MPD2    C2 4255   4.211   1.133  14.809  0.1374 -0.1897  0.1966
  282MPD2    C3 4256   4.284   1.090  14.696  0.4763 -0.0178  0.1687
  282MPD2    C4 4257   4.420   1.063  14.708 -0.2106 -0.4301 -0.0765
  282MPD2    C5 4258   4.472   1.084  14.824 -0.6763 -0.1969  0.2670
  282MPD2     H 4259   4.103   1.146  14.805  0.0471 -0.6830  1.1309
  282MPD2    H1 4260   4.466   1.019  14.620 -2.8906 -0.6173 -1.4100
  282MPD2    H2 4261   4.459   1.130  15.030  1.8223 -1.7431 -0.8641
  282MPD2    H3 4262   4.579   1.065  14.835 -0.3304  1.6345  0.0040
  282MPD2     N 4263   4.211   1.045  14.577 -0.0436 -0.2329 -0.0268
  282MPD2    H5 4264   4.111   1.064  14.569  0.0510  1.3553  2.5934
  282MPD2    N1 4265   4.203   1.178  15.045 -0.3832 -0.1196 -0.0715
  282MPD2    H7 4266   4.253   1.225  15.120  1.7179 -0.7361 -1.0898
  283TMC3    C1 4267   4.052   1.124  15.204  0.6841  0.7643  0.2217
  283TMC3    C2 4268   4.110   1.230  15.271  0.2356  0.5690  0.2448
  283TMC3    C3 4269   4.094   1.221  15.408 -0.5379  0.0562 -0.6235
  283TMC3    C4 4270   3.975   1.027  15.249 -0.4031 -0.0673  0.8963
  283TMC3    C5 4271   3.957   1.018  15.381  0.4134  0.2153  0.3345
  283TMC3    C6 4272   4.012   1.120  15.462  0.3593 -0.6570 -0.3191
  283TMC3     C 4273   4.078   1.123  15.067  0.0899 -0.5688 -0.5294
  283TMC3     O 4274   4.010   1.052  14.990  0.2534 -0.0915 -0.3156
  283TMC3     H 4275   4.154   1.315  15.220  0.5530  1.2447  1.6288
  283TMC3    H1 4276   3.927   0.958  15.180 -0.7787 -0.7943  1.8859
  283TMC3    H2 4277   4.006   1.117  15.570 -1.1620 -1.2602 -0.4305
  283TMC3    C7 4278   3.851   0.944  15.435 -0.0061 -0.0174 -0.0169
  283TMC3    C8 4279   4.161   1.318  15.496  0.6630 -0.5576 -0.5100
  283TMC3    O1 4280   3.795   0.997  15.529  0.0672 -0.1237 -0.2199
  283TMC3    O2 4281   4.166   1.300  15.619  0.1275  0.6127 -0.4679
  284MPD2     C 4282   2.595   0.450  11.379  0.6678  0.7890 -0.1740
  284MPD2    C1 4283   2.694   0.458  11.476 -0.2463 -0.7565  0.1138
  284MPD2    C2 4284   2.687   0.375  11.582 -0.2470 -0.5077  0.6022
  284MPD2    C3 4285   2.586   0.276  11.588  0.7495  0.0578 -0.5458
  284MPD2    C4 4286   2.486   0.274  11.495  0.1703 -0.3318  0.0141
  284MPD2    C5 4287   2.493   0.361  11.392 -0.0317 -0.4294  0.4726
  284MPD2     H 4288   2.765   0.383  11.657 -1.2579  0.0353  1.5896
  284MPD2    H1 4289   2.403   0.203  11.493  1.0803 -1.3531 -1.7043
  284MPD2    H2 4290   2.589   0.504  11.285  2.3587 -1.8414 -1.8096
  284MPD2    H3 4291   2.419   0.363  11.313  0.0980  1.0596  0.3800
  284MPD2     N 4292   2.595   0.176  11.687 -0.3574  0.3802 -0.4827
  284MPD2    H5 4293   2.678   0.193  11.743 -1.0822  0.4436  0.5650
  284MPD2    N1 4294   2.819   0.523  11.467 -0.2232  0.1655  0.2431
  284MPD2    H7 4295   2.894   0.500  11.532 -1.4243 -0.4970  1.3837
  285TMC3    C1 4296   2.997   0.635  11.368  0.3555 -0.9443 -0.6683
  285TMC3    C2 4297   3.062   0.539  11.431  0.2659 -0.1607  0.2981
  285TMC3    C3 4298   3.170   0.575  11.499 -0.6360 -0.2019  0.1592
  285TMC3    C4 4299   3.031   0.766  11.376 -0.0270  0.1584  0.7045
  285TMC3    C5 4300   3.141   0.803  11.446 -0.6499 -1.3749 -0.3393
  285TMC3    C6 4301   3.208   0.705  11.511  0.4881  0.3994 -0.2556
  285TMC3     C 4302   2.855   0.608  11.364 -0.1289 -0.0231  0.1054
  285TMC3     O 4303   2.774   0.683  11.304  0.6846  1.1418  0.2418
  285TMC3     H 4304   3.036   0.435  11.411  2.1138 -0.1773 -2.0888
  285TMC3    H1 4305   2.974   0.842  11.324 -0.2970  0.7032  1.7968
  285TMC3    H2 4306   3.291   0.732  11.575  0.5197 -0.1738 -0.0579
  285TMC3    C7 4307   3.211   0.927  11.416 -0.0399  0.8233  0.3375
  285TMC3    C8 4308   3.252   0.469  11.557  0.8193 -0.7628  0.4217
  285TMC3    O1 4309   3.193   0.977  11.305  0.0643  0.7274  0.1324
  285TMC3    O2 4310   3.189   0.366  11.570 -0.1427  1.4719  0.3087
  286MPD2     C 4311   2.534   4.463   1.584 -0.3819 -0.3777  0.4735
  286MPD2    C1 4312   2.503   4.402   1.467  0.1891  0.4247 -0.1536
  286MPD2    C2 4313   2.563   4.290   1.440 -0.1616  0.2397  0.2121
  286MPD2    C3 4314   2.660   4.233   1.516 -0.4140 -0.3018 -0.1425
  286MPD2    C4 4315   2.678   4.283   1.641 -0.1912  0.0172  0.2473
  286MPD2    C5 4316   2.616   4.404   1.677 -0.1173  0.5998  0.1699
  286MPD2     H 4317   2.521   4.242   1.353 -0.0125 -2.2351  1.5117
  286MPD2    H1 4318   2.750   4.240   1.710 -1.1685 -0.5154  0.9505
  286MPD2    H2 4319   2.499   4.563   1.604 -0.8726 -0.3503 -0.4935
  286MPD2    H3 4320   2.642   4.446   1.773  1.7814  1.2298 -0.6174
  286MPD2     N 4321   2.732   4.115   1.477 -0.9481 -0.1996 -0.0628
  286MPD2    H5 4322   2.793   4.067   1.543 -1.2228 -1.3746 -0.6632
  286MPD2    N1 4323   2.427   4.469   1.369 -0.0351 -0.2822 -0.0902
  286MPD2    H7 4324   2.437   4.442   1.272  0.5480  2.8180 -0.8939
  287TMC3    C1 4325   2.768   3.911   1.359 -0.3478  0.0005 -0.3013
  287TMC3    C2 4326   2.744   3.827   1.253  0.2525 -0.5943 -0.5115
  287TMC3    C3 4327   2.819   3.716   1.243 -0.2743  0.0968  0.4671
  287TMC3    C4 4328   2.844   3.868   1.465  0.2061  0.4156 -0.2021
  287TMC3    C5 4329   2.912   3.749   1.450 -0.2215  0.2575  0.9705
  287TMC3    C6 4330   2.907   3.666   1.341 -0.0129 -0.1575  0.5254
  287TMC3     C 4331   2.710   4.045   1.364 -0.1643  0.1956 -0.0858
  287TMC3     O 4332   2.635   4.073   1.272 -0.0769 -0.5922 -0.5080
  287TMC3     H 4333   2.674   3.864   1.179 -0.4019 -0.6119  0.0928
  287TMC3    H1 4334   2.846   3.916   1.562 -2.1476 -1.6250  0.8408
  287TMC3    H2 4335   2.969   3.580   1.316  0.7314  0.4813  0.1767
  287TMC3    C7 4336   3.035   3.741   1.521 -0.0602 -0.1733  0.2512
  287TMC3    C8 4337   2.838   3.666   1.109 -0.4767 -0.3705 -0.6795
  287TMC3    O1 4338   3.103   3.840   1.542 -0.1982 -0.3840  0.1120
  287TMC3    O2 4339   2.746   3.594   1.072 -0.2759  0.4479 -0.8145
  288TMC3    C1 4340   0.061   3.792  14.221 -0.1368  0.6549 -0.5172
  288TMC3    C2 4341   4.714   3.773  14.335 -0.7699 -0.2283 -0.2785
  288TMC3    C3 4342   4.606   3.857  14.355 -0.5084 -0.0595 -0.8075
  288TMC3    C4 4343   0.021   3.873  14.114  0.3366 -0.7825  0.5790
  288TMC3    C5 4344   4.644   3.958  14.145 -1.0531 -0.7036  0.4297
  288TMC3    C6 4345   4.579   3.959  14.271  0.0263  0.1003  0.2672
  288TMC3     C 4346   0.173   3.700  14.213 -0.3727  0.4461 -0.3035
  288TMC3     O 4347   0.166   3.597  14.284 -0.5238 -0.1885 -0.7624
  288TMC3     H 4348   0.021   3.704  14.412 -0.3109  0.9776  0.5901
  288TMC3    H1 4349   0.078   3.880  14.022 -1.0587 -0.3392 -0.2466
  288TMC3    H2 4350   4.501   4.030  14.293  0.2716  0.3063  0.4835
  288TMC3    C7 4351   4.569   4.026  14.038 -0.4476  0.3089  0.4539
  288TMC3    C8 4352   4.547   3.870  14.484  0.1993 -0.8726 -0.2545
  288TMC3    O1 4353   4.634   4.068  13.950 -0.6714  0.6438  0.1251
  288TMC3    O2 4354   4.486   3.975  14.510  0.1407 -0.2893  0.3049
  289MPD2     C 4355   0.064   2.559  14.368  0.6179 -0.6421 -0.9762
  289MPD2    C1 4356   0.040   2.680  14.308 -0.8266 -0.1108  0.7602
  289MPD2    C2 4357   4.638   2.718  14.287 -0.5522  0.7856  0.5720
  289MPD2    C3 4358   4.540   2.644  14.329  0.0576 -0.4054  0.0488
  289MPD2    C4 4359   4.561   2.521  14.368  0.1019 -1.0549 -0.2181
  289MPD2    C5 4360   4.687   2.475  14.393 -0.0157  0.2238 -0.1500
  289MPD2     H 4361   4.617   2.808  14.231  0.5597 -0.8141 -2.4458
  289MPD2    H1 4362   4.477   2.456  14.391 -2.1877  1.2483 -2.1840
  289MPD2    H2 4363   0.165   2.521  14.384  0.6436  0.7258  1.9934
  289MPD2    H3 4364   4.701   2.371  14.423 -2.0681 -0.2229 -0.7413
  289MPD2     N 4365   4.404   2.678  14.295 -0.2597  0.2398  0.5467
  289MPD2    H5 4366   4.334   2.606  14.282 -1.6006  1.6232  0.1185
  289MPD2    N1 4367   0.149   2.753  14.258 -0.1254 -0.4925  0.2526
  289MPD2    H7 4368   0.238   2.707  14.267 -0.2672 -0.3319  2.5336
  290TMC3    C1 4369   4.209   2.801  14.220  0.5006 -0.6570  1.1657
  290TMC3    C2 4370   4.153   2.913  14.177 -0.3883 -0.5608 -0.5171
  290TMC3    C3 4371   4.031   2.907  14.118 -0.1437 -0.0562  0.8083
  290TMC3    C4 4372   4.140   2.683  14.211  0.6333 -0.4557 -0.1573
  290TMC3    C5 4373   4.020   2.681  14.150  0.0942 -0.1875 -0.4077
  290TMC3    C6 4374   3.974   2.792  14.091 -0.7101  0.2510  0.2121
  290TMC3     C 4375   4.352   2.800  14.267 -0.6560  0.8776  0.2718
  290TMC3     O 4376   4.419   2.902  14.262  0.1197  0.4172  0.1395
  290TMC3     H 4377   4.202   3.010  14.177  1.8341 -1.6840  1.0560
  290TMC3    H1 4378   4.174   2.601  14.274 -1.9321 -0.5973  1.0750
  290TMC3    H2 4379   3.882   2.793  14.034 -0.8608  3.1751  0.5501
  290TMC3    C7 4380   3.929   2.587  14.191 -0.4327 -0.6522 -0.3418
  290TMC3    C8 4381   3.970   3.022  14.057 -0.1945 -0.2563  0.5880
  290TMC3    O1 4382   3.810   2.621  14.182  0.2929  0.4732  0.0270
  290TMC3    O2 4383   3.919   3.005  13.944 -0.0710 -0.5343  0.0409
  291MPD2     C 4384   3.710   3.137   0.071  0.3070 -0.7592 -0.3263
  291MPD2    C1 4385   3.779   3.031   0.132 -0.0229 -0.5571  0.0644
  291MPD2    C2 4386   3.912   3.038   0.151 -0.5157 -0.2502 -0.0699
  291MPD2    C3 4387   3.980   3.159   0.122  0.0331 -0.4108 -0.6920
  291MPD2    C4 4388   3.912   3.264   0.064  0.6050 -0.6540 -0.1095
  291MPD2    C5 4389   3.784   3.248   0.039 -0.0941 -0.2759  0.3451
  291MPD2     H 4390   3.965   2.955   0.198 -0.3927 -1.6845 -2.7130
  291MPD2    H1 4391   3.962   3.351   0.024  0.2396 -1.2034 -1.7974
  291MPD2    H2 4392   3.603   3.151   0.069  0.1511 -1.5433  2.1558
  291MPD2    H3 4393   3.737   3.337  17.710 -1.3074 -0.8004  0.6262
  291MPD2     N 4394   4.120   3.179   0.151 -0.2032  0.4284 -0.3771
  291MPD2    H5 4395   4.166   3.267   0.132 -2.7234  1.7625 -0.3131
  291MPD2    N1 4396   3.711   2.921   0.190 -0.2530  0.3859 -0.2968
  291MPD2    H7 4397   3.760   2.854   0.248 -1.0150 -0.0463 -0.1493
  292TMC3    C1 4398   3.531   2.772   0.242 -0.5958 -0.2397  0.3357
  292TMC3    C2 4399   3.539   2.780   0.380 -0.8228  1.3054 -0.3162
  292TMC3    C3 4400   3.530   2.654   0.446  0.1263 -0.3266  0.4300
  292TMC3    C4 4401   3.505   2.658   0.171 -0.4812 -0.1007  0.4252
  292TMC3    C5 4402   3.491   2.538   0.242 -0.1520  0.0546 -0.6822
  292TMC3    C6 4403   3.500   2.539   0.380 -0.3691  0.3634 -0.2153
  292TMC3     C 4404   3.575   2.887   0.168 -0.0299 -0.3179  0.3140
  292TMC3     O 4405   3.513   2.926   0.072  0.3459 -0.0363 -0.0770
  292TMC3     H 4406   3.564   2.872   0.432  1.0678  0.4771  0.2519
  292TMC3    H1 4407   3.509   2.665   0.063  0.7625 -0.6321  0.4437
  292TMC3    H2 4408   3.503   2.444   0.430  0.3667  0.8420  0.6413
  292TMC3    C7 4409   3.454   2.417   0.180  0.1223  0.3304 -0.1261
  292TMC3    C8 4410   3.551   2.661   0.587 -0.1400 -0.4421 -0.5117
  292TMC3    O1 4411   3.477   2.309   0.230 -0.4905  0.1112 -0.3183
  292TMC3    O2 4412   3.642   2.729   0.630  0.3207  0.3900 -0.2424
  293MPD2     C 4413   0.867   3.977  12.390  0.0342 -0.7732  0.0626
  293MPD2    C1 4414   0.800   3.909  12.493 -0.9263 -0.2361 -0.1214
  293MPD2    C2 4415   0.819   3.949  12.629 -0.4031 -0.4880  0.1662
  293MPD2    C3 4416   0.900   4.055  12.654  0.1853  0.0139  0.0642
  293MPD2    C4 4417   0.956   4.127  12.554 -0.1886 -0.1663  0.7421
  293MPD2    C5 4418   0.936   4.089  12.425 -0.6152  0.3464 -0.7956
  293MPD2     H 4419   0.766   3.915  12.718 -1.6446  2.8618  0.6814
  293MPD2    H1 4420   1.019   4.212  12.579 -0.8574  0.1965  1.1923
  293MPD2    H2 4421   0.849   3.956  12.286  2.6290  0.5319 -0.6365
  293MPD2    H3 4422   0.988   4.144  12.347  0.7744 -0.0007 -0.1239
  293MPD2     N 4423   0.913   4.086  12.792 -0.2046  0.2956  0.8124
  293MPD2    H5 4424   0.862   4.022  12.853  0.1322 -1.9699 -1.3195
  293MPD2    N1 4425   0.724   3.795  12.463  0.2815  0.3073 -1.0000
  293MPD2    H7 4426   0.717   3.771  12.365  0.9308  0.3619 -1.0614
  294TMC3    C1 4427   0.607   3.595  12.493  0.0694  0.4736 -0.0526
  294TMC3    C2 4428   0.502   3.544  12.564 -0.4428  0.3176 -0.0226
  294TMC3    C3 4429   0.428   3.449  12.504 -0.0571  0.1901  0.9249
  294TMC3    C4 4430   0.635   3.565  12.365  0.1551  0.5693  0.2697
  294TMC3    C5 4431   0.552   3.473  12.308  0.4748  0.0279 -0.4939
  294TMC3    C6 4432   0.450   3.406  12.375 -0.5989  0.7810  0.0121
  294TMC3     C 4433   0.678   3.708  12.556 -0.2383 -0.4901 -0.5600
  294TMC3     O 4434   0.707   3.703  12.678  0.1181  0.2329  0.0465
  294TMC3     H 4435   0.479   3.571  12.667  1.9190 -0.4724  0.7091
  294TMC3    H1 4436   0.728   3.590  12.314 -0.0026  0.6466  0.0243
  294TMC3    H2 4437   0.378   3.345  12.320  0.4407 -0.3915 -0.0599
  294TMC3    C7 4438   0.566   3.421  12.166 -0.1880 -0.4301  0.0123
  294TMC3    C8 4439   0.397   3.342  12.593 -0.3871  0.0417  0.6560
  294TMC3    O1 4440   0.500   3.328  12.132  0.0889  0.6994  0.6086
  294TMC3    O2 4441   0.373   3.362  12.711 -0.2244  0.0365 -0.0604
  295MPD2     C 4442   0.995   2.628   0.804  0.3977 -0.4949 -0.6791
  295MPD2    C1 4443   1.012   2.747   0.745  0.3080 -1.0545  0.7527
  295MPD2    C2 4444   0.949   2.858   0.796  0.0663  0.1245 -0.1154
  295MPD2    C3 4445   0.863   2.844   0.905  0.2874 -0.7041 -0.4953
  295MPD2    C4 4446   0.867   2.727   0.969  0.1118  0.0186  0.1200
  295MPD2    C5 4447   0.929   2.617   0.926 -0.6982 -0.0029  0.5561
  295MPD2     H 4448   0.966   2.955   0.752  0.1889  1.5202  3.0202
  295MPD2    H1 4449   0.808   2.710   1.058 -0.3696 -0.4664 -0.2899
  295MPD2    H2 4450   1.047   2.541   0.766 -0.1841 -1.3956  0.5740
  295MPD2    H3 4451   0.919   2.521   0.976 -0.6509 -1.4131 -2.1261
  295MPD2     N 4452   0.780   2.943   0.966 -0.8385 -0.1814  0.4484
  295MPD2    H5 4453   0.722   2.915   1.045  0.2435 -0.3790  1.1609
  295MPD2    N1 4454   1.084   2.767   0.628 -0.2743 -0.7541  0.1900
  295MPD2    H7 4455   1.091   2.863   0.595 -1.0009 -0.4060  1.0695
  296TMC3    C1 4456   0.689   3.152   1.007  0.1989  0.1239 -0.5097
  296TMC3    C2 4457   0.639   3.271   0.965  0.1503  0.0529 -1.1297
  296TMC3    C3 4458   0.554   3.335   1.052  0.3373  0.5337 -0.3533
  296TMC3    C4 4459   0.663   3.096   1.135 -0.7072  0.7295 -0.1138
  296TMC3    C5 4460   0.570   3.163   1.217  0.0048  0.7305 -0.6209
  296TMC3    C6 4461   0.515   3.289   1.176 -0.2930  0.3133  0.0555
  296TMC3     C 4462   0.768   3.071   0.917  0.1227  0.4104  0.5192
  296TMC3     O 4463   0.812   3.121   0.814 -1.0090 -0.1025 -0.3952
  296TMC3     H 4464   0.658   3.312   0.867 -0.2531 -0.5619 -1.4642
  296TMC3    H1 4465   0.724   3.017   1.177  0.4127  1.2214 -0.7948
  296TMC3    H2 4466   0.441   3.343   1.235  0.0112  1.0249 -0.2143
  296TMC3    C7 4467   0.525   3.107   1.342  0.2497  0.3052  0.3913
  296TMC3    C8 4468   0.531   3.475   1.020 -0.7021 -0.5160  0.4253
  296TMC3    O1 4469   0.463   3.181   1.417 -0.2187  0.0483  0.5866
  296TMC3    O2 4470   0.548   3.502   0.902  0.5542 -0.4346  0.1158
  297MPD2     C 4471   3.335   4.552  16.283 -0.3860 -0.4014  0.3316
  297MPD2    C1 4472   3.342   4.669  16.207 -0.2014 -0.1482 -0.2026
  297MPD2    C2 4473   3.462   0.008  16.186 -0.4601 -0.5629 -0.4894
  297MPD2    C3 4474   3.586   4.693  16.226  0.7778  0.3268 -0.2614
  297MPD2    C4 4475   3.580   4.578  16.301 -0.1155 -0.9462  0.3650
  297MPD2    C5 4476   3.462   4.517  16.339 -0.5442  0.1265  0.6865
  297MPD2     H 4477   3.455   0.108  16.143  0.9261  0.4019  1.5416
  297MPD2    H1 4478   3.671   4.536  16.343 -0.0091 -0.9220  0.1563
  297MPD2    H2 4479   3.250   4.491  16.309 -2.7002  2.0717 -1.4693
  297MPD2    H3 4480   3.469   4.435  16.409  0.1945  0.2351  0.7384
  297MPD2     N 4481   3.705   0.028  16.193  0.7737  0.6279  0.4463
  297MPD2    H5 4482   3.704   0.101  16.122 -2.5434 -0.3194 -0.4661
  297MPD2    N1 4483   3.229   0.006  16.149 -0.4015 -0.5841 -0.3822
  297MPD2    H7 4484   3.243   0.083  16.085  0.8860 -0.7601 -0.3060
  298TMC3    C1 4485   3.011   0.007  16.075 -0.3942 -0.5808  0.4309
  298TMC3    C2 4486   3.043   0.084  15.965 -0.1182  0.5059 -0.0668
  298TMC3    C3 4487   2.940   0.161  15.912 -0.3415 -0.3730 -0.5224
  298TMC3    C4 4488   2.891   0.021  16.143  0.7759  1.1118 -0.7435
  298TMC3    C5 4489   2.789   0.077  16.074  0.5172 -0.0684 -0.5976
  298TMC3    C6 4490   2.807   0.149  15.958 -0.1165  0.0664 -0.4429
  298TMC3     C 4491   3.104   4.681  16.164  0.0646 -0.1652 -1.5058
  298TMC3     O 4492   3.063   4.595  16.240 -0.2617  0.6386 -0.7081
  298TMC3     H 4493   3.144   0.092  15.927 -1.1483 -0.7754 -3.1300
  298TMC3    H1 4494   2.875   4.697  16.237 -2.1998  3.6861  0.1462
  298TMC3    H2 4495   2.731   0.204  15.904  2.9884  3.4992 -1.3189
  298TMC3    C7 4496   2.660   0.069  16.145 -0.3536 -0.2030 -0.0736
  298TMC3    C8 4497   2.962   0.252  15.804 -1.1150  0.4950 -0.4609
  298TMC3    O1 4498   2.666   0.083  16.267 -0.7152 -0.1888 -0.4918
  298TMC3    O2 4499   2.891   0.354  15.805  0.1625 -0.5543 -0.2258
  299MPD2     C 4500   4.597   3.889  11.009 -0.4250  0.5245  0.8490
  299MPD2    C1 4501   4.581   4.023  10.990 -0.1220 -0.4630 -1.1375
  299MPD2    C2 4502   4.472   4.064  10.917 -0.2494 -0.5044 -0.9308
  299MPD2    C3 4503   4.377   3.973  10.869  0.5191  0.1298 -0.2354
  299MPD2    C4 4504   4.394   3.840  10.887  0.5891 -0.4349 -0.2317
  299MPD2    C5 4505   4.505   3.798  10.962  0.2278  0.3539 -0.0177
  299MPD2     H 4506   4.447   4.170  10.907  1.5304 -0.1526 -1.6399
  299MPD2    H1 4507   4.320   3.764  10.865 -1.1471  1.1589  0.1292
  299MPD2    H2 4508   4.686   3.865  11.066 -1.0100 -0.6763  1.2590
  299MPD2    H3 4509   4.519   3.692  10.977  3.3641  0.7649 -0.0805
  299MPD2     N 4510   4.256   4.009  10.809 -0.7778 -0.5551  0.5067
  299MPD2    H5 4511   4.198   3.933  10.774  0.9046 -2.2311  1.3985
  299MPD2    N1 4512   4.680   4.115  11.045 -0.7413  0.2060  0.7082
  299MPD2    H7 4513   0.036   4.074  11.084  0.6946  1.2731 -1.2708
  300TMC3    C1 4514   4.058   4.141  10.779  0.6690 -0.2259 -0.0127
  300TMC3    C2 4515   4.015   4.264  10.743 -0.1543  0.0247 -0.4466
  300TMC3    C3 4516   3.887   4.299  10.782  0.1517 -0.2763 -0.0316
  300TMC3    C4 4517   3.980   4.057  10.852  0.4763 -0.4013  0.0139
  300TMC3    C5 4518   3.863   4.104  10.905  0.1036 -0.3119 -0.5330
  300TMC3    C6 4519   3.817   4.225  10.875 -0.2205  0.1111 -0.4464
  300TMC3     C 4520   4.203   4.138  10.793  0.4725  0.3296 -0.2687
  300TMC3     O 4521   4.257   4.253  10.794  0.1780  0.2580  0.6983
  300TMC3     H 4522   4.080   4.329  10.686 -0.4282  0.3389 -0.3976
  300TMC3    H1 4523   4.020   3.963  10.889  1.0524 -0.3604 -0.5101
  300TMC3    H2 4524   3.719   4.257  10.908  0.4086  1.3391  0.2138
  300TMC3    C7 4525   3.792   4.023  11.007 -0.1415  0.0826 -0.7510
  300TMC3    C8 4526   3.848   4.438  10.786 -0.4007  0.2473  0.0036
  300TMC3    O1 4527   3.800   3.901  11.002  0.5779 -0.2022 -0.1336
  300TMC3    O2 4528   3.776   4.468  10.885 -0.0599  0.4833 -0.6589
  301MPD2     C 4529   1.146   0.982   1.414 -0.5319 -0.3050  0.1809
  301MPD2    C1 4530   1.011   0.957   1.427 -0.3863  0.7354  0.6175
  301MPD2    C2 4531   0.955   0.837   1.459 -0.2721  0.4813  0.2285
  301MPD2    C3 4532   1.035   0.729   1.460 -0.2120  0.0892  0.1950
  301MPD2    C4 4533   1.168   0.743   1.432  0.2257 -0.0964 -0.1818
  301MPD2    C5 4534   1.226   0.870   1.418 -0.5554  0.1159  0.3670
  301MPD2     H 4535   0.847   0.824   1.469 -0.1605 -1.3708 -0.9435
  301MPD2    H1 4536   1.246   0.667   1.428 -1.4688 -1.7956 -0.8924
  301MPD2    H2 4537   1.195   1.078   1.415 -1.3533  0.1436 -3.6534
  301MPD2    H3 4538   1.334   0.875   1.414 -0.8473  3.3509 -3.8954
  301MPD2     N 4539   0.986   0.594   1.472 -0.3845  0.2444 -0.1504
  301MPD2    H5 4540   1.062   0.527   1.475 -0.1938  0.4848  0.4984
  301MPD2    N1 4541   0.926   1.071   1.431 -0.0855  0.2844  0.5472
  301MPD2    H7 4542   0.828   1.045   1.424 -0.0418 -0.2868  2.0086
  302TMC3    C1 4543   0.835   0.406   1.469 -0.1600 -0.0082  0.2427
  302TMC3    C2 4544   0.939   0.332   1.413 -0.8408  0.2419 -0.2895
  302TMC3    C3 4545   0.906   0.206   1.367 -0.4013  0.3042  0.1812
  302TMC3    C4 4546   0.708   0.358   1.491 -0.4571 -0.3906 -0.0728
  302TMC3    C5 4547   0.684   0.232   1.437  0.0301  0.2003  0.0963
  302TMC3    C6 4548   0.782   0.155   1.375 -0.2113  0.1765  0.1035
  302TMC3     C 4549   0.859   0.547   1.499  0.3582  0.4623 -0.1590
  302TMC3     O 4550   0.762   0.612   1.540  0.1997 -0.3124 -0.5997
  302TMC3     H 4551   1.039   0.374   1.421  0.2775 -2.5826  0.4282
  302TMC3    H1 4552   0.639   0.414   1.552  1.9431  2.3625  0.0927
  302TMC3    H2 4553   0.758   0.054   1.344 -0.8616 -0.0714  1.4108
  302TMC3    C7 4554   0.544   0.195   1.416  0.2656 -0.6085  0.0972
  302TMC3    C8 4555   1.015   0.147   1.291  0.4790  0.3337  0.4477
  302TMC3    O1 4556   0.524   0.074   1.408 -0.4205 -0.1516 -0.2498
  302TMC3    O2 4557   1.118   0.217   1.284 -0.7114  0.3717  0.3187
  303MPD2     C 4558   2.628   4.298   9.494  0.9795 -0.7899 -0.2555
  303MPD2    C1 4559   2.687   4.250   9.383 -0.0474  0.2083  0.4782
  303MPD2    C2 4560   2.732   4.118   9.382 -0.1362 -0.4302 -0.6090
  303MPD2    C3 4561   2.721   4.044   9.501 -0.1760 -0.8039  0.4575
  303MPD2    C4 4562   2.661   4.098   9.613 -0.5035 -0.2716 -0.2982
  303MPD2    C5 4563   2.613   4.224   9.605 -0.0991 -0.5864 -0.5588
  303MPD2     H 4564   2.776   4.083   9.289  0.5949 -1.3141  0.0687
  303MPD2    H1 4565   2.659   4.046   9.708  0.2041 -0.7124 -0.5170
  303MPD2    H2 4566   2.581   4.395   9.487 -0.1540 -1.3552 -0.6503
  303MPD2    H3 4567   2.563   4.267   9.691 -0.8327 -0.6767 -0.9463
  303MPD2     N 4568   2.771   3.914   9.517  0.8541  1.0160  0.4893
  303MPD2    H5 4569   2.750   3.866   9.604 -0.2817 -0.2306 -0.4583
  303MPD2    N1 4570   2.694   4.343   9.272 -0.1747 -0.1034  0.1944
  303MPD2    H7 4571   2.640   4.427   9.284 -1.5916 -0.7266 -1.9835
  304TMC3    C1 4572   2.732   4.413   9.036 -0.1838  0.3959  1.3270
  304TMC3    C2 4573   2.800   4.371   8.923 -0.1085  0.5455 -0.0219
  304TMC3    C3 4574   2.753   4.388   8.798 -0.3192  0.4483 -0.6282
  304TMC3    C4 4575   2.612   4.472   9.027 -0.4200  0.1353  1.0573
  304TMC3    C5 4576   2.567   4.498   8.897 -0.9733 -0.2540  1.1137
  304TMC3    C6 4577   2.635   4.462   8.788  0.3467 -0.3796 -0.0026
  304TMC3     C 4578   2.758   4.323   9.148  0.2068  0.2500 -0.4450
  304TMC3     O 4579   2.815   4.217   9.109 -0.4200  0.2074  0.6680
  304TMC3     H 4580   2.898   4.324   8.925 -0.4861 -0.3819 -3.2493
  304TMC3    H1 4581   2.549   4.475   9.115 -1.2421  3.0978  0.3399
  304TMC3    H2 4582   2.595   4.484   8.689  1.9319 -3.6928 -1.3843
  304TMC3    C7 4583   2.424   4.502   8.884  0.6893  0.0527  0.0609
  304TMC3    C8 4584   2.704   4.256   8.740  0.1316  0.1509 -0.0076
  304TMC3    O1 4585   2.364   4.554   8.975 -0.0865 -0.9915 -0.3037
  304TMC3    O2 4586   2.590   4.256   8.699 -0.2827 -0.0839 -0.3546
  305MPD2     C 4587   4.341   1.525  14.027 -0.1042 -0.2271  0.5046
  305MPD2    C1 4588   4.369   1.388  14.025 -0.7350 -0.3088 -0.1254
  305MPD2    C2 4589   4.376   1.309  13.911 -0.2299  0.0941  0.4571
  305MPD2    C3 4590   4.335   1.375  13.791 -0.3112  0.0954 -0.1309
  305MPD2    C4 4591   4.307   1.506  13.792  0.2161 -1.0396 -0.0547
  305MPD2    C5 4592   4.315   1.588  13.906 -0.1738 -0.6427 -0.1693
  305MPD2     H 4593   4.407   1.205  13.903 -0.7242 -0.1969  2.3781
  305MPD2    H1 4594   4.286   1.563  13.702  0.7035  0.6112  0.8860
  305MPD2    H2 4595   4.339   1.585  14.117 -0.7075  0.1963  0.2079
  305MPD2    H3 4596   4.280   1.690  13.916  1.2153 -0.1296 -0.6097
  305MPD2     N 4597   4.333   1.314  13.660  0.1699 -0.0120 -0.1989
  305MPD2    H5 4598   4.293   1.372  13.586  0.8707  1.1442  0.3221
  305MPD2    N1 4599   4.395   1.336  14.155 -0.0999 -0.1261  0.0230
  305MPD2    H7 4600   4.417   1.405  14.226  0.9775  1.0668 -1.4895
  306TMC3    C1 4601   4.460   1.205  14.329 -0.7148  0.2871  0.4010
  306TMC3    C2 4602   4.570   1.127  14.343 -0.2602  0.2464 -0.5959
  306TMC3    C3 4603   4.676   1.171  14.414  0.1807 -0.1093 -0.0474
  306TMC3    C4 4604   4.457   1.329  14.386  0.1611 -0.2202 -0.9656
  306TMC3    C5 4605   4.571   1.377  14.451 -0.0967  0.2063 -0.1904
  306TMC3    C6 4606   4.681   1.300  14.464  0.5042 -0.4766 -0.3659
  306TMC3     C 4607   4.418   1.205  14.189  0.0275  0.0485  0.0740
  306TMC3     O 4608   4.421   1.104  14.122 -0.5194  0.1595  0.1585
  306TMC3     H 4609   4.574   1.030  14.294  1.7716  1.0776 -2.0964
  306TMC3    H1 4610   4.361   1.380  14.391  0.6222  0.5029  0.3213
  306TMC3    H2 4611   0.044   1.345  14.503 -1.4427  3.8381 -0.7783
  306TMC3    C7 4612   4.577   1.523  14.453  0.0203 -0.1912 -0.3729
  306TMC3    C8 4613   0.051   1.079  14.468  0.5645  1.1529  0.0039
  306TMC3    O1 4614   4.504   1.573  14.369 -0.3641 -0.4683 -0.5099
  306TMC3    O2 4615   0.067   0.972  14.415  0.9229  0.2419 -0.2155
  307MPD2     C 4616   2.239   3.552   0.402 -0.2108 -0.3549  0.8129
  307MPD2    C1 4617   2.124   3.605   0.348 -1.2078 -0.5245 -0.0571
  307MPD2    C2 4618   2.016   3.618   0.435  0.6165 -0.4789 -0.7218
  307MPD2    C3 4619   2.014   3.578   0.563  0.7534 -1.2871 -0.2896
  307MPD2    C4 4620   2.127   3.528   0.618 -0.1714 -0.5156  0.0423
  307MPD2    C5 4621   2.245   3.520   0.535  0.1931 -0.5151  0.2462
  307MPD2     H 4622   1.929   3.671   0.399 -1.2215 -3.3574 -0.5307
  307MPD2    H1 4623   2.128   3.505   0.723 -2.8783  0.5968  0.2969
  307MPD2    H2 4624   2.324   3.516   0.345 -0.4010  0.1615  0.2018
  307MPD2    H3 4625   2.340   3.489   0.579 -0.1731 -0.5876  0.9855
  307MPD2     N 4626   1.906   3.609   0.643 -0.3049  0.0014 -0.1671
  307MPD2    H5 4627   1.817   3.624   0.595 -0.7342 -1.8432  0.0424
  307MPD2    N1 4628   2.104   3.644   0.214 -0.1500 -0.1236  0.5750
  307MPD2    H7 4629   2.021   3.697   0.191  0.0910 -0.9626 -2.2755
  308TMC3    C1 4630   1.581   3.750   0.755 -0.4101 -0.1630 -0.1678
  308TMC3    C2 4631   1.595   3.882   0.796 -0.5788  0.2805  0.8515
  308TMC3    C3 4632   1.718   3.912   0.844  0.1104 -0.3320 -0.3558
  308TMC3    C4 4633   1.676   3.649   0.773 -0.2054  0.7283 -0.4830
  308TMC3    C5 4634   1.794   3.690   0.834 -0.9964 -0.4939  0.4746
  308TMC3    C6 4635   1.814   3.818   0.872 -0.0672 -0.1462 -0.8086
  308TMC3     C 4636   1.445   3.695   0.721  0.3440 -0.4006 -0.1783
  308TMC3     O 4637   1.413   3.584   0.768  0.3693 -0.1859 -0.0710
  308TMC3     H 4638   1.517   3.957   0.787 -0.6573  0.4305  2.7089
  308TMC3    H1 4639   1.659   3.556   0.719  0.9999  0.4472 -0.3846
  308TMC3    H2 4640   1.906   3.864   0.905 -1.3966  0.2588  2.2842
  308TMC3    C7 4641   1.915   3.641   0.777  0.3846 -0.0940  0.2255
  308TMC3    C8 4642   1.776   4.041   0.811  0.6248 -0.4946  0.2916
  308TMC3    O1 4643   2.015   3.670   0.843  0.1689  0.1783 -0.4406
  308TMC3    O2 4644   1.881   4.071   0.862 -0.2235 -0.2777 -0.5758
  309MPD2     C 4645   0.899   4.097  17.030 -0.4573 -0.1406  0.3873
  309MPD2    C1 4646   0.829   4.154  16.929  0.8538 -0.6850 -0.1416
  309MPD2    C2 4647   0.710   4.214  16.956 -0.4045  0.3460  1.0213
  309MPD2    C3 4648   0.669   4.229  17.086 -0.1710  0.1700 -0.6904
  309MPD2    C4 4649   0.735   4.166  17.188  0.7138 -0.1557 -0.1209
  309MPD2    C5 4650   0.848   4.091  17.160 -0.1119  0.4718 -0.2055
  309MPD2     H 4651   0.647   4.248  16.875 -0.2187  0.5539  0.9638
  309MPD2    H1 4652   0.700   4.170  17.290 -0.0487  1.7912 -0.4664
  309MPD2    H2 4653   1.001   4.063  17.015 -1.0364 -2.3154  1.5076
  309MPD2    H3 4654   0.888   4.041  17.248 -0.8652  2.6022  1.3439
  309MPD2     N 4655   0.552   4.304  17.115 -0.3312  0.0974  0.3288
  309MPD2    H5 4656   0.514   4.303  17.209 -1.4037  1.6630 -0.0938
  309MPD2    N1 4657   0.879   4.167  16.798  0.3230  0.0817 -0.0193
  309MPD2    H7 4658   0.826   4.230  16.739  1.2905 -0.0549 -1.0273
  310TMC3    C1 4659   1.044   4.171  16.633 -0.2227  0.3554  0.3453
  310TMC3    C2 4660   0.958   4.223  16.535 -0.4000  0.1219  0.2842
  310TMC3    C3 4661   1.017   4.281  16.426 -0.4257 -0.0670 -0.1150
  310TMC3    C4 4662   1.183   4.171  16.620  0.5519 -0.2992  0.4815
  310TMC3    C5 4663   1.231   4.213  16.499 -0.4152  0.7620 -0.0046
  310TMC3    C6 4664   1.153   4.268  16.398  0.0165 -0.2897  0.7529
  310TMC3     C 4665   0.998   4.110  16.756 -0.3511 -0.7553  0.3418
  310TMC3     O 4666   1.060   4.020  16.809 -0.3754  0.8985 -0.3351
  310TMC3     H 4667   0.850   4.223  16.547 -0.4369 -2.6111 -0.0575
  310TMC3    H1 4668   1.241   4.116  16.693  1.7260 -1.8290 -1.6035
  310TMC3    H2 4669   1.200   4.284  16.302 -1.9937  1.6828  0.0881
  310TMC3    C7 4670   1.376   4.204  16.478 -0.8358  0.3208 -0.2429
  310TMC3    C8 4671   0.945   4.353  16.323 -0.9100  0.1220 -0.1105
  310TMC3    O1 4672   1.434   4.120  16.545  0.8816 -0.2432 -0.6564
  310TMC3    O2 4673   1.014   4.386  16.228 -0.4397  0.2204 -0.7934
  311MPD2     C 4674   3.881   0.846  12.729 -0.3345  0.2798 -0.1868
  311MPD2    C1 4675   3.852   0.980  12.711 -0.5427 -0.1054  0.5141
  311MPD2    C2 4676   3.723   1.023  12.707  0.1365  0.0998  0.7505
  311MPD2    C3 4677   3.614   0.931  12.716  0.4524  0.4275  0.3724
  311MPD2    C4 4678   3.645   0.797  12.739  0.6079 -0.9470  0.1214
  311MPD2    C5 4679   3.776   0.761  12.756  0.5826 -0.1973  0.1503
  311MPD2     H 4680   3.706   1.126  12.677 -0.8241 -0.5035 -0.7530
  311MPD2    H1 4681   3.570   0.726  12.771 -0.2664 -0.3285 -0.5280
  311MPD2    H2 4682   3.982   0.808  12.741  0.9740  3.5064 -0.9138
  311MPD2    H3 4683   3.794   0.659  12.787  1.7372 -0.1958 -0.5238
  311MPD2     N 4684   3.486   0.981  12.719 -0.0009  0.5319  0.3214
  311MPD2    H5 4685   3.477   1.080  12.738 -2.8053  0.3969 -0.3582
  311MPD2    N1 4686   3.954   1.070  12.687 -0.6645  0.1098  0.2349
  311MPD2    H7 4687   3.917   1.162  12.662  2.2626  1.0305 -0.6940
  312TMC3    C1 4688   3.258   0.982  12.708 -0.2648  0.0136  0.5683
  312TMC3    C2 4689   3.154   0.957  12.625 -0.2538 -0.1001  0.4270
  312TMC3    C3 4690   3.032   1.020  12.654 -0.0078 -0.2724 -0.6775
  312TMC3    C4 4691   3.243   1.055  12.821 -0.0274 -0.2429 -0.1890
  312TMC3    C5 4692   3.120   1.108  12.843  0.3120 -0.4755 -0.5199
  312TMC3    C6 4693   3.009   1.098  12.768  0.5287  0.0015  0.5085
  312TMC3     C 4694   3.379   0.906  12.695  0.8337 -0.0654 -0.1667
  312TMC3     O 4695   3.381   0.803  12.634 -0.0458  0.5766 -0.0256
  312TMC3     H 4696   3.163   0.880  12.549 -2.5893  0.2531 -0.1913
  312TMC3    H1 4697   3.330   1.086  12.878  0.2717  1.3148 -1.4771
  312TMC3    H2 4698   2.911   1.136  12.790 -0.7496 -2.3268 -1.1445
  312TMC3    C7 4699   3.098   1.129  12.990  0.0381 -0.2808  0.1627
  312TMC3    C8 4700   2.925   0.974  12.563  0.0457 -0.2125  0.1523
  312TMC3    O1 4701   3.019   1.216  13.028 -0.4140 -0.3582  0.1669
  312TMC3    O2 4702   2.812   0.973  12.608  0.2106  1.0242  0.2586
  313MPD2     C 4703   2.812   4.403  10.895  0.1753  0.2737  0.1862
  313MPD2    C1 4704   2.907   4.488  10.934  0.0984  0.2492  0.0194
  313MPD2    C2 4705   3.031   4.481  10.874 -0.0465  0.1517  0.2384
  313MPD2    C3 4706   3.058   4.393  10.774 -0.2756 -0.8464  0.5500
  313MPD2    C4 4707   2.949   4.317  10.727  0.2344 -0.2851  0.1049
  313MPD2    C5 4708   2.831   4.318  10.791  0.6307 -0.4915 -1.1193
  313MPD2     H 4709   3.107   4.554  10.899  0.3560  0.7903 -2.9760
  313MPD2    H1 4710   2.956   4.246  10.646  3.6974 -1.8383  1.7797
  313MPD2    H2 4711   2.715   4.400  10.944  0.2530 -1.1906  0.2537
  313MPD2    H3 4712   2.743   4.264  10.758  0.5458 -0.7212 -0.5178
  313MPD2     N 4713   3.185   4.398  10.717 -0.0300 -0.0330 -0.8185
  313MPD2    H5 4714   3.246   4.473  10.746  0.2757 -1.6812  2.8267
  313MPD2    N1 4715   2.881   4.589  11.037  0.5089 -0.0962  0.6670
  313MPD2    H7 4716   2.960   4.648  11.060  0.1717  0.6165  0.0131
  314TMC3    C1 4717   2.761   0.025  11.146 -0.9337 -0.3796 -0.3374
  314TMC3    C2 4718   2.881   0.084  11.182  0.1355 -0.0346 -0.0543
  314TMC3    C3 4719   2.896   0.227  11.180 -0.1933  0.0725 -0.2642
  314TMC3    C4 4720   2.658   0.111  11.108  0.9259 -0.2027 -0.0607
  314TMC3    C5 4721   2.674   0.246  11.111 -0.1601  0.6638 -0.5886
  314TMC3    C6 4722   2.794   0.308  11.146  0.2316  0.2925  0.5305
  314TMC3     C 4723   2.758   4.627  11.074 -0.4475 -0.6752 -0.2372
  314TMC3     O 4724   2.648   4.590  11.040 -0.0113 -0.1505 -0.5042
  314TMC3     H 4725   2.968   0.026  11.211  0.6226 -0.3789 -2.2352
  314TMC3    H1 4726   2.559   0.074  11.083 -0.0246 -0.0046  3.5090
  314TMC3    H2 4727   2.819   0.413  11.144 -0.5815  0.4477 -1.0373
  314TMC3    C7 4728   2.583   0.325  11.035  0.8111  0.1886  0.2934
  314TMC3    C8 4729   3.032   0.279  11.166 -1.0046 -0.6068  0.1586
  314TMC3    O1 4730   2.463   0.291  11.030 -0.4136  0.1332  0.2289
  314TMC3    O2 4731   3.027   0.389  11.113 -0.5200 -0.1541  0.2546
  315MPD2     C 4732   2.043   4.611   0.132 -0.4692 -0.2992  0.2418
  315MPD2    C1 4733   2.150   4.545   0.081 -0.2336  0.5187  0.7515
  315MPD2    C2 4734   2.245   4.617   0.010 -0.8198 -0.0067  0.0980
  315MPD2    C3 4735   2.240   0.024  17.698 -0.0775  0.9467 -0.0515
  315MPD2    C4 4736   2.145   0.093   0.043  0.1480  0.0174 -0.5308
  315MPD2    C5 4737   2.038   0.022   0.107 -0.0007  0.0831 -0.8736
  315MPD2     H 4738   2.330   4.565  17.678  0.0223  0.6299  1.0086
  315MPD2    H1 4739   2.134   0.200   0.031  1.1486  0.4068  1.9263
  315MPD2    H2 4740   1.965   4.565   0.192 -0.8650 -2.5859 -2.0163
  315MPD2    H3 4741   1.946   0.068   0.140  0.6907  0.5812  0.3747
  315MPD2     N 4742   2.356   0.088  17.637  0.2252  0.0605 -0.0089
  315MPD2    H5 4743   2.438   0.031  17.617  0.2733 -0.4116  1.4871
  315MPD2    N1 4744   2.172   4.404   0.097  0.2996 -0.2359 -0.1794
  315MPD2    H7 4745   2.246   4.357   0.045 -1.0948 -1.4036 -1.0828
  316TMC3    C1 4746   2.502   0.246  17.553 -0.3054 -0.2042 -0.4905
  316TMC3    C2 4747   2.609   0.189  17.614 -0.2624  0.1209  0.6952
  316TMC3    C3 4748   2.744   0.221  17.579  0.0082 -0.2020 -0.1796
  316TMC3    C4 4749   2.528   0.338  17.453 -0.1248 -0.3403  0.1596
  316TMC3    C5 4750   2.656   0.372  17.425 -0.4163  0.0719  0.5351
  316TMC3    C6 4751   2.766   0.309  17.479 -0.1359  0.2002 -0.2549
  316TMC3     C 4752   2.369   0.217  17.591 -0.1153 -1.1337 -0.6251
  316TMC3     O 4753   2.282   0.303  17.574 -0.2862 -0.5390  0.2213
  316TMC3     H 4754   2.593   0.142  17.710  1.5419  1.0952  1.4809
  316TMC3    H1 4755   2.446   0.392  17.407  0.3891  0.9902  0.8122
  316TMC3    H2 4756   2.869   0.324  17.448  0.5688 -2.1720  0.9482
  316TMC3    C7 4757   2.680   0.469  17.320  0.1358 -0.5849  0.6797
  316TMC3    C8 4758   2.829   0.235  17.696  0.1445 -0.1522  0.6623
  316TMC3    O1 4759   2.790   0.531  17.325  0.1131 -0.1495  0.2307
  316TMC3    O2 4760   2.900   0.328  17.699  0.5348 -0.1600  0.7962
  317MPD2     C 4761   0.354   2.122  11.491 -0.3047 -0.2204  0.2255
  317MPD2    C1 4762   0.474   2.072  11.546 -0.0331  0.4794  0.4305
  317MPD2    C2 4763   0.489   2.078  11.684  0.3721  0.2090 -0.7478
  317MPD2    C3 4764   0.391   2.135  11.763  0.5146 -0.4931 -0.8601
  317MPD2    C4 4765   0.276   2.183  11.708 -0.1049 -0.4922  0.3771
  317MPD2    C5 4766   0.258   2.172  11.576  0.3100  0.0170 -0.4805
  317MPD2     H 4767   0.581   2.040  11.728 -0.1633 -1.0598 -0.7101
  317MPD2    H1 4768   0.209   2.242  11.769 -1.0234 -0.0159 -1.0827
  317MPD2    H2 4769   0.339   2.140  11.385  1.2476 -0.8755 -0.1070
  317MPD2    H3 4770   0.180   2.221  11.519  1.9132  1.9577 -1.0223
  317MPD2     N 4771   0.429   2.142  11.901 -0.4525  0.2974  0.1149
  317MPD2    H5 4772   0.526   2.122  11.926 -0.1278  1.9312  0.1860
  317MPD2    N1 4773   0.587   2.037  11.464 -0.2680 -0.9482  0.1421
  317MPD2    H7 4774   0.671   2.006  11.512  1.0916 -0.2116 -1.7650
  318TMC3    C1 4775   0.397   2.178  12.132 -0.3026 -0.1267 -0.4131
  318TMC3    C2 4776   0.300   2.186  12.228  0.3038 -0.5483 -0.0666
  318TMC3    C3 4777   0.341   2.227  12.351 -0.1799 -0.0173  0.2193
  318TMC3    C4 4778   0.521   2.226  12.140 -0.3259 -0.2944 -0.7771
  318TMC3    C5 4779   0.559   2.276  12.260  0.2216  0.3137  0.4617
  318TMC3    C6 4780   0.472   2.266  12.370 -0.0965 -0.1281  0.3860
  318TMC3     C 4781   0.340   2.159  12.005  0.1067  0.2167  0.5418
  318TMC3     O 4782   0.218   2.156  11.999  0.2998  0.2641  0.7737
  318TMC3     H 4783   0.203   2.138  12.222  0.5193 -1.2185  1.8503
  318TMC3    H1 4784   0.591   2.238  12.058 -1.5476  0.1396 -1.7569
  318TMC3    H2 4785   0.496   2.319  12.461 -1.4676  0.4241  0.4131
  318TMC3    C7 4786   0.694   2.337  12.283 -0.5216  0.6316  0.2937
  318TMC3    C8 4787   0.261   2.204  12.470 -0.3001  0.0452 -0.1991
  318TMC3    O1 4788   0.771   2.347  12.187  0.5326 -0.1457  0.0219
  318TMC3    O2 4789   0.315   2.216  12.578 -0.1713 -0.4646 -0.1270
  319MPD2     C 4790   0.997   4.039  16.112 -0.1587 -1.1618  0.5692
  319MPD2    C1 4791   0.934   3.987  16.226 -0.1983  0.4350 -0.8149
  319MPD2    C2 4792   0.800   4.007  16.237  0.0370  0.0370 -0.4229
  319MPD2    C3 4793   0.716   4.070  16.147  0.3087  0.6278  0.5323
  319MPD2    C4 4794   0.787   4.123  16.043  0.1521 -0.2591 -0.4192
  319MPD2    C5 4795   0.923   4.117  16.033 -0.2631  0.3399  0.3945
  319MPD2     H 4796   0.761   3.962  16.327 -1.5104  1.2496 -0.4988
  319MPD2    H1 4797   0.737   4.189  15.973 -1.9450 -1.7140 -0.3023
  319MPD2    H2 4798   1.104   4.032  16.092  0.3458  0.0390  2.7373
  319MPD2    H3 4799   0.975   4.169  15.954 -1.0369 -1.0125 -1.0058
  319MPD2     N 4800   0.578   4.070  16.150 -0.8233  0.4599  0.2048
  319MPD2    H5 4801   0.533   4.113  16.070 -0.2861  1.2282  0.3257
  319MPD2    N1 4802   0.998   3.909  16.328 -0.0544  0.1329 -0.1951
  319MPD2    H7 4803   0.945   3.867  16.404 -2.1566  2.1091 -0.5856
  320TMC3    C1 4804   0.343   4.027  16.205  0.5236 -0.7551  0.7850
  320TMC3    C2 4805   0.297   4.091  16.098  0.5784 -0.4419  0.0720
  320TMC3    C3 4806   0.169   4.059  16.047  0.0569 -0.0302  0.6393
  320TMC3    C4 4807   0.271   3.925  16.272  0.1922 -0.0776 -0.3000
  320TMC3    C5 4808   0.143   3.904  16.215  0.6787 -0.8412  0.3468
  320TMC3    C6 4809   0.086   3.969  16.109 -0.6729  0.2870 -0.0836
  320TMC3     C 4810   0.490   4.027  16.242  0.7860 -0.0851  0.4401
  320TMC3     O 4811   0.528   3.980  16.351  0.2155  0.0119  0.2166
  320TMC3     H 4812   0.347   4.165  16.037 -0.2724  0.4027  0.4153
  320TMC3    H1 4813   0.303   3.874  16.362 -3.3837 -2.3969 -0.3455
  320TMC3    H2 4814   0.000   3.947  16.047 -0.3998  0.3907 -0.4964
  320TMC3    C7 4815   0.095   3.768  16.235 -0.5195 -0.0808  0.3999
  320TMC3    C8 4816   0.111   4.156  15.964  0.1248 -0.6997 -0.4806
  320TMC3    O1 4817   0.031   3.723  16.143  0.5837 -0.6351 -0.8347
  320TMC3    O2 4818   0.169   4.186  15.858  0.0258  0.2311  0.0017
  321TMC3    C1 4819   1.161   3.807  16.454 -0.2762  0.4023  0.5929
  321TMC3    C2 4820   1.076   3.709  16.489  0.5074  0.5492 -0.0288
  321TMC3    C3 4821   1.127   3.603  16.559 -0.6802  0.5595 -0.9328
  321TMC3    C4 4822   1.296   3.811  16.502  0.2190 -0.5791 -0.0567
  321TMC3    C5 4823   1.331   3.706  16.584 -0.4862  0.1033 -0.3289
  321TMC3    C6 4824   1.259   3.596  16.584  0.5619  0.1292 -0.8376
  321TMC3     C 4825   1.135   3.884  16.333  0.1944 -0.0751  0.4169
  321TMC3     O 4826   1.228   3.901  16.255 -0.2606  0.4726  0.5608
  321TMC3     H 4827   0.980   3.698  16.438 -0.2596  1.3008  1.2477
  321TMC3    H1 4828   1.358   3.899  16.491  0.5974 -0.8534 -0.1364
  321TMC3    H2 4829   1.295   3.515  16.646  0.0757 -1.0390 -2.0817
  321TMC3    C7 4830   1.350   3.743  16.722  0.6185  0.1678  1.1173
  321TMC3    C8 4831   1.045   3.552  16.668 -0.2563 -0.1666 -0.4040
  321TMC3    O1 4832   1.354   3.652  16.799  0.0706 -0.5036 -0.2614
  321TMC3    O2 4833   0.984   3.643  16.725  0.2907  0.1277 -0.4347
  322MPD2     C 4834   4.178   0.449  13.542  0.4466  0.3872 -0.3319
  322MPD2    C1 4835   4.248   0.409  13.658  0.4170  0.3678 -0.3629
  322MPD2    C2 4836   4.259   0.276  13.675  0.2185 -0.5589  0.1048
  322MPD2    C3 4837   4.208   0.183  13.593 -0.7913 -0.5649  0.7095
  322MPD2    C4 4838   4.141   0.225  13.475 -0.4745 -0.0273  0.9386
  322MPD2    C5 4839   4.129   0.357  13.451  0.4795  1.1063 -0.4531
  322MPD2     H 4840   4.322   0.251  13.759  1.8484  4.2005  0.2914
  322MPD2    H1 4841   4.089   0.168  13.400  0.2917 -0.3865  0.6789
  322MPD2    H2 4842   4.159   0.551  13.508  1.8252  0.4545 -0.8988
  322MPD2    H3 4843   4.072   0.396  13.368  0.0273 -0.9665 -1.1186
  322MPD2     N 4844   4.227   0.046  13.618 -0.4884 -0.9138 -0.6069
  322MPD2    H5 4845   4.265   0.028  13.711 -0.4713 -0.3081 -0.4942
  322MPD2    N1 4846   4.318   0.492  13.745 -0.6469 -0.4301 -0.5924
  322MPD2    H7 4847   4.372   0.451  13.821 -1.7947 -0.7816  0.0295
  323TMC3    C1 4848   4.374   0.680  13.869  0.0518  0.6930 -0.1144
  323TMC3    C2 4849   4.435   0.802  13.863 -0.0452  0.2597  0.9909
  323TMC3    C3 4850   4.504   0.846  13.976  0.3901 -0.3098 -0.1728
  323TMC3    C4 4851   4.359   0.610  13.987 -0.2494  0.2841  0.8277
  323TMC3    C5 4852   4.417   0.667  14.102  0.6414 -0.1670 -0.5288
  323TMC3    C6 4853   4.481   0.790  14.097  0.4387 -0.2252 -0.4682
  323TMC3     C 4854   4.315   0.627  13.747 -0.1211  0.0762 -0.4016
  323TMC3     O 4855   4.255   0.706  13.674 -0.3182  0.0104 -0.6137
  323TMC3     H 4856   4.451   0.839  13.762 -0.6678 -0.6379  0.5597
  323TMC3    H1 4857   4.290   0.526  13.989  1.9996 -1.5810  0.1715
  323TMC3    H2 4858   4.531   0.822  14.188 -2.2865 -0.4474  1.1018
  323TMC3    C7 4859   4.454   0.571  14.203 -0.7953  0.1862 -0.4473
  323TMC3    C8 4860   4.641   0.909  13.958  0.0316 -0.6506 -0.4795
  323TMC3    O1 4861   4.407   0.460  14.196  0.2355 -0.5925 -0.1091
  323TMC3    O2 4862   4.715   0.893  14.058 -0.0040 -0.7489  0.2596
  324MPD2     C 4863   1.620   2.118  14.710 -0.4351 -0.9035  0.5920
  324MPD2    C1 4864   1.624   2.012  14.621  0.1338  0.3447 -0.2017
  324MPD2    C2 4865   1.507   1.953  14.580 -0.3440  0.0960 -0.0452
  324MPD2    C3 4866   1.382   2.004  14.620 -0.4338 -0.1830 -0.0211
  324MPD2    C4 4867   1.385   2.124  14.697  0.2322  0.2055  0.5614
  324MPD2    C5 4868   1.503   2.182  14.731  0.4308  1.1162 -0.1460
  324MPD2     H 4869   1.506   1.865  14.517 -1.9580  0.8712 -1.0973
  324MPD2    H1 4870   1.299   2.178  14.734  1.4281  0.3933  3.0375
  324MPD2    H2 4871   1.712   2.155  14.754  0.4373 -0.5844 -1.4889
  324MPD2    H3 4872   1.483   2.262  14.802 -1.7698  0.9071 -0.5216
  324MPD2     N 4873   1.262   1.955  14.587 -0.1327  0.5005 -0.1656
  324MPD2    H5 4874   1.186   2.018  14.611 -0.3195  0.3428 -0.3431
  324MPD2    N1 4875   1.755   1.955  14.582  0.6419 -0.2846 -0.4294
  324MPD2    H7 4876   1.762   1.866  14.534  0.5582 -0.7695  0.4579
  325TMC3    C1 4877   1.100   1.847  14.462 -0.3162  0.0456  0.3106
  325TMC3    C2 4878   1.063   1.733  14.383  0.0427  0.1262 -0.4575
  325TMC3    C3 4879   0.925   1.713  14.377  0.1141 -0.4246 -0.0473
  325TMC3    C4 4880   0.997   1.939  14.513 -0.3539 -0.7772 -0.4310
  325TMC3    C5 4881   0.869   1.917  14.474  0.6322  0.6400 -0.7966
  325TMC3    C6 4882   0.829   1.805  14.408  0.4751  0.2558  0.1049
  325TMC3     C 4883   1.232   1.842  14.518 -0.2593 -0.1443 -0.1431
  325TMC3     O 4884   1.307   1.761  14.456 -0.1749 -0.1826  0.0508
  325TMC3     H 4885   1.130   1.660  14.340  0.5973  0.2060  0.2664
  325TMC3    H1 4886   1.013   2.032  14.567  0.8474 -1.0110 -0.3850
  325TMC3    H2 4887   0.724   1.780  14.393  0.9452  0.0876 -2.7510
  325TMC3    C7 4888   0.767   2.020  14.502  0.1874  0.1768 -0.1044
  325TMC3    C8 4889   0.894   1.619  14.273 -0.2897 -0.0569 -0.4631
  325TMC3    O1 4890   0.793   2.118  14.572  0.2928  0.1596 -0.2463
  325TMC3    O2 4891   0.979   1.593  14.185 -0.7501 -0.5751  0.1073
  326MPD2     C 4892   2.429   2.756  10.846 -0.0954  0.0833 -0.1522
  326MPD2    C1 4893   2.391   2.886  10.805  0.4126  0.7401  0.2492
  326MPD2    C2 4894   2.484   2.987  10.789  0.0082 -0.2613  0.4309
  326MPD2    C3 4895   2.613   2.960  10.811 -0.0074  0.3215  0.4032
  326MPD2    C4 4896   2.652   2.836  10.855  0.9403  0.6011 -0.1666
  326MPD2    C5 4897   2.563   2.731  10.868 -0.2912  0.0119  0.2833
  326MPD2     H 4898   2.448   3.079  10.746 -0.9646  0.7678  3.4423
  326MPD2    H1 4899   2.754   2.808  10.878  0.5227 -1.6124 -0.9977
  326MPD2    H2 4900   2.358   2.675  10.857  0.5957 -0.3433  1.2626
  326MPD2    H3 4901   2.614   2.637  10.885  1.9122  1.4363  1.5200
  326MPD2     N 4902   2.719   3.057  10.790 -0.1630 -0.5537 -0.3667
  326MPD2    H5 4903   2.816   3.030  10.802 -0.0555  1.0831  2.3961
  326MPD2    N1 4904   2.259   2.915  10.754 -0.9372 -0.3668  0.1717
  326MPD2    H7 4905   2.246   3.009  10.721  0.2478  0.1722  1.2383
  327TMC3    C1 4906   2.089   2.875  10.611 -0.4593 -0.2946 -0.3804
  327TMC3    C2 4907   2.046   3.003  10.627 -0.0594  0.1695  0.7431
  327TMC3    C3 4908   2.052   3.081  10.512 -0.4684 -0.0433  0.0895
  327TMC3    C4 4909   2.157   2.834  10.491  0.0023 -0.0480  0.1484
  327TMC3    C5 4910   2.185   2.927  10.393  0.0926  0.4161  0.2419
  327TMC3    C6 4911   2.118   3.049  10.393  0.0928  0.3898  0.5361
  327TMC3     C 4912   2.163   2.820  10.716 -0.5895  0.2636  0.5083
  327TMC3     O 4913   2.154   2.699  10.737  0.5940  0.6407 -0.1818
  327TMC3     H 4914   2.000   3.036  10.719  0.4098 -2.3435  1.8620
  327TMC3    H1 4915   2.185   2.730  10.479  1.2812  0.2152  0.8533
  327TMC3    H2 4916   2.138   3.122  10.315 -1.5914 -0.1593 -0.3907
  327TMC3    C7 4917   2.325   2.947  10.363  0.1491  0.4241  0.1815
  327TMC3    C8 4918   2.050   3.221  10.529  1.2358 -0.2575 -0.3842
  327TMC3    O1 4919   2.347   3.061  10.319 -0.2710  0.4354 -0.2452
  327TMC3    O2 4920   2.145   3.279  10.480  0.4154  0.5719 -0.3104
  328MPD2     C 4921   0.090   2.021  17.011 -0.0491  0.2853 -1.1250
  328MPD2    C1 4922   4.685   2.044  16.991 -0.9105 -0.8179  0.5139
  328MPD2    C2 4923   4.640   2.115  16.883 -0.5704 -0.4854  0.8326
  328MPD2    C3 4924   0.013   2.156  16.792  0.1053  0.4386  0.3844
  328MPD2    C4 4925   0.148   2.120  16.806  0.4920  0.1735 -0.1480
  328MPD2    C5 4926   0.179   2.061  16.917  0.4463 -0.4505  0.0344
  328MPD2     H 4927   4.536   2.144  16.874 -0.4257  0.1992  1.4030
  328MPD2    H1 4928   0.233   2.151  16.746  1.8329 -0.6600  1.3262
  328MPD2    H2 4929   0.113   1.972  17.105  3.3641  0.3826 -1.9157
  328MPD2    H3 4930   0.280   2.036  16.948  0.4381 -0.9377 -0.3380
  328MPD2     N 4931   4.712   2.266  16.704  0.4094  0.0166 -0.0334
  328MPD2    H5 4932   0.061   2.312  16.654  0.6986 -0.1660  0.2413
  328MPD2    N1 4933   4.595   2.023  17.100  0.3133 -0.0346 -0.2218
  328MPD2    H7 4934   4.635   1.994  17.189  2.2723  0.7570 -0.8375
  329TMC3    C1 4935   4.420   2.119  17.222 -0.0806  0.1841 -0.0851
  329TMC3    C2 4936   4.518   2.183  17.300 -0.1051  0.5537  0.3402
  329TMC3    C3 4937   4.487   2.289  17.371  0.0142 -0.2017 -0.1123
  329TMC3    C4 4938   4.288   2.154  17.232 -0.1720  0.9693  0.2046
  329TMC3    C5 4939   4.263   2.276  17.291  0.0844 -0.5226  0.9839
  329TMC3    C6 4940   4.361   2.345  17.357 -1.1406  0.2907  0.0668
  329TMC3     C 4941   4.460   2.056  17.095 -0.1274  0.0724  1.0778
  329TMC3     O 4942   4.374   2.051  17.010  0.2987  0.2672  0.1420
  329TMC3     H 4943   4.622   2.155  17.289 -0.8249 -1.9013 -0.2248
  329TMC3    H1 4944   4.219   2.107  17.163 -0.0567 -2.0944  2.1391
  329TMC3    H2 4945   4.342   2.451  17.372 -0.0445  0.3895  0.7084
  329TMC3    C7 4946   4.126   2.316  17.298 -0.3488 -0.2702  0.0285
  329TMC3    C8 4947   4.600   2.378  17.389  0.4833  0.4125 -0.1829
  329TMC3    O1 4948   4.040   2.228  17.299  0.1257  0.8600  0.3081
  329TMC3    O2 4949   4.700   2.366  17.318  0.1169  0.5555 -0.2179
  330TMC3    C1 4950   3.254   1.387   9.667  0.2630 -0.1188 -0.8163
  330TMC3    C2 4951   3.228   1.334   9.544  0.9982 -0.1646 -0.4377
  330TMC3    C3 4952   3.176   1.209   9.531  0.3315  0.1157  0.0226
  330TMC3    C4 4953   3.242   1.309   9.779 -0.1264  0.6543 -0.1546
  330TMC3    C5 4954   3.190   1.185   9.761  1.1129 -0.1837  0.3197
  330TMC3    C6 4955   3.157   1.128   9.642 -0.0729  0.4524 -0.4431
  330TMC3     C 4956   3.229   1.523   9.694  0.1691 -0.0504  0.0537
  330TMC3     O 4957   3.264   1.566   9.802  0.4066 -0.0942  0.2841
  330TMC3     H 4958   3.234   1.395   9.454  1.2109  1.4838  0.6990
  330TMC3    H1 4959   3.244   1.355   9.877  0.0371 -1.5280  0.8613
  330TMC3    H2 4960   3.121   1.026   9.627  1.9781 -0.3742  0.2824
  330TMC3    C7 4961   3.142   1.125   9.885 -0.3019  0.0214 -0.0326
  330TMC3    C8 4962   3.200   1.148   9.402  0.0799  0.1980 -0.3213
  330TMC3    O1 4963   3.186   1.169   9.991  0.2027 -0.1662  0.1433
  330TMC3    O2 4964   3.300   1.174   9.336 -0.2766  0.4912  0.7328
  331MPD2     C 4965   0.887   1.304  12.498 -0.5277 -0.1170 -0.0474
  331MPD2    C1 4966   0.978   1.288  12.397 -0.2464 -0.3331 -0.4004
  331MPD2    C2 4967   1.008   1.162  12.353  0.1557 -0.1505  0.0382
  331MPD2    C3 4968   0.953   1.051  12.417 -0.6314 -0.9491  0.0104
  331MPD2    C4 4969   0.864   1.068  12.518 -0.8112 -0.5259 -0.6178
  331MPD2    C5 4970   0.838   1.195  12.564  0.5501  0.8843  0.0303
  331MPD2     H 4971   1.081   1.151  12.274  1.1989 -0.7600  1.0813
  331MPD2    H1 4972   0.818   0.979  12.560 -0.4434 -0.0608  0.7580
  331MPD2    H2 4973   0.855   1.406  12.519  0.8918  0.5464 -1.0656
  331MPD2    H3 4974   0.777   1.205  12.653  0.8761 -2.7554  0.6551
  331MPD2     N 4975   0.996   0.919  12.384  0.2742  0.7573 -0.1619
  331MPD2    H5 4976   0.963   0.842  12.442 -2.1607  0.8460 -1.4552
  331MPD2    N1 4977   1.028   1.403  12.336 -0.3430  0.4030  0.0357
  331MPD2    H7 4978   0.992   1.492  12.369 -2.4492 -1.1935  2.0162
  332TMC3    C1 4979   1.086   0.739  12.280 -0.6355  0.4609 -0.0236
  332TMC3    C2 4980   1.099   0.694  12.153  0.0026  0.1946 -0.5342
  332TMC3    C3 4981   1.214   0.620  12.127 -0.3725  0.0815 -0.2669
  332TMC3    C4 4982   1.173   0.707  12.377  0.5920  0.2520  0.2969
  332TMC3    C5 4983   1.279   0.623  12.350 -0.2920 -0.4279 -0.1461
  332TMC3    C6 4984   1.301   0.590  12.226 -0.0385  0.3830  0.0914
  332TMC3     C 4985   1.058   0.878  12.269  0.5696 -1.2841  0.5587
  332TMC3     O 4986   1.084   0.937  12.165 -0.5855 -0.4238 -0.4965
  332TMC3     H 4987   1.031   0.740  12.082 -0.9926 -0.6511 -0.1392
  332TMC3    H1 4988   1.173   0.772  12.464  2.8036 -0.7834  1.0734
  332TMC3    H2 4989   1.384   0.526  12.201 -0.8457 -0.2904 -0.8674
  332TMC3    C7 4990   1.393   0.626  12.442 -0.1151 -0.4652 -0.3035
  332TMC3    C8 4991   1.295   0.654  12.011 -0.8974 -0.3382 -0.1654
  332TMC3    O1 4992   1.359   0.636  12.562  0.5012 -0.1576 -0.3897
  332TMC3    O2 4993   1.417   0.667  12.026  0.0584  0.3212 -0.2919
  333MPD2     C 4994   0.892   0.534  10.900  0.4360  0.0521 -0.0595
  333MPD2    C1 4995   1.021   0.490  10.919  0.0616  0.6096 -0.1796
  333MPD2    C2 4996   1.045   0.373  10.985  0.2436 -0.2374 -0.3079
  333MPD2    C3 4997   0.935   0.304  11.039 -0.5429  0.1836  0.3626
  333MPD2    C4 4998   0.809   0.344  11.014  0.2691  0.3922  0.7602
  333MPD2    C5 4999   0.783   0.462  10.944  0.3502 -0.0587 -0.2465
  333MPD2     H 5000   1.147   0.342  11.002  0.6651  1.0230 -0.5592
  333MPD2    H1 5001   0.724   0.282  11.041 -0.5860  0.6932 -1.2260
  333MPD2    H2 5002   0.883   0.621  10.837  1.6733  0.2423  0.0274
  333MPD2    H3 5003   0.689   0.505  10.912 -1.1849 -1.8386  1.8461
  333MPD2     N 5004   0.959   0.173  11.104  0.2716 -0.3514  0.4225
  333MPD2    H5 5005   1.058   0.149  11.115  0.4621  0.7828  1.2091
  333MPD2    N1 5006   1.129   0.561  10.855 -0.5021 -0.6305  0.0208
  333MPD2    H7 5007   1.115   0.655  10.818 -0.6958 -0.8105 -0.3652
  334TMC3    C1 5008   1.360   0.612  10.794 -0.0144 -0.2921  0.1197
  334TMC3    C2 5009   1.464   0.562  10.726  0.5251  0.1027  0.4895
  334TMC3    C3 5010   1.551   0.658  10.677  0.1939 -0.1250  0.0240
  334TMC3    C4 5011   1.334   0.746  10.817  0.7625 -0.1015 -0.7035
  334TMC3    C5 5012   1.427   0.837  10.770 -0.1697 -0.6522  0.1487
  334TMC3    C6 5013   1.540   0.798  10.699  0.6254  0.8255 -0.5612
  334TMC3     C 5014   1.258   0.512  10.838  0.1882  0.2073 -0.4210
  334TMC3     O 5015   1.295   0.396  10.835  0.2027  0.2009 -0.0051
  334TMC3     H 5016   1.473   0.455  10.711 -0.5445  0.0215  0.3888
  334TMC3    H1 5017   1.243   0.781  10.864 -0.5652 -2.6348 -1.4001
  334TMC3    H2 5018   1.604   0.870  10.649  0.3785 -0.7825 -3.2075
  334TMC3    C7 5019   1.418   0.979  10.792  0.0913 -0.1635 -0.3433
  334TMC3    C8 5020   1.669   0.617  10.595 -0.1445  0.2654 -0.1666
  334TMC3    O1 5021   1.485   1.050  10.725  0.2741  0.7530 -0.5236
  334TMC3    O2 5022   1.669   0.510  10.540 -0.4231  0.0048 -0.4354
  335TMC3    C1 5023   1.220   2.482  17.567 -0.2353 -0.0770 -0.0805
  335TMC3    C2 5024   1.114   2.498  17.485 -0.2511 -0.0152  0.0162
  335TMC3    C3 5025   1.125   2.601  17.391 -0.7815  0.1747 -0.4974
  335TMC3    C4 5026   1.335   2.552  17.552 -0.5082 -0.4691  0.0923
  335TMC3    C5 5027   1.349   2.648  17.452  0.3297  0.0029  0.0908
  335TMC3    C6 5028   1.238   2.677  17.377  0.0038 -0.0238 -0.8315
  335TMC3     C 5029   1.209   2.394  17.674  0.0822  0.0014 -0.0053
  335TMC3     O 5030   1.101   2.391   0.018  0.2507 -0.0289 -0.1272
  335TMC3     H 5031   1.028   2.438  17.510 -1.0670  1.4011  0.5901
  335TMC3    H1 5032   1.421   2.537  17.617  0.8449 -0.2849 -1.6718
  335TMC3    H2 5033   1.242   2.739  17.288 -0.8857  0.7174 -0.3575
  335TMC3    C7 5034   1.485   2.688  17.411 -0.5272 -0.4274  0.4641
  335TMC3    C8 5035   1.040   2.595  17.276 -0.0807  0.2147 -0.0816
  335TMC3    O1 5036   1.504   2.698  17.290  0.1154 -0.0525 -0.5641
  335TMC3    O2 5037   1.055   2.676  17.185  0.5675 -0.9100 -0.1876
  336MPD2     C 5038   0.284   0.641  16.078  0.0510 -0.2350 -1.1645
  336MPD2    C1 5039   0.308   0.612  15.944  0.3499  0.6237 -0.6068
  336MPD2    C2 5040   0.288   0.476  15.916  0.3354 -0.7018  0.2425
  336MPD2    C3 5041   0.248   0.377  16.008 -0.0880 -0.2972 -0.1639
  336MPD2    C4 5042   0.212   0.422  16.136 -0.0216  0.3572  0.0694
  336MPD2    C5 5043   0.239   0.554  16.165  0.5299 -0.4731  0.1065
  336MPD2     H 5044   0.306   0.450  15.813 -4.0855  0.7261 -0.9114
  336MPD2    H1 5045   0.169   0.353  16.208 -0.8951 -0.8536 -1.6065
  336MPD2    H2 5046   0.276   0.741  16.117 -0.7238 -0.0574 -1.7703
  336MPD2    H3 5047   0.218   0.590  16.265  1.6306 -0.7466  0.4355
  336MPD2     N 5048   0.251   0.239  15.972  0.7431  0.7949  0.3544
  336MPD2    H5 5049   0.252   0.179  16.054 -1.1792  0.8880  0.4584
  336MPD2    N1 5050   0.346   0.701  15.844 -0.5384  0.0730 -0.0061
  336MPD2    H7 5051   0.348   0.667  15.748  3.6278  1.0169 -0.2679
  337TMC3    C1 5052   0.397   0.900  15.727  0.1811  0.1236  0.5914
  337TMC3    C2 5053   0.289   0.982  15.699  0.4787 -0.5211 -0.7305
  337TMC3    C3 5054   0.264   1.012  15.567 -0.3888  0.0588 -0.5521
  337TMC3    C4 5055   0.462   0.838  15.624  0.7276  0.1593 -0.0933
  337TMC3    C5 5056   0.436   0.867  15.496 -0.5276 -0.3521  0.6621
  337TMC3    C6 5057   0.333   0.956  15.464  0.0283  0.3176 -0.3249
  337TMC3     C 5058   0.379   0.832  15.854  0.0480  0.5331 -0.3151
  337TMC3     O 5059   0.369   0.905  15.954  0.1628  0.0290  0.4861
  337TMC3     H 5060   0.215   1.014  15.772 -0.5135  1.1433 -2.4678
  337TMC3    H1 5061   0.529   0.756  15.648  0.0218 -0.4366 -0.1903
  337TMC3    H2 5062   0.311   0.992  15.364 -1.0793 -1.6480 -0.7834
  337TMC3    C7 5063   0.511   0.822  15.381  0.0980 -0.7656 -0.1313
  337TMC3    C8 5064   0.124   1.032  15.552  0.9201  0.7918 -0.4115
  337TMC3    O1 5065   0.450   0.820  15.276 -0.3374  0.0141  0.0360
  337TMC3    O2 5066   0.058   1.095  15.633  0.2879  0.6944 -0.2139
  338MPD2     C 5067   0.942   4.724   0.781 -0.3533  0.6432 -0.1425
  338MPD2    C1 5068   0.824   4.683   0.715 -0.1685  0.0480 -0.8126
  338MPD2    C2 5069   0.708   0.014   0.759 -0.0886  0.1677 -0.2700
  338MPD2    C3 5070   0.701   0.109   0.865  0.6782 -0.7378  0.3953
  338MPD2    C4 5071   0.816   0.156   0.920  0.2366 -0.0000  0.5037
  338MPD2    C5 5072   0.938   0.108   0.870 -0.0414 -0.3024 -0.0160
  338MPD2     H 5073   0.613   4.710   0.717  0.3347 -2.1395  0.5457
  338MPD2    H1 5074   0.813   0.222   1.005 -0.0155  1.1087 -0.3757
  338MPD2    H2 5075   1.042   4.691   0.753 -0.0612  1.9464 -0.6360
  338MPD2    H3 5076   1.026   0.163   0.898 -1.1329  1.1700  0.5016
  338MPD2     N 5077   0.573   0.151   0.911  0.3255  0.4289 -0.0217
  338MPD2    H5 5078   0.490   0.109   0.872  0.5078  0.5935 -0.5852
  338MPD2    N1 5079   0.822   4.590   0.613  0.2556  0.1643  0.2245
  338MPD2    H7 5080   0.731   4.571   0.572  1.1587  1.6259 -2.4747
  339TMC3    C1 5081   0.413   0.299   0.958  0.2324 -0.6738  0.3357
  339TMC3    C2 5082   0.324   0.192   0.972  0.8369  0.4304 -0.5081
  339TMC3    C3 5083   0.212   0.198   0.891 -0.1317  0.2157 -0.4912
  339TMC3    C4 5084   0.391   0.404   0.877 -0.1538 -0.0442 -0.1058
  339TMC3    C5 5085   0.280   0.408   0.801 -0.5443 -0.1111 -0.1249
  339TMC3    C6 5086   0.186   0.310   0.806  0.3645 -0.5793 -0.3492
  339TMC3     C 5087   0.551   0.264   0.984 -0.0030  0.0845  0.5023
  339TMC3     O 5088   0.625   0.347   1.038 -0.1874 -0.4174 -0.0381
  339TMC3     H 5089   0.348   0.100   1.025  2.0447  0.8384 -0.3469
  339TMC3    H1 5090   0.480   0.466   0.868 -0.4695  0.6508  1.3988
  339TMC3    H2 5091   0.100   0.308   0.741 -0.5562  0.7775  0.8248
  339TMC3    C7 5092   0.297   0.472   0.672 -0.0639  0.1424 -0.1644
  339TMC3    C8 5093   0.108   0.094   0.895 -0.2049 -0.2099  0.2709
  339TMC3    O1 5094   0.265   0.416   0.565  0.8283  0.2186 -0.0233
  339TMC3    O2 5095   4.722   0.114   0.855 -0.4660  0.3976  0.1381
  340MPD2     C 5096   1.329   1.888   9.683 -0.9845  1.0129  0.9165
  340MPD2    C1 5097   1.307   1.791   9.779 -0.0453 -0.3447  0.6219
  340MPD2    C2 5098   1.256   1.833   9.906 -0.2629 -0.2596 -0.2965
  340MPD2    C3 5099   1.223   1.964   9.936 -0.9013  0.2379  0.0116
  340MPD2    C4 5100   1.243   2.056   9.834  0.1052  0.0313 -0.3488
  340MPD2    C5 5101   1.285   2.015   9.706 -0.4501 -0.0393 -0.4031
  340MPD2     H 5102   1.241   1.755   9.980 -3.0234  0.7183  0.1858
  340MPD2    H1 5103   1.214   2.160   9.848 -2.0125 -0.5939  0.0228
  340MPD2    H2 5104   1.377   1.867   9.588 -2.3420  0.0004  0.4423
  340MPD2    H3 5105   1.292   2.093   9.631  1.0670 -0.3207 -0.5527
  340MPD2     N 5106   1.169   2.008  10.063 -0.5271 -1.4149  0.2831
  340MPD2    H5 5107   1.157   2.108  10.069 -1.3670 -1.2943 -3.2454
  340MPD2    N1 5108   1.315   1.659   9.739  0.5564  0.1936  0.0546
  340MPD2    H7 5109   1.352   1.638   9.647  0.5227 -1.7833  0.4956
  341TMC3    C1 5110   1.346   1.427   9.762 -0.4465  0.2913  0.4212
  341TMC3    C2 5111   1.278   1.316   9.790  0.2026  0.2867 -0.0437
  341TMC3    C3 5112   1.333   1.194   9.749 -0.0020  0.1375  0.4037
  341TMC3    C4 5113   1.474   1.419   9.711 -0.2627 -0.3059  0.4906
  341TMC3    C5 5114   1.533   1.296   9.687 -0.0355  0.3888 -1.0022
  341TMC3    C6 5115   1.465   1.179   9.703  0.1964  0.2364  0.0694
  341TMC3     C 5116   1.291   1.548   9.819 -0.2696 -0.4457  0.0182
  341TMC3     O 5117   1.253   1.538   9.937  0.6481 -0.3415  0.5446
  341TMC3     H 5118   1.171   1.325   9.807 -0.3151 -1.8104 -2.1013
  341TMC3    H1 5119   1.528   1.511   9.694 -0.9216 -0.1264 -0.6680
  341TMC3    H2 5120   1.518   1.085   9.694 -1.5111 -0.5937 -1.2687
  341TMC3    C7 5121   1.666   1.306   9.622  0.0126 -0.6577 -0.0727
  341TMC3    C8 5122   1.238   1.080   9.752 -0.0582 -0.1508  0.1469
  341TMC3    O1 5123   1.724   1.412   9.632 -0.0194  0.0347  0.6972
  341TMC3    O2 5124   1.135   1.094   9.816  0.0348  0.5108 -0.3656
  342MPD2     C 5125   3.294   0.990  17.418 -0.1889  0.6725 -0.0388
  342MPD2    C1 5126   3.422   1.010  17.388 -0.4398 -0.0620 -0.4613
  342MPD2    C2 5127   3.470   1.139  17.375  0.1470 -0.5081  0.2514
  342MPD2    C3 5128   3.386   1.251  17.396 -0.6086 -1.1455 -0.4257
  342MPD2    C4 5129   3.255   1.220  17.426 -0.6005  0.7503  0.0933
  342MPD2    C5 5130   3.206   1.090  17.427 -0.1870  0.6372  0.6845
  342MPD2     H 5131   3.577   1.145  17.362  0.2768  2.0568  2.3327
  342MPD2    H1 5132   3.181   1.298  17.439 -0.4243  1.1497 -1.2896
  342MPD2    H2 5133   3.243   0.895  17.427 -1.0007  1.3765  2.7223
  342MPD2    H3 5134   3.100   1.077  17.446 -0.7555  1.0749 -2.1981
  342MPD2     N 5135   3.421   1.387  17.409  0.5085  0.0333  0.0963
  342MPD2    H5 5136   3.344   1.452  17.422  0.2064 -0.2180 -0.4087
  342MPD2    N1 5137   3.519   0.902  17.381 -0.0139  0.3543  0.0288
  342MPD2    H7 5138   3.606   0.917  17.331 -1.7344  2.7531 -2.2308
  343TMC3    C1 5139   3.611   0.691  17.429  0.3573  0.2424 -0.1410
  343TMC3    C2 5140   3.707   0.712  17.333 -0.1275  0.6072 -0.2588
  343TMC3    C3 5141   3.781   0.605  17.299 -0.0763 -0.3829 -0.1108
  343TMC3    C4 5142   3.596   0.573  17.485  0.4349 -0.1532  1.0255
  343TMC3    C5 5143   3.675   0.469  17.449 -0.1897 -0.7387 -0.3976
  343TMC3    C6 5144   3.773   0.478  17.354  0.5090 -0.4666 -0.5591
  343TMC3     C 5145   3.498   0.780  17.440 -0.2712  0.1963  0.1174
  343TMC3     O 5146   3.402   0.729  17.494 -0.0150  0.3178  0.0997
  343TMC3     H 5147   3.720   0.808  17.284 -0.1078  0.7295 -0.0185
  343TMC3    H1 5148   3.527   0.566  17.568 -1.5162 -2.2843 -0.7930
  343TMC3    H2 5149   3.829   0.388  17.331  1.3865 -0.0226 -0.1508
  343TMC3    C7 5150   3.610   0.337  17.464  0.7587  0.1743  0.2879
  343TMC3    C8 5151   3.852   0.619  17.179 -0.5233 -0.6143 -0.6943
  343TMC3    O1 5152   3.611   0.259  17.371  0.3508  0.2146  0.0076
  343TMC3    O2 5153   3.840   0.721  17.112 -0.4540  0.2342 -0.4038
  344MPD2     C 5154   0.344   0.138  11.101  0.5647 -0.0717  0.3228
  344MPD2    C1 5155   0.270   0.067  11.017 -0.5909 -0.2412  0.4958
  344MPD2    C2 5156   0.272   0.082  10.880 -0.3390  0.4857  0.3775
  344MPD2    C3 5157   0.378   0.156  10.829 -0.7445  0.5235 -0.8889
  344MPD2    C4 5158   0.458   0.228  10.917 -0.7254  0.3655 -0.3264
  344MPD2    C5 5159   0.437   0.223  11.047 -0.4877 -0.2188 -0.3840
  344MPD2     H 5160   0.231   0.005  10.816 -0.1101  2.2596 -1.8757
  344MPD2    H1 5161   0.534   0.292  10.874 -2.2917  0.6416 -2.6599
  344MPD2    H2 5162   0.332   0.132  11.208 -2.0153  1.6178  0.1510
  344MPD2    H3 5163   0.494   0.281  11.119  0.9757 -2.2243  0.0557
  344MPD2     N 5164   0.412   0.160  10.692 -0.0279 -0.1546  0.2191
  344MPD2    H5 5165   0.487   0.220  10.658  1.2593 -1.6256  0.4616
  344MPD2    N1 5166   0.189   4.688  11.066 -0.0537 -0.9390 -0.1239
  344MPD2    H7 5167   0.143   4.628  10.998 -0.3727  0.5413 -1.1921
  345TMC3    C1 5168   0.381   0.153  10.462  0.6296  0.4978  0.0600
  345TMC3    C2 5169   0.514   0.164  10.436 -0.1927 -0.3091  0.3791
  345TMC3    C3 5170   0.544   0.220  10.308 -0.6298 -0.2944  1.1306
  345TMC3    C4 5171   0.278   0.201  10.382 -0.3134 -0.4281 -0.8188
  345TMC3    C5 5172   0.317   0.260  10.262 -0.0253  1.4658 -0.7930
  345TMC3    C6 5173   0.447   0.269  10.229  0.1269  0.1846  0.5496
  345TMC3     C 5174   0.339   0.098  10.594 -0.4303  0.6280 -0.1763
  345TMC3     O 5175   0.228   0.042  10.599 -0.1443  0.5270 -0.2079
  345TMC3     H 5176   0.590   0.132  10.506  0.4822  0.3734 -0.0350
  345TMC3    H1 5177   0.179   0.225  10.418  0.5584  0.7454  0.7901
  345TMC3    H2 5178   0.476   0.321  10.138 -0.4797 -0.6915 -0.1386
  345TMC3    C7 5179   0.248   0.392  10.251 -0.3259  0.2882  0.1331
  345TMC3    C8 5180   0.667   0.298  10.305  0.2593  0.6429  0.1782
  345TMC3    O1 5181   0.311   0.496  10.259 -0.3265 -0.4519  0.3767
  345TMC3    O2 5182   0.701   0.356  10.406  0.1980  0.2264 -0.2122
  346MPD2     C 5183   0.739   1.720  13.620 -0.2107  0.2709 -0.1890
  346MPD2    C1 5184   0.634   1.745  13.531  0.8064 -1.0295  0.7599
  346MPD2    C2 5185   0.508   1.754  13.580 -0.2567  0.2408  0.8934
  346MPD2    C3 5186   0.480   1.775  13.714  0.2020  0.0382  0.2919
  346MPD2    C4 5187   0.585   1.750  13.805  0.3952 -0.2535  0.7743
  346MPD2    C5 5188   0.713   1.722  13.756 -0.8599  0.3351 -0.0717
  346MPD2     H 5189   0.424   1.760  13.511  0.7841 -1.3646 -0.5307
  346MPD2    H1 5190   0.576   1.762  13.912 -0.7100 -2.7124  0.9656
  346MPD2    H2 5191   0.841   1.711  13.585 -0.3723  0.3935 -0.6849
  346MPD2    H3 5192   0.796   1.721  13.826  1.3841 -1.8864 -2.7728
  346MPD2     N 5193   0.345   1.800  13.754  0.1766  0.0231 -0.9173
  346MPD2    H5 5194   0.274   1.813  13.683 -0.3839 -1.3446 -0.6011
  346MPD2    N1 5195   0.642   1.760  13.388 -0.5463  0.2936  0.3401
  346MPD2    H7 5196   0.554   1.762  13.337  0.0507 -0.2475 -0.7105
  347TMC3    C1 5197   0.175   1.887  13.901 -0.1939 -0.0554  0.6107
  347TMC3    C2 5198   0.156   1.934  14.033 -0.6730 -0.5650  0.1322
  347TMC3    C3 5199   0.080   2.045  14.055  0.6083 -0.9821  0.1328
  347TMC3    C4 5200   0.120   1.949  13.791 -0.2861  0.2348  0.4361
  347TMC3    C5 5201   0.047   2.059  13.823 -0.1735  0.6510 -0.1031
  347TMC3    C6 5202   0.024   2.105  13.949  0.0276 -0.5838  0.0228
  347TMC3     C 5203   0.309   1.828  13.881 -0.2310  0.3351 -0.6364
  347TMC3     O 5204   0.382   1.846  13.978 -0.4596  0.1824  0.1941
  347TMC3     H 5205   0.198   1.873  14.112 -0.2004  0.1741  0.4545
  347TMC3    H1 5206   0.137   1.914  13.690 -1.6478 -1.2247  0.7030
  347TMC3    H2 5207   4.710   2.204  13.964  0.8638  0.0156 -1.6089
  347TMC3    C7 5208   4.687   2.108  13.723  0.9063  0.1384  0.0179
  347TMC3    C8 5209   0.123   2.124  14.169 -0.3680 -0.6347 -0.7339
  347TMC3    O1 5210   4.581   2.162  13.756 -0.2676  0.0634 -0.0099
  347TMC3    O2 5211   0.044   2.205  14.219  0.0131  0.1292 -0.0237
  348MPD2     C 5212   3.674   1.510  12.007  0.0638  0.2472  0.1123
  348MPD2    C1 5213   3.751   1.577  11.913  0.3738  0.2502 -0.1432
  348MPD2    C2 5214   3.705   1.612  11.786  0.2323 -1.0769  0.2494
  348MPD2    C3 5215   3.576   1.571  11.747  0.8656  0.3382  0.2255
  348MPD2    C4 5216   3.502   1.496  11.844  0.0544 -0.6353  0.6809
  348MPD2    C5 5217   3.545   1.466  11.968  0.6436  0.0884  0.3717
  348MPD2     H 5218   3.766   1.676  11.723 -0.9095 -0.2873 -0.0667
  348MPD2    H1 5219   3.402   1.461  11.820  0.9306 -2.1647 -0.7682
  348MPD2    H2 5220   3.701   1.493  12.110 -1.4346 -0.8281  0.3200
  348MPD2    H3 5221   3.483   1.404  12.032 -0.7838  2.9619  1.7869
  348MPD2     N 5222   3.534   1.594  11.616 -0.4912 -0.6863 -0.0837
  348MPD2    H5 5223   3.612   1.613  11.554 -0.9966 -1.9439 -1.1089
  348MPD2    N1 5224   3.879   1.619  11.963 -0.1718  0.0784 -0.1390
  348MPD2    H7 5225   3.914   1.568  12.044 -0.1688  0.1485 -0.0967
  349TMC3    C1 5226   4.103   1.670  11.906 -0.7340 -0.0734  0.2060
  349TMC3    C2 5227   4.145   1.555  11.969 -0.2125 -0.0560  0.8149
  349TMC3    C3 5228   4.221   1.459  11.909 -0.2437 -0.1634 -0.6800
  349TMC3    C4 5229   4.151   1.698  11.780  1.0368  0.7812 -0.0322
  349TMC3    C5 5230   4.238   1.605  11.723  0.0322 -0.2646 -0.0457
  349TMC3    C6 5231   4.266   1.482  11.787 -0.0843  0.0842  0.6264
  349TMC3     C 5232   3.961   1.710  11.906 -0.3226 -0.2421  0.2259
  349TMC3     O 5233   3.931   1.811  11.844  0.1842  0.0417 -0.4459
  349TMC3     H 5234   4.118   1.539  12.072  0.3718 -1.2207  0.7931
  349TMC3    H1 5235   4.137   1.790  11.725  0.6236  0.9694  0.3860
  349TMC3    H2 5236   4.312   1.400  11.733  0.8478  0.2886  1.1052
  349TMC3    C7 5237   4.201   1.583  11.585  0.3537  0.2788 -0.2892
  349TMC3    C8 5238   4.237   1.327  11.970 -0.0320 -0.4374  0.1039
  349TMC3    O1 5239   4.157   1.475  11.558  0.2961  0.0721  0.1722
  349TMC3    O2 5240   4.149   1.301  12.050 -0.1312 -0.3565  0.1580
  350MPD2     C 5241   3.763   3.937  10.051 -0.2576  0.4398 -0.0917
  350MPD2    C1 5242   3.626   3.915  10.071  0.9699 -0.0027  0.2808
  350MPD2    C2 5243   3.549   4.022  10.109 -1.2184  0.7267 -0.4401
  350MPD2    C3 5244   3.598   4.147  10.138  0.1001 -0.2174  0.2584
  350MPD2    C4 5245   3.729   4.169  10.115 -0.2163 -0.1923 -0.3006
  350MPD2    C5 5246   3.810   4.068  10.081  0.2505 -0.9204 -0.5009
  350MPD2     H 5247   3.443   4.012  10.131 -1.2744 -0.4514 -1.2788
  350MPD2    H1 5248   3.775   4.266  10.132 -2.1647  1.1365 -2.6135
  350MPD2    H2 5249   3.831   3.854  10.034 -1.2421 -0.5595  0.8353
  350MPD2    H3 5250   3.917   4.085  10.079 -0.2073  1.8461 -0.8449
  350MPD2     N 5251   3.510   4.234  10.201 -0.1933  0.0452 -1.1677
  350MPD2    H5 5252   3.414   4.202  10.207  0.1575 -1.1864 -1.9436
  350MPD2    N1 5253   3.568   3.791  10.058 -0.6725 -0.2292 -0.1726
  350MPD2    H7 5254   3.629   3.710  10.071 -0.3414  0.0426 -0.0156
  351TMC3    C1 5255   3.386   3.634  10.025 -0.4090  0.3280 -0.6497
  351TMC3    C2 5256   3.454   3.528  10.081 -0.1974 -1.0695 -0.3859
  351TMC3    C3 5257   3.386   3.413  10.109  0.1081 -0.5743 -0.2273
  351TMC3    C4 5258   3.258   3.612   9.974 -0.2382 -0.2400 -0.4598
  351TMC3    C5 5259   3.196   3.501  10.003 -0.0729 -0.3586  0.6215
  351TMC3    C6 5260   3.257   3.397  10.065  0.2359  0.1037 -0.5309
  351TMC3     C 5261   3.439   3.771  10.016  0.5008  0.0808  0.0815
  351TMC3     O 5262   3.365   3.856   9.968 -0.5622 -0.0549 -0.3838
  351TMC3     H 5263   3.556   3.545  10.115  0.7418 -3.6176 -1.8711
  351TMC3    H1 5264   3.213   3.687   9.911  0.7718  0.4911 -0.3122
  351TMC3    H2 5265   3.206   3.305  10.091  1.6020 -0.7936 -1.0566
  351TMC3    C7 5266   3.055   3.492   9.962  0.8578  0.5036 -0.5076
  351TMC3    C8 5267   3.453   3.286  10.086  0.3299  0.5336 -0.2964
  351TMC3    O1 5268   3.001   3.604   9.971  0.3562 -0.0454  0.6329
  351TMC3    O2 5269   3.387   3.184  10.081 -0.2346  0.3497 -0.2818
  352MPD2     C 5270   0.850   1.911   0.879  0.7712  0.4011 -0.2800
  352MPD2    C1 5271   0.733   1.888   0.943  0.4432 -0.5127  0.3831
  352MPD2    C2 5272   0.720   1.784   1.038  0.1772  0.4484 -0.4046
  352MPD2    C3 5273   0.826   1.709   1.075  0.0939 -0.5570 -0.2926
  352MPD2    C4 5274   0.937   1.720   0.991 -0.7615 -0.4124  0.1275
  352MPD2    C5 5275   0.946   1.821   0.902  0.1186 -0.3468  0.1499
  352MPD2     H 5276   0.627   1.768   1.093  1.3501  0.6474  1.6392
  352MPD2    H1 5277   1.022   1.655   1.010 -1.2637 -0.6644  1.5049
  352MPD2    H2 5278   0.861   1.994   0.809 -0.6145  2.1468  1.5665
  352MPD2    H3 5279   1.033   1.817   0.837  0.3681  1.7072  0.3443
  352MPD2     N 5280   0.829   1.606   1.174 -0.0376  0.4153  0.1594
  352MPD2    H5 5281   0.902   1.536   1.179 -0.6526 -0.0554  2.3262
  352MPD2    N1 5282   0.619   1.967   0.907  0.4322 -0.1454 -0.7148
  352MPD2    H7 5283   0.618   2.019   0.820 -1.0869 -2.2311 -1.9465
  353TMC3    C1 5284   0.734   1.483   1.357 -0.5677  0.5899  0.7478
  353TMC3    C2 5285   0.851   1.408   1.368 -0.0326  0.1893  0.0023
  353TMC3    C3 5286   0.835   1.288   1.428  0.0253 -0.3856 -0.6164
  353TMC3    C4 5287   0.615   1.425   1.394  0.1712  0.0066 -0.1906
  353TMC3    C5 5288   0.605   1.302   1.450  0.1067 -0.4208  0.1817
  353TMC3    C6 5289   0.716   1.227   1.462  0.1872  0.4502  0.6019
  353TMC3     C 5290   0.726   1.600   1.266 -0.1924 -0.0449 -0.8195
  353TMC3     O 5291   0.619   1.663   1.276 -0.2345 -0.4690  0.1921
  353TMC3     H 5292   0.948   1.448   1.339  0.3593 -0.3928  0.5074
  353TMC3    H1 5293   0.520   1.471   1.371  0.9780  1.4184 -0.7184
  353TMC3    H2 5294   0.712   1.136   1.521 -0.9556 -0.6834 -1.2400
  353TMC3    C7 5295   0.479   1.234   1.435 -0.4424 -0.1933 -0.4836
  353TMC3    C8 5296   0.957   1.204   1.428 -0.2378  0.1245  0.2508
  353TMC3    O1 5297   0.484   1.110   1.449  0.2313 -0.0115 -0.0147
  353TMC3    O2 5298   1.067   1.264   1.421  0.5637 -0.4275 -0.0253
  354TMC3    C1 5299   2.788   2.675  13.168 -0.1701  0.0649  0.1301
  354TMC3    C2 5300   2.827   2.805  13.138 -0.0913  0.2015 -0.3364
  354TMC3    C3 5301   2.815   2.840  13.002 -0.4225 -0.7656  0.3421
  354TMC3    C4 5302   2.744   2.581  13.074 -0.2169 -0.3026 -0.2929
  354TMC3    C5 5303   2.710   2.637  12.947  0.2091 -0.2779  0.6376
  354TMC3    C6 5304   2.738   2.770  12.914  0.3619  0.3384 -0.6343
  354TMC3     C 5305   2.763   2.632  13.304 -0.1377 -0.0599 -0.3908
  354TMC3     O 5306   2.665   2.561  13.321  0.5893  0.2337 -0.1674
  354TMC3     H 5307   2.879   2.865  13.212  0.7284 -2.2905  1.1117
  354TMC3    H1 5308   2.702   2.486  13.105 -1.6710 -0.2593 -2.1192
  354TMC3    H2 5309   2.708   2.804  12.815 -1.5963  0.0201 -0.1623
  354TMC3    C7 5310   2.693   2.539  12.838 -1.2305  0.0564 -0.4477
  354TMC3    C8 5311   2.844   2.981  12.981 -0.5128 -0.2588  0.4842
  354TMC3    O1 5312   2.678   2.423  12.874  0.3858  0.9955  0.3038
  354TMC3    O2 5313   2.881   3.054  13.075 -0.1499 -0.0601 -0.2725
  355MPD2     C 5314   2.864   3.301  11.509  0.2448  0.3032  0.4222
  355MPD2    C1 5315   2.860   3.383  11.618 -0.2718 -0.5873  0.4663
  355MPD2    C2 5316   2.977   3.396  11.696  0.0511 -0.1518  0.5795
  355MPD2    C3 5317   3.100   3.352  11.650  0.0699  0.1940 -0.1197
  355MPD2    C4 5318   3.105   3.287  11.529 -0.6874 -0.0631 -0.1630
  355MPD2    C5 5319   2.986   3.260  11.461 -0.1148 -0.5963 -0.1608
  355MPD2     H 5320   2.975   3.443  11.794 -0.1089  1.4377 -0.1783
  355MPD2    H1 5321   3.197   3.271  11.474 -0.7352 -0.5060 -0.1149
  355MPD2    H2 5322   2.772   3.272  11.459  0.0967  2.3612 -0.4900
  355MPD2    H3 5323   2.985   3.215  11.363  0.0164 -2.4227  0.6718
  355MPD2     N 5324   3.221   3.380  11.720  0.0300 -0.3879 -0.2837
  355MPD2    H5 5325   3.312   3.365  11.677  0.9247  2.3092  0.6379
  355MPD2    N1 5326   2.735   3.432  11.657 -0.2415  0.0864 -0.0493
  355MPD2    H7 5327   2.660   3.384  11.608  0.8895 -2.4533  0.7293
  356TMC3    C1 5328   3.361   3.489  11.878 -0.0218  0.8101  0.4649
  356TMC3    C2 5329   3.436   3.556  11.782 -0.6535  0.0278 -0.4465
  356TMC3    C3 5330   3.543   3.631  11.833  0.2449  0.2991 -0.0247
  356TMC3    C4 5331   3.391   3.496  12.011  0.4135 -0.5376  0.3455
  356TMC3    C5 5332   3.500   3.574  12.058  0.1886 -0.3741 -0.2236
  356TMC3    C6 5333   3.572   3.645  11.970 -0.0240 -0.3354 -0.4743
  356TMC3     C 5334   3.230   3.434  11.846  1.1796 -0.4134  0.4641
  356TMC3     O 5335   3.141   3.447  11.933  0.0192  0.2546  0.1172
  356TMC3     H 5336   3.405   3.563  11.679 -3.7551 -0.4948  0.4691
  356TMC3    H1 5337   3.328   3.457  12.090 -1.2604  2.8507  0.6779
  356TMC3    H2 5338   3.666   3.686  12.005 -0.9817  0.7862  0.7508
  356TMC3    C7 5339   3.524   3.582  12.199  0.0937  0.1327  0.8712
  356TMC3    C8 5340   3.616   3.714  11.740  0.2989  0.0913  0.2770
  356TMC3    O1 5341   3.509   3.478  12.260  0.6715  0.6346 -0.1918
  356TMC3    O2 5342   3.595   3.674  11.625  0.0511  0.5092  0.4643
  357MPD2     C 5343   1.915   4.122   1.338 -0.1952 -0.6511 -0.6734
  357MPD2    C1 5344   1.911   3.997   1.287  0.1087 -0.3472  0.0152
  357MPD2    C2 5345   1.786   3.942   1.244 -0.6068  0.1159  0.7820
  357MPD2    C3 5346   1.670   4.018   1.247  1.1791  0.0621 -0.5278
  357MPD2    C4 5347   1.680   4.144   1.303 -0.0543 -0.2077 -0.5087
  357MPD2    C5 5348   1.799   4.195   1.337  0.0592  0.1927  0.3292
  357MPD2     H 5349   1.779   3.840   1.208 -0.3028  0.8244 -1.2781
  357MPD2    H1 5350   1.587   4.199   1.312 -0.5901 -1.3811  1.2344
  357MPD2    H2 5351   1.999   4.174   1.383 -0.7285  0.1388 -0.5934
  357MPD2    H3 5352   1.809   4.297   1.373 -0.4301  0.9342 -1.6489
  357MPD2     N 5353   1.549   3.976   1.186 -0.5145  0.0329  0.0219
  357MPD2    H5 5354   1.475   4.046   1.182 -0.7891 -0.3294 -1.4346
  357MPD2    N1 5355   2.024   3.913   1.277  0.6586  0.6392 -0.4803
  357MPD2    H7 5356   2.005   3.823   1.234 -0.6655 -0.5548  2.5694
  358TMC3    C1 5357   2.251   3.833   1.313 -0.6154  0.2108  0.2286
  358TMC3    C2 5358   2.227   3.722   1.234 -0.0359  0.3218  0.1907
  358TMC3    C3 5359   2.321   3.619   1.227 -0.5613 -0.5821 -0.1928
  358TMC3    C4 5360   2.355   3.830   1.403  0.7277 -0.1694  0.1946
  358TMC3    C5 5361   2.426   3.713   1.408  1.1503 -0.4360  0.2560
  358TMC3    C6 5362   2.422   3.615   1.317 -0.1772 -1.1621  0.0109
  358TMC3     C 5363   2.145   3.937   1.337 -0.0754 -0.2091 -0.6452
  358TMC3     O 5364   2.175   4.042   1.395  0.2877  0.4222  0.0657
  358TMC3     H 5365   2.148   3.723   1.160  2.5741 -0.0045 -2.6239
  358TMC3    H1 5366   2.367   3.903   1.482 -0.5804 -0.1592  0.3768
  358TMC3    H2 5367   2.512   3.561   1.290 -0.4105 -0.7184 -1.6221
  358TMC3    C7 5368   2.522   3.702   1.514  0.0958 -0.6787  0.0661
  358TMC3    C8 5369   2.303   3.508   1.136 -0.4151  0.3175 -0.1792
  358TMC3    O1 5370   2.551   3.804   1.573 -0.2730  0.0283 -0.2085
  358TMC3    O2 5371   2.396   3.440   1.106 -0.0225 -0.0477 -0.8477
  359MPD2     C 5372   3.533   1.995  11.886  0.9698 -0.2607 -0.2817
  359MPD2    C1 5373   3.424   2.074  11.861  0.2485 -0.3856  0.0960
  359MPD2    C2 5374   3.295   2.032  11.894 -0.5221  0.0662  0.5991
  359MPD2    C3 5375   3.275   1.903  11.936 -0.2573  0.2032  0.0611
  359MPD2    C4 5376   3.387   1.831  11.969 -0.2735  0.7039 -0.0091
  359MPD2    C5 5377   3.511   1.874  11.948 -0.0011 -0.7021  0.7465
  359MPD2     H 5378   3.214   2.097  11.864 -1.0749 -2.1718 -2.7254
  359MPD2    H1 5379   3.364   1.739  12.019  0.8814  1.0024  1.0741
  359MPD2    H2 5380   3.635   2.027  11.865  0.4954  1.9948  0.8012
  359MPD2    H3 5381   3.596   1.808  11.963  0.4777 -0.6527 -1.9039
  359MPD2     N 5382   3.149   1.846  11.961 -0.3811 -0.3092 -0.2846
  359MPD2    H5 5383   3.157   1.747  11.986  0.8567  0.3230  1.7692
  359MPD2    N1 5384   3.428   2.206  11.802  0.0078 -0.5008 -0.2084
  359MPD2    H7 5385   3.346   2.266  11.795  0.9044  0.6635 -0.6600
  360TMC3    C1 5386   3.527   2.381  11.671 -0.1397 -0.1155  1.2852
  360TMC3    C2 5387   3.639   2.464  11.652 -0.0836  0.7381 -0.7750
  360TMC3    C3 5388   3.643   2.530  11.534 -0.2166  0.2031 -0.2829
  360TMC3    C4 5389   3.415   2.401  11.591  0.0858 -0.1427  0.1126
  360TMC3    C5 5390   3.420   2.489  11.486  0.0263  0.7485  0.7455
  360TMC3    C6 5391   3.531   2.562  11.463 -0.6408  1.0516  0.2720
  360TMC3     C 5392   3.542   2.252  11.737  0.7377  0.1192  0.4602
  360TMC3     O 5393   3.647   2.193  11.718  0.7955  0.4770 -0.9802
  360TMC3     H 5394   3.727   2.429  11.705 -0.2094 -0.9090 -1.6409
  360TMC3    H1 5395   3.327   2.343  11.617 -1.4445  1.2911 -1.8879
  360TMC3    H2 5396   3.539   2.638  11.386 -1.6826  1.3462  0.4533
  360TMC3    C7 5397   3.345   2.451  11.365 -0.3058 -0.6295 -0.0566
  360TMC3    C8 5398   3.763   2.612  11.513 -0.1100 -0.4746  1.3516
  360TMC3    O1 5399   3.413   2.431  11.265  0.3074 -0.4449 -0.3393
  360TMC3    O2 5400   3.745   2.714  11.443 -0.0769  0.1539  0.3341
  361MPD2     C 5401   4.536   1.622  16.928 -0.9914 -0.3185  0.6851
  361MPD2    C1 5402   4.486   1.524  16.855  0.2197  0.2471  0.4723
  361MPD2    C2 5403   4.563   1.411  16.841  0.2315 -0.2101 -0.3744
  361MPD2    C3 5404   4.684   1.391  16.903  0.1216 -0.2002 -0.4189
  361MPD2    C4 5405   0.004   1.499  16.973  0.0307  0.1381  0.8335
  361MPD2    C5 5406   4.658   1.614  16.984  0.2472 -0.6364 -0.5843
  361MPD2     H 5407   4.525   1.327  16.784  0.3116  0.1242 -0.9196
  361MPD2    H1 5408   0.091   1.489  17.037  0.8983  3.1607  0.1293
  361MPD2    H2 5409   4.477   1.711  16.947 -0.1207  0.1798  1.0918
  361MPD2    H3 5410   4.698   1.697  17.040 -2.0635  0.7748 -1.0067
  361MPD2     N 5411   0.031   1.267  16.901 -0.1916 -0.1166  0.3318
  361MPD2    H5 5412   0.119   1.264  16.952 -0.1196 -1.3410  0.1519
  361MPD2    N1 5413   4.361   1.528  16.799 -0.3241  0.4261 -0.2982
  361MPD2    H7 5414   4.335   1.438  16.759 -1.9538  0.5628  0.4564
  362TMC3    C1 5415   4.141   1.607  16.738 -0.1275 -0.6750  0.2468
  362TMC3    C2 5416   4.015   1.601  16.795 -1.1967 -0.8174  0.4328
  362TMC3    C3 5417   3.911   1.555  16.707 -0.1767 -0.0900 -0.5465
  362TMC3    C4 5418   4.162   1.597  16.606  0.3164 -0.8869  0.2617
  362TMC3    C5 5419   4.055   1.559  16.531  0.6210 -0.6946  0.3115
  362TMC3    C6 5420   3.931   1.529  16.577 -0.3038  0.1629  0.1126
  362TMC3     C 5421   4.255   1.618  16.821  0.1179 -0.0200  0.4713
  362TMC3     O 5422   4.246   1.701  16.907 -0.2531  0.1763 -0.3553
  362TMC3     H 5423   4.003   1.601  16.903 -1.3876  0.1288  0.4121
  362TMC3    H1 5424   4.259   1.614  16.561 -0.1185  1.3217  0.1627
  362TMC3    H2 5425   3.845   1.510  16.514 -3.9542  2.3026  4.4316
  362TMC3    C7 5426   4.052   1.608  16.393  0.2674 -0.4988  0.3395
  362TMC3    C8 5427   3.785   1.510  16.758 -0.1006  0.1439 -0.3742
  362TMC3    O1 5428   4.132   1.697  16.364  0.1016  0.0219 -0.4714
  362TMC3    O2 5429   3.730   1.414  16.707  0.2409  0.1964  0.2188
  363TMC3    C1 5430   3.380   3.532   9.314 -0.4107 -0.5344  0.2397
  363TMC3    C2 5431   3.490   3.449   9.323  0.7323 -0.0832  0.1095
  363TMC3    C3 5432   3.602   3.504   9.374  1.1518  0.6699  1.1626
  363TMC3    C4 5433   3.395   3.669   9.339 -0.6444 -0.6454 -0.2052
  363TMC3    C5 5434   3.521   3.724   9.359 -0.3578  0.4021 -0.4797
  363TMC3    C6 5435   3.623   3.638   9.385 -0.0528  0.1456 -0.6940
  363TMC3     C 5436   3.258   3.488   9.248 -0.3135  0.1551  0.5536
  363TMC3     O 5437   3.181   3.571   9.212 -0.3608  0.5166 -0.0824
  363TMC3     H 5438   3.486   3.344   9.299  0.7655  0.2246 -1.2448
  363TMC3    H1 5439   3.315   3.742   9.334 -0.6741 -0.6297  0.5000
  363TMC3    H2 5440   3.717   3.681   9.418  0.0308 -0.1743 -0.5120
  363TMC3    C7 5441   3.525   3.862   9.404  0.4205 -0.1210  0.0293
  363TMC3    C8 5442   3.709   3.424   9.415 -0.2566  0.5293 -0.4554
  363TMC3    O1 5443   3.416   3.905   9.441  0.2825 -0.0473 -0.4895
  363TMC3    O2 5444   3.809   3.478   9.463  0.4860 -0.2065 -0.1267
  364MPD2     C 5445   1.986   3.540  10.922  0.1908  0.2074  0.0426
  364MPD2    C1 5446   2.087   3.534  10.829 -0.2267 -0.0365  0.7457
  364MPD2    C2 5447   2.070   3.449  10.717 -0.4889 -0.4636  0.0014
  364MPD2    C3 5448   1.962   3.360  10.714  0.3479 -0.8431 -0.7679
  364MPD2    C4 5449   1.865   3.366  10.817 -0.1156 -0.2985  0.8383
  364MPD2    C5 5450   1.875   3.461  10.919 -1.2393 -0.7053 -0.6899
  364MPD2     H 5451   2.145   3.443  10.639 -2.0668  0.1624 -1.5634
  364MPD2    H1 5452   1.780   3.299  10.818  0.0179 -0.5105 -1.7678
  364MPD2    H2 5453   2.000   3.614  11.000  1.2151  0.1089 -0.0389
  364MPD2    H3 5454   1.795   3.468  10.992 -2.2871 -2.0306 -1.7390
  364MPD2     N 5455   1.953   3.252  10.619  0.3307  0.0924  0.2293
  364MPD2    H5 5456   1.886   3.177  10.632  0.4668 -0.5569 -2.9510
  364MPD2    N1 5457   2.203   3.612  10.834 -0.1944  0.0574 -0.0881
  364MPD2    H7 5458   2.197   3.702  10.881  0.7559  0.0329  0.0727
  365TMC3    C1 5459   2.425   3.663  10.775  0.2142 -0.1661 -0.3009
  365TMC3    C2 5460   2.533   3.609  10.717 -0.0624  1.2547  0.1874
  365TMC3    C3 5461   2.637   3.695  10.691 -0.5904  0.2954  0.0318
  365TMC3    C4 5462   2.410   3.795  10.802  1.0062  0.2686  0.6113
  365TMC3    C5 5463   2.516   3.877  10.777  0.2471 -0.0756 -0.4079
  365TMC3    C6 5464   2.636   3.826  10.732  0.3012 -0.8414  0.1380
  365TMC3     C 5465   2.321   3.566  10.793  0.1394 -0.6628  0.2077
  365TMC3     O 5466   2.346   3.445  10.784  0.6359  0.3544  0.1883
  365TMC3     H 5467   2.548   3.503  10.697  0.3148  1.4386 -0.4943
  365TMC3    H1 5468   2.310   3.837  10.810  0.8466  0.0086 -0.0652
  365TMC3    H2 5469   2.716   3.894  10.707 -1.6173  1.7149  0.9298
  365TMC3    C7 5470   2.513   4.014  10.841 -0.4935  0.2519  0.3179
  365TMC3    C8 5471   2.740   3.650  10.608  0.1103  0.1903  0.4024
  365TMC3    O1 5472   2.602   4.085  10.802  0.1598  0.2418 -0.5897
  365TMC3    O2 5473   2.849   3.706  10.627  0.7881  0.3936  0.2709
  366MPD2     C 5474   0.062   4.186  15.418 -0.0461  0.0111 -0.1915
  366MPD2    C1 5475   0.106   4.199  15.293 -0.7010  0.2565 -0.9522
  366MPD2    C2 5476   0.197   4.109  15.238 -0.1579  1.0307  0.3739
  366MPD2    C3 5477   0.249   4.013  15.325  0.5382  0.7343  0.2271
  366MPD2    C4 5478   0.211   4.007  15.456 -0.3988  0.5486  0.9000
  366MPD2    C5 5479   0.112   4.091  15.503 -0.5162  0.2369 -0.5041
  366MPD2     H 5480   0.237   4.122  15.138 -2.0242  0.4475 -0.4468
  366MPD2    H1 5481   0.240   3.922  15.517 -3.4237 -1.3783 -0.3731
  366MPD2    H2 5482   4.699   4.242  15.439  0.2933  0.3320  0.4094
  366MPD2    H3 5483   0.067   4.077  15.601  0.7104  0.3631  0.0771
  366MPD2     N 5484   0.335   3.913  15.271  0.1084  0.3486 -0.1686
  366MPD2    H5 5485   0.383   3.856  15.340  0.9798  1.7156  0.3676
  366MPD2    N1 5486   0.055   4.298  15.208 -0.3131  0.2837 -0.2802
  366MPD2    H7 5487   0.108   4.312  15.122 -2.1648  0.6837 -1.3581
  367TMC3    C1 5488   4.704   4.495  15.146  0.0290  0.2293  0.2354
  367TMC3    C2 5489   0.098   4.563  15.163 -0.1473  0.3198 -0.8158
  367TMC3    C3 5490   0.101   4.695  15.180 -0.0861 -0.1768  0.1440
  367TMC3    C4 5491   4.592   4.568  15.128 -0.0191 -0.1495 -0.0687
  367TMC3    C5 5492   4.604   4.704  15.127 -0.2832  0.5175  0.0049
  367TMC3    C6 5493   4.717   0.049  15.158  0.4764 -0.5688  0.0011
  367TMC3     C 5494   4.686   4.394  15.242 -0.3092  0.0578  0.2127
  367TMC3     O 5495   4.625   4.423  15.344  0.2179 -0.1383  0.4663
  367TMC3     H 5496   0.188   4.502  15.169  1.1148  2.1690 -1.0419
  367TMC3    H1 5497   4.500   4.512  15.115 -0.9144  1.4937 -0.8433
  367TMC3    H2 5498   4.713   0.156  15.173  0.6113 -0.4797 -0.6107
  367TMC3    C7 5499   4.501   0.046  15.067 -0.0165  0.3749  0.0688
  367TMC3    C8 5500   0.203   0.021  15.274  0.2519  0.8337 -0.1709
  367TMC3    O1 5501   4.496   0.162  15.104  0.2670 -0.1981 -0.0306
  367TMC3    O2 5502   0.244   4.678  15.365 -0.5073  0.5879 -0.5292
  368MPD2     C 5503   1.689   1.240  12.963 -0.4586  0.5298  0.3545
  368MPD2    C1 5504   1.696   1.295  12.841 -0.4097 -0.3016 -0.7413
  368MPD2    C2 5505   1.812   1.355  12.803  0.2592  0.0096 -0.1317
  368MPD2    C3 5506   1.914   1.373  12.895  0.4095 -0.0133  0.5635
  368MPD2    C4 5507   1.893   1.332  13.021 -0.1622  0.2198 -0.0664
  368MPD2    C5 5508   1.777   1.271  13.059  0.7024  0.0144  0.0956
  368MPD2     H 5509   1.821   1.401  12.705 -0.6881 -1.2822 -0.8226
  368MPD2    H1 5510   1.963   1.359  13.100 -1.8128  0.5135  1.2965
  368MPD2    H2 5511   1.601   1.188  13.000  1.9862 -2.8994  1.3142
  368MPD2    H3 5512   1.756   1.261  13.165  0.3358 -0.6073 -0.0366
  368MPD2     N 5513   2.025   1.447  12.856  0.8219  0.9739  0.6741
  368MPD2    H5 5514   2.016   1.477  12.760 -0.3549  1.1557  0.8447
  368MPD2    N1 5515   1.585   1.282  12.751 -0.7116  0.1768 -0.3536
  368MPD2    H7 5516   1.501   1.241  12.790  0.5175 -0.4085  1.6615
  369TMC3    C1 5517   1.444   1.340  12.576  0.3081 -0.8744  0.0142
  369TMC3    C2 5518   1.442   1.444  12.484  0.2551  0.5715  0.0538
  369TMC3    C3 5519   1.362   1.551  12.499  0.6512  0.2874  0.6832
  369TMC3    C4 5520   1.347   1.342  12.676  0.5563 -0.3442 -0.8598
  369TMC3    C5 5521   1.254   1.446  12.665 -0.3264  0.6505  0.6132
  369TMC3    C6 5522   1.262   1.553  12.585 -0.0124  0.1577  0.5580
  369TMC3     C 5523   1.581   1.326  12.620 -0.0967 -0.3125  0.2168
  369TMC3     O 5524   1.662   1.385  12.553  0.3953 -0.2477  0.1540
  369TMC3     H 5525   1.515   1.433  12.405  1.4999  1.0269  1.1282
  369TMC3    H1 5526   1.343   1.267  12.754  0.2396 -2.2558 -2.7149
  369TMC3    H2 5527   1.211   1.646  12.608  0.3251 -0.0820  2.3159
  369TMC3    C7 5528   1.142   1.437  12.760  0.7400  0.2159  0.0431
  369TMC3    C8 5529   1.431   1.674  12.481 -0.0449  0.1028  0.5479
  369TMC3    O1 5530   1.149   1.343  12.836 -0.2757  0.1845  0.1543
  369TMC3    O2 5531   1.383   1.766  12.413 -0.4231  0.4613  0.0484
  370TMC3    C1 5532   1.221   2.143  16.294  0.8927 -0.3039  0.0911
  370TMC3    C2 5533   1.145   2.078  16.389  0.0275  0.0525 -0.2145
  370TMC3    C3 5534   1.073   1.970  16.352 -0.3210  0.5171  0.3227
  370TMC3    C4 5535   1.235   2.095  16.166  0.4852  0.3393 -0.4161
  370TMC3    C5 5536   1.158   1.987  16.134 -0.2805  0.9367  0.1828
  370TMC3    C6 5537   1.077   1.925  16.225 -0.4577 -0.5717  0.4442
  370TMC3     C 5538   1.337   2.209  16.348  0.4957  0.5527 -0.6450
  370TMC3     O 5539   1.384   2.156  16.445  0.0274  0.1957 -0.5912
  370TMC3     H 5540   1.134   2.126  16.486  0.8403  0.9714 -0.5768
  370TMC3    H1 5541   1.296   2.139  16.088  2.7092  1.7710  2.1022
  370TMC3    H2 5542   1.017   1.840  16.199 -0.4862 -0.4130 -0.0041
  370TMC3    C7 5543   1.184   1.918  16.007  0.6319 -0.1337 -0.1019
  370TMC3    C8 5544   0.993   1.887  16.450  0.4276 -0.0280  0.2404
  370TMC3    O1 5545   1.233   1.978  15.915  0.5962 -0.9062 -0.3515
  370TMC3    O2 5546   0.963   1.775  16.411 -0.5130  0.4922 -0.1856
  371TMC3    C1 5547   2.193   0.169  15.579 -0.5657 -0.1305 -0.9421
  371TMC3    C2 5548   2.058   0.183  15.602 -0.4171 -0.1960 -0.1478
  371TMC3    C3 5549   1.999   0.296  15.557  0.1605  0.4965 -0.2709
  371TMC3    C4 5550   2.263   0.267  15.525 -0.5480  0.0106 -0.0696
  371TMC3    C5 5551   2.201   0.383  15.486  0.0355 -0.1670  0.0961
  371TMC3    C6 5552   2.065   0.395  15.504  0.3454 -0.1428 -0.2005
  371TMC3     C 5553   2.261   0.049  15.617  0.2645  0.2101  0.6516
  371TMC3     O 5554   2.382   0.054  15.602 -0.2842 -0.7776  0.0284
  371TMC3     H 5555   1.997   0.099  15.633  0.8947 -1.4140 -0.8356
  371TMC3    H1 5556   2.371   0.262  15.525 -0.4339  2.0972 -2.3574
  371TMC3    H2 5557   2.005   0.480  15.473 -1.2632 -1.4071 -0.5255
  371TMC3    C7 5558   2.271   0.482  15.405  0.9328  0.1166  0.0477
  371TMC3    C8 5559   1.855   0.307  15.584 -0.0482 -0.4954  0.4998
  371TMC3    O1 5560   2.224   0.596  15.405 -0.9615 -0.0352 -0.0307
  371TMC3    O2 5561   1.796   0.201  15.561 -0.3595 -0.0549 -0.1427
  372MPD2     C 5562   1.439   1.608  13.040  0.0758  0.5253 -0.5078
  372MPD2    C1 5563   1.557   1.576  13.097  0.6323  0.1312  0.0818
  372MPD2    C2 5564   1.556   1.481  13.199 -0.6565  0.0360 -0.0964
  372MPD2    C3 5565   1.442   1.410  13.233 -0.0918 -0.1015 -0.3852
  372MPD2    C4 5566   1.326   1.447  13.173  0.2414 -0.0425  0.1943
  372MPD2    C5 5567   1.324   1.545  13.080  0.0202  0.3724  0.4856
  372MPD2     H 5568   1.649   1.469  13.255 -0.3603  4.3748  0.3672
  372MPD2    H1 5569   1.233   1.403  13.206  0.8939 -2.0605 -0.6278
  372MPD2    H2 5570   1.431   1.683  12.961  1.3597  2.2475  1.0035
  372MPD2    H3 5571   1.230   1.570  13.032  0.3079  1.6759  0.5798
  372MPD2     N 5572   1.452   1.314  13.332  0.1137  0.2603  0.0874
  372MPD2    H5 5573   1.541   1.313  13.381 -0.0932  0.6967  0.4691
  372MPD2    N1 5574   1.677   1.649  13.070  0.3714  0.2251  0.1393
  372MPD2    H7 5575   1.755   1.624  13.130 -0.1382  0.1448  0.7733
  373TMC3    C1 5576   1.392   1.145  13.471 -0.4422 -0.7941 -0.2034
  373TMC3    C2 5577   1.403   1.238  13.574  1.0971  0.0469  0.0029
  373TMC3    C3 5578   1.489   1.217  13.679  0.0061 -0.5865 -0.1875
  373TMC3    C4 5579   1.470   1.038  13.468  0.6730 -0.3778 -0.3281
  373TMC3    C5 5580   1.556   1.013  13.579 -0.3081 -0.1752 -0.5413
  373TMC3    C6 5581   1.563   1.103  13.686  0.1159  0.0144  0.3364
  373TMC3     C 5582   1.359   1.216  13.352  0.2771 -0.2654  0.4844
  373TMC3     O 5583   1.271   1.169  13.278  0.3188 -0.3476  0.0156
  373TMC3     H 5584   1.349   1.332  13.564 -0.7298 -0.8772  1.1219
  373TMC3    H1 5585   1.466   0.966  13.387  0.5123 -1.1662  0.3798
  373TMC3    H2 5586   1.629   1.095  13.772 -0.5835 -3.4416  0.5824
  373TMC3    C7 5587   1.680   0.944  13.549 -0.1124 -0.3794  0.1873
  373TMC3    C8 5588   1.510   1.320  13.793 -0.1532  0.1521 -0.2429
  373TMC3    O1 5589   1.682   0.902  13.430  0.4925  0.2354 -0.1539
  373TMC3    O2 5590   1.605   1.298  13.867 -0.1100 -0.0718  0.2893
  374TMC3    C1 5591   2.179   0.976   9.728  0.8425  0.4658 -0.2272
  374TMC3    C2 5592   2.306   1.034   9.732 -0.4628  0.2572 -0.0157
  374TMC3    C3 5593   2.400   0.986   9.640  0.0144 -0.4921 -0.4163
  374TMC3    C4 5594   2.144   0.888   9.630 -0.1544 -0.4283 -0.3129
  374TMC3    C5 5595   2.236   0.861   9.533  0.4508  0.3276 -0.3350
  374TMC3    C6 5596   2.367   0.906   9.535 -0.2152  0.1839 -0.0074
  374TMC3     C 5597   2.076   1.047   9.812  0.0740  0.4378  0.0300
  374TMC3     O 5598   2.098   1.162   9.850 -0.2009  0.5048 -0.4845
  374TMC3     H 5599   2.322   1.109   9.809 -2.2779 -0.7937  1.3957
  374TMC3    H1 5600   2.040   0.875   9.605 -0.4596  0.3332  0.5251
  374TMC3    H2 5601   2.451   0.871   9.477 -1.0167 -0.4705 -0.7654
  374TMC3    C7 5602   2.203   0.783   9.416  0.2185 -0.0195 -1.1659
  374TMC3    C8 5603   2.532   1.048   9.636 -0.4599  0.7121 -0.0803
  374TMC3    O1 5604   2.095   0.726   9.415 -0.0346  0.2131 -0.8799
  374TMC3    O2 5605   2.593   1.045   9.529  1.0313 -0.2263  0.3008
  375MPD2     C 5606   2.692   2.657  16.763  0.2438 -1.3368 -0.4829
  375MPD2    C1 5607   2.603   2.555  16.739  0.1819 -0.2940 -0.5984
  375MPD2    C2 5608   2.633   2.455  16.646 -0.1430  0.2230 -0.0737
  375MPD2    C3 5609   2.753   2.457  16.579  0.2775 -0.2493  0.2884
  375MPD2    C4 5610   2.847   2.554  16.604  0.4078 -0.9844 -0.0187
  375MPD2    C5 5611   2.814   2.654  16.697 -0.1123  0.2418  0.8687
  375MPD2     H 5612   2.555   2.385  16.618 -0.2461 -0.0439  0.8866
  375MPD2    H1 5613   2.945   2.556  16.558  0.5746 -1.8187  0.2957
  375MPD2    H2 5614   2.681   2.738  16.834 -1.1887 -0.6245 -1.4922
  375MPD2    H3 5615   2.884   2.733  16.723  0.0504  0.4248 -0.1191
  375MPD2     N 5616   2.791   2.353  16.494 -0.4395 -0.1665 -0.5691
  375MPD2    H5 5617   2.887   2.357  16.461 -0.1535 -0.9430  0.1792
  375MPD2    N1 5618   2.467   2.550  16.799 -0.4147  0.4845  0.3501
  375MPD2    H7 5619   2.419   2.460  16.792 -0.2084  0.5082 -1.5775
  376TMC3    C1 5620   2.792   2.154  16.365 -0.0550  0.0462  0.5762
  376TMC3    C2 5621   2.931   2.134  16.385 -0.1070 -0.2126 -0.2549
  376TMC3    C3 5622   2.995   2.061  16.286 -0.1717 -0.6021  0.1651
  376TMC3    C4 5623   2.717   2.109  16.255  0.1591  0.5006 -1.0012
  376TMC3    C5 5624   2.786   2.047  16.162  0.4979  0.3977 -0.1701
  376TMC3    C6 5625   2.923   2.014  16.174 -0.3448  0.3163 -0.5786
  376TMC3     C 5626   2.714   2.248  16.446 -0.4274 -1.3243  0.1044
  376TMC3     O 5627   2.594   2.226  16.464 -0.5620  0.0117 -0.1955
  376TMC3     H 5628   2.975   2.194  16.464  4.5719 -0.8080 -2.3713
  376TMC3    H1 5629   2.626   2.160  16.224 -1.1070 -2.5686 -2.3867
  376TMC3    H2 5630   2.984   1.969  16.097 -1.1575 -2.2248  0.2407
  376TMC3    C7 5631   2.715   2.024  16.040 -0.6567 -0.8249 -0.3590
  376TMC3    C8 5632   3.142   2.065  16.276  0.7432 -0.1496  0.3952
  376TMC3    O1 5633   2.615   2.084  16.025  0.0507  0.2969 -0.4183
  376TMC3    O2 5634   3.198   2.047  16.169 -0.1638 -0.0593  0.1427
  377MPD2     C 5635   0.785   1.949  12.444 -0.4308 -0.1522  0.7910
  377MPD2    C1 5636   0.725   1.954  12.325 -0.3701  0.2497  0.1526
  377MPD2    C2 5637   0.589   1.938  12.317  0.3659 -0.6123  0.2617
  377MPD2    C3 5638   0.515   1.897  12.428 -0.1465 -0.6436 -0.2618
  377MPD2    C4 5639   0.589   1.879  12.548  0.5723  0.4548 -0.7098
  377MPD2    C5 5640   0.723   1.909  12.559  0.8148 -0.7767 -0.3587
  377MPD2     H 5641   0.541   1.950  12.220  1.7517 -1.5627 -0.5492
  377MPD2    H1 5642   0.537   1.837  12.634  0.4001 -2.3081 -2.1647
  377MPD2    H2 5643   0.889   1.978  12.449 -0.1284 -1.1393  0.2103
  377MPD2    H3 5644   0.774   1.867  12.645  1.4264 -1.0604 -0.8597
  377MPD2     N 5645   0.384   1.847  12.429 -0.4432  0.2807 -0.0025
  377MPD2    H5 5646   0.349   1.821  12.521  0.0677 -1.3317 -0.2675
  377MPD2    N1 5647   0.810   1.977  12.214 -0.8627  0.3928 -0.8151
  377MPD2    H7 5648   0.904   2.009  12.235  0.1626 -1.5978 -2.3618
  378TMC3    C1 5649   0.940   1.927  11.770  0.1643 -0.1125 -0.2260
  378TMC3    C2 5650   0.834   1.961  11.854  0.2567  0.1468 -0.4948
  378TMC3    C3 5651   0.875   1.984  11.985 -1.0125  0.4172 -0.3461
  378TMC3    C4 5652   1.075   1.925  11.797 -0.0970  0.1647 -0.2918
  378TMC3    C5 5653   1.104   1.963  11.925 -0.5775 -0.1323 -0.0600
  378TMC3    C6 5654   1.008   1.986  12.023 -0.3124 -0.3228 -0.2341
  378TMC3     C 5655   0.893   1.866  11.645  0.1375 -0.3819 -0.3131
  378TMC3     O 5656   0.779   1.898  11.612 -0.7513  0.0624  0.3038
  378TMC3     H 5657   0.728   1.958  11.830  0.1696 -0.5286 -0.0285
  378TMC3    H1 5658   1.141   1.915  11.712  1.5052 -0.0044  0.9867
  378TMC3    H2 5659   1.043   2.014  12.122 -2.6015 -0.8359  0.7072
  378TMC3    C7 5660   1.245   1.994  11.950 -0.0911  0.4935  0.4810
  378TMC3    C8 5661   0.765   1.974  12.086 -0.3243  0.2420  0.4846
  378TMC3    O1 5662   1.278   2.033  12.063 -0.1437 -0.4834  0.3386
  378TMC3    O2 5663   0.652   1.957  12.041 -0.2213  0.3012 -0.4126
  379MPD2     C 5664   0.580   4.682  16.191 -0.9411  0.2522  0.7975
  379MPD2    C1 5665   0.693   4.645  16.127  0.0422  0.3096  0.1735
  379MPD2    C2 5666   0.775   4.548  16.180  0.6490 -0.2661  0.3794
  379MPD2    C3 5667   0.734   4.478  16.293 -0.2177  0.6397 -0.0138
  379MPD2    C4 5668   0.619   4.518  16.365 -0.5958  0.7962  0.5328
  379MPD2    C5 5669   0.548   4.622  16.312  0.0869 -0.0954 -0.4382
  379MPD2     H 5670   0.868   4.521  16.134  1.0369 -1.7130  2.0156
  379MPD2    H1 5671   0.594   4.479  16.463  0.7681 -1.8196 -0.1525
  379MPD2    H2 5672   0.517   0.037  16.160 -1.7391 -0.8659 -0.5408
  379MPD2    H3 5673   0.459   4.648  16.367  0.8824 -1.1137  1.3697
  379MPD2     N 5674   0.815   4.385  16.360 -0.2337  0.0932 -0.0427
  379MPD2    H5 5675   0.786   4.365  16.455  1.2092  1.7981  0.7660
  379MPD2    N1 5676   0.733   4.726  16.022 -0.1373  0.6362  0.1721
  379MPD2    H7 5677   0.675   0.080  16.004  1.3419  1.3197 -1.3988
  380TMC3    C1 5678   0.872   0.085  15.847  0.7411  0.1336 -0.0463
  380TMC3    C2 5679   0.992   0.078  15.784  0.2871  0.3475  0.9787
  380TMC3    C3 5680   1.019   0.182  15.695 -0.0713  0.2826 -0.3328
  380TMC3    C4 5681   0.771   0.161  15.792  0.0538 -0.3840 -0.3278
  380TMC3    C5 5682   0.801   0.254  15.697  0.1214  0.4778 -0.3731
  380TMC3    C6 5683   0.928   0.271  15.650  0.4310 -0.1878 -0.2554
  380TMC3     C 5684   0.838   4.702  15.937  0.6962 -0.9507 -0.7591
  380TMC3     O 5685   0.910   4.604  15.937 -0.6093  0.1755 -0.0971
  380TMC3     H 5686   1.069   0.017  15.830  0.5809  0.3379  0.4644
  380TMC3    H1 5687   0.666   0.150  15.816 -0.9602  1.1297 -4.1571
  380TMC3    H2 5688   0.936   0.338  15.565  0.9215 -1.6339 -1.3468
  380TMC3    C7 5689   0.694   0.326  15.621 -0.1866  0.0351  0.1568
  380TMC3    C8 5690   1.147   0.193  15.631  0.4487  0.3576  0.1616
  380TMC3    O1 5691   0.715   0.446  15.611 -0.3293  0.1940  0.0885
  380TMC3    O2 5692   1.166   0.294  15.563  0.1740  0.0737 -0.7773
  381TMC3    C1 5693   0.862   1.203  16.187 -0.3074  0.1921 -0.4291
  381TMC3    C2 5694   0.981   1.267  16.188 -0.3102 -0.2035 -0.1519
  381TMC3    C3 5695   1.013   1.353  16.287  0.2807  0.1979 -0.0067
  381TMC3    C4 5696   0.778   1.209  16.295 -0.0655 -0.0457  0.4389
  381TMC3    C5 5697   0.808   1.297  16.398 -0.3837 -0.8248 -0.5474
  381TMC3    C6 5698   0.926   1.365  16.393  0.8356 -0.1558  0.0736
  381TMC3     C 5699   0.845   1.099  16.084  0.3424  0.2759  0.4333
  381TMC3     O 5700   0.878   1.137  15.974  0.5692  0.0797  0.3819
  381TMC3     H 5701   1.049   1.260  16.104  0.2707 -1.6179  0.4362
  381TMC3    H1 5702   0.699   1.138  16.319  0.7842 -0.6383  1.4668
  381TMC3    H2 5703   0.945   1.430  16.478  0.1859  1.1164 -0.7489
  381TMC3    C7 5704   0.766   1.256  16.533 -0.4041  0.3651 -0.7157
  381TMC3    C8 5705   1.152   1.406  16.290  0.3099 -0.5119 -0.5141
  381TMC3    O1 5706   0.752   1.134  16.550 -0.1583  0.5274 -0.7930
  381TMC3    O2 5707   1.222   1.354  16.200 -0.0692 -0.5016  0.3599
  382MPD2     C 5708   0.635   3.257  16.941  1.3160 -0.0803 -0.4249
  382MPD2    C1 5709   0.526   3.326  16.991 -0.1274 -0.0880 -0.0919
  382MPD2    C2 5710   0.430   3.261  17.057  0.2904 -0.2585  0.2910
  382MPD2    C3 5711   0.435   3.121  17.075 -0.3228 -0.1062 -0.2978
  382MPD2    C4 5712   0.545   3.054  17.019  0.4564  0.1622  0.3935
  382MPD2    C5 5713   0.648   3.123  16.962  0.2193 -0.6523 -0.3682
  382MPD2     H 5714   0.347   3.320  17.096  0.3608  1.0857 -1.6258
  382MPD2    H1 5715   0.548   2.946  17.012 -0.7976  0.2862 -1.9448
  382MPD2    H2 5716   0.711   3.313  16.888  3.6570 -3.4566 -0.5842
  382MPD2    H3 5717   0.728   3.063  16.921 -0.0035  0.4314 -2.3803
  382MPD2     N 5718   0.334   3.051  17.144  0.2179  0.5000 -0.5051
  382MPD2    H5 5719   0.350   2.950  17.148  0.9626  0.7210  2.1374
  382MPD2    N1 5720   0.524   3.464  16.975  0.1014  0.6148  0.6034
  382MPD2    H7 5721   0.605   3.513  16.938  1.0086 -0.2069  1.5115
  383TMC3    C1 5722   0.141   3.036  17.276  0.1427 -0.4140  0.3916
  383TMC3    C2 5723   0.090   2.941  17.195 -1.1367 -0.2197  0.3858
  383TMC3    C3 5724   4.702   2.887  17.228  1.1375  0.1956 -0.0403
  383TMC3    C4 5725   0.078   3.092  17.384  0.1535 -0.8969 -0.1826
  383TMC3    C5 5726   4.674   3.057  17.398  0.2137 -0.9718  0.2400
  383TMC3    C6 5727   4.623   2.954  17.325  0.2620 -0.5637 -0.0897
  383TMC3     C 5728   0.254   3.112  17.232  0.2099 -0.7466 -0.8851
  383TMC3     O 5729   0.271   3.219  17.287 -0.2250 -0.3336 -0.3377
  383TMC3     H 5730   0.129   2.927  17.095 -2.1908  1.7255 -0.2871
  383TMC3    H1 5731   0.124   3.167  17.446 -0.3930 -0.3273 -0.4654
  383TMC3    H2 5732   4.521   2.917  17.329  0.5486 -1.3464  0.1033
  383TMC3    C7 5733   4.573   3.136  17.475 -0.4161  0.0759 -0.0958
  383TMC3    C8 5734   4.623   2.854  17.110 -0.8307 -0.0549  0.6842
  383TMC3    O1 5735   4.456   3.103  17.468 -0.2564 -0.0838 -0.5987
  383TMC3    O2 5736   4.557   2.934  17.050 -0.7112  1.1829  0.8849
  384MPD2     C 5737   1.797   0.296  12.460  0.0675 -0.5990  0.4150
  384MPD2    C1 5738   1.771   0.231  12.575 -0.8099  0.3625 -0.0811
  384MPD2    C2 5739   1.871   0.158  12.637 -0.2621  0.3203  0.3986
  384MPD2    C3 5740   1.990   0.141  12.575  0.3656 -0.2032 -0.1497
  384MPD2    C4 5741   2.007   0.197  12.444 -0.1914 -0.0183 -0.4228
  384MPD2    C5 5742   1.915   0.280  12.394  0.3537 -0.9683  0.1796
  384MPD2     H 5743   1.859   0.115  12.736 -0.4642 -1.4093 -0.3784
  384MPD2    H1 5744   2.083   0.166  12.373 -0.5891 -3.0069  0.4282
  384MPD2    H2 5745   1.711   0.346  12.415  0.9557 -0.0455 -0.6694
  384MPD2    H3 5746   1.921   0.338  12.302 -2.6761  0.7890  1.1214
  384MPD2     N 5747   2.079   0.048  12.626 -0.1243 -0.2621  0.1511
  384MPD2    H5 5748   2.047   4.722  12.705  1.6583 -0.9084  0.4358
  384MPD2    N1 5749   1.656   0.246  12.654 -0.4433 -0.0521  0.2636
  384MPD2    H7 5750   1.651   0.216  12.750 -0.7436  1.8405  0.8446
  385TMC3    C1 5751   2.231   4.596  12.626  1.3679 -0.2385 -0.0541
  385TMC3    C2 5752   2.234   4.491  12.541  0.1155 -0.1553 -0.2418
  385TMC3    C3 5753   2.155   4.378  12.572 -0.2487 -0.5313 -0.9247
  385TMC3    C4 5754   2.155   4.578  12.745 -0.1282 -0.7841  0.7131
  385TMC3    C5 5755   2.086   4.463  12.771  0.3360 -0.2981 -0.2990
  385TMC3    C6 5756   2.078   4.358  12.684  0.5420  0.1569  0.3222
  385TMC3     C 5757   2.195   4.721  12.566 -0.2502  0.2027  0.0805
  385TMC3     O 5758   2.259   0.032  12.471 -0.1346  0.0218  0.1390
  385TMC3     H 5759   2.295   4.484  12.451 -1.2046  1.3215 -1.2447
  385TMC3    H1 5760   2.167   4.643  12.831  1.1898 -0.3958  0.2495
  385TMC3    H2 5761   2.006   4.277  12.690 -0.4128  0.8825 -1.3972
  385TMC3    C7 5762   1.970   4.493  12.855 -0.5444  0.5172  0.0475
  385TMC3    C8 5763   2.145   4.268  12.480  0.1138  0.0658  0.1180
  385TMC3    O1 5764   1.952   4.613  12.880 -0.3095 -0.0920 -0.3632
  385TMC3    O2 5765   2.085   4.169  12.515 -0.3782  0.0774  0.1063
  386TMC3    C1 5766   2.594   2.138  11.519 -0.3520  0.1547  0.1468
  386TMC3    C2 5767   2.531   2.045  11.439 -0.1310 -0.2413  0.7673
  386TMC3    C3 5768   2.401   2.073  11.409 -0.5581 -0.0258 -0.5776
  386TMC3    C4 5769   2.523   2.249  11.568  0.6080 -0.2733 -0.2497
  386TMC3    C5 5770   2.390   2.275  11.528 -0.1775  0.0676  0.5850
  386TMC3    C6 5771   2.332   2.191  11.434  0.2728 -0.4861  0.7048
  386TMC3     C 5772   2.724   2.119  11.565 -0.6979 -0.4755  0.9851
  386TMC3     O 5773   2.784   2.207  11.622  0.5475 -0.7563 -0.3718
  386TMC3     H 5774   2.586   1.956  11.411 -1.8449 -0.8336 -0.6963
  386TMC3    H1 5775   2.574   2.321  11.630 -0.1102  2.3327 -2.6574
  386TMC3    H2 5776   2.228   2.204  11.408  0.7719 -0.6277 -1.3194
  386TMC3    C7 5777   2.303   2.359  11.621 -0.1553  0.1638 -0.5032
  386TMC3    C8 5778   2.315   1.969  11.347  0.5091  0.5843 -0.8121
  386TMC3    O1 5779   2.180   2.358  11.608 -0.9232 -0.5685 -0.6137
  386TMC3    O2 5780   2.207   2.008  11.314  0.3505 -0.2681 -0.3385
  387MPD2     C 5781   0.283   1.837   9.900 -0.5158 -0.6139 -0.0521
  387MPD2    C1 5782   0.362   1.736   9.867  0.9451 -0.5604  0.1153
  387MPD2    C2 5783   0.349   1.610   9.920 -0.2678 -1.3938  0.0787
  387MPD2    C3 5784   0.240   1.571   9.997  0.2942 -0.0178 -0.6609
  387MPD2    C4 5785   0.145   1.671  10.024  0.5164  0.4061 -0.1285
  387MPD2    C5 5786   0.182   1.798   9.980  0.1758  0.5739  0.3484
  387MPD2     H 5787   0.419   1.535   9.884  1.2222  1.2905 -2.6222
  387MPD2    H1 5788   0.071   1.657  10.102  0.4805  0.8983 -0.0711
  387MPD2    H2 5789   0.282   1.937   9.858 -1.7891 -1.0527 -1.0754
  387MPD2    H3 5790   0.109   1.874  10.004 -1.6786 -0.6276 -1.4640
  387MPD2     N 5791   0.224   1.435  10.027 -0.2662 -0.3193 -0.6141
  387MPD2    H5 5792   0.304   1.380   9.997 -0.7872 -1.1349 -0.5167
  387MPD2    N1 5793   0.470   1.754   9.780 -0.2495 -0.1566  0.4483
  387MPD2    H7 5794   0.532   1.674   9.779 -1.6893 -1.2834  0.7997
  388TMC3    C1 5795   0.599   1.817   9.596 -0.1386 -0.0871  0.0236
  388TMC3    C2 5796   0.682   1.902   9.543  0.0751 -0.1356  0.8475
  388TMC3    C3 5797   0.764   1.856   9.447 -0.0059  0.3050  0.2526
  388TMC3    C4 5798   0.594   1.685   9.559 -0.7336  0.6996  0.1654
  388TMC3    C5 5799   0.667   1.648   9.456  0.5829 -0.1387 -0.6713
  388TMC3    C6 5800   0.756   1.733   9.392  0.8143 -0.8587  0.3345
  388TMC3     C 5801   0.506   1.862   9.699  0.2803 -0.6504  0.4269
  388TMC3     O 5802   0.462   1.973   9.695  0.5116 -0.6662 -0.5660
  388TMC3     H 5803   0.690   2.004   9.581  0.7965 -0.7197  2.2497
  388TMC3    H1 5804   0.508   1.627   9.591 -0.0736  0.1644  0.9599
  388TMC3    H2 5805   0.811   1.699   9.306  3.3237  1.7771  0.9178
  388TMC3    C7 5806   0.675   1.508   9.416 -0.2534  0.3622  0.4473
  388TMC3    C8 5807   0.827   1.958   9.371 -0.2837  0.4520  0.1298
  388TMC3    O1 5808   0.705   1.487   9.298 -0.4600 -0.4524 -0.2410
  388TMC3    O2 5809   0.816   1.964   9.253 -0.6296  0.3981 -0.0704
  389MPD2     C 5810   4.114   0.252  11.847  0.1359 -0.3036  0.0005
  389MPD2    C1 5811   4.048   0.166  11.769 -0.4057 -0.2279 -0.2080
  389MPD2    C2 5812   3.978   0.061  11.815 -0.4546  0.9130 -0.5800
  389MPD2    C3 5813   3.958   0.047  11.952  0.5667  0.3456 -0.3198
  389MPD2    C4 5814   4.031   0.133  12.030  0.1326 -0.3241  0.5945
  389MPD2    C5 5815   4.104   0.237  11.979  0.0305 -0.0480  0.0640
  389MPD2     H 5816   3.931   4.711  11.755 -0.9286  0.9939 -0.3143
  389MPD2    H1 5817   4.016   0.129  12.138  1.1812 -1.1223  0.7238
  389MPD2    H2 5818   4.171   0.337  11.812 -1.9338  0.3331 -1.8448
  389MPD2    H3 5819   4.161   0.304  12.042 -2.0448 -0.0881  1.9884
  389MPD2     N 5820   3.874   4.680  12.017  0.4317  0.7292  0.5892
  389MPD2    H5 5821   3.867   4.673  12.118 -2.3366  2.0956  0.5137
  389MPD2    N1 5822   4.066   0.187  11.630 -0.7513 -0.4876  0.8858
  389MPD2    H7 5823   4.124   0.267  11.610 -1.7113  0.2991  1.2672
  390TMC3    C1 5824   3.716   4.511  12.055  0.0350 -0.2808  0.0191
  390TMC3    C2 5825   3.635   4.409  12.008 -0.3057  0.5893  0.0488
  390TMC3    C3 5826   3.553   4.349  12.100 -0.5925 -0.0219  0.1010
  390TMC3    C4 5827   3.670   4.580  12.169 -0.3302  0.0269  0.2403
  390TMC3    C5 5828   3.564   4.533  12.237 -0.2558  0.1742 -0.3010
  390TMC3    C6 5829   3.518   4.405  12.219 -0.8898  0.4029 -0.1218
  390TMC3     C 5830   3.797   4.585  11.959 -0.0623  0.3873 -0.4999
  390TMC3     O 5831   3.779   4.551  11.845 -0.1752 -0.6872  0.0860
  390TMC3     H 5832   3.666   4.364  11.914 -2.4004  2.0349 -1.3092
  390TMC3    H1 5833   3.722   4.667  12.207  0.1389 -0.4475  0.6753
  390TMC3    H2 5834   3.437   4.371  12.281  1.4904 -1.3340  2.0162
  390TMC3    C7 5835   3.466   4.648  12.275 -0.1627 -1.1570 -0.2342
  390TMC3    C8 5836   3.513   4.219  12.067 -0.4102 -0.3929  0.2885
  390TMC3    O1 5837   3.503   0.033  12.285  0.0313 -0.3027  0.2077
  390TMC3    O2 5838   3.509   4.182  11.952 -0.0457 -0.2800  0.3246
  391MPD2     C 5839   2.795   1.440  11.142 -0.2418 -0.2139  0.0534
  391MPD2    C1 5840   2.925   1.470  11.098 -0.2516  0.3300 -0.1285
  391MPD2    C2 5841   2.951   1.461  10.961  0.1262 -0.2000 -0.3558
  391MPD2    C3 5842   2.849   1.434  10.869  0.5678 -0.3087 -0.4674
  391MPD2    C4 5843   2.721   1.412  10.914 -0.0126  0.4494  0.0171
  391MPD2    C5 5844   2.694   1.421  11.049  0.5113 -0.1147 -0.3782
  391MPD2     H 5845   3.051   1.478  10.923  0.7752 -0.7253  1.1076
  391MPD2    H1 5846   2.639   1.398  10.846 -1.5557 -1.1507  2.2198
  391MPD2    H2 5847   2.773   1.442  11.248 -1.0778 -0.1976 -0.1161
  391MPD2    H3 5848   2.592   1.401  11.077  0.6251 -1.0972 -0.6685
  391MPD2     N 5849   2.897   1.432  10.734  0.0261  0.3538  0.3331
  391MPD2    H5 5850   2.996   1.452  10.722 -0.3120 -0.4772 -3.8265
  391MPD2    N1 5851   3.024   1.506  11.195 -0.2609 -0.4283  0.1402
  391MPD2    H7 5852   2.993   1.528  11.290 -1.2122  1.8812 -0.6889
  392TMC3    C1 5853   2.885   1.438  10.499 -0.3392  0.3276  0.1588
  392TMC3    C2 5854   2.821   1.392  10.390 -0.0850  0.5874  0.3188
  392TMC3    C3 5855   2.888   1.380  10.270  0.3230  0.7897 -0.0228
  392TMC3    C4 5856   3.021   1.471  10.488  0.8658  0.7903  0.2242
  392TMC3    C5 5857   3.084   1.454  10.367 -0.5603  0.5548 -0.6025
  392TMC3    C6 5858   3.021   1.411  10.254  0.7175  1.0918 -0.0899
  392TMC3     C 5859   2.817   1.416  10.624  0.7647  0.0462 -0.1562
  392TMC3     O 5860   2.704   1.370  10.624  0.0155 -0.2034  1.2064
  392TMC3     H 5861   2.715   1.372  10.397 -0.5177  2.7855  0.1057
  392TMC3    H1 5862   3.070   1.532  10.563  1.3068  1.2839 -0.4660
  392TMC3    H2 5863   3.063   1.394  10.156 -0.6919  0.7598 -0.6380
  392TMC3    C7 5864   3.211   1.514  10.355 -0.8856  0.5167  0.1875
  392TMC3    C8 5865   2.815   1.339  10.151  0.0068 -0.1673  0.7514
  392TMC3    O1 5866   3.253   1.571  10.456  0.1725  0.2808  0.2041
  392TMC3    O2 5867   2.708   1.283  10.168 -0.3402  0.0128 -0.9000
  393TMC3    C1 5868   2.568   4.471  10.596 -0.7529  0.0982 -0.4527
  393TMC3    C2 5869   2.455   4.467  10.667  0.7518  0.9004 -0.8119
  393TMC3    C3 5870   2.439   4.563  10.764 -0.0945  1.0334  0.2865
  393TMC3    C4 5871   2.654   4.572  10.602  0.6308 -0.5469 -0.6151
  393TMC3    C5 5872   2.639   4.666  10.702  0.2801  0.1198  0.0481
  393TMC3    C6 5873   2.520   4.668  10.773  0.0320 -0.5021  0.2004
  393TMC3     C 5874   2.612   4.345  10.524  0.1281  0.4893 -0.0839
  393TMC3     O 5875   2.552   4.243  10.557  0.2314 -0.3650  0.2884
  393TMC3     H 5876   2.381   4.390  10.654  0.8857  0.6440 -0.0608
  393TMC3    H1 5877   2.750   4.556  10.554  1.2603  2.1023 -0.2334
  393TMC3    H2 5878   2.491   0.017  10.845  0.0353 -0.3769  0.0673
  393TMC3    C7 5879   2.739   0.036  10.739  0.3000  0.3250  0.2581
  393TMC3    C8 5880   2.337   4.550  10.871  1.3668 -0.3055  0.1380
  393TMC3    O1 5881   2.702   0.124  10.813 -0.7017  0.1668 -0.2428
  393TMC3    O2 5882   2.223   4.530  10.829 -0.8061  0.5725 -1.2062
  394TMC3    C1 5883   3.991   0.206  11.400  0.0175 -0.9608  0.1578
  394TMC3    C2 5884   3.889   0.177  11.312  0.1323 -0.7624 -0.8218
  394TMC3    C3 5885   3.881   0.253  11.196  0.5821  0.1414 -0.0589
  394TMC3    C4 5886   4.086   0.297  11.366 -0.2166  0.0635 -0.0249
  394TMC3    C5 5887   4.077   0.366  11.250 -0.0086 -0.2497 -0.2742
  394TMC3    C6 5888   3.966   0.350  11.166 -0.0105  0.5371  0.6587
  394TMC3     C 5889   3.991   0.125  11.530  0.5186 -0.0467 -0.5061
  394TMC3     O 5890   3.913   0.031  11.541 -0.2986  0.2049 -0.0137
  394TMC3     H 5891   3.807   0.114  11.344  0.6842 -1.4528 -0.7862
  394TMC3    H1 5892   4.176   0.315  11.422  0.4431 -0.3013 -0.9649
  394TMC3    H2 5893   3.951   0.408  11.077  3.5338  2.3864  1.2590
  394TMC3    C7 5894   4.194   0.384  11.175 -0.9386  0.0214  0.1906
  394TMC3    C8 5895   3.849   0.172  11.088 -0.0317  0.5397 -0.8316
  394TMC3    O1 5896   4.176   0.430  11.062 -0.3749 -0.5891  0.3720
  394TMC3    O2 5897   3.781   0.075  11.120 -0.3360 -0.2106 -0.0389
  395TMC3    C1 5898   3.515   2.255  14.706 -0.7170  0.4582 -0.2567
  395TMC3    C2 5899   3.397   2.259  14.636 -0.9692  0.0569 -0.3742
  395TMC3    C3 5900   3.379   2.363  14.544 -0.8633 -0.2909 -0.0897
  395TMC3    C4 5901   3.612   2.346  14.680 -0.1409  0.0805  0.0486
  395TMC3    C5 5902   3.592   2.442  14.591  0.1756  0.3347 -0.7529
  395TMC3    C6 5903   3.480   2.452  14.522  0.1044 -0.8890  0.1109
  395TMC3     C 5904   3.487   2.246  14.848 -0.8615 -0.6150  0.0372
  395TMC3     O 5905   3.450   2.348  14.900 -0.4640  0.2321 -0.4675
  395TMC3     H 5906   3.316   2.192  14.664  1.4841 -2.0986  1.5394
  395TMC3    H1 5907   3.701   2.356  14.740  0.4348 -2.1659 -0.4396
  395TMC3    H2 5908   3.469   2.532  14.449 -0.0515 -1.3690 -0.3910
  395TMC3    C7 5909   3.691   2.543  14.563 -0.4663 -0.7024 -1.1042
  395TMC3    C8 5910   3.270   2.365  14.450 -0.6703 -1.0707 -0.5597
  395TMC3    O1 5911   3.648   2.653  14.531  0.7686  0.4314  0.3142
  395TMC3    O2 5912   3.248   2.461  14.377 -0.5452 -0.4162 -0.1043
  396MPD2     C 5913   3.236   3.732  17.292 -0.1718 -0.5578 -0.0002
  396MPD2    C1 5914   3.364   3.684  17.287  0.6589 -0.5587 -0.2885
  396MPD2    C2 5915   3.456   3.744  17.208 -0.4510 -0.4083  0.5092
  396MPD2    C3 5916   3.422   3.853  17.122  0.0051  0.1467  0.2953
  396MPD2    C4 5917   3.298   3.907  17.144  0.6213 -0.4130  0.3397
  396MPD2    C5 5918   3.207   3.843  17.223 -0.1120  0.6354  0.5796
  396MPD2     H 5919   3.553   3.698  17.192  0.3969  0.7923  2.1631
  396MPD2    H1 5920   3.256   3.994  17.094  0.0101 -0.4362  0.8063
  396MPD2    H2 5921   3.155   3.693  17.353  0.2632  0.4988  1.2547
  396MPD2    H3 5922   3.105   3.880  17.223  0.4847  2.3057  0.4382
  396MPD2     N 5923   3.517   3.908  17.036 -0.0843  0.1606 -0.0958
  396MPD2    H5 5924   3.615   3.882  17.034 -0.0694  0.3858 -2.0906
  396MPD2    N1 5925   3.396   3.563  17.368 -0.4328  0.0320  0.1913
  396MPD2    H7 5926   3.316   3.528  17.420  0.7542  0.0440  1.9921
  397TMC3    C1 5927   3.507   3.369  17.447 -0.7038  0.2865  0.0338
  397TMC3    C2 5928   3.603   3.284  17.396  0.0743 -0.2929  0.8200
  397TMC3    C3 5929   3.577   3.163  17.354 -0.0483  0.3757 -0.6515
  397TMC3    C4 5930   3.386   3.308  17.473  0.1227  0.5468  0.0800
  397TMC3    C5 5931   3.363   3.179  17.440  0.1880 -0.4389  0.3694
  397TMC3    C6 5932   3.456   3.106  17.378 -0.5756  0.4180  0.2695
  397TMC3     C 5933   3.517   3.506  17.384  0.2169  0.9516 -0.1222
  397TMC3     O 5934   3.624   3.534  17.328  0.7550 -0.7286 -0.2663
  397TMC3     H 5935   3.701   3.326  17.378  0.5486 -0.8156  2.1280
  397TMC3    H1 5936   3.300   3.358  17.517 -0.6428 -0.7307  0.0384
  397TMC3    H2 5937   3.438   3.013  17.324  1.4531 -0.3840  0.9948
  397TMC3    C7 5938   3.228   3.133  17.432  0.0299  0.8042 -0.4870
  397TMC3    C8 5939   3.612   3.142  17.217 -0.0985 -0.7159 -0.0383
  397TMC3    O1 5940   3.197   3.075  17.328 -0.6364  0.1000 -0.4132
  397TMC3    O2 5941   3.526   3.137  17.128  0.2451  0.4428  0.1335
  398MPD2     C 5942   0.958   3.988   0.066 -0.4768  0.4507 -0.2408
  398MPD2    C1 5943   1.077   3.978   0.131 -0.7206 -0.4644 -0.2407
  398MPD2    C2 5944   1.159   4.084   0.123  0.6759  0.1845 -0.7257
  398MPD2    C3 5945   1.118   4.201   0.068 -0.2840  0.2934 -0.1850
  398MPD2    C4 5946   1.001   4.207  17.711  0.0440  0.0301  0.6539
  398MPD2    C5 5947   0.924   4.099  17.705  0.3108  0.2444 -0.7879
  398MPD2     H 5948   1.258   4.082   0.167  1.6102 -1.1306 -2.9092
  398MPD2    H1 5949   0.969   4.300  17.666  0.9324  0.0210 -0.0137
  398MPD2    H2 5950   0.890   3.904   0.058  0.8538 -0.5835 -0.8073
  398MPD2    H3 5951   0.837   4.098  17.640  0.1015 -1.8062 -0.4847
  398MPD2     N 5952   1.202   4.315   0.080 -0.7986 -0.2083  0.2252
  398MPD2    H5 5953   1.281   4.294   0.141 -1.1248  1.1683  1.0966
  398MPD2    N1 5954   1.117   3.861   0.196 -0.0560 -0.2813 -0.1582
  398MPD2    H7 5955   1.206   3.873   0.244 -0.5331 -1.0523  0.9223
  399TMC3    C1 5956   1.100   3.653   0.305 -0.4583 -0.3331  0.6031
  399TMC3    C2 5957   1.237   3.660   0.324 -0.0952  0.1836  0.1105
  399TMC3    C3 5958   1.293   3.552   0.379  0.4619 -0.7891 -0.3744
  399TMC3    C4 5959   1.019   3.556   0.345  0.4826  0.7426  0.1600
  399TMC3    C5 5960   1.075   3.451   0.404  0.0111  0.1715  1.3485
  399TMC3    C6 5961   1.214   3.442   0.426 -0.2520  0.2820  0.9852
  399TMC3     C 5962   1.030   3.758   0.229  0.1723 -0.3746  0.3375
  399TMC3     O 5963   0.918   3.727   0.191 -0.1766  0.1089  0.0998
  399TMC3     H 5964   1.300   3.733   0.274  0.8457 -1.2735 -0.8427
  399TMC3    H1 5965   0.923   3.550   0.295  0.5655  2.8983 -0.2771
  399TMC3    H2 5966   1.255   3.344   0.445  0.9165  0.5226 -0.2717
  399TMC3    C7 5967   0.995   3.343   0.451 -0.0152 -0.0531 -0.5093
  399TMC3    C8 5968   1.433   3.555   0.408  0.0591 -0.9313  0.2242
  399TMC3    O1 5969   1.056   3.254   0.502 -0.6244 -0.4775 -0.2541
  399TMC3    O2 5970   1.509   3.631   0.346  0.3566 -0.1984 -0.7225
  400TMC3    C1 5971   4.569   2.450  16.664 -0.6171  0.0439  0.0649
  400TMC3    C2 5972   4.450   2.496  16.617 -0.4860 -0.4151  0.7776
  400TMC3    C3 5973   4.433   2.631  16.590  0.1844  0.1628  0.1479
  400TMC3    C4 5974   4.665   2.538  16.705 -0.0038  0.3834  0.0213
  400TMC3    C5 5975   4.649   2.672  16.687  0.5020 -0.2494 -0.3997
  400TMC3    C6 5976   4.538   2.720  16.626  0.0252 -0.0049  0.1535
  400TMC3     C 5977   4.580   2.304  16.680 -0.3877  0.0397  0.1910
  400TMC3     O 5978   4.478   2.242  16.682 -0.3872  0.1344 -0.6394
  400TMC3     H 5979   4.371   2.424  16.600 -0.8006 -0.1134  0.9496
  400TMC3    H1 5980   0.022   2.500  16.761 -0.7575  0.5424  1.2449
  400TMC3    H2 5981   4.530   2.827  16.605  1.7370  0.4126  1.7064
  400TMC3    C7 5982   0.031   2.764  16.694 -0.1702 -0.2664 -0.2949
  400TMC3    C8 5983   4.307   2.685  16.538 -0.2362 -0.1201  0.3955
  400TMC3    O1 5984   0.136   2.699  16.683  0.0335 -0.1130 -0.2739
  400TMC3    O2 5985   4.297   2.807  16.515  0.3421 -0.8396  0.2601
  401MPD2     C 5986   2.971   2.016   0.527 -0.4686  0.2990 -0.1683
  401MPD2    C1 5987   3.005   1.916   0.608  0.0801 -0.5160  0.8012
  401MPD2    C2 5988   3.005   1.789   0.565 -0.1059 -0.5869  0.7405
  401MPD2    C3 5989   2.963   1.755   0.435  0.5591  0.5687  0.3487
  401MPD2    C4 5990   2.933   1.862   0.344 -0.3133  0.1467  0.4075
  401MPD2    C5 5991   2.943   1.986   0.396  0.0716  0.1432  0.2362
  401MPD2     H 5992   3.038   1.706   0.626  1.8612  0.5732  1.2688
  401MPD2    H1 5993   2.897   1.852   0.242 -1.2439  1.8551  0.5571
  401MPD2    H2 5994   2.954   2.116   0.565  2.2057 -0.0951  2.0378
  401MPD2    H3 5995   2.916   2.074   0.337  0.6177  0.2744  0.1828
  401MPD2     N 5996   2.955   1.618   0.411 -0.8653 -0.2511  0.6775
  401MPD2    H5 5997   2.957   1.557   0.492  0.1953 -2.0777 -0.6862
  401MPD2    N1 5998   3.030   1.942   0.746 -0.8560 -0.0943 -0.2167
  401MPD2    H7 5999   3.033   1.858   0.802  0.7753 -0.2433 -0.5348
  402TMC3    C1 6000   2.957   1.409   0.294 -0.8706 -0.8502 -0.1493
  402TMC3    C2 6001   2.918   1.359   0.412 -0.6952 -0.8300 -0.4026
  402TMC3    C3 6002   2.949   1.235   0.442  0.1048  0.0299 -0.0449
  402TMC3    C4 6003   3.021   1.341   0.198 -0.1064  0.2549  0.8025
  402TMC3    C5 6004   3.052   1.214   0.226 -0.7474 -0.3821 -0.2882
  402TMC3    C6 6005   3.013   1.162   0.349 -0.2478 -0.1053 -0.1297
  402TMC3     C 6006   2.956   1.557   0.287  0.2515 -0.4551  0.2185
  402TMC3     O 6007   2.998   1.609   0.183 -0.2326  0.3178  0.2055
  402TMC3     H 6008   2.848   1.418   0.472 -0.6922 -1.7358  0.4903
  402TMC3    H1 6009   3.037   1.383   0.099  2.0786  1.1065  1.5234
  402TMC3    H2 6010   3.042   1.061   0.375 -1.0489 -0.0977  0.7932
  402TMC3    C7 6011   3.167   1.163   0.160 -0.3681 -0.3976  0.0242
  402TMC3    C8 6012   2.909   1.168   0.569 -0.1846 -0.0044  0.1741
  402TMC3    O1 6013   3.177   1.042   0.158 -0.3683  0.0649  0.8055
  402TMC3    O2 6014   2.937   1.051   0.584  0.1085 -0.0956 -0.2671
  403MPD2     C 6015   1.083   4.666  13.399 -0.3522 -0.3605  0.5627
  403MPD2    C1 6016   1.112   4.533  13.415 -0.0682 -0.2382  1.0308
  403MPD2    C2 6017   1.207   4.497  13.505  0.0217 -0.0417 -0.1620
  403MPD2    C3 6018   1.274   4.590  13.577 -0.6232 -0.3244  0.0652
  403MPD2    C4 6019   1.231   4.721  13.568 -0.0746  0.1966 -0.4585
  403MPD2    C5 6020   1.136   0.034  13.478 -0.3436 -0.0516  0.3920
  403MPD2     H 6021   1.230   4.392  13.518 -2.3499 -0.7240 -1.4841
  403MPD2    H1 6022   1.275   0.070  13.631  2.0386 -1.2341 -0.2058
  403MPD2    H2 6023   1.007   4.693  13.326  0.1321  1.4593  0.7213
  403MPD2    H3 6024   1.121   0.140  13.459 -2.0987  0.0369  2.2986
  403MPD2     N 6025   1.372   4.553  13.673  0.2444  0.2946 -0.2077
  403MPD2    H5 6026   1.389   4.454  13.687  1.7407  0.5581 -0.1406
  403MPD2    N1 6027   1.044   4.430  13.349 -0.2961  1.0885 -0.7936
  403MPD2    H7 6028   1.075   4.340  13.383  4.3960  1.9968 -2.7531
  404TMC3    C1 6029   0.919   4.317  13.186  0.6389 -0.0401 -0.0547
  404TMC3    C2 6030   0.933   4.207  13.261  0.1372  0.2028 -0.7507
  404TMC3    C3 6031   0.930   4.087  13.199 -0.1100  0.2404 -0.1720
  404TMC3    C4 6032   0.929   4.317  13.052 -0.0198  0.4553  0.0094
  404TMC3    C5 6033   0.959   4.197  12.996  0.5090  0.8678  0.1773
  404TMC3    C6 6034   0.954   4.078  13.064 -0.1216  0.0802 -0.2991
  404TMC3     C 6035   0.948   4.446  13.249  0.1488 -0.3779  0.8513
  404TMC3     O 6036   0.899   4.545  13.198  0.2435  0.4202 -0.0815
  404TMC3     H 6037   0.926   4.219  13.368 -2.3673  0.1618 -0.8986
  404TMC3    H1 6038   0.940   4.413  13.002  0.8882 -0.3769 -1.3720
  404TMC3    H2 6039   0.991   3.986  13.020  2.4346  0.8125  0.3088
  404TMC3    C7 6040   0.977   4.200  12.851  0.3396  0.0504  0.1358
  404TMC3    C8 6041   0.988   3.987  13.285  0.2854 -0.0376 -0.1039
  404TMC3    O1 6042   1.004   4.311  12.804  0.6315 -0.2983  0.6466
  404TMC3    O2 6043   1.076   3.913  13.250 -0.3979 -0.1084 -0.2721
  405MPD2     C 6044   1.730   0.248  14.831 -0.5173  0.3972  0.6138
  405MPD2    C1 6045   1.653   0.157  14.763 -0.3568  0.4237  0.4776
  405MPD2    C2 6046   1.611   0.196  14.633 -0.1900  0.6198  0.2748
  405MPD2    C3 6047   1.645   0.322  14.579  1.0127  0.6700  0.4489
  405MPD2    C4 6048   1.727   0.412  14.654 -0.4760  0.6626  0.1221
  405MPD2    C5 6049   1.769   0.372  14.778  0.3265 -0.2800 -0.3009
  405MPD2     H 6050   1.551   0.128  14.573 -1.7274 -0.3723  2.9693
  405MPD2    H1 6051   1.772   0.501  14.611  3.2068 -0.4994  1.5717
  405MPD2    H2 6052   1.766   0.227  14.931 -1.2595 -0.6770  0.6553
  405MPD2    H3 6053   1.821   0.446  14.837 -1.0768 -1.3841  2.2832
  405MPD2     N 6054   1.590   0.338  14.448  0.2045  0.2904 -0.1120
  405MPD2    H5 6055   1.516   0.274  14.422 -1.2911  2.5789 -1.5439
  405MPD2    N1 6056   1.613   0.035  14.813  0.0343 -0.1112  0.4555
  405MPD2    H7 6057   1.628   0.025  14.913 -0.3021  1.0732  0.6258
  406TMC3    C1 6058   1.426   0.522  14.104 -0.1594 -0.2792 -0.4664
  406TMC3    C2 6059   1.377   0.404  14.052 -0.1363 -0.8266 -0.6156
  406TMC3    C3 6060   1.437   0.291  14.100 -0.1112  0.7670 -0.8662
  406TMC3    C4 6061   1.537   0.537  14.178 -0.0288  0.0973  0.3634
  406TMC3    C5 6062   1.582   0.420  14.228  0.1696 -0.1064 -0.3848
  406TMC3    C6 6063   1.536   0.298  14.199 -0.9218  0.5192  0.1943
  406TMC3     C 6064   1.335   0.634  14.119  0.1064 -0.0595  0.5969
  406TMC3     O 6065   1.379   0.749  14.128  0.4236 -1.4433 -0.2492
  406TMC3     H 6066   1.283   0.392  13.999 -1.3224  1.0443  1.0567
  406TMC3    H1 6067   1.572   0.632  14.216  1.0391  0.3679 -1.2769
  406TMC3    H2 6068   1.605   0.216  14.213 -0.1535  0.9114 -1.2910
  406TMC3    C7 6069   1.629   0.434  14.355 -0.4271  0.6425 -0.3870
  406TMC3    C8 6070   1.370   0.158  14.096  0.2828  0.7495  0.1060
  406TMC3    O1 6071   1.691   0.534  14.382  0.0506  0.3470 -0.1646
  406TMC3    O2 6072   1.284   0.144  14.004 -0.8429 -0.6325  0.2745
  407MPD2     C 6073   4.102   1.019   9.564  0.5662 -0.4584 -1.0002
  407MPD2    C1 6074   4.205   1.082   9.628  0.3032 -0.4131  0.9549
  407MPD2    C2 6075   4.176   1.201   9.698  0.3566  0.1584 -0.1438
  407MPD2    C3 6076   4.048   1.257   9.696  0.4508 -0.1616  0.3943
  407MPD2    C4 6077   3.949   1.199   9.624  0.4119 -0.0821 -0.2024
  407MPD2    C5 6078   3.975   1.078   9.569  0.4852 -0.6419 -0.1534
  407MPD2     H 6079   4.258   1.252   9.746  0.9498 -1.5801  0.6882
  407MPD2    H1 6080   3.857   1.257   9.623  0.0322 -0.6205  3.0929
  407MPD2    H2 6081   4.103   0.922   9.516  1.7538 -1.8108  1.7465
  407MPD2    H3 6082   3.904   1.024   9.508  1.7747 -1.1622 -1.1917
  407MPD2     N 6083   4.016   1.381   9.755  0.1919  0.2990  0.2568
  407MPD2    H5 6084   3.928   1.425   9.732 -0.0826 -0.8997 -0.9903
  407MPD2    N1 6085   4.338   1.032   9.620 -0.0583 -0.2897  0.3015
  407MPD2    H7 6086   4.406   1.099   9.655  1.2056 -1.7576  0.6436
  408TMC3    C1 6087   4.520   0.917   9.519  0.4679 -0.6890  0.2377
  408TMC3    C2 6088   4.581   0.804   9.484 -0.4380  0.7940  0.3481
  408TMC3    C3 6089   4.694   0.820   9.405 -0.0464  0.1041  0.2863
  408TMC3    C4 6090   4.571   1.046   9.488 -0.0943 -0.2856 -0.1997
  408TMC3    C5 6091   4.689   1.055   9.420  0.1733 -0.4696 -0.1893
  408TMC3    C6 6092   0.021   0.937   9.371  0.0493  0.6556 -0.4041
  408TMC3     C 6093   4.379   0.918   9.562 -0.4024 -0.4640 -0.3991
  408TMC3     O 6094   4.317   0.817   9.555 -0.0053 -0.2400 -0.0569
  408TMC3     H 6095   4.533   0.708   9.499  2.7128 -1.0720 -1.6013
  408TMC3    H1 6096   4.507   1.133   9.493  1.1590  0.5989  0.6768
  408TMC3    H2 6097   0.100   0.948   9.298  2.8864  1.9175  2.8697
  408TMC3    C7 6098   0.023   1.182   9.407 -0.6090  1.1098  0.1559
  408TMC3    C8 6099   0.050   0.707   9.417  1.1116 -0.6730 -0.5686
  408TMC3    O1 6100   0.083   1.199   9.302 -0.1186  0.0280  0.0546
  408TMC3    O2 6101   4.726   0.602   9.383  0.5284  0.2018  0.1335
  409MPD2     C 6102   3.271   2.391  16.685  0.1858  0.1266  0.7478
  409MPD2    C1 6103   3.354   2.393  16.797  0.4768 -0.3484 -0.0671
  409MPD2    C2 6104   3.459   2.483  16.799 -0.3246 -0.0050  0.0427
  409MPD2    C3 6105   3.479   2.562  16.687  0.2126 -0.6696 -0.5471
  409MPD2    C4 6106   3.392   2.567  16.584 -0.1130  0.2860  0.2933
  409MPD2    C5 6107   3.292   2.478  16.582  0.6737  0.4204 -0.3736
  409MPD2     H 6108   3.521   2.478  16.888  2.5498  0.0321 -1.9477
  409MPD2    H1 6109   3.415   2.639  16.506  0.3014 -0.8486 -0.6227
  409MPD2    H2 6110   3.182   2.331  16.675  0.4817  0.2314 -2.3951
  409MPD2    H3 6111   3.232   2.482  16.492 -1.1635  0.4668  0.8538
  409MPD2     N 6112   3.603   2.638  16.675 -0.8126 -1.0207 -0.0939
  409MPD2    H5 6113   3.610   2.689  16.588 -0.8899  0.3561  0.7155
  409MPD2    N1 6114   3.322   2.322  16.913 -0.1570 -0.1500 -0.3625
  409MPD2    H7 6115   3.374   2.346  16.997 -2.5397  0.7990  0.8642
  410TMC3    C1 6116   3.829   2.721  16.726 -0.0091 -0.4825 -0.0028
  410TMC3    C2 6117   3.929   2.738  16.820 -0.0032  0.5006 -0.2035
  410TMC3    C3 6118   4.021   2.841  16.803  0.0318  0.0721  0.1837
  410TMC3    C4 6119   3.830   2.790  16.608  0.7420 -0.1576 -0.1264
  410TMC3    C5 6120   3.920   2.885  16.589  0.0527 -0.1916 -0.0789
  410TMC3    C6 6121   4.016   2.914  16.684  0.6884 -0.2562 -0.4453
  410TMC3     C 6122   3.714   2.630  16.758  0.0541  0.0342 -0.6130
  410TMC3     O 6123   3.723   2.568  16.858  0.9510 -0.1293 -0.1249
  410TMC3     H 6124   3.919   2.695  16.919  0.5141  1.0393  0.0883
  410TMC3    H1 6125   3.759   2.762  16.531 -0.4859  0.4074  0.7993
  410TMC3    H2 6126   4.091   2.989  16.661 -0.7758  1.2108 -0.4657
  410TMC3    C7 6127   3.890   2.978  16.482  0.3938  0.1526 -1.1381
  410TMC3    C8 6128   4.144   2.826  16.876  0.2996  1.2389 -0.1031
  410TMC3    O1 6129   3.774   2.981  16.454  0.3352 -0.2707 -0.1404
  410TMC3    O2 6130   4.215   2.922  16.888  0.1851  0.0118  0.2813
  411MPD2     C 6131   3.775   3.139  14.403 -0.2123  0.0934  0.3343
  411MPD2    C1 6132   3.658   3.164  14.331 -0.1938  0.4558 -0.2711
  411MPD2    C2 6133   3.589   3.061  14.271  0.4561  0.4166  0.0535
  411MPD2    C3 6134   3.644   2.928  14.272 -0.0592 -0.4068 -0.6140
  411MPD2    C4 6135   3.766   2.903  14.343 -0.1411 -0.8875 -0.4129
  411MPD2    C5 6136   3.824   3.009  14.405  0.0711  0.3460 -0.2986
  411MPD2     H 6137   3.494   3.071  14.219 -0.3608  0.9388  1.6274
  411MPD2    H1 6138   3.819   2.809  14.333  0.9042 -0.3596  0.2030
  411MPD2    H2 6139   3.831   3.218  14.452 -1.4891  0.5857  0.9838
  411MPD2    H3 6140   3.926   2.992  14.436  0.0432 -0.7338 -0.7845
  411MPD2     N 6141   3.579   2.818  14.208  0.1413  0.1376  0.1122
  411MPD2    H5 6142   3.633   2.732  14.218 -0.7131 -0.1449  2.2674
  411MPD2    N1 6143   3.630   3.299  14.307 -0.3867 -0.0569  0.4046
  411MPD2    H7 6144   3.677   3.366  14.368 -0.5063 -0.4611  0.9446
  412TMC3    C1 6145   3.429   2.689  14.093  0.0435 -0.3595 -1.0850
  412TMC3    C2 6146   3.299   2.646  14.094  0.3589  0.2422  0.2431
  412TMC3    C3 6147   3.283   2.519  14.073  1.3121 -0.3317  0.5704
  412TMC3    C4 6148   3.533   2.600  14.059 -0.4890 -0.3327  0.0457
  412TMC3    C5 6149   3.513   2.462  14.047 -0.6097  0.4213 -1.0748
  412TMC3    C6 6150   3.382   2.426  14.049  0.7439 -0.5957 -0.9012
  412TMC3     C 6151   3.458   2.818  14.145 -0.3458  0.8383 -0.3792
  412TMC3     O 6152   3.373   2.902  14.127 -0.0252  0.2221 -0.3318
  412TMC3     H 6153   3.216   2.716  14.097  0.4763  0.3736  0.4150
  412TMC3    H1 6154   3.629   2.642  14.030  0.0122 -0.8001  1.0467
  412TMC3    H2 6155   3.351   2.323  14.053 -1.8292  0.2729  1.3337
  412TMC3    C7 6156   3.569   2.409  13.917 -0.0157 -0.9085 -0.2756
  412TMC3    C8 6157   3.166   2.498  13.995 -1.1614 -0.2787  0.2439
  412TMC3    O1 6158   3.486   2.340  13.861 -0.1834  0.6563 -0.8253
  412TMC3    O2 6159   3.071   2.576  14.003 -0.7517  0.3804 -0.0457
  413MPD2     C 6160   0.544   1.729  15.617  0.7157  0.0728 -0.1775
  413MPD2    C1 6161   0.591   1.731  15.490  0.5945  0.3978  0.3832
  413MPD2    C2 6162   0.701   1.659  15.455 -0.1077  0.0505 -0.5736
  413MPD2    C3 6163   0.765   1.584  15.547  0.0376  0.2154  0.1051
  413MPD2    C4 6164   0.717   1.576  15.673 -0.0654  0.2346  0.1807
  413MPD2    C5 6165   0.604   1.644  15.707 -0.3158  0.1975  0.4861
  413MPD2     H 6166   0.752   1.672  15.360 -0.1663  0.1289 -0.5943
  413MPD2    H1 6167   0.769   1.525  15.754 -0.3873 -0.0329  0.2198
  413MPD2    H2 6168   0.455   1.778  15.654 -0.9934 -1.8733 -1.7083
  413MPD2    H3 6169   0.580   1.640  15.813  1.4540  0.4195  0.8958
  413MPD2     N 6170   0.885   1.522  15.499  0.2226 -0.9844 -0.6454
  413MPD2    H5 6171   0.915   1.540  15.404  1.8934 -0.5993 -0.0456
  413MPD2    N1 6172   0.523   1.811  15.398 -0.3691 -0.5079  0.8085
  413MPD2    H7 6173   0.436   1.844  15.438 -1.0775 -1.4489  0.0392
  414TMC3    C1 6174   1.070   1.383  15.496  0.4595  0.4670 -0.1920
  414TMC3    C2 6175   1.156   1.290  15.557  0.6421 -0.4376  0.4510
  414TMC3    C3 6176   1.288   1.276  15.521  0.7235  0.7201 -0.2445
  414TMC3    C4 6177   1.119   1.444  15.386 -0.0462  0.1428  0.0082
  414TMC3    C5 6178   1.251   1.429  15.357 -0.2708  0.7443 -0.1622
  414TMC3    C6 6179   1.335   1.352  15.422 -0.0289  0.2535  0.0051
  414TMC3     C 6180   0.953   1.414  15.562 -0.0939  0.3331 -0.1469
  414TMC3     O 6181   0.935   1.367  15.670  0.0202 -0.1595 -0.1231
  414TMC3     H 6182   1.127   1.235  15.646  0.4109 -2.9881 -1.2003
  414TMC3    H1 6183   1.063   1.520  15.331  0.8943  1.8627  1.4267
  414TMC3    H2 6184   1.435   1.342  15.383 -1.2675 -2.1777 -2.5465
  414TMC3    C7 6185   1.281   1.445  15.212  0.7236  0.6040  0.8288
  414TMC3    C8 6186   1.342   1.146  15.500 -0.3514  0.2348 -0.0393
  414TMC3    O1 6187   1.397   1.472  15.183  0.2849  0.1273 -0.5182
  414TMC3    O2 6188   1.284   1.066  15.427  0.1343  0.0867 -0.3155
  415TMC3    C1 6189   2.816   3.692   9.469  0.2849 -0.0227  0.0744
  415TMC3    C2 6190   2.935   3.655   9.522 -0.4373  0.2343 -1.1035
  415TMC3    C3 6191   2.968   3.521   9.515 -0.5890  0.2963 -0.1893
  415TMC3    C4 6192   2.744   3.616   9.389 -0.4929 -0.5226 -0.7795
  415TMC3    C5 6193   2.776   3.485   9.385 -0.0563  0.0831  0.2757
  415TMC3    C6 6194   2.881   3.435   9.456 -0.1679  0.4994  0.3752
  415TMC3     C 6195   2.821   3.828   9.425 -0.6993 -0.3117  0.6692
  415TMC3     O 6196   2.840   3.851   9.304  0.3577 -0.3341  0.6111
  415TMC3     H 6197   2.989   3.725   9.585 -0.7251  1.4753 -2.2439
  415TMC3    H1 6198   2.658   3.660   9.339  1.0297  2.4829 -0.7159
  415TMC3    H2 6199   2.902   3.329   9.466  0.1934  0.7717  2.5550
  415TMC3    C7 6200   2.686   3.387   9.318  0.8509  0.0869 -0.1723
  415TMC3    C8 6201   3.093   3.473   9.572  0.4784  0.7440  0.1612
  415TMC3    O1 6202   2.669   3.287   9.389 -0.2162  0.2768  0.1098
  415TMC3    O2 6203   3.106   3.350   9.591 -0.4173 -0.8783 -0.1928
  416MPD2     C 6204   3.302   2.736  11.204  0.4436 -0.1367  0.0341
  416MPD2    C1 6205   3.172   2.727  11.145 -0.2922  0.1970 -0.1170
  416MPD2    C2 6206   3.162   2.693  11.014  0.9968  0.5630 -1.0625
  416MPD2    C3 6207   3.278   2.646  10.954  0.0119 -1.0088 -0.0169
  416MPD2    C4 6208   3.400   2.657  11.010  0.2344  0.5750  1.0279
  416MPD2    C5 6209   3.417   2.713  11.134 -0.6693 -0.3652 -0.2406
  416MPD2     H 6210   3.071   2.697  10.956  1.0994  2.6277 -1.1000
  416MPD2    H1 6211   3.493   2.646  10.955  0.8957  1.3692  1.9908
  416MPD2    H2 6212   3.316   2.781  11.302 -1.8883  0.2709  0.1769
  416MPD2    H3 6213   3.512   2.731  11.183 -1.1656 -0.6389  0.8129
  416MPD2     N 6214   3.267   2.578  10.828 -0.2505 -0.2393 -0.4958
  416MPD2    H5 6215   3.347   2.527  10.792  0.7968  1.2677 -0.2872
  416MPD2    N1 6216   3.062   2.778  11.219 -0.3348 -0.2953  0.0937
  416MPD2    H7 6217   3.081   2.840  11.297  0.5142  2.4672 -2.3077
  417TMC3    C1 6218   2.842   2.863  11.247  0.1010  0.5636 -0.1219
  417TMC3    C2 6219   2.814   2.860  11.380  0.4282 -0.0805  0.4965
  417TMC3    C3 6220   2.705   2.919  11.430 -0.1253  0.3370 -0.1873
  417TMC3    C4 6221   2.760   2.939  11.164  0.5010  0.0392 -0.5567
  417TMC3    C5 6222   2.645   2.990  11.213 -0.1372 -0.1586 -0.1363
  417TMC3    C6 6223   2.609   2.981  11.350  0.5200 -0.2809  0.3741
  417TMC3     C 6224   2.925   2.763  11.192  0.2967  0.4112 -0.5406
  417TMC3     O 6225   2.885   2.713  11.085 -0.8801 -0.5915 -0.6779
  417TMC3     H 6226   2.869   2.793  11.446 -0.4825 -0.2566  1.0779
  417TMC3    H1 6227   2.786   2.946  11.059  2.0110  1.1819 -0.0992
  417TMC3    H2 6228   2.514   3.019  11.385  0.2496 -1.2200  0.6533
  417TMC3    C7 6229   2.624   3.110  11.139  0.3120 -0.9521  0.1706
  417TMC3    C8 6230   2.698   2.959  11.567  0.6510  0.7888 -0.5455
  417TMC3    O1 6231   2.722   3.148  11.074  0.7888  0.3962 -0.4827
  417TMC3    O2 6232   2.593   3.009  11.607  0.3619  0.2035  0.3963
  418TMC3    C1 6233   1.528   4.577   0.010 -0.1851 -0.5292  0.6272
  418TMC3    C2 6234   1.394   4.559  17.681 -0.8543  0.0816  0.2198
  418TMC3    C3 6235   1.297   4.530   0.067  0.4754 -0.1230  0.1090
  418TMC3    C4 6236   1.560   4.548   0.137  0.2855 -0.2323 -0.4134
  418TMC3    C5 6237   1.465   4.519   0.231 -0.8715 -0.6028 -0.4340
  418TMC3    C6 6238   1.334   4.505   0.197 -0.2869 -0.2279 -0.2316
  418TMC3     C 6239   1.634   4.555  17.625 -0.5466  0.3368 -0.1287
  418TMC3     O 6240   1.633   4.616  17.518  0.4205 -0.0378  0.2865
  418TMC3     H 6241   1.366   4.574  17.577 -3.0670  1.1140  0.9589
  418TMC3    H1 6242   1.664   4.565   0.162  0.5028  0.8927 -2.0841
  418TMC3    H2 6243   1.260   4.461   0.263  1.2558 -1.1802  0.8670
  418TMC3    C7 6244   1.503   4.441   0.346 -0.3796  0.0157  0.4662
  418TMC3    C8 6245   1.191   4.444   0.025 -0.0692  0.3739 -0.2117
  418TMC3    O1 6246   1.424   4.356   0.387 -0.0211  0.6209  0.0107
  418TMC3    O2 6247   1.138   4.479  17.636  0.2201 -0.4139  0.2400
  419MPD2     C 6248   4.603   2.467  12.245  0.0992  0.8532 -0.0910
  419MPD2    C1 6249   4.678   2.574  12.295 -0.4961 -0.2297 -0.4501
  419MPD2    C2 6250   4.614   2.661  12.389 -0.8088 -0.0497  0.0880
  419MPD2    C3 6251   4.494   2.629  12.450 -0.3300  0.2002  0.1232
  419MPD2    C4 6252   4.436   2.514  12.404  0.6813  0.3613 -0.1670
  419MPD2    C5 6253   4.485   2.431  12.310  1.0371  0.0504 -0.2350
  419MPD2     H 6254   4.676   2.746  12.417  2.9373 -2.7403  0.0439
  419MPD2    H1 6255   4.338   2.481  12.435  0.0278  1.8740 -0.6093
  419MPD2    H2 6256   4.649   2.396  12.178 -0.6010 -1.0057  1.4003
  419MPD2    H3 6257   4.436   2.342  12.272  0.3979  0.6725 -0.8751
  419MPD2     N 6258   4.445   2.708  12.551 -0.8691 -0.7768 -0.0885
  419MPD2    H5 6259   4.498   2.793  12.566 -2.4747  0.3629 -0.8773
  419MPD2    N1 6260   0.076   2.606  12.242  0.0534 -0.6232  0.1016
  419MPD2    H7 6261   0.130   2.683  12.281 -1.1581 -0.5868  1.6765
  420TMC3    C1 6262   4.351   2.772  12.754  0.1675 -0.0966  0.1897
  420TMC3    C2 6263   4.312   2.898  12.718 -0.1335  0.0768 -0.7754
  420TMC3    C3 6264   4.271   2.981  12.817 -0.0616 -0.0304 -0.3217
  420TMC3    C4 6265   4.364   2.720  12.884  0.3214  0.0200  0.0418
  420TMC3    C5 6266   4.320   2.808  12.974  0.7269  0.1037  0.5819
  420TMC3    C6 6267   4.268   2.932  12.945 -0.0275 -0.5486  0.6263
  420TMC3     C 6268   4.360   2.667  12.654  0.1890  0.0149 -0.5055
  420TMC3     O 6269   4.320   2.552  12.677  0.1732  0.3672 -0.1005
  420TMC3     H 6270   4.279   2.909  12.615 -0.3052  0.7232 -0.6498
  420TMC3    H1 6271   4.397   2.622  12.914 -1.1167 -0.9450 -1.5491
  420TMC3    H2 6272   4.230   2.995  13.025  1.2969  0.5973  0.3620
  420TMC3    C7 6273   4.344   2.768  13.116  0.5688 -0.3353  0.3469
  420TMC3    C8 6274   4.176   3.089  12.781 -0.6385 -0.0973 -0.5455
  420TMC3    O1 6275   4.393   2.659  13.132 -0.1184  0.0030 -0.1902
  420TMC3    O2 6276   4.183   3.135  12.668  0.3566  0.4004 -0.2239
  421TMC3    C1 6277   1.504   4.575  13.864 -0.0299  0.1436 -0.4122
  421TMC3    C2 6278   1.573   4.660  13.945  0.7964  0.0153  0.1252
  421TMC3    C3 6279   1.637   4.600  14.046 -0.2787  0.1379  0.2736
  421TMC3    C4 6280   1.501   4.434  13.879  0.3431  0.1671 -0.3086
  421TMC3    C5 6281   1.571   4.381  13.977 -0.4836 -0.5393  0.2708
  421TMC3    C6 6282   1.632   4.461  14.068 -0.8517  0.0938 -0.4168
  421TMC3     C 6283   1.451   4.640  13.740 -0.0860  0.2165 -0.1263
  421TMC3     O 6284   1.470   0.035  13.715 -0.2587  0.0213 -0.2204
  421TMC3     H 6285   1.584   0.038  13.926 -0.3372 -0.1071 -1.2504
  421TMC3    H1 6286   1.451   4.366  13.811  0.6406  0.4653 -0.8279
  421TMC3    H2 6287   1.690   4.426  14.152  0.4653 -1.6440 -2.0680
  421TMC3    C7 6288   1.623   4.251  13.936  0.4812 -0.2025  0.4008
  421TMC3    C8 6289   1.709   4.669  14.153 -0.1246 -0.5346 -0.7901
  421TMC3    O1 6290   1.562   4.171  13.866  1.0326 -0.3900 -0.1518
  421TMC3    O2 6291   1.695   4.618  14.262  0.2324  0.0728  0.0366
  422TMC3    C1 6292   4.368   1.168  12.472 -0.1194  0.2406 -0.0845
  422TMC3    C2 6293   4.302   1.266  12.406 -0.0259 -0.3182  0.2618
  422TMC3    C3 6294   4.169   1.292  12.435  0.1500  0.5615  0.0671
  422TMC3    C4 6295   4.300   1.093  12.567 -0.4998  0.2779 -0.2398
  422TMC3    C5 6296   4.169   1.126  12.594  0.4730 -0.3844  0.3246
  422TMC3    C6 6297   4.102   1.222  12.525 -0.1656 -0.1608  0.3233
  422TMC3     C 6298   4.504   1.149  12.440  0.1286  0.9427  0.4187
  422TMC3     O 6299   4.560   1.230  12.366  0.4811 -0.1843 -0.2012
  422TMC3     H 6300   4.357   1.333  12.341 -1.4558  2.3608  1.8219
  422TMC3    H1 6301   4.345   1.015  12.627 -0.3123  0.3977 -0.2256
  422TMC3    H2 6302   3.995   1.238  12.540 -0.7932 -4.1244 -0.0173
  422TMC3    C7 6303   4.089   1.029  12.660  0.0609  0.0474 -0.9128
  422TMC3    C8 6304   4.124   1.420  12.372  0.7410 -1.0026  0.5672
  422TMC3    O1 6305   4.151   0.930  12.700  0.0930  0.2405  0.0906
  422TMC3    O2 6306   4.205   1.496  12.319  0.0698 -0.3467 -0.1227
  423MPD2     C 6307   0.382   2.331   0.329 -0.0209 -0.0614 -0.0620
  423MPD2    C1 6308   0.387   2.204   0.383  0.0885 -0.2300 -0.0390
  423MPD2    C2 6309   0.434   2.093   0.310 -0.5259 -0.4419  0.4627
  423MPD2    C3 6310   0.471   2.117   0.175  0.4967 -0.3774 -0.2136
  423MPD2    C4 6311   0.474   2.253   0.127 -0.9457 -0.9846  0.2726
  423MPD2    C5 6312   0.430   2.354   0.206  0.4221  0.3550  0.3034
  423MPD2     H 6313   0.438   1.995   0.355 -1.2902 -0.4842  0.4525
  423MPD2    H1 6314   0.511   2.286   0.030 -0.0971 -0.1392  0.8901
  423MPD2    H2 6315   0.356   2.415   0.393  3.4549  0.6521  0.4670
  423MPD2    H3 6316   0.429   2.455   0.165 -1.7673  0.0847 -0.2988
  423MPD2     N 6317   0.520   2.020   0.076  0.0662  0.8908  0.1730
  423MPD2    H5 6318   0.544   2.060  17.697 -2.1120  0.8621 -0.4091
  423MPD2    N1 6319   0.348   2.179   0.519 -0.5253 -0.3257 -0.4331
  423MPD2    H7 6320   0.361   2.084   0.552  0.0374 -1.1022 -2.8520
  424TMC3    C1 6321   0.311   2.196   0.744 -0.1267  0.1159 -0.1752
  424TMC3    C2 6322   0.417   2.121   0.792 -0.7277  0.2026  0.9123
  424TMC3    C3 6323   0.425   2.100   0.930  0.4977  0.2013 -0.4335
  424TMC3    C4 6324   0.219   2.254   0.834  0.0602  0.1263 -0.1001
  424TMC3    C5 6325   0.233   2.239   0.968 -0.5840 -0.2568 -0.0903
  424TMC3    C6 6326   0.330   2.155   1.018 -0.7703  0.0349 -0.0809
  424TMC3     C 6327   0.318   2.268   0.621 -0.4725  0.0092  0.3076
  424TMC3     O 6328   0.294   2.390   0.619  0.1441  0.2658 -0.2452
  424TMC3     H 6329   0.492   2.095   0.718 -1.9252  0.3509 -0.3318
  424TMC3    H1 6330   0.134   2.318   0.810  0.0090  0.0181 -0.2058
  424TMC3    H2 6331   0.353   2.166   1.124 -0.8963  1.2448 -0.1779
  424TMC3    C7 6332   0.168   2.337   1.046  0.3381  0.5004 -0.5031
  424TMC3    C8 6333   0.511   1.996   0.987 -0.7943 -0.3842 -0.7608
  424TMC3    O1 6334   0.133   2.442   0.998 -0.0375 -0.3686 -0.4490
  424TMC3    O2 6335   0.476   1.947   1.095 -0.0604 -0.0116  0.2885
  425MPD2     C 6336   4.355   1.742  17.389 -0.7327  0.2787 -0.2122
  425MPD2    C1 6337   4.289   1.628  17.346 -0.2966 -0.5504  0.1355
  425MPD2    C2 6338   4.158   1.609  17.391  0.1426 -0.2089  0.4368
  425MPD2    C3 6339   4.085   1.711  17.449 -0.0342 -0.8401 -0.0092
  425MPD2    C4 6340   4.154   1.822  17.493 -0.1898  0.4157 -0.2160
  425MPD2    C5 6341   4.287   1.831  17.466  0.0877  0.0980  0.4908
  425MPD2     H 6342   4.108   1.514  17.379 -1.2493  0.8744 -2.1630
  425MPD2    H1 6343   4.115   1.897  17.561 -1.1967  0.4854 -0.8674
  425MPD2    H2 6344   4.461   1.758  17.376 -0.1752 -2.2733  1.2160
  425MPD2    H3 6345   4.339   1.913  17.514 -1.6994  0.5348  1.6946
  425MPD2     N 6346   3.947   1.693  17.458 -0.1632 -0.2061  0.1076
  425MPD2    H5 6347   3.910   1.610  17.414 -2.2784  0.5910  0.3837
  425MPD2    N1 6348   4.364   1.537  17.273 -0.3693  0.5115  0.2392
  425MPD2    H7 6349   4.464   1.551  17.266 -0.0484 -1.2100  1.3195
  426TMC3    C1 6350   4.410   1.353  17.150 -0.8978 -0.3851  0.6479
  426TMC3    C2 6351   4.372   1.260  17.064  0.0217  0.1318  0.0409
  426TMC3    C3 6352   4.450   1.150  17.061 -0.4401  0.5171  0.4298
  426TMC3    C4 6353   4.535   1.349  17.213  0.0157 -0.1452  0.1835
  426TMC3    C5 6354   4.610   1.240  17.204  0.7052 -0.3990 -0.0959
  426TMC3    C6 6355   4.568   1.133  17.135 -0.7864 -0.4408  0.2281
  426TMC3     C 6356   4.309   1.433  17.211  1.0842 -0.0671 -0.1182
  426TMC3     O 6357   4.192   1.404  17.196 -0.3231  0.0388  0.1194
  426TMC3     H 6358   4.278   1.262  17.010  1.3992  0.8466 -2.3436
  426TMC3    H1 6359   4.562   1.413  17.296 -1.5263  0.3827  0.2622
  426TMC3    H2 6360   4.638   1.050  17.127 -2.2940 -1.9459  2.5124
  426TMC3    C7 6361   4.704   1.216  17.307 -0.4941 -0.4096 -0.7676
  426TMC3    C8 6362   4.403   1.037  16.978 -0.5794 -0.3851 -0.0325
  426TMC3    O1 6363   0.084   1.170  17.268 -0.7296 -0.5109  0.0579
  426TMC3    O2 6364   4.344   1.054  16.872 -0.5755  0.8126  0.9545
  427MPD2     C 6365   2.802   3.202  14.687  0.4956 -0.0614  0.7221
  427MPD2    C1 6366   2.800   3.245  14.822 -0.0965  0.0517 -0.1573
  427MPD2    C2 6367   2.692   3.292  14.886  0.0763  0.2041  0.1644
  427MPD2    C3 6368   2.574   3.281  14.817 -0.2283  0.5269  0.5929
  427MPD2    C4 6369   2.566   3.231  14.688  0.5329  0.1968 -0.1566
  427MPD2    C5 6370   2.676   3.192  14.626 -0.4559  0.0872  0.3277
  427MPD2     H 6371   2.704   3.334  14.985  3.3080  1.2601 -0.6962
  427MPD2    H1 6372   2.464   3.227  14.651 -0.1684 -2.0916  2.0007
  427MPD2    H2 6373   2.885   3.166  14.627  0.3143  1.4152 -0.3965
  427MPD2    H3 6374   2.673   3.153  14.524 -1.0574 -2.0145  1.1511
  427MPD2     N 6375   2.454   3.317  14.879  0.8412 -0.0674 -0.1035
  427MPD2    H5 6376   2.374   3.289  14.823  0.1323  0.1497  0.8026
  427MPD2    N1 6377   2.912   3.247  14.899  0.1389 -0.0994  0.4812
  427MPD2    H7 6378   2.902   3.279  14.995  0.7745 -0.6180  0.7228
  428TMC3    C1 6379   3.110   3.166  14.968  0.1793  0.5243  0.0092
  428TMC3    C2 6380   3.051   3.121  15.083  0.1683 -0.0675  0.0082
  428TMC3    C3 6381   3.131   3.126  15.196 -0.2000 -0.5841  0.3984
  428TMC3    C4 6382   3.234   3.213  14.958  0.3503  0.1402 -0.4808
  428TMC3    C5 6383   3.305   3.215  15.079  0.8990 -0.6678 -0.4155
  428TMC3    C6 6384   3.257   3.179  15.195  0.0310  0.3968 -0.4001
  428TMC3     C 6385   3.031   3.201  14.857  0.3883 -0.2646 -0.5429
  428TMC3     O 6386   3.081   3.195  14.743  0.4487 -0.4500  0.6567
  428TMC3     H 6387   2.949   3.087  15.091  0.0231  0.4843  0.5417
  428TMC3    H1 6388   3.269   3.272  14.874 -0.7627  0.4170 -0.7511
  428TMC3    H2 6389   3.325   3.177  15.280 -1.6922  0.2250  0.9851
  428TMC3    C7 6390   3.440   3.261  15.084  0.7149 -0.9073  0.3600
  428TMC3    C8 6391   3.104   3.030  15.300  0.2696  0.1835  0.0100
  428TMC3    O1 6392   3.482   3.311  15.188  0.0650 -0.5724  0.2150
  428TMC3    O2 6393   3.065   2.924  15.264  0.0004  0.5051  0.2228
  429MPD2     C 6394   4.029   3.375  17.418 -0.1322 -0.4448 -0.2398
  429MPD2    C1 6395   4.134   3.288  17.417 -0.1168  0.1499 -0.2989
  429MPD2    C2 6396   4.259   3.337  17.369 -0.6642  1.1080  0.1541
  429MPD2    C3 6397   4.275   3.462  17.314  0.4437  0.3140 -0.3210
  429MPD2    C4 6398   4.167   3.543  17.317  0.2320  0.1105  0.6807
  429MPD2    C5 6399   4.046   3.496  17.362  0.6403  0.0087  0.2218
  429MPD2     H 6400   4.347   3.275  17.379 -2.4701 -1.6839 -1.1894
  429MPD2    H1 6401   4.162   3.645  17.282  1.1882 -0.2169 -0.4179
  429MPD2    H2 6402   3.936   3.351  17.468 -1.2743  1.6696 -1.3666
  429MPD2    H3 6403   3.964   3.567  17.358  1.0291  0.4865  0.8900
  429MPD2     N 6404   4.407   3.507  17.270 -0.1481  0.5328  0.5487
  429MPD2    H5 6405   4.488   3.446  17.279 -1.0019 -0.6281  0.3988
  429MPD2    N1 6406   4.126   3.159  17.469 -0.0217 -0.0370 -0.0515
  429MPD2    H7 6407   4.213   3.108  17.480 -0.6228 -0.1813  3.9939
  430TMC3    C1 6408   4.565   3.635  17.165 -0.0042 -0.0500 -0.9777
  430TMC3    C2 6409   4.575   3.726  17.069  0.5627  0.4072 -0.9185
  430TMC3    C3 6410   4.656   3.702  16.964 -0.0987 -0.3214 -0.1936
  430TMC3    C4 6411   4.625   3.510  17.155 -0.6375 -0.1625 -0.2829
  430TMC3    C5 6412   4.705   3.493  17.045 -0.0619 -0.4986 -0.9045
  430TMC3    C6 6413   4.724   3.588  16.956 -0.3413 -0.2298  0.3222
  430TMC3     C 6414   4.428   3.622  17.200 -0.2575 -0.0564 -0.2087
  430TMC3     O 6415   4.347   3.698  17.141  0.4370  0.0203 -0.3050
  430TMC3     H 6416   4.506   3.810  17.072  0.5097  0.3316 -0.0398
  430TMC3    H1 6417   4.622   3.432  17.230 -1.4490 -1.7273 -1.9399
  430TMC3    H2 6418   0.052   3.575  16.864 -0.4238  0.3843  0.1856
  430TMC3    C7 6419   0.006   3.349  17.023 -0.1661 -1.2376 -0.3376
  430TMC3    C8 6420   4.659   3.800  16.849 -0.1737 -1.0458  0.2035
  430TMC3    O1 6421   4.646   3.273  17.056  0.3176  0.3146  0.4614
  430TMC3    O2 6422   4.717   3.773  16.750 -0.0021  0.4243 -0.1183
  431MPD2     C 6423   0.340   3.069  12.709 -0.2946 -0.2925 -0.8682
  431MPD2    C1 6424   0.412   3.092  12.588 -0.3043  0.4301  0.0040
  431MPD2    C2 6425   0.447   2.984  12.514 -0.0437  0.4209  0.2125
  431MPD2    C3 6426   0.414   2.855  12.555  0.3154 -0.0831  0.0726
  431MPD2    C4 6427   0.348   2.832  12.670  0.6661  0.1208 -0.8668
  431MPD2    C5 6428   0.314   2.939  12.747 -0.5127  0.0052  0.4471
  431MPD2     H 6429   0.501   2.998  12.421 -1.2533 -0.5819 -0.6466
  431MPD2    H1 6430   0.325   2.731  12.703 -1.3758  0.1180 -2.2671
  431MPD2    H2 6431   0.304   3.147  12.776  1.7652 -1.0437  1.1157
  431MPD2    H3 6432   0.268   2.920  12.843 -0.6842 -1.8732  0.0101
  431MPD2     N 6433   0.441   2.738  12.473 -0.0462  0.3647 -0.4584
  431MPD2    H5 6434   0.398   2.656  12.513  1.3008  0.3699  0.9859
  431MPD2    N1 6435   0.427   3.219  12.536  0.1923 -0.3332 -0.1405
  431MPD2    H7 6436   0.453   3.215  12.438  1.1388  1.6566  0.0146
  432TMC3    C1 6437   0.477   2.645  12.247 -0.5360 -0.3290 -0.2079
  432TMC3    C2 6438   0.544   2.641  12.132  0.1579  0.0208  0.4199
  432TMC3    C3 6439   0.483   2.602  12.015 -0.0487 -0.8347  0.1521
  432TMC3    C4 6440   0.347   2.612  12.257 -0.2349  0.0598  0.7823
  432TMC3    C5 6441   0.287   2.570  12.139  0.5826  0.9149  0.0520
  432TMC3    C6 6442   0.352   2.556  12.020  0.2125 -1.0055  0.3193
  432TMC3     C 6443   0.517   2.740  12.356  0.2276 -0.8650 -0.2608
  432TMC3     O 6444   0.596   2.825  12.321  0.6638  0.2531 -0.1663
  432TMC3     H 6445   0.651   2.656  12.134  0.5659 -2.7570 -0.4906
  432TMC3    H1 6446   0.283   2.621  12.344 -0.8750 -1.3498  0.4499
  432TMC3    H2 6447   0.304   2.513  11.933  1.4826  0.4241 -1.0973
  432TMC3    C7 6448   0.144   2.540  12.137 -0.6388  0.2155  0.4157
  432TMC3    C8 6449   0.525   2.645  11.883  0.8236  0.4754 -0.5662
  432TMC3    O1 6450   0.109   2.467  12.045 -0.2040  0.1656  0.4197
  432TMC3    O2 6451   0.495   2.564  11.799 -0.0122 -0.6306  0.2290
  433MPD2     C 6452   3.977   1.891  10.528  0.4779  0.0527 -0.3313
  433MPD2    C1 6453   4.011   1.784  10.609  0.6791  1.2001 -0.2968
  433MPD2    C2 6454   4.070   1.813  10.727 -0.2875  0.0577  0.4553
  433MPD2    C3 6455   4.092   1.945  10.763  0.7539  0.4561  0.4022
  433MPD2    C4 6456   4.064   2.049  10.677  0.1059  0.1696 -0.6458
  433MPD2    C5 6457   4.007   2.019  10.560  0.3760  0.6512  0.3251
  433MPD2     H 6458   4.083   1.735  10.801 -0.2849 -0.9606 -0.6073
  433MPD2    H1 6459   4.082   2.153  10.702  2.9764  0.2870 -3.1176
  433MPD2    H2 6460   3.933   1.870  10.431  0.8586 -3.7104  0.3203
  433MPD2    H3 6461   3.983   2.099  10.492  2.0477  0.1118 -0.8915
  433MPD2     N 6462   4.168   1.965  10.883  0.5124 -0.1782 -0.4526
  433MPD2    H5 6463   4.187   1.878  10.932  0.0955 -0.8798 -1.5304
  433MPD2    N1 6464   3.996   1.646  10.568  0.2275  0.3331 -0.4430
  433MPD2    H7 6465   3.949   1.625  10.480  1.8061 -0.8258 -1.0110
  434TMC3    C1 6466   4.040   1.415  10.566  0.1768 -0.1877  0.0119
  434TMC3    C2 6467   4.098   1.315  10.638  0.0499  0.0246 -0.3436
  434TMC3    C3 6468   4.207   1.250  10.591 -0.0492 -0.0233 -0.4716
  434TMC3    C4 6469   4.061   1.422  10.432 -0.1992 -0.2478  1.1111
  434TMC3    C5 6470   4.167   1.349  10.390  0.9008  0.0479 -0.5510
  434TMC3    C6 6471   4.254   1.277  10.464 -0.1560  0.1762 -0.7328
  434TMC3     C 6472   4.038   1.535  10.642  0.3432 -0.3020 -0.2235
  434TMC3     O 6473   4.078   1.526  10.758 -0.0494  0.0971  0.2775
  434TMC3     H 6474   4.068   1.306  10.742  1.2813 -1.5826 -0.1351
  434TMC3    H1 6475   4.022   1.503  10.371  0.0762 -0.4639  0.6523
  434TMC3    H2 6476   4.343   1.239  10.416 -0.1079 -0.6526  0.0042
  434TMC3    C7 6477   4.183   1.360  10.246 -0.0397  0.9795  0.0749
  434TMC3    C8 6478   4.288   1.178  10.684 -0.1341 -0.0898 -0.0396
  434TMC3    O1 6479   4.276   1.434  10.220  0.2848  0.1573  0.2328
  434TMC3    O2 6480   4.238   1.136  10.788 -0.0704  0.1175 -0.5822
  435MPD2     C 6481   1.375   2.014  15.404 -0.2360  0.2657 -0.5012
  435MPD2    C1 6482   1.326   1.994  15.533 -0.7091 -0.3079  0.7647
  435MPD2    C2 6483   1.414   1.951  15.633  0.3133  1.1485  0.2828
  435MPD2    C3 6484   1.546   1.913  15.601  0.0167 -0.2943  0.5925
  435MPD2    C4 6485   1.589   1.929  15.473 -0.8796 -1.2142 -0.3996
  435MPD2    C5 6486   1.509   1.993  15.380  0.2800 -0.6311  0.1952
  435MPD2     H 6487   1.377   1.936  15.734  0.0956 -0.2891 -0.0103
  435MPD2    H1 6488   1.681   1.887  15.434  0.1198  1.2765 -0.7086
  435MPD2    H2 6489   1.314   2.048  15.322 -0.4430 -2.4951 -1.4790
  435MPD2    H3 6490   1.557   2.016  15.286 -1.4961 -1.0353 -0.7993
  435MPD2     N 6491   1.613   1.853  15.702  0.0594  0.0566  0.2902
  435MPD2    H5 6492   1.555   1.825  15.780  3.8411 -2.0239  2.3518
  435MPD2    N1 6493   1.189   2.022  15.565  0.2401  0.5541  0.0676
  435MPD2    H7 6494   1.177   2.055  15.661 -2.8444  0.1938 -0.2000
  436TMC3    C1 6495   0.820   2.018  15.733 -0.4468 -0.4659  0.4487
  436TMC3    C2 6496   0.939   1.989  15.680  0.2903  0.5782  0.4422
  436TMC3    C3 6497   0.964   2.018  15.547  0.3292 -0.1741 -0.8816
  436TMC3    C4 6498   0.713   2.074  15.667 -0.1758  0.2119 -0.7448
  436TMC3    C5 6499   0.736   2.097  15.536  0.4816 -0.4672  0.2925
  436TMC3    C6 6500   0.864   2.074  15.476 -0.2764 -0.1453  0.7629
  436TMC3     C 6501   0.792   1.985  15.874 -0.2707 -0.2852  0.8881
  436TMC3     O 6502   0.871   1.900  15.919 -0.2543 -0.8141  0.2146
  436TMC3     H 6503   1.021   1.960  15.744  2.0749 -0.8641 -2.5300
  436TMC3    H1 6504   0.616   2.079  15.714  1.0043 -0.7475  1.7714
  436TMC3    H2 6505   0.887   2.094  15.372  0.9385 -0.1626  1.0289
  436TMC3    C7 6506   0.632   2.164  15.466 -0.3223 -0.1952 -0.5179
  436TMC3    C8 6507   1.085   2.002  15.482 -0.6721 -0.0731 -0.2257
  436TMC3    O1 6508   0.538   2.197  15.536 -0.0362 -0.0476 -0.0858
  436TMC3    O2 6509   1.077   1.972  15.363 -0.5228 -0.0064  0.2141
  437TMC3    C1 6510   0.218   3.506  12.013 -0.5601 -0.4552 -0.1089
  437TMC3    C2 6511   0.133   3.465  11.919 -0.2535 -0.2138 -0.6298
  437TMC3    C3 6512   0.133   3.528  11.795  0.4784 -0.1544 -0.3940
  437TMC3    C4 6513   0.276   3.632  12.001  0.0544  0.0079 -0.0741
  437TMC3    C5 6514   0.274   3.701  11.885 -0.3062  0.7488 -0.7882
  437TMC3    C6 6515   0.212   3.641  11.779 -0.2368  0.7495  0.2458
  437TMC3     C 6516   0.201   3.474  12.151  0.5315  0.0838 -0.2584
  437TMC3     O 6517   0.211   3.561  12.230 -0.2974  0.1035  0.4088
  437TMC3     H 6518   0.064   3.383  11.937  0.4333 -1.0763 -1.9806
  437TMC3    H1 6519   0.347   3.661  12.077 -0.0391 -0.1087  0.0569
  437TMC3    H2 6520   0.223   3.699  11.687 -0.3316 -2.2249 -1.6221
  437TMC3    C7 6521   0.372   3.813  11.861  0.8559  0.1195  0.7651
  437TMC3    C8 6522   0.040   3.472  11.702  0.1965  0.0338 -0.0568
  437TMC3    O1 6523   0.392   3.841  11.742 -0.2876 -0.0885  0.1612
  437TMC3    O2 6524   4.677   3.403  11.749  0.4723  0.6184  0.0496
  438MPD2     C 6525   1.874   4.602  16.388 -0.9105 -0.1212  0.0426
  438MPD2    C1 6526   1.968   4.642  16.480 -0.3068 -0.1605 -0.0902
  438MPD2    C2 6527   1.928   4.696  16.594  0.1449  0.0560  0.3203
  438MPD2    C3 6528   1.795   4.707  16.623 -0.3985 -0.2401 -0.2967
  438MPD2    C4 6529   1.700   4.673  16.533  0.1597 -1.1065  0.4091
  438MPD2    C5 6530   1.740   4.620  16.410 -0.0879 -0.3587  0.6891
  438MPD2     H 6531   2.008   4.720  16.663 -0.7980 -2.4378  2.2761
  438MPD2    H1 6532   1.596   4.674  16.563  0.3862 -1.9181  1.2265
  438MPD2    H2 6533   1.892   4.545  16.298 -1.8494 -1.4771  0.7272
  438MPD2    H3 6534   1.662   4.586  16.343 -0.4641  4.5144 -1.3367
  438MPD2     N 6535   1.740   0.012  16.752 -0.0831 -0.2893  0.0942
  438MPD2    H5 6536   1.639   0.003  16.761 -0.2229 -0.6436 -1.6934
  438MPD2    N1 6537   2.109   4.606  16.471 -0.2501 -0.2175  0.0384
  438MPD2    H7 6538   2.177   4.647  16.533  0.2733 -1.7169  0.4564
  439TMC3    C1 6539   2.311   4.559  16.359  0.5215 -0.0323  0.1761
  439TMC3    C2 6540   2.379   4.510  16.254  0.3398 -0.2624  0.1179
  439TMC3    C3 6541   2.513   4.501  16.257 -0.5676  0.4582 -0.3227
  439TMC3    C4 6542   2.375   4.606  16.469 -0.1094 -0.0931  0.5477
  439TMC3    C5 6543   2.511   4.620  16.458  0.2333 -0.0788 -0.6610
  439TMC3    C6 6544   2.586   4.561  16.355 -0.3670 -0.2649  0.5168
  439TMC3     C 6545   2.165   4.551  16.357 -0.5098  0.1515  0.1464
  439TMC3     O 6546   2.110   4.520  16.249 -0.1087 -0.5690  0.2939
  439TMC3     H 6547   2.327   4.490  16.161  1.1014 -1.1023 -0.1256
  439TMC3    H1 6548   2.331   4.657  16.553 -1.2510 -0.2441  0.0445
  439TMC3    H2 6549   2.691   4.537  16.363 -0.2063  0.3597  0.2499
  439TMC3    C7 6550   2.593   4.658  16.581 -0.5946  0.5624  0.2897
  439TMC3    C8 6551   2.585   4.409  16.178 -0.6152 -0.4913  0.0649
  439TMC3    O1 6552   2.547   4.645  16.691 -0.6986  0.2699  0.6772
  439TMC3    O2 6553   2.700   4.440  16.161 -0.6640 -0.4914 -0.2508
  440MPD2     C 6554   0.938   0.574  14.677  0.0168  0.4564 -1.0789
  440MPD2    C1 6555   0.982   0.665  14.766 -0.1886  0.0974 -0.2092
  440MPD2    C2 6556   1.089   0.625  14.848 -0.2169 -0.0374 -0.3531
  440MPD2    C3 6557   1.154   0.503  14.826  0.0332 -0.0498 -0.4188
  440MPD2    C4 6558   1.101   0.414  14.740  0.2680  0.0227 -0.3425
  440MPD2    C5 6559   0.999   0.457  14.654  0.1081 -0.3466 -0.0687
  440MPD2     H 6560   1.120   0.697  14.922  1.7588 -0.3028 -0.9259
  440MPD2    H1 6561   1.145   0.317  14.722 -1.1799 -0.4216 -1.4733
  440MPD2    H2 6562   0.848   0.587  14.617  0.1587  0.7145 -1.2349
  440MPD2    H3 6563   0.964   0.384  14.581  0.8455 -1.5467  0.7791
  440MPD2     N 6564   1.266   0.464  14.897  0.4649  0.0839 -0.1760
  440MPD2    H5 6565   1.289   0.365  14.897 -3.7442 -0.8700 -0.8638
  440MPD2    N1 6566   0.917   0.787  14.790  0.1559 -0.0471  0.7276
  440MPD2    H7 6567   0.947   0.853  14.862  2.9183 -3.1594  2.4090
  441TMC3    C1 6568   1.475   0.496  15.026  0.2330 -0.0465 -0.1756
  441TMC3    C2 6569   1.557   0.584  15.089 -0.0240  0.0600 -0.5127
  441TMC3    C3 6570   1.637   0.536  15.192  0.9278 -0.2442 -0.1703
  441TMC3    C4 6571   1.485   0.362  15.054 -0.5396 -0.2791 -0.2914
  441TMC3    C5 6572   1.578   0.320  15.144 -0.0971 -0.1447 -0.0563
  441TMC3    C6 6573   1.659   0.398  15.222  0.7894  0.1442  0.0628
  441TMC3     C 6574   1.360   0.553  14.958 -0.7519 -0.0343 -0.6642
  441TMC3     O 6575   1.341   0.677  14.968  0.5110  0.1418  0.3593
  441TMC3     H 6576   1.538   0.690  15.078 -0.1384  0.1470  0.4536
  441TMC3    H1 6577   1.410   0.295  15.013 -1.0938 -0.4483  0.9861
  441TMC3    H2 6578   1.719   0.366  15.306  1.6580  0.6740 -0.3595
  441TMC3    C7 6579   1.563   0.183  15.175  0.4979  0.0664  0.0829
  441TMC3    C8 6580   1.698   0.628  15.289 -0.8045 -0.2175 -0.3626
  441TMC3    O1 6581   1.546   0.094  15.090 -0.1637  0.0962  0.8170
  441TMC3    O2 6582   1.798   0.585  15.348  0.6802 -0.5387 -0.3754
  442MPD2     C 6583   4.117   0.935  16.485 -0.7850  0.2194 -0.1043
  442MPD2    C1 6584   4.009   0.865  16.524  0.8755 -0.0577  0.0205
  442MPD2    C2 6585   3.990   0.741  16.469  0.0113  0.5434  0.2208
  442MPD2    C3 6586   4.079   0.691  16.370 -0.2945 -0.0424  0.2972
  442MPD2    C4 6587   4.197   0.765  16.337 -0.1005 -0.1252  0.7018
  442MPD2    C5 6588   4.212   0.883  16.411  0.1809 -0.1485  0.4920
  442MPD2     H 6589   3.896   0.689  16.477  0.3913 -0.2200 -0.2212
  442MPD2    H1 6590   4.267   0.735  16.260  1.7836  2.8601  1.2517
  442MPD2    H2 6591   4.147   1.030  16.528 -1.8286 -0.6807  2.6157
  442MPD2    H3 6592   4.299   0.946  16.402  0.5675 -0.5089  1.6756
  442MPD2     N 6593   4.055   0.570  16.300 -0.3287 -0.1552 -0.0238
  442MPD2    H5 6594   4.112   0.556  16.217 -0.0547 -1.3147  0.3671
  442MPD2    N1 6595   3.930   0.928  16.623 -0.7999 -0.3419 -0.1223
  442MPD2    H7 6596   3.954   1.026  16.633 -0.4098 -0.4201 -0.3053
  443TMC3    C1 6597   3.757   0.972  16.776  0.4391 -0.9583  0.3896
  443TMC3    C2 6598   3.710   1.089  16.726 -1.1852 -0.6497 -0.2565
  443TMC3    C3 6599   3.581   1.136  16.765  0.8451 -0.2704 -0.3302
  443TMC3    C4 6600   3.689   0.911  16.880  0.7267 -0.1664 -0.4129
  443TMC3    C5 6601   3.571   0.963  16.922 -0.7677 -0.3511 -0.2079
  443TMC3    C6 6602   3.519   1.074  16.870 -0.9008 -0.2687 -0.0735
  443TMC3     C 6603   3.831   0.872  16.690  0.1117  0.3550 -0.9537
  443TMC3     O 6604   3.790   0.757  16.685  0.3986 -0.2518 -0.3359
  443TMC3     H 6605   3.747   1.130  16.633 -0.2515  0.5168  0.6185
  443TMC3    H1 6606   3.728   0.814  16.908  0.6094  0.1784  0.9322
  443TMC3    H2 6607   3.416   1.102  16.889 -0.9721 -0.1952 -0.5690
  443TMC3    C7 6608   3.473   0.881  16.990 -0.4802  0.1875 -0.6998
  443TMC3    C8 6609   3.489   1.181  16.660  0.6278 -0.2309 -0.0735
  443TMC3    O1 6610   3.362   0.929  17.005  0.2808  0.6366  0.1700
  443TMC3    O2 6611   3.372   1.141  16.656 -0.8841  0.3540 -0.4150
  444MPD2     C 6612   3.961   0.560  16.910  0.5498 -0.3045 -0.2936
  444MPD2    C1 6613   3.996   0.484  17.023  0.7612 -0.2113 -0.4424
  444MPD2    C2 6614   4.092   0.387  17.021  0.4388 -0.2290 -0.0303
  444MPD2    C3 6615   4.162   0.363  16.906  0.0125 -0.2921 -0.4321
  444MPD2    C4 6616   4.122   0.424  16.791  0.2890  0.0141  0.0990
  444MPD2    C5 6617   4.020   0.518  16.795 -0.1819  0.2725 -0.5156
  444MPD2     H 6618   4.120   0.328  17.108  1.8086  0.6453  0.1071
  444MPD2    H1 6619   4.172   0.404  16.697 -1.3030 -0.4172 -0.6566
  444MPD2    H2 6620   3.888   0.640  16.900  0.3070 -0.2854  1.8007
  444MPD2    H3 6621   3.979   0.558  16.702  0.5321  0.0039 -0.9420
  444MPD2     N 6622   4.264   0.257  16.890  0.3724  0.4840  0.3692
  444MPD2    H5 6623   4.287   0.210  16.977 -0.8962 -2.6167 -0.9627
  444MPD2    N1 6624   3.928   0.508  17.148 -0.0021 -0.0476 -0.5956
  444MPD2    H7 6625   3.947   0.436  17.216 -0.3448  1.0632  0.6734
  445TMC3    C1 6626   4.373   0.076  16.774 -0.6956  0.3963  0.2308
  445TMC3    C2 6627   4.364   4.725  16.888  0.8462  0.6818 -0.8478
  445TMC3    C3 6628   4.444   4.620  16.885 -0.1940 -1.2027  0.2974
  445TMC3    C4 6629   4.441   0.041  16.660 -0.1014  0.0460  0.0848
  445TMC3    C5 6630   4.512   4.660  16.662  0.0225 -0.4806 -0.4808
  445TMC3    C6 6631   4.519   4.588  16.773 -0.2709  0.4893  0.4656
  445TMC3     C 6632   4.318   0.212  16.767 -1.1814  0.0914 -0.2520
  445TMC3     O 6633   4.339   0.282  16.667  0.3663  0.6310 -0.0519
  445TMC3     H 6634   4.304   0.030  16.972 -0.8584 -0.8287 -1.4642
  445TMC3    H1 6635   4.453   0.107  16.575 -0.8905 -3.2609 -2.6293
  445TMC3    H2 6636   4.575   4.495  16.769 -2.4714 -0.7415 -1.3757
  445TMC3    C7 6637   4.597   4.635  16.545  0.6582  0.2665  0.8698
  445TMC3    C8 6638   4.416   4.503  16.973  0.5288  0.1017 -0.9974
  445TMC3    O1 6639   4.571   4.686  16.436  0.4657  0.1689  0.0467
  445TMC3    O2 6640   4.407   4.390  16.928  0.0302  0.0817 -0.4161
  446MPD2     C 6641   3.958   1.178  11.279  0.8325 -0.2809 -0.1391
  446MPD2    C1 6642   3.935   1.173  11.137 -0.3645  0.7308 -0.0560
  446MPD2    C2 6643   4.044   1.214  11.055 -0.1458 -0.0411 -0.4832
  446MPD2    C3 6644   4.166   1.264  11.106 -0.9497  0.0969 -0.2961
  446MPD2    C4 6645   4.165   1.289  11.241  0.1848  0.3214  0.2275
  446MPD2    C5 6646   4.074   1.239  11.319  0.2453 -0.4952  0.6393
  446MPD2     H 6647   4.038   1.194  10.948 -0.9388 -1.2030 -0.2159
  446MPD2    H1 6648   4.252   1.337  11.285 -0.9319  0.8782  1.8304
  446MPD2    H2 6649   3.883   1.147  11.350  0.8640  1.3741  0.6138
  446MPD2    H3 6650   4.083   1.267  11.424 -1.8731  2.6643 -0.0285
  446MPD2     N 6651   4.272   1.304  11.025 -0.1028  0.0120 -0.6080
  446MPD2    H5 6652   4.257   1.274  10.928 -1.4810 -1.7421  0.1427
  446MPD2    N1 6653   3.827   1.093  11.083  0.0352  0.5413 -0.2908
  446MPD2    H7 6654   3.832   1.077  10.983  3.4598 -0.8088  0.1013
  447TMC3    C1 6655   4.492   1.370  10.955 -0.0374 -0.0220 -0.0971
  447TMC3    C2 6656   4.442   1.414  10.838  0.0434 -0.0384 -0.9698
  447TMC3    C3 6657   4.527   1.432  10.737  0.3926  0.0121 -0.0951
  447TMC3    C4 6658   4.622   1.322  10.962 -0.4325 -0.0309 -0.4450
  447TMC3    C5 6659   4.702   1.334  10.849  0.0048 -0.0487 -0.0577
  447TMC3    C6 6660   4.654   1.393  10.738 -0.2025  0.7680 -0.2938
  447TMC3     C 6661   4.401   1.323  11.063 -0.5145  0.6625 -0.7147
  447TMC3     O 6662   4.460   1.319  11.167  0.3565 -0.0387 -0.7612
  447TMC3     H 6663   4.341   1.452  10.826  0.7861  1.5975 -2.0115
  447TMC3    H1 6664   4.659   1.274  11.052  0.2568  2.2362  0.4682
  447TMC3    H2 6665   4.718   1.393  10.651 -0.8054  0.6338 -0.7426
  447TMC3    C7 6666   0.124   1.303  10.863 -0.2308 -0.0806  0.0025
  447TMC3    C8 6667   4.472   1.483  10.619 -0.6946 -0.8653  0.0080
  447TMC3    O1 6668   0.197   1.361  10.783 -0.2631  0.4673 -0.2837
  447TMC3    O2 6669   4.516   1.434  10.514 -0.1567  0.2119 -0.4986
  448TMC3    C1 6670   2.134   1.611  16.257 -0.0915  0.2399 -0.1690
  448TMC3    C2 6671   2.130   1.480  16.219 -0.2469 -0.0709 -0.3673
  448TMC3    C3 6672   2.193   1.389  16.302 -0.0455  0.2386  0.7944
  448TMC3    C4 6673   2.196   1.656  16.368 -0.3450  0.6439 -0.3264
  448TMC3    C5 6674   2.251   1.564  16.454  0.5880 -0.2487 -0.2119
  448TMC3    C6 6675   2.254   1.432  16.415 -0.5060 -0.3970  0.5318
  448TMC3     C 6676   2.040   1.699  16.189 -0.6332  0.3998  0.2797
  448TMC3     O 6677   2.010   1.669  16.075  0.1372 -0.2573 -0.1200
  448TMC3     H 6678   2.060   1.446  16.144  0.4092 -2.2390 -0.0139
  448TMC3    H1 6679   2.211   1.762  16.382  1.5275  0.4520 -0.8953
  448TMC3    H2 6680   2.287   1.361  16.489  3.2776  0.7599 -0.0870
  448TMC3    C7 6681   2.325   1.616  16.566  0.7308 -0.3407 -0.3192
  448TMC3    C8 6682   2.154   1.252  16.302 -0.5087  0.5517 -0.4334
  448TMC3    O1 6683   2.320   1.734  16.585  0.2803 -0.0403 -0.0285
  448TMC3    O2 6684   2.137   1.195  16.408  0.1136 -0.0339 -0.7149
  449MPD2     C 6685   3.855   4.497  13.594  0.9228  0.1773 -0.0267
  449MPD2    C1 6686   3.787   4.381  13.573 -0.1990 -0.0147  0.0035
  449MPD2    C2 6687   3.693   4.334  13.668  0.7242 -0.1760 -0.5771
  449MPD2    C3 6688   3.674   4.402  13.784  0.0095  0.5216 -1.2715
  449MPD2    C4 6689   3.737   4.520  13.802 -0.5426  0.0333  0.0504
  449MPD2    C5 6690   3.825   4.568  13.710  0.2351  1.2815 -0.0028
  449MPD2     H 6691   3.646   4.241  13.636  0.5163  0.1285 -1.1607
  449MPD2    H1 6692   3.722   4.578  13.892  2.4567 -1.6814  1.6771
  449MPD2    H2 6693   3.932   4.536  13.528 -0.0640  1.3067 -0.5307
  449MPD2    H3 6694   3.882   4.658  13.728 -1.7078  2.0385  2.4618
  449MPD2     N 6695   3.582   4.351  13.872 -0.0059  0.2932 -0.3979
  449MPD2    H5 6696   3.529   4.270  13.842  0.7714 -0.7294  1.0069
  449MPD2    N1 6697   3.796   4.308  13.449 -0.0665  0.5668  0.0985
  449MPD2    H7 6698   3.729   4.232  13.453 -1.3920  1.6010 -2.9708
  450TMC3    C1 6699   3.827   4.212  13.252 -0.6791 -0.5077  0.2677
  450TMC3    C2 6700   3.905   4.105  13.229  0.5257 -0.5600 -0.7716
  450TMC3    C3 6701   3.843   3.991  13.192 -0.3531  0.1412  0.0277
  450TMC3    C4 6702   3.694   4.201  13.249  0.3008  0.3134 -0.0247
  450TMC3    C5 6703   3.637   4.085  13.223 -0.5569  0.2817  0.0478
  450TMC3    C6 6704   3.710   3.983  13.177  0.2156  0.5192 -0.5192
  450TMC3     C 6705   3.880   4.311  13.344 -0.1272  0.7677  0.1760
  450TMC3     O 6706   3.964   4.398  13.320 -0.5963 -0.4457  0.1273
  450TMC3     H 6707   4.010   4.106  13.258  0.3885 -1.2863 -0.2462
  450TMC3    H1 6708   3.632   4.285  13.277  3.2128  1.8834  1.7168
  450TMC3    H2 6709   3.662   3.887  13.165 -0.6988  1.1052 -1.6050
  450TMC3    C7 6710   3.546   4.053  13.332  0.1837 -0.5117 -0.7754
  450TMC3    C8 6711   3.937   3.880  13.164 -0.9129 -0.7380 -0.5345
  450TMC3    O1 6712   3.558   4.128  13.428  0.1920  0.1958  0.1619
  450TMC3    O2 6713   3.889   3.776  13.137 -0.1020  0.2943 -0.2080
  451MPD2     C 6714   4.339   3.226   1.580  0.0774  0.1985 -0.2448
  451MPD2    C1 6715   4.441   3.247   1.496 -0.6564  0.0376 -0.2221
  451MPD2    C2 6716   4.545   3.156   1.490  0.6862 -0.7461 -0.7771
  451MPD2    C3 6717   4.543   3.046   1.570 -0.4329 -0.2171 -0.1736
  451MPD2    C4 6718   4.431   3.025   1.656  0.3232  0.4379 -1.1161
  451MPD2    C5 6719   4.331   3.115   1.657  0.1526  0.3512 -0.1567
  451MPD2     H 6720   4.629   3.168   1.422  1.4482  2.3022  0.6848
  451MPD2    H1 6721   4.418   2.943   1.726 -1.5887  0.4488 -1.4662
  451MPD2    H2 6722   4.272   3.310   1.592  0.7615  0.2281  3.1445
  451MPD2    H3 6723   4.250   3.116   1.729 -0.3484 -0.7404 -0.7003
  451MPD2     N 6724   4.644   2.950   1.577 -0.0238  0.1842  0.2585
  451MPD2    H5 6725   4.635   2.879   1.649  1.5366  1.0246  1.2916
  451MPD2    N1 6726   4.442   3.371   1.421  0.0077  0.3931 -0.0599
  451MPD2    H7 6727   4.360   3.430   1.424  0.4913  1.0927 -0.6445
  452TMC3    C1 6728   0.106   2.816   1.515 -0.0875  0.4416  0.0627
  452TMC3    C2 6729   0.091   2.755   1.635  0.1751  0.6909  0.1017
  452TMC3    C3 6730   0.168   2.641   1.655 -0.3961 -0.1558  0.6268
  452TMC3    C4 6731   0.185   2.769   1.410  0.4394  0.0633  0.0672
  452TMC3    C5 6732   0.258   2.653   1.437  0.1179  0.0419  0.1913
  452TMC3    C6 6733   0.255   2.589   1.557  0.4652 -0.3554 -0.5081
  452TMC3     C 6734   0.024   2.937   1.488 -1.5690  0.3999  0.4142
  452TMC3     O 6735   0.050   2.999   1.384  0.1802 -0.3484 -0.2382
  452TMC3     H 6736   0.029   2.792   1.716  1.8780 -0.3494  1.8805
  452TMC3    H1 6737   0.190   2.814   1.312  0.1949  0.0151  0.0342
  452TMC3    H2 6738   0.311   2.499   1.578  2.3396  1.3340  1.8256
  452TMC3    C7 6739   0.340   2.607   1.321 -0.2968  0.1995 -0.1985
  452TMC3    C8 6740   0.159   2.583   1.786 -0.1256 -0.9561  0.5765
  452TMC3    O1 6741   0.360   2.689   1.230 -0.3493 -0.0156  0.2835
  452TMC3    O2 6742   0.061   2.618   1.852  0.0934 -0.6148  0.1170
  453TMC3    C1 6743   1.561   0.503  11.740  0.5999 -0.0284 -0.0999
  453TMC3    C2 6744   1.473   0.439  11.809 -0.5665 -0.0546  0.2839
  453TMC3    C3 6745   1.365   0.390  11.734 -0.1434  0.0386  0.3075
  453TMC3    C4 6746   1.555   0.526  11.602 -0.8025  0.2208 -0.3309
  453TMC3    C5 6747   1.443   0.487  11.534  0.5580 -0.2655  0.1249
  453TMC3    C6 6748   1.347   0.412  11.600 -0.3722  0.3553 -0.0616
  453TMC3     C 6749   1.687   0.506  11.805  0.0523 -0.8203 -0.0621
  453TMC3     O 6750   1.768   0.578  11.748 -0.0997 -0.3070 -0.2057
  453TMC3     H 6751   1.476   0.440  11.917 -1.0656  1.1277  0.2805
  453TMC3    H1 6752   1.650   0.555  11.558 -0.0926  1.8534  2.2731
  453TMC3    H2 6753   1.257   0.379  11.549 -0.8491 -1.9727  2.2657
  453TMC3    C7 6754   1.457   0.461  11.392  0.0508 -0.1818  0.1943
  453TMC3    C8 6755   1.257   0.338  11.812 -0.1469  0.3092  0.3013
  453TMC3    O1 6756   1.379   0.377  11.346 -0.3347  0.1534 -0.2551
  453TMC3    O2 6757   1.139   0.346  11.773  0.4027  0.5342  0.5082
  454MPD2     C 6758   4.714   0.630  15.619  0.7139 -1.3756 -0.7457
  454MPD2    C1 6759   4.707   0.506  15.673 -0.2210 -0.1634  0.8466
  454MPD2    C2 6760   4.698   0.492  15.806 -0.1840 -0.0336 -0.5413
  454MPD2    C3 6761   4.676   0.598  15.890  0.1194 -0.6833  0.3474
  454MPD2    C4 6762   4.675   0.722  15.836  0.0699 -0.0219 -0.5280
  454MPD2    C5 6763   4.702   0.737  15.702  0.0075 -0.2443  0.1569
  454MPD2     H 6764   4.691   0.396  15.855 -0.9192  0.0515 -0.4796
  454MPD2    H1 6765   4.662   0.816  15.890 -0.7235 -0.4674  0.0558
  454MPD2    H2 6766   4.708   0.651  15.513  4.3543  2.3920 -0.2088
  454MPD2    H3 6767   4.703   0.840  15.669  1.8468 -0.3202 -0.0409
  454MPD2     N 6768   4.640   0.567  16.024 -0.1853  0.0118 -0.1189
  454MPD2    H5 6769   4.632   0.468  16.045 -1.6910 -0.3456 -2.4468
  454MPD2    N1 6770   4.713   0.380  15.601  0.0482  0.1737  0.0360
  454MPD2    H7 6771   4.707   0.297  15.659 -0.5559 -0.5640 -1.0842
  455TMC3    C1 6772   4.531   0.597  16.225 -0.1281  0.6417  0.0260
  455TMC3    C2 6773   4.531   0.667  16.343 -0.0938  0.0491 -0.1560
  455TMC3    C3 6774   4.467   0.597  16.447  0.6997  0.4442  0.5353
  455TMC3    C4 6775   4.463   0.484  16.205  0.4268 -0.0964  0.3359
  455TMC3    C5 6776   4.392   0.434  16.310  0.1834 -0.5873 -0.1891
  455TMC3    C6 6777   4.388   0.485  16.434 -0.1743 -0.2239  0.7880
  455TMC3     C 6778   4.604   0.655  16.115 -0.5391  1.2737 -0.4082
  455TMC3     O 6779   4.639   0.772  16.123 -0.0727  0.5439 -0.5321
  455TMC3     H 6780   4.587   0.755  16.371 -1.5470  0.4156  1.5975
  455TMC3    H1 6781   4.457   0.433  16.109  0.2353  0.5431  0.0034
  455TMC3    H2 6782   4.318   0.451  16.510  0.9437 -1.3103  1.3255
  455TMC3    C7 6783   4.305   0.325  16.268  0.4081 -0.1301  0.1472
  455TMC3    C8 6784   4.466   0.667  16.575  0.1912 -0.4625  0.4405
  455TMC3    O1 6785   4.297   0.302  16.148  0.3940  0.7380 -0.0124
  455TMC3    O2 6786   4.471   0.790  16.576 -0.3148  0.0770  0.0978
  456MPD2     C 6787   2.325   0.029  16.000  0.2131  0.5358  0.2400
  456MPD2    C1 6788   2.418   0.070  16.092 -0.2192  0.5581 -0.1425
  456MPD2    C2 6789   2.378   0.130  16.214  0.2351  0.6551 -0.2822
  456MPD2    C3 6790   2.244   0.143  16.241  0.0425  0.3470  0.2958
  456MPD2    C4 6791   2.147   0.099  16.144 -0.3677 -0.3054 -0.2461
  456MPD2    C5 6792   2.189   0.038  16.028  0.7631  0.2498 -0.9901
  456MPD2     H 6793   2.453   0.156  16.288 -0.0760  1.8026 -0.3764
  456MPD2    H1 6794   2.040   0.099  16.161 -0.1811  1.3703  0.9490
  456MPD2    H2 6795   2.364   4.705  15.913 -0.5655 -0.9498  0.7652
  456MPD2    H3 6796   2.111   0.012  15.957  0.8486 -0.1070 -0.9511
  456MPD2     N 6797   2.205   0.194  16.362  0.1512  0.3683 -0.2033
  456MPD2    H5 6798   2.283   0.215  16.424 -0.7287 -0.4923  1.2002
  456MPD2    N1 6799   2.555   0.057  16.053 -0.4468 -0.1100  0.3049
  456MPD2    H7 6800   2.577   0.026  15.959  0.9733  0.6559  0.3931
  457TMC3    C1 6801   2.090   0.356  16.482 -0.0312  0.1796  0.5238
  457TMC3    C2 6802   2.090   0.485  16.426 -0.5181  0.0800  0.1280
  457TMC3    C3 6803   2.132   0.598  16.488 -0.4479  0.8814  0.2750
  457TMC3    C4 6804   2.158   0.338  16.598 -0.1626 -0.0612 -0.1760
  457TMC3    C5 6805   2.202   0.458  16.658 -0.3738 -0.4031 -0.1123
  457TMC3    C6 6806   2.191   0.582  16.607 -0.8977 -0.6300 -0.1259
  457TMC3     C 6807   2.080   0.238  16.397 -0.0232  0.3865 -0.1786
  457TMC3     O 6808   1.975   0.222  16.337 -0.0720 -0.4894 -0.3200
  457TMC3     H 6809   2.037   0.491  16.332  0.1773 -3.1648 -0.4579
  457TMC3    H1 6810   2.154   0.240  16.645  0.3453 -0.5151 -1.0858
  457TMC3    H2 6811   2.206   0.670  16.670  1.7343  0.3576 -2.1718
  457TMC3    C7 6812   2.285   0.440  16.774 -0.1713 -0.0786 -0.2165
  457TMC3    C8 6813   2.147   0.725  16.416 -0.2644  0.2553 -0.8594
  457TMC3    O1 6814   2.265   0.348  16.859 -0.2624  0.4809  0.2928
  457TMC3    O2 6815   2.196   0.811  16.485  0.0299  0.6471 -0.4130
  458MPD2     C 6816   0.664   4.207  12.040  0.2087 -0.6779  0.0031
  458MPD2    C1 6817   0.581   4.155  12.143  0.0839  0.3522 -0.6916
  458MPD2    C2 6818   0.495   4.050  12.121 -0.7026  0.0826  0.1872
  458MPD2    C3 6819   0.482   4.001  11.990  0.4117  0.0405  0.1519
  458MPD2    C4 6820   0.557   4.061  11.890 -1.1433  0.7235  0.6065
  458MPD2    C5 6821   0.642   4.161  11.913  0.0574 -0.0174  0.6961
  458MPD2     H 6822   0.439   4.002  12.200 -0.9693  2.7104  1.5868
  458MPD2    H1 6823   0.556   4.017  11.791 -2.2013 -0.1672  1.0149
  458MPD2    H2 6824   0.732   4.292  12.050 -1.0123  0.1386  1.3039
  458MPD2    H3 6825   0.701   4.211  11.837 -1.1396 -1.4971 -1.2095
  458MPD2     N 6826   0.391   3.888  11.976  0.4603 -0.3667 -0.6785
  458MPD2    H5 6827   0.336   3.850  12.052  0.9307 -1.8102 -1.0635
  458MPD2    N1 6828   0.606   4.200  12.271  0.7793  0.1684  0.0444
  458MPD2    H7 6829   0.669   4.279  12.282  2.4091 -0.8777 -1.7341
  459TMC3    C1 6830   0.608   4.211  12.503  0.4737 -0.1955 -0.5970
  459TMC3    C2 6831   0.621   4.345  12.496  0.7762 -0.1905 -0.4986
  459TMC3    C3 6832   0.623   4.415  12.616  0.1058  0.4055  0.0861
  459TMC3    C4 6833   0.571   4.154  12.623 -0.2714 -0.0831 -0.1171
  459TMC3    C5 6834   0.587   4.225  12.740 -0.2227  0.1546  0.0240
  459TMC3    C6 6835   0.610   4.361  12.741  0.2151 -0.3863 -0.0048
  459TMC3     C 6836   0.563   4.139  12.388 -0.2527 -0.4256 -0.7137
  459TMC3     O 6837   0.498   4.040  12.415  0.5176  0.4915 -0.3313
  459TMC3     H 6838   0.639   4.397  12.403  1.9322 -1.6614 -1.1190
  459TMC3    H1 6839   0.553   4.047  12.627 -1.1833  0.0744  0.0077
  459TMC3    H2 6840   0.630   4.421  12.829  0.2125 -1.1985  0.5498
  459TMC3    C7 6841   0.593   4.156  12.873 -0.1999 -0.6685 -0.3524
  459TMC3    C8 6842   0.698   4.545  12.620  0.0577 -0.2566  0.3872
  459TMC3    O1 6843   0.602   4.032  12.868 -0.2194 -0.4069  0.0440
  459TMC3    O2 6844   0.740   4.576  12.736  0.4480 -0.2166 -0.3137
  460MPD2     C 6845   4.383   1.834  10.611  0.4659 -0.8348 -0.1346
  460MPD2    C1 6846   4.388   1.706  10.563  0.3397 -0.1803  0.0116
  460MPD2    C2 6847   4.344   1.683  10.435 -0.0498  0.2891 -0.0231
  460MPD2    C3 6848   4.290   1.781  10.353 -0.6920  0.3357  0.1181
  460MPD2    C4 6849   4.292   1.908  10.402 -0.1378  1.0643  0.1458
  460MPD2    C5 6850   4.330   1.935  10.529 -0.5610  0.3177 -0.2066
  460MPD2     H 6851   4.323   1.581  10.407  3.2177 -0.3540 -0.1639
  460MPD2    H1 6852   4.239   1.984  10.345 -1.4650 -0.0168 -0.0683
  460MPD2    H2 6853   4.422   1.854  10.710  0.6174 -0.5618 -0.2500
  460MPD2    H3 6854   4.319   2.035  10.569  0.6388  0.9140 -1.3947
  460MPD2     N 6855   4.240   1.737  10.221  0.0217  0.8015  0.0774
  460MPD2    H5 6856   4.253   1.638  10.204  1.0288  0.9183  0.1788
  460MPD2    N1 6857   4.431   1.605  10.654 -0.6201 -0.2071  0.5218
  460MPD2    H7 6858   4.441   1.627  10.753  1.3515 -0.9584  0.4907
  461TMC3    C1 6859   4.152   1.763   9.996  0.8289  0.6186  0.2996
  461TMC3    C2 6860   4.110   1.640   9.991  0.4745  0.8110  0.6149
  461TMC3    C3 6861   4.071   1.593   9.863  0.5453 -0.6290 -0.9229
  461TMC3    C4 6862   4.170   1.839   9.886 -0.2634 -0.1542  1.3108
  461TMC3    C5 6863   4.147   1.790   9.760  0.4183  0.4152 -0.0866
  461TMC3    C6 6864   4.086   1.673   9.749 -0.2415  0.3176 -0.4549
  461TMC3     C 6865   4.189   1.823  10.123  0.3333 -0.2389 -0.1831
  461TMC3     O 6866   4.171   1.945  10.127 -0.8029  0.4052 -0.4384
  461TMC3     H 6867   4.097   1.580  10.081  1.8307 -1.0156 -0.4283
  461TMC3    H1 6868   4.196   1.943   9.900 -0.7255  0.2252 -0.6436
  461TMC3    H2 6869   4.059   1.637   9.650 -0.4069  1.5448 -0.8499
  461TMC3    C7 6870   4.129   1.884   9.653 -0.4469  0.2504  0.2888
  461TMC3    C8 6871   4.106   1.453   9.837 -0.4058  1.2411  0.3745
  461TMC3    O1 6872   4.051   1.858   9.560 -0.0579  0.3184  0.0091
  461TMC3    O2 6873   4.194   1.406   9.908  0.4394  0.2893 -0.0038
  462TMC3    C1 6874   4.515   3.245   0.290 -0.6015  0.1957  0.2576
  462TMC3    C2 6875   4.608   3.162   0.234  0.5217  0.1560  0.3267
  462TMC3    C3 6876   4.566   3.065   0.157  0.7098  0.0293  0.0139
  462TMC3    C4 6877   4.380   3.231   0.267 -0.1537  0.1210 -0.4296
  462TMC3    C5 6878   4.347   3.131   0.187 -0.0835  0.8469 -1.2239
  462TMC3    C6 6879   4.435   3.042   0.135  0.5031 -0.3656  0.1210
  462TMC3     C 6880   4.537   3.281   0.431  0.6658  0.8282 -0.8641
  462TMC3     O 6881   4.445   3.304   0.504 -0.6451  0.5538  0.3197
  462TMC3     H 6882   4.716   3.158   0.244  0.3899 -2.4788  0.6663
  462TMC3    H1 6883   4.305   3.290   0.318  0.5892 -1.7117  2.8432
  462TMC3    H2 6884   4.403   2.994   0.043 -1.0260  2.1768 -0.6784
  462TMC3    C7 6885   4.212   3.081   0.177 -0.7950  0.4788 -0.0103
  462TMC3    C8 6886   4.664   2.988   0.084 -0.0629 -0.1855  0.1668
  462TMC3    O1 6887   4.194   2.958   0.185  0.3344 -0.1546  0.3442
  462TMC3    O2 6888   0.056   3.022   0.078 -0.6894 -0.1595  0.3622
  463MPD2     C 6889   0.776   1.482   1.712 -0.3954 -0.0158 -0.5602
  463MPD2    C1 6890   0.651   1.549   1.707 -0.1476  0.7436  0.1669
  463MPD2    C2 6891   0.651   1.681   1.662 -0.1240 -0.4136  0.3961
  463MPD2    C3 6892   0.773   1.749   1.643  0.4891  0.2110 -0.6887
  463MPD2    C4 6893   0.892   1.680   1.649 -0.1170 -0.1072 -0.0244
  463MPD2    C5 6894   0.891   1.550   1.672 -0.2083  0.0165 -0.2905
  463MPD2     H 6895   0.559   1.738   1.656 -0.3826 -1.0065 -1.2383
  463MPD2    H1 6896   0.988   1.727   1.634 -1.2166  1.9392 -0.6300
  463MPD2    H2 6897   0.800   1.380   1.739  0.7003  0.4828  0.3674
  463MPD2    H3 6898   0.987   1.500   1.672  0.6374  1.6271  0.5488
  463MPD2     N 6899   0.776   1.886   1.608  0.5773 -0.3082  0.1468
  463MPD2    H5 6900   0.859   1.929   1.569  0.6707 -0.1965  0.4676
  463MPD2    N1 6901   0.525   1.489   1.725  0.3961  0.1127 -0.2534
  463MPD2    H7 6902   0.436   1.525   1.693  0.1039  0.0197  0.4479
  464TMC3    C1 6903   0.370   1.315   1.774 -0.4584 -0.1030  0.1802
  464TMC3    C2 6904   0.269   1.405   1.754 -0.2924 -0.2134  0.1694
  464TMC3    C3 6905   0.146   1.348   1.737  0.3692  0.3547  0.1649
  464TMC3    C4 6906   0.358   1.179   1.760  0.4583 -0.0249 -0.3652
  464TMC3    C5 6907   0.236   1.131   1.720  0.4908 -0.0810  0.1225
  464TMC3    C6 6908   0.125   1.215   1.702  0.5033 -0.2666  0.0769
  464TMC3     C 6909   0.510   1.358   1.776  0.0553  0.3663 -0.0585
  464TMC3     O 6910   0.589   1.281   1.829  0.3111  0.2744  0.2505
  464TMC3     H 6911   0.277   1.512   1.767  1.3747 -0.4060  0.8112
  464TMC3    H1 6912   0.451   1.123   1.760  1.4993  1.7003 -0.5618
  464TMC3    H2 6913   0.030   1.186   1.660  0.7990  0.0358 -0.8223
  464TMC3    C7 6914   0.227   0.992   1.667 -0.0865  0.4608  0.1689
  464TMC3    C8 6915   0.033   1.440   1.707 -0.2318 -0.6992 -0.2099
  464TMC3    O1 6916   0.328   0.921   1.684  0.0493  0.4025  0.0126
  464TMC3    O2 6917   0.059   1.554   1.680  0.5144 -0.2220  0.0749
  465MPD2     C 6918   1.330   4.532  16.609  0.4468  0.2519 -0.1115
  465MPD2    C1 6919   1.210   4.533  16.680  0.3119 -0.1936 -0.2885
  465MPD2    C2 6920   1.096   4.594  16.623  0.3435 -0.6350 -0.0682
  465MPD2    C3 6921   1.101   4.633  16.496  0.1629  0.0056 -0.8388
  465MPD2    C4 6922   1.221   4.623  16.420 -0.9804  0.1170  0.3298
  465MPD2    C5 6923   1.332   4.575  16.478  0.0994 -0.1953 -0.2180
  465MPD2     H 6924   1.003   4.615  16.675 -0.2259 -1.5795 -0.6909
  465MPD2    H1 6925   1.233   4.662  16.319  1.4682 -2.2437 -0.3272
  465MPD2    H2 6926   1.421   4.508  16.662  1.0210  2.9268  0.0766
  465MPD2    H3 6927   1.423   4.571  16.419 -0.1390 -1.6644 -0.4896
  465MPD2     N 6928   0.990   4.701  16.442 -0.3731  0.4058 -0.2971
  465MPD2    H5 6929   0.920   0.000  16.510  0.4522 -3.4224  2.0833
  465MPD2    N1 6930   1.202   4.482  16.810 -0.3862  0.2100 -0.0559
  465MPD2    H7 6931   1.110   4.502  16.849 -0.5980 -2.4563  0.7799
  466TMC3    C1 6932   0.743   0.266  16.475 -0.4749 -0.1840 -0.1514
  466TMC3    C2 6933   0.784   0.390  16.422 -0.9325 -0.1555  0.7123
  466TMC3    C3 6934   0.867   0.392  16.311  0.5288  0.3982 -0.9777
  466TMC3    C4 6935   0.794   0.147  16.430  0.0702 -0.6753  0.0156
  466TMC3    C5 6936   0.888   0.156  16.330 -0.5619 -0.3568  0.2112
  466TMC3    C6 6937   0.917   0.269  16.263  0.4358 -0.2847 -0.0125
  466TMC3     C 6938   0.697   0.255  16.611 -0.0282 -0.0738 -0.1068
  466TMC3     O 6939   0.726   0.153  16.671 -0.4053  0.3521 -0.3261
  466TMC3     H 6940   0.758   0.482  16.473  0.1795 -0.2476  1.4440
  466TMC3    H1 6941   0.760   0.052  16.470  0.9679 -1.1265 -0.2920
  466TMC3    H2 6942   0.997   0.276  16.190  0.7687  0.6480  0.4493
  466TMC3    C7 6943   0.989   0.048  16.326 -0.2078 -0.2982  0.2695
  466TMC3    C8 6944   0.938   0.508  16.272  0.7243  0.3140  0.7048
  466TMC3    O1 6945   1.072   0.045  16.238  0.2175 -0.4512 -0.6119
  466TMC3    O2 6946   0.990   0.508  16.160  0.5163 -0.6336 -0.1532
  467TMC3    C1 6947   2.371   3.513  13.533  0.3926  0.1511  1.0491
  467TMC3    C2 6948   2.443   3.619  13.482  0.5115  0.1230 -0.2027
  467TMC3    C3 6949   2.377   3.706  13.403  0.5230  0.2323  0.2495
  467TMC3    C4 6950   2.246   3.484  13.489 -0.2613  0.0835 -0.7128
  467TMC3    C5 6951   2.181   3.579  13.412 -0.3273  0.3420  0.6925
  467TMC3    C6 6952   2.250   3.689  13.363  0.2259 -0.3045  0.6499
  467TMC3     C 6953   2.443   3.442  13.639 -1.0646 -0.4048 -0.2853
  467TMC3     O 6954   2.475   3.491  13.746  0.5365 -0.0958  0.7537
  467TMC3     H 6955   2.544   3.631  13.518  0.2880 -1.1308  0.8402
  467TMC3    H1 6956   2.206   3.387  13.515  0.0678  0.5536  1.5983
  467TMC3    H2 6957   2.203   3.765  13.303  2.4014  2.2336  2.1810
  467TMC3    C7 6958   2.042   3.561  13.374  0.2849  0.3596 -0.7254
  467TMC3    C8 6959   2.458   3.823  13.363  0.3506 -0.4787 -1.0613
  467TMC3    O1 6960   2.003   3.625  13.272 -0.3041  0.5089 -0.2296
  467TMC3    O2 6961   2.427   3.947  13.377 -0.7769 -0.4062  0.4133
  468MPD2     C 6962   1.238   1.398  10.993 -0.1623  0.2250  0.0812
  468MPD2    C1 6963   1.364   1.362  10.949 -0.2328  0.5977  0.6095
  468MPD2    C2 6964   1.387   1.230  10.921 -0.4248 -0.5114 -0.7951
  468MPD2    C3 6965   1.284   1.145  10.900  0.3807 -0.0563 -0.1628
  468MPD2    C4 6966   1.158   1.185  10.934  0.2210  0.1292 -0.2593
  468MPD2    C5 6967   1.137   1.308  10.980  0.1302 -0.7610 -0.7140
  468MPD2     H 6968   1.486   1.202  10.886 -1.1610 -0.5790 -2.7892
  468MPD2    H1 6969   1.072   1.119  10.925  0.1836  0.0769  0.4496
  468MPD2    H2 6970   1.209   1.500  11.017  2.0252  1.2279 -1.5646
  468MPD2    H3 6971   1.043   1.344  11.018  0.1824 -1.4223  0.0473
  468MPD2     N 6972   1.299   1.016  10.854  0.4599 -0.0706 -0.2622
  468MPD2    H5 6973   1.226   0.946  10.863 -1.4067  1.7404 -1.6111
  468MPD2    N1 6974   1.473   1.447  10.936  0.6268 -0.1023 -0.4571
  468MPD2    H7 6975   1.562   1.406  10.909  0.1697 -0.2991 -1.6691
  469TMC3    C1 6976   1.591   1.641  10.908  0.1295  0.4399  0.2507
  469TMC3    C2 6977   1.703   1.578  10.952  0.1761  0.0457 -0.0282
  469TMC3    C3 6978   1.819   1.646  10.931 -0.3858  0.3647  0.0858
  469TMC3    C4 6979   1.588   1.763  10.847  0.3834 -0.5034 -1.0033
  469TMC3    C5 6980   1.714   1.827  10.833  0.3332  0.0521  0.2667
  469TMC3    C6 6981   1.828   1.769  10.878  0.2984 -0.1741 -0.1247
  469TMC3     C 6982   1.462   1.581  10.916  0.0642 -0.3585  0.0348
  469TMC3     O 6983   1.364   1.655  10.919  0.1030 -0.0410 -0.2533
  469TMC3     H 6984   1.702   1.490  11.015  0.5895  0.9104  1.1822
  469TMC3    H1 6985   1.497   1.809  10.808  0.2536 -0.6059 -0.8199
  469TMC3    H2 6986   1.922   1.817  10.851  0.4847  0.6348  1.9486
  469TMC3    C7 6987   1.721   1.944  10.746 -0.0052  0.6592 -0.2284
  469TMC3    C8 6988   1.931   1.588  11.003 -0.4014 -0.3262 -0.3411
  469TMC3    O1 6989   1.833   1.983  10.710 -0.6901  0.4196  0.1492
  469TMC3    O2 6990   1.921   1.466  11.009 -0.6260 -0.0881  0.0667
  470TMC3    C1 6991   3.210   2.826   0.731  0.1046 -0.1247  0.3382
  470TMC3    C2 6992   3.265   2.941   0.772  0.3873 -0.3543  0.1687
  470TMC3    C3 6993   3.257   2.973   0.907  0.3425 -0.3159  0.4916
  470TMC3    C4 6994   3.138   2.742   0.816  0.2615  0.8413 -0.3981
  470TMC3    C5 6995   3.130   2.783   0.948 -0.4432 -0.9830 -0.3876
  470TMC3    C6 6996   3.189   2.895   0.997  0.6238 -0.2512  0.2903
  470TMC3     C 6997   3.206   2.802   0.589 -0.2769  0.2455 -0.0785
  470TMC3     O 6998   3.294   2.864   0.529 -0.5328 -0.5161 -0.2851
  470TMC3     H 6999   3.282   3.018   0.698  0.4633  1.5861  2.2007
  470TMC3    H1 7000   3.119   2.641   0.782  0.2479  0.9659 -0.7680
  470TMC3    H2 7001   3.190   2.919   1.103 -1.4212  1.1418 -0.0215
  470TMC3    C7 7002   3.058   2.704   1.036  0.1025 -0.8025 -0.2036
  470TMC3    C8 7003   3.317   3.093   0.949 -0.1347  0.5280  0.7434
  470TMC3    O1 7004   3.083   2.715   1.157  0.0691 -0.1486 -0.0546
  470TMC3    O2 7005   3.280   3.139   1.059 -0.6792  0.4157  0.6887
  471MPD2     C 7006   4.448   4.086  16.511 -0.1037  0.6537 -0.0229
  471MPD2    C1 7007   4.451   3.948  16.518 -0.8759 -0.0442 -0.0760
  471MPD2    C2 7008   4.504   3.894  16.632 -0.5906  0.7130  0.0669
  471MPD2    C3 7009   4.532   3.969  16.742  0.3618 -0.4999 -0.1793
  471MPD2    C4 7010   4.501   4.103  16.743 -0.3898 -0.3381 -0.3422
  471MPD2    C5 7011   4.455   4.163  16.626  0.0496 -0.1160 -0.3390
  471MPD2     H 7012   4.512   3.787  16.643 -2.6854  0.7035  1.4597
  471MPD2    H1 7013   4.514   4.159  16.835 -0.7764 -1.1113  0.1846
  471MPD2    H2 7014   4.414   4.140  16.423 -2.3152 -0.6346  0.0422
  471MPD2    H3 7015   4.430   4.268  16.611 -1.7355 -0.7644 -1.8759
  471MPD2     N 7016   4.579   3.906  16.863  0.0489  0.0354 -1.0544
  471MPD2    H5 7017   4.560   3.950  16.952 -4.0531 -0.0529 -1.8953
  471MPD2    N1 7018   4.402   3.863  16.411  0.0646 -0.1835 -0.2245
  471MPD2    H7 7019   4.407   3.764  16.434 -0.3376 -0.0457  0.4690
  472TMC3    C1 7020   4.317   3.802  16.188 -0.1309  0.2235 -0.1311
  472TMC3    C2 7021   4.257   3.850  16.069 -0.2758  0.2314  0.7695
  472TMC3    C3 7022   4.216   3.759  15.977 -0.3271 -0.2175  0.1846
  472TMC3    C4 7023   4.343   3.666  16.208  0.2456 -0.1948  0.6802
  472TMC3    C5 7024   4.295   3.571  16.117  0.0778 -0.4549 -0.2155
  472TMC3    C6 7025   4.227   3.620  16.007  0.1133 -0.3087  0.2299
  472TMC3     C 7026   4.338   3.902  16.299 -0.0674 -0.7389 -0.4308
  472TMC3     O 7027   4.280   4.007  16.276 -0.2977  0.4349 -0.2624
  472TMC3     H 7028   4.220   3.952  16.060 -1.7466 -0.3117  0.6748
  472TMC3    H1 7029   4.369   3.628  16.306 -0.4735  1.1923  1.4078
  472TMC3    H2 7030   4.207   3.549  15.928  0.0046  0.5968 -0.5620
  472TMC3    C7 7031   4.251   3.442  16.178 -0.1088 -0.7495 -0.8485
  472TMC3    C8 7032   4.078   3.795  15.935  0.1400  0.3894  0.5984
  472TMC3    O1 7033   4.299   3.414  16.287 -0.1099 -0.2018 -0.1592
  472TMC3    O2 7034   4.055   3.888  15.860  0.7550  0.2067  0.1189
  473MPD2     C 7035   4.142   1.012  13.775  0.4508 -0.7265 -0.3120
  473MPD2    C1 7036   4.069   1.113  13.723 -0.5485  0.2838 -0.0950
  473MPD2    C2 7037   4.023   1.220  13.799 -0.1842 -0.4904  0.7852
  473MPD2    C3 7038   4.047   1.223  13.931 -0.2560 -0.4387  0.6137
  473MPD2    C4 7039   4.117   1.121  13.987  0.2091  0.1850  0.1468
  473MPD2    C5 7040   4.166   1.018  13.910 -0.5666  0.4903 -1.2650
  473MPD2     H 7041   3.953   1.288  13.751  0.4278 -1.0166 -0.8725
  473MPD2    H1 7042   4.148   1.118  14.091 -0.4933 -1.3379  0.3026
  473MPD2    H2 7043   4.183   0.927  13.721 -1.6275 -1.2822 -1.0148
  473MPD2    H3 7044   4.227   0.945  13.962 -0.8360 -0.7310 -2.6551
  473MPD2     N 7045   3.995   1.322  14.029 -0.4475  0.2298 -0.0146
  473MPD2    H5 7046   4.022   1.304  14.125  0.9987  1.3257 -0.2177
  473MPD2    N1 7047   4.040   1.105  13.587 -0.5754  0.2022  0.3244
  473MPD2    H7 7048   4.070   1.016  13.550 -1.2676 -1.2832  3.3092
  474TMC3    C1 7049   3.960   1.547  14.106  0.5720 -0.5232 -0.3568
  474TMC3    C2 7050   3.926   1.674  14.090 -0.7686  1.0795  0.5424
  474TMC3    C3 7051   3.961   1.767  14.190  0.3737 -0.0819 -0.8688
  474TMC3    C4 7052   4.044   1.519  14.210 -0.2765 -0.4757  0.5469
  474TMC3    C5 7053   4.079   1.614  14.307  0.0320 -0.0648 -0.2774
  474TMC3    C6 7054   4.034   1.737  14.305 -0.7163 -0.0458 -0.1347
  474TMC3     C 7055   3.943   1.446  13.996 -0.6726  0.0968  0.2712
  474TMC3     O 7056   3.906   1.489  13.882  0.7928 -0.7985  0.1282
  474TMC3     H 7057   3.858   1.707  14.013 -1.6628 -1.2742  0.3455
  474TMC3    H1 7058   4.089   1.422  14.227  0.2647  0.1243  2.5471
  474TMC3    H2 7059   4.042   1.795  14.397 -2.0167 -2.7630  1.7043
  474TMC3    C7 7060   4.141   1.564  14.428  0.2639 -0.4981  0.2840
  474TMC3    C8 7061   3.863   1.873  14.186  0.1258  0.2421  0.5078
  474TMC3    O1 7062   4.155   1.443  14.452 -0.2097 -0.2580  0.3466
  474TMC3    O2 7063   3.744   1.851  14.162 -0.3987 -0.1763 -0.2775
  475MPD2     C 7064   3.227   0.202  10.766 -0.1933 -0.0647  0.0235
  475MPD2    C1 7065   3.217   0.112  10.662 -0.0117  0.6145  0.1636
  475MPD2    C2 7066   3.094   0.058  10.636  0.5470 -0.6758  0.8733
  475MPD2    C3 7067   2.980   0.089  10.707 -0.2962  0.7306 -0.0115
  475MPD2    C4 7068   2.990   0.195  10.794 -0.7537 -0.0812 -0.6903
  475MPD2    C5 7069   3.111   0.248  10.819  0.6270 -0.6514  0.5906
  475MPD2     H 7070   3.083   4.713  10.557  1.5382  0.9307 -0.7391
  475MPD2    H1 7071   2.903   0.232  10.848  0.9168  2.6916  0.1252
  475MPD2    H2 7072   3.321   0.232  10.810 -0.6964  1.9552 -0.2725
  475MPD2    H3 7073   3.119   0.324  10.895 -1.5743  1.0466 -0.8916
  475MPD2     N 7074   2.865   0.016  10.684  0.2361  0.1398  0.6180
  475MPD2    H5 7075   2.875   4.674  10.612  0.7026 -0.8270  1.6155
  475MPD2    N1 7076   3.331   0.073  10.583 -0.7891 -0.7740  0.3329
  475MPD2    H7 7077   3.421   0.096  10.625 -0.5729 -0.2785 -0.4015
  476TMC3    C1 7078   3.413   4.610  10.472 -0.2524 -1.0513 -0.0343
  476TMC3    C2 7079   3.435   4.555  10.348 -0.0952  0.2403 -0.4481
  476TMC3    C3 7080   3.436   4.418  10.330  1.0217  0.1526 -0.1586
  476TMC3    C4 7081   3.377   4.533  10.580  0.2415  0.4366 -0.3419
  476TMC3    C5 7082   3.354   4.400  10.547 -0.0124  0.0872 -0.1107
  476TMC3    C6 7083   3.382   4.336  10.428  0.7685 -0.0437 -0.0339
  476TMC3     C 7084   3.324   4.727  10.466 -0.0687 -0.1310 -0.6111
  476TMC3     O 7085   3.241   0.001  10.374 -0.5534 -0.2953  0.5972
  476TMC3     H 7086   3.476   4.618  10.271 -1.2776 -0.0901 -1.3395
  476TMC3    H1 7087   3.359   4.579  10.676  0.3840 -0.9256  0.3445
  476TMC3    H2 7088   3.377   4.228  10.419 -0.5698  0.0328 -0.1571
  476TMC3    C7 7089   3.234   4.335  10.606  0.1701 -0.3135 -0.2158
  476TMC3    C8 7090   3.541   4.360  10.246 -0.3778 -0.0613 -0.7005
  476TMC3    O1 7091   3.192   4.231  10.558  0.2377  0.3837  0.5188
  476TMC3    O2 7092   3.630   4.437  10.225 -0.0704  0.1186 -0.4966
  477MPD2     C 7093   0.473   0.956  11.563  0.4520 -0.3114  0.2109
  477MPD2    C1 7094   0.357   0.910  11.620 -0.6414 -0.0759  0.0969
  477MPD2    C2 7095   0.368   0.836  11.741 -0.5027  0.9965 -0.1107
  477MPD2    C3 7096   0.491   0.790  11.784 -0.4947  0.1610  0.1117
  477MPD2    C4 7097   0.604   0.843  11.733  0.3876 -0.0975 -0.4482
  477MPD2    C5 7098   0.592   0.931  11.624 -0.0556 -0.2850  0.0582
  477MPD2     H 7099   0.278   0.784  11.774  0.1799 -1.2092 -1.6768
  477MPD2    H1 7100   0.703   0.815  11.767  0.5177  0.6655 -0.1940
  477MPD2    H2 7101   0.469   1.019  11.475 -0.4517 -1.5306 -0.6278
  477MPD2    H3 7102   0.681   0.977  11.584  0.6123 -2.0652 -0.4744
  477MPD2     N 7103   0.488   0.688  11.874 -0.3708 -0.0976 -0.2257
  477MPD2    H5 7104   0.402   0.674  11.926  1.0261 -2.3635  1.4781
  477MPD2    N1 7105   0.235   0.932  11.544  0.1737  0.5130 -0.0525
  477MPD2    H7 7106   0.242   0.962  11.447  3.3752 -1.8778 -0.5546
  478TMC3    C1 7107   0.001   0.952  11.512  0.0545  0.0312 -0.2024
  478TMC3    C2 7108   4.630   1.016  11.566 -0.0179 -0.5875 -0.5422
  478TMC3    C3 7109   4.539   1.084  11.485  0.7009 -1.3290 -0.1400
  478TMC3    C4 7110   0.009   0.938  11.380 -0.1453  0.1232 -0.2043
  478TMC3    C5 7111   4.635   0.989  11.301  0.1381  0.3330 -0.0342
  478TMC3    C6 7112   4.536   1.072  11.351  0.1308  0.3974 -0.0512
  478TMC3     C 7113   0.107   0.910  11.604 -0.3855 -0.0792  0.2022
  478TMC3     O 7114   0.082   0.887  11.719 -1.0332  0.2591  0.1142
  478TMC3     H 7115   4.624   1.032  11.673 -0.4091 -2.0191 -0.3495
  478TMC3    H1 7116   0.090   0.882  11.336 -0.2316  0.0203 -0.2319
  478TMC3    H2 7117   4.469   1.134  11.292  1.4660  0.2898 -1.7138
  478TMC3    C7 7118   4.636   0.935  11.161  0.1173 -0.1289  0.6198
  478TMC3    C8 7119   4.513   1.217  11.549 -0.1923 -0.1035  0.2910
  478TMC3    O1 7120   4.722   0.847  11.141 -0.3971  0.3727 -0.2597
  478TMC3    O2 7121   4.487   1.208  11.666 -0.6096 -0.3768 -0.7941
  479MPD2     C 7122   3.654   3.310  14.789 -0.2309  0.0516  0.4620
  479MPD2    C1 7123   3.619   3.302  14.925  0.2774 -0.4254 -0.0420
  479MPD2    C2 7124   3.707   3.355  15.024 -0.0132 -0.2554  0.4511
  479MPD2    C3 7125   3.816   3.434  14.989  0.1126 -0.4218  0.6674
  479MPD2    C4 7126   3.842   3.442  14.852 -0.4312  0.0491 -0.1714
  479MPD2    C5 7127   3.762   3.382  14.756  0.2214  0.1217  1.3045
  479MPD2     H 7128   3.698   3.332  15.129  1.3996  3.1136  1.2998
  479MPD2    H1 7129   3.933   3.484  14.811  0.8053 -1.0159  1.4533
  479MPD2    H2 7130   3.580   3.272  14.719  0.7646  1.6632 -1.4564
  479MPD2    H3 7131   3.800   3.374  14.655 -2.3162 -0.9416  0.4266
  479MPD2     N 7132   3.890   3.505  15.091  0.0650  0.6114  0.6337
  479MPD2    H5 7133   3.964   3.565  15.055  1.3312 -1.4564 -0.2331
  479MPD2    N1 7134   3.494   3.244  14.961 -0.0733  0.6716  0.5806
  479MPD2    H7 7135   3.438   3.209  14.884  1.6854 -0.2950 -0.2812
  480TMC3    C1 7136   3.623   3.427  15.474  0.2571 -0.2778  0.0211
  480TMC3    C2 7137   3.516   3.502  15.435  0.0945 -0.0259 -0.3544
  480TMC3    C3 7138   3.516   3.576  15.313 -0.2587  0.7626  0.2136
  480TMC3    C4 7139   3.733   3.436  15.398 -0.4230 -0.4245  0.4885
  480TMC3    C5 7140   3.736   3.506  15.284  0.0656  0.5086  0.4226
  480TMC3    C6 7141   3.632   3.585  15.239 -0.2181 -0.6099 -0.1218
  480TMC3     C 7142   3.605   3.316  15.570  0.5912  0.0796 -0.1228
  480TMC3     O 7143   3.673   3.217  15.558 -0.4201  0.0803 -0.7227
  480TMC3     H 7144   3.420   3.482  15.481  1.5721 -0.5532  2.5081
  480TMC3    H1 7145   3.820   3.383  15.436  0.3825 -0.6914 -1.7215
  480TMC3    H2 7146   3.647   3.635  15.144 -0.8353 -1.9685 -0.9278
  480TMC3    C7 7147   3.874   3.518  15.233 -0.0015 -0.0421 -0.7228
  480TMC3    C8 7148   3.381   3.601  15.254  0.6520  0.7380 -0.0649
  480TMC3    O1 7149   3.963   3.544  15.313  0.0546 -0.5439  0.2715
  480TMC3    O2 7150   3.282   3.616  15.327  0.2336  0.2999  0.3533
  481MPD2     C 7151   0.628   2.290  14.029 -0.8529 -0.4242 -0.1565
  481MPD2    C1 7152   0.530   2.382  14.035  0.3677 -0.1324 -0.0825
  481MPD2    C2 7153   0.521   2.461  14.147 -0.7132  0.2799  0.6018
  481MPD2    C3 7154   0.608   2.449  14.255 -0.1089 -0.1771  0.5668
  481MPD2    C4 7155   0.719   2.364  14.237 -0.2436 -0.1434 -0.3279
  481MPD2    C5 7156   0.731   2.295  14.123 -0.1782 -0.2944  0.1143
  481MPD2     H 7157   0.450   2.541  14.165 -2.4125 -0.4896 -2.8147
  481MPD2    H1 7158   0.794   2.353  14.313 -0.1518  0.1870 -0.3701
  481MPD2    H2 7159   0.640   2.227  13.942  2.6155 -0.8249  0.6328
  481MPD2    H3 7160   0.823   2.237  14.123 -0.7352 -1.1655  2.5161
  481MPD2     N 7161   0.606   2.517  14.379 -0.2397  0.0152 -0.0887
  481MPD2    H5 7162   0.672   2.492  14.452 -0.5624  2.8645  1.1709
  481MPD2    N1 7163   0.436   2.384  13.932  0.1034  0.1083  0.6132
  481MPD2    H7 7164   0.451   2.324  13.851  0.9768  1.8567 -0.5028
  482TMC3    C1 7165   0.261   2.485  13.801  0.0567  0.5569 -0.4215
  482TMC3    C2 7166   0.313   2.417  13.695 -0.2536  0.2808  0.1660
  482TMC3    C3 7167   0.260   2.440  13.574  0.4555 -0.4227 -0.1485
  482TMC3    C4 7168   0.153   2.567  13.789 -0.0420 -0.6411 -0.0496
  482TMC3    C5 7169   0.093   2.573  13.663  0.9337  0.9967 -0.1237
  482TMC3    C6 7170   0.144   2.512  13.550  0.1356 -0.3802  0.4894
  482TMC3     C 7171   0.326   2.472  13.929 -0.5213  0.1878 -0.2625
  482TMC3     O 7172   0.277   2.539  14.021 -0.5208 -0.5677 -0.3049
  482TMC3     H 7173   0.414   2.380  13.700  0.2510  1.7725  0.9449
  482TMC3    H1 7174   0.111   2.630  13.867 -0.1166  0.5854 -1.0851
  482TMC3    H2 7175   0.095   2.524  13.454 -2.7722 -1.3989  1.8443
  482TMC3    C7 7176   0.003   2.682  13.647 -0.1074 -0.3078  0.2734
  482TMC3    C8 7177   0.316   2.366  13.464 -0.8260  0.5683  0.0927
  482TMC3    O1 7178   0.020   2.766  13.732  0.6010  0.2405  0.0869
  482TMC3    O2 7179   0.391   2.273  13.487  1.1422 -0.2822  0.4307
  483TMC3    C1 7180   3.081   2.036   0.951  0.1141 -0.3067 -0.0074
  483TMC3    C2 7181   3.091   2.154   1.016 -0.6849  0.1574  0.2027
  483TMC3    C3 7182   3.181   2.157   1.123  0.0922  0.2126 -0.0381
  483TMC3    C4 7183   3.172   1.937   0.981  0.3093  0.1427  0.2344
  483TMC3    C5 7184   3.255   1.949   1.082 -0.2916  0.6377  0.7926
  483TMC3    C6 7185   3.265   2.057   1.160 -0.2708 -0.3306 -0.9118
  483TMC3     C 7186   3.047   2.062   0.812  0.0147  0.2905  0.0528
  483TMC3     O 7187   3.058   2.176   0.764  0.0394  0.1711 -0.1778
  483TMC3     H 7188   3.026   2.238   0.999 -1.5583 -0.8456 -1.3796
  483TMC3    H1 7189   3.181   1.847   0.922 -0.6702  0.1547  0.0534
  483TMC3    H2 7190   3.329   2.071   1.246 -1.4491  1.3329 -0.3087
  483TMC3    C7 7191   3.342   1.834   1.104  0.1386 -0.7044 -0.0399
  483TMC3    C8 7192   3.236   2.291   1.138 -0.0122 -0.6188  0.0511
  483TMC3    O1 7193   3.296   1.726   1.064 -0.1616 -0.3826  0.4330
  483TMC3    O2 7194   3.289   2.318   1.241  0.4438 -0.0802 -0.2431
  484MPD2     C 7195   0.727   0.092  12.382  0.3711 -0.2695 -0.2617
  484MPD2    C1 7196   0.769   0.011  12.482  0.4517  0.1625  0.0887
  484MPD2    C2 7197   0.885   0.039  12.555 -0.1457 -0.1784  0.5721
  484MPD2    C3 7198   0.960   0.154  12.517  0.0623  0.1543  0.6420
  484MPD2    C4 7199   0.905   0.240  12.429 -0.5983  0.5437  0.1437
  484MPD2    C5 7200   0.791   0.210  12.363 -0.0261 -0.9040 -0.0608
  484MPD2     H 7201   0.921   4.709  12.639  1.7292 -0.0789 -0.1773
  484MPD2    H1 7202   0.934   0.343  12.418 -1.3911  0.7429 -0.0522
  484MPD2    H2 7203   0.636   0.069  12.327  0.4522 -0.5895 -0.2646
  484MPD2    H3 7204   0.759   0.277  12.284 -0.9104 -0.2777  0.8216
  484MPD2     N 7205   1.082   0.189  12.573  0.2918 -0.0889  0.2792
  484MPD2    H5 7206   1.118   0.282  12.556  2.7778 -1.1161 -0.1888
  484MPD2    N1 7207   0.689   4.619  12.507 -0.0224  0.1755 -0.0113
  484MPD2    H7 7208   0.626   4.584  12.436  1.4331  0.9508 -1.6792
  485TMC3    C1 7209   1.267   0.168  12.715 -0.3221 -0.4777  0.2100
  485TMC3    C2 7210   1.317   0.094  12.819 -0.1775 -0.1762  0.2025
  485TMC3    C3 7211   1.433   0.143  12.880 -0.1126 -0.3970  0.4960
  485TMC3    C4 7212   1.328   0.268  12.650 -0.1412 -0.3901  0.4000
  485TMC3    C5 7213   1.445   0.306  12.709  0.7924  0.4017 -0.0475
  485TMC3    C6 7214   1.487   0.254  12.831 -0.4805  0.6359 -0.2114
  485TMC3     C 7215   1.155   0.103  12.650 -0.1071  0.3006 -0.1676
  485TMC3     O 7216   1.143   4.708  12.665 -0.2962 -0.2249 -0.1730
  485TMC3     H 7217   1.252   0.018  12.860 -0.8402  0.7670  0.9047
  485TMC3    H1 7218   1.290   0.325  12.565 -1.0123  1.0201  1.7481
  485TMC3    H2 7219   1.570   0.297  12.887  1.2362 -2.5109 -0.3310
  485TMC3    C7 7220   1.547   0.320  12.611 -0.6031  0.0372  0.2556
  485TMC3    C8 7221   1.529   0.047  12.925  0.3235 -0.1193  0.1647
  485TMC3    O1 7222   1.511   0.356  12.498 -0.2273 -0.3532  0.0403
  485TMC3    O2 7223   1.645   0.085  12.912 -0.0223  0.0422 -0.0553
  486MPD2     C 7224   3.277   3.268  12.503  0.4224 -0.5668  0.8591
  486MPD2    C1 7225   3.154   3.239  12.450 -0.1163  0.1129  0.4013
  486MPD2    C2 7226   3.068   3.342  12.422  0.6317 -0.1115  0.1641
  486MPD2    C3 7227   3.103   3.472  12.437  0.2707  0.2361 -0.1117
  486MPD2    C4 7228   3.226   3.502  12.496 -0.5408  0.7894 -0.3158
  486MPD2    C5 7229   3.310   3.398  12.527  0.5598 -0.0363 -0.0948
  486MPD2     H 7230   2.972   3.309  12.385 -0.2068  2.3610  0.1014
  486MPD2    H1 7231   3.265   3.603  12.485  2.4527 -0.4045 -0.7885
  486MPD2    H2 7232   3.361   3.202  12.522  1.2607  0.1028 -0.5286
  486MPD2    H3 7233   3.415   3.411  12.553  0.3910  0.1244  0.5152
  486MPD2     N 7234   3.004   3.561  12.383 -0.4777 -0.7885 -0.1464
  486MPD2    H5 7235   2.926   3.527  12.327 -1.5905  0.0013  0.9109
  486MPD2    N1 7236   3.123   3.104  12.427 -0.2694 -0.5930  0.1261
  486MPD2    H7 7237   3.198   3.043  12.458  1.1399  1.4620  0.7418
  487TMC3    C1 7238   3.026   2.896  12.366 -0.3482  0.2427 -1.2044
  487TMC3    C2 7239   2.939   2.824  12.285 -0.3445 -0.4668  0.3221
  487TMC3    C3 7240   2.934   2.680  12.300  0.0713  0.1870  0.3282
  487TMC3    C4 7241   3.128   2.837  12.432  0.2089 -0.0258 -0.0096
  487TMC3    C5 7242   3.130   2.695  12.438  0.5563  0.6775  0.4222
  487TMC3    C6 7243   3.034   2.614  12.365 -1.1108 -0.2134  0.7011
  487TMC3     C 7244   3.013   3.041  12.366 -0.1032  0.1224  0.3632
  487TMC3     O 7245   2.913   3.093  12.322  0.4841  0.4510  0.2373
  487TMC3     H 7246   2.859   2.870  12.229 -0.2576 -2.3728 -1.3736
  487TMC3    H1 7247   3.181   2.886  12.512  0.9583  1.6509 -1.5308
  487TMC3    H2 7248   3.017   2.509  12.385  1.9103 -0.9152 -0.3627
  487TMC3    C7 7249   3.228   2.630  12.523 -0.3734  0.2554 -0.9016
  487TMC3    C8 7250   2.849   2.626  12.195 -0.1173 -0.9597 -0.7935
  487TMC3    O1 7251   3.213   2.508  12.540 -0.5282 -0.8567  0.2574
  487TMC3    O2 7252   2.878   2.659  12.078  0.1298 -0.1557  0.6483
  488MPD2     C 7253   2.898   0.431  16.149  0.9297  0.6138 -0.2429
  488MPD2    C1 7254   3.004   0.460  16.229 -0.0901 -0.1887  0.0271
  488MPD2    C2 7255   3.003   0.440  16.366 -0.3837 -0.0772  0.9691
  488MPD2    C3 7256   2.886   0.397  16.427  0.2904 -0.0325  0.3856
  488MPD2    C4 7257   2.787   0.357  16.346  0.4851 -0.4674 -0.7541
  488MPD2    C5 7258   2.789   0.378  16.211 -0.4125 -0.0466  0.3673
  488MPD2     H 7259   3.094   0.448  16.423  0.7270 -1.3613 -0.6286
  488MPD2    H1 7260   2.707   0.304  16.396 -0.2348  2.4450  1.2094
  488MPD2    H2 7261   2.882   0.450  16.044  0.4905  1.9331  0.0713
  488MPD2    H3 7262   2.701   0.348  16.155 -0.0757  0.8345 -0.6315
  488MPD2     N 7263   2.885   0.389  16.569 -0.2880 -0.1959 -0.2582
  488MPD2    H5 7264   2.973   0.399  16.619 -0.5729  1.0992 -0.0009
  488MPD2    N1 7265   3.118   0.518  16.176  0.0023 -0.0915  0.6032
  488MPD2    H7 7266   3.187   0.551  16.243  0.2711  0.0922  0.2381
  489TMC3    C1 7267   2.817   0.382  16.787 -0.2528  0.3863 -0.4357
  489TMC3    C2 7268   2.884   0.489  16.843  0.7172  0.2411  0.2919
  489TMC3    C3 7269   2.915   0.487  16.976 -0.4002 -0.2694  0.0763
  489TMC3    C4 7270   2.772   0.280  16.870 -0.7654 -0.4924 -0.2820
  489TMC3    C5 7271   2.832   0.269  16.992 -0.1783 -0.7693  0.0697
  489TMC3    C6 7272   2.893   0.376  17.048  0.0733  0.4733  0.5419
  489TMC3     C 7273   2.776   0.378  16.647 -0.4800 -0.6952  1.1680
  489TMC3     O 7274   2.662   0.366  16.615 -0.1992 -0.1880 -0.1473
  489TMC3     H 7275   2.902   0.584  16.794  1.8443  0.3147  0.8498
  489TMC3    H1 7276   2.734   0.189  16.824 -0.5552 -0.8962  0.3461
  489TMC3    H2 7277   2.897   0.387  17.156  1.3883 -0.1183  0.5553
  489TMC3    C7 7278   2.793   0.168  17.085  0.4684  0.1766 -0.0676
  489TMC3    C8 7279   3.021   0.575  17.027 -0.2312 -0.5576 -0.4106
  489TMC3    O1 7280   2.854   0.167  17.188  0.4929  0.3546 -0.3277
  489TMC3    O2 7281   3.028   0.695  17.009 -0.5050  0.3545  0.5745
  490MPD2     C 7282   4.168   0.123   0.313 -0.0378  0.1050  0.0508
  490MPD2    C1 7283   4.168   0.089   0.176 -0.0665 -0.4187  0.3906
  490MPD2    C2 7284   4.276   0.027   0.122  0.2487 -0.1001 -0.2541
  490MPD2    C3 7285   4.372   4.711   0.207 -0.4307 -0.4932 -0.0674
  490MPD2    C4 7286   4.377   0.026   0.335 -0.4176  0.7878  0.4427
  490MPD2    C5 7287   4.283   0.104   0.387  0.3491  0.2822  0.5559
  490MPD2     H 7288   4.278   0.013   0.015 -2.5171 -0.7393 -0.2347
  490MPD2    H1 7289   4.459   4.725   0.400 -3.4611 -1.3120  3.3443
  490MPD2    H2 7290   4.088   0.181   0.359  0.1202 -0.4434  1.0023
  490MPD2    H3 7291   4.283   0.134   0.491  0.2865 -0.0257  0.6435
  490MPD2     N 7292   4.487   4.636   0.171 -0.1625 -0.0739  0.4828
  490MPD2    H5 7293   4.560   4.619   0.240  1.8055 -1.8340 -2.0461
  490MPD2    N1 7294   4.070   0.133   0.086 -0.4843  0.5324  0.0405
  490MPD2    H7 7295   4.084   0.120  17.697  0.9737  1.1757  0.1647
  491TMC3    C1 7296   3.857   0.145   0.005  0.4179 -1.1949  0.0775
  491TMC3    C2 7297   3.774   0.040   0.038 -0.3122  0.1828 -0.3787
  491TMC3    C3 7298   3.729   4.681  17.651 -0.0732  0.1987 -0.2619
  491TMC3    C4 7299   3.892   0.166  17.589  0.0081 -0.7330  0.4917
  491TMC3    C5 7300   3.856   0.072  17.491  0.3536  0.0512  0.5443
  491TMC3    C6 7301   3.772   4.698  17.516  0.4471 -0.3261 -0.1352
  491TMC3     C 7302   3.944   0.176   0.113  0.1244  0.6726  0.8072
  491TMC3     O 7303   3.887   0.179   0.220  0.1167  0.5963 -0.5128
  491TMC3     H 7304   3.737   0.024   0.138  0.0181 -1.7746 -0.5669
  491TMC3    H1 7305   3.953   0.251  17.560 -0.1030 -1.0896 -0.7834
  491TMC3    H2 7306   3.746   4.626  17.438  0.7691  2.0357 -2.4266
  491TMC3    C7 7307   3.922   0.087  17.364 -0.3264  0.8963  0.6626
  491TMC3    C8 7308   3.613   4.602  17.691  0.4609 -1.0234 -0.0445
  491TMC3    O1 7309   3.973   0.195  17.337 -0.2722  0.0233 -0.6007
  491TMC3    O2 7310   3.603   4.573   0.101  0.3466 -0.4306 -1.1347
  492MPD2     C 7311   0.051   4.409  11.837 -0.2921 -0.2452  1.3668
  492MPD2    C1 7312   4.717   4.340  11.733  0.2223 -0.1541 -0.1151
  492MPD2    C2 7313   4.605   4.271  11.761 -0.1388  0.5767 -0.5697
  492MPD2    C3 7314   4.560   4.263  11.896 -0.2662  0.1083 -0.6477
  492MPD2    C4 7315   4.626   4.334  11.994 -0.0001 -0.2259 -0.2182
  492MPD2    C5 7316   0.008   4.406  11.965  0.1779 -0.6419 -0.3536
  492MPD2     H 7317   4.546   4.234  11.678  2.8181 -1.9667 -1.4894
  492MPD2    H1 7318   4.601   4.315  12.098 -1.5331  0.7013 -0.4138
  492MPD2    H2 7319   0.143   4.459  11.811  1.3328 -3.2940  1.2224
  492MPD2    H3 7320   0.063   4.452  12.046  1.5287  0.0031 -1.6446
  492MPD2     N 7321   4.448   4.186  11.933 -0.3058  0.8459  0.1033
  492MPD2    H5 7322   4.444   4.165  12.032 -2.4736  0.9925  0.0442
  492MPD2    N1 7323   0.042   4.362  11.602  0.4120 -0.4092 -0.2155
  492MPD2    H7 7324   0.130   4.411  11.595  0.8924 -1.3582 -0.7931
  493TMC3    C1 7325   0.067   4.339  11.364  0.7447  0.5874  0.6346
  493TMC3    C2 7326   0.109   4.463  11.341 -0.6515  0.5401 -0.3260
  493TMC3    C3 7327   0.125   4.504  11.211 -0.3040  0.0225  0.3917
  493TMC3    C4 7328   0.028   4.263  11.259  0.1010 -0.5152 -0.5382
  493TMC3    C5 7329   0.039   4.310  11.136  0.0784 -0.1523 -1.1343
  493TMC3    C6 7330   0.099   4.428  11.098 -0.2099  0.4453 -0.3032
  493TMC3     C 7331   4.713   4.313  11.484 -0.4754  0.8313  0.1370
  493TMC3     O 7332   4.615   4.239  11.474  0.2292  0.0725 -0.4304
  493TMC3     H 7333   0.122   4.524  11.430  1.4939 -2.0042  1.0992
  493TMC3    H1 7334   4.694   4.175  11.276  0.2087 -0.8757 -2.0013
  493TMC3    H2 7335   0.096   4.460  10.994  2.0521  0.8505 -0.2464
  493TMC3    C7 7336   4.675   4.251  11.033 -0.2165 -0.2240  1.0098
  493TMC3    C8 7337   0.171   4.647  11.196  0.3109  0.2896  0.4514
  493TMC3    O1 7338   4.602   4.323  10.966  0.0776  0.0275 -0.6509
  493TMC3    O2 7339   0.186   4.706  11.304 -0.3679 -0.0647  0.3968
  494TMC3    C1 7340   0.001   1.793   0.569 -0.7720  0.3714 -0.6450
  494TMC3    C2 7341   4.699   1.664   0.560  0.3818  0.4706 -0.3110
  494TMC3    C3 7342   0.010   1.586   0.453 -0.0445 -0.0052 -0.1277
  494TMC3    C4 7343   0.066   1.854   0.464  0.0007 -0.0820 -0.5219
  494TMC3    C5 7344   0.096   1.777   0.352  0.2010  0.3124  0.0620
  494TMC3    C6 7345   0.070   1.640   0.346 -0.1458  0.3081 -0.7424
  494TMC3     C 7346   4.688   1.874   0.680 -0.0499  0.8347  0.3367
  494TMC3     O 7347   4.679   1.822   0.793  0.3055  0.8497  0.5232
  494TMC3     H 7348   4.654   1.622   0.649 -0.5673  2.4513  0.1578
  494TMC3    H1 7349   0.112   1.952   0.468  0.7487 -0.4588  0.0240
  494TMC3    H2 7350   0.077   1.580   0.256 -0.3446 -0.3088 -0.3468
  494TMC3    C7 7351   0.165   1.822   0.236  0.2094 -0.6765  0.7640
  494TMC3    C8 7352   0.006   1.441   0.477 -0.1047  0.3255  0.1482
  494TMC3    O1 7353   0.210   1.738   0.159 -0.9406  0.1030 -0.2507
  494TMC3    O2 7354   4.656   1.408   0.566 -0.4322 -0.0443 -0.1053
  495TMC3    C1 7355   3.484   3.479  14.263 -0.8601  0.0838  0.2663
  495TMC3    C2 7356   3.376   3.502  14.181  0.5563 -0.6583 -0.5304
  495TMC3    C3 7357   3.256   3.529  14.243  0.1653 -0.3718 -0.3480
  495TMC3    C4 7358   3.483   3.510  14.397 -1.0435  0.1478 -0.1304
  495TMC3    C5 7359   3.365   3.546  14.455  0.1652 -0.0218 -0.1786
  495TMC3    C6 7360   3.253   3.556  14.379 -0.1753  0.0273 -0.2596
  495TMC3     C 7361   3.536   3.351  14.226 -0.4346 -0.1523  0.4482
  495TMC3     O 7362   3.486   3.304  14.123 -0.0561  0.0252  0.2063
  495TMC3     H 7363   3.375   3.483  14.074 -0.6947 -1.0023 -0.4519
  495TMC3    H1 7364   3.564   3.489  14.467 -0.2776 -1.4447 -1.4679
  495TMC3    H2 7365   3.153   3.576  14.416  0.6172  1.4243  1.1274
  495TMC3    C7 7366   3.361   3.575  14.600 -0.0288 -0.0714  0.2903
  495TMC3    C8 7367   3.143   3.452  14.206  0.0925  0.0206 -0.2802
  495TMC3    O1 7368   3.467   3.591  14.657  0.3083 -0.2205 -0.7070
  495TMC3    O2 7369   3.028   3.486  14.239 -0.2854 -0.4258  0.5912
  496MPD2     C 7370   0.615   3.177  14.891 -0.4378 -0.2752  0.3107
  496MPD2    C1 7371   0.668   3.143  15.015  0.5955 -0.4147 -0.4943
  496MPD2    C2 7372   0.590   3.174  15.128 -0.1618 -0.6041 -0.4946
  496MPD2    C3 7373   0.471   3.245  15.117  0.4497  0.3727  0.4854
  496MPD2    C4 7374   0.425   3.278  14.991  0.1774  0.2319  0.1530
  496MPD2    C5 7375   0.496   3.242  14.881 -0.3340 -0.5324 -0.8004
  496MPD2     H 7376   0.620   3.144  15.227 -0.0624 -0.7000 -0.5537
  496MPD2    H1 7377   0.327   3.323  14.984  0.9444  1.9020  0.3053
  496MPD2    H2 7378   0.659   3.166  14.793  1.7448  0.3427  1.2140
  496MPD2    H3 7379   0.464   3.275  14.783  1.2481  0.6462 -0.9144
  496MPD2     N 7380   0.386   3.272  15.222 -0.2356 -0.4935 -0.5311
  496MPD2    H5 7381   0.307   3.332  15.200  0.0303 -0.4035 -1.2401
  496MPD2    N1 7382   0.784   3.069  15.023  0.1966 -0.3046 -0.0035
  496MPD2    H7 7383   0.816   3.040  14.931 -2.1809 -0.6757 -0.7217
  497TMC3    C1 7384   0.302   3.311  15.438  0.0829 -0.0522 -0.3024
  497TMC3    C2 7385   0.173   3.315  15.396 -0.1639 -0.7067 -0.1167
  497TMC3    C3 7386   0.072   3.348  15.491  0.2474  0.3667  0.2470
  497TMC3    C4 7387   0.343   3.349  15.567  0.0727  0.5111  0.9371
  497TMC3    C5 7388   0.242   3.371  15.663  0.6862 -0.2579 -0.4588
  497TMC3    C6 7389   0.111   3.380  15.622 -0.0194  0.0470  0.0655
  497TMC3     C 7390   0.410   3.261  15.353  1.0447 -0.4925 -0.5554
  497TMC3     O 7391   0.513   3.225  15.408 -0.4724 -0.1279  0.6299
  497TMC3     H 7392   0.138   3.303  15.294 -3.7193 -0.4587  1.0927
  497TMC3    H1 7393   0.447   3.365  15.594  0.3070  2.6386 -1.2123
  497TMC3    H2 7394   0.044   3.404  15.704  0.0248  4.3511 -1.1515
  497TMC3    C7 7395   0.283   3.429  15.798 -0.0180 -0.3023 -0.1367
  497TMC3    C8 7396   4.671   3.389  15.444 -0.2782  1.0145  0.3220
  497TMC3    O1 7397   0.195   3.501  15.852 -0.8379 -0.4042 -0.4191
  497TMC3    O2 7398   4.655   3.398  15.322 -0.1154  0.7220  0.2230
  498MPD2     C 7399   3.575   3.513   9.755 -0.8556  0.4313 -0.3075
  498MPD2    C1 7400   3.531   3.639   9.710 -0.0314 -0.0249  0.4602
  498MPD2    C2 7401   3.406   3.653   9.662  0.0505  0.1200  0.6642
  498MPD2    C3 7402   3.310   3.552   9.657  0.0867 -0.4767  0.6177
  498MPD2    C4 7403   3.361   3.423   9.693  0.0325 -0.3001 -0.2503
  498MPD2    C5 7404   3.489   3.408   9.736  0.2336 -0.4002  0.4405
  498MPD2     H 7405   3.370   3.743   9.613 -0.5364 -0.3355  0.2529
  498MPD2    H1 7406   3.299   3.335   9.702 -1.1792  0.4190 -1.4350
  498MPD2    H2 7407   3.674   3.484   9.788  0.1513  2.5070 -1.5130
  498MPD2    H3 7408   3.523   3.309   9.761 -0.6165 -0.7214  0.3268
  498MPD2     N 7409   3.184   3.573   9.598 -0.2216  0.0885  0.4067
  498MPD2    H5 7410   3.161   3.668   9.572 -0.1329  0.3649  1.3492
  498MPD2    N1 7411   3.620   3.751   9.697  0.2143  0.0994 -0.2880
  498MPD2    H7 7412   3.571   3.840   9.700  0.7662  0.4312 -1.0750
  499TMC3    C1 7413   3.826   3.850   9.655  0.2191 -0.1875  1.1998
  499TMC3    C2 7414   3.961   3.828   9.629 -0.1929 -0.2616 -0.6165
  499TMC3    C3 7415   4.051   3.937   9.626 -0.5559  0.0059 -0.3477
  499TMC3    C4 7416   3.787   3.980   9.688 -0.5289  0.3741 -0.1800
  499TMC3    C5 7417   3.875   4.088   9.675  0.9341 -0.2898 -0.7232
  499TMC3    C6 7418   4.004   4.067   9.637  0.3443 -0.5102  0.3082
  499TMC3     C 7419   3.754   3.744   9.716 -0.0894  0.6587 -0.4493
  499TMC3     O 7420   3.824   3.657   9.762 -0.5176  0.2289 -0.1244
  499TMC3     H 7421   3.986   3.723   9.613 -1.8100 -1.1492  2.7351
  499TMC3    H1 7422   3.701   3.989   9.753 -0.2276 -1.1061  0.4158
  499TMC3    H2 7423   4.071   4.151   9.652  0.9836 -0.9316 -0.1688
  499TMC3    C7 7424   3.829   4.231   9.683  0.1484  0.5435  0.2742
  499TMC3    C8 7425   4.190   3.922   9.593 -0.4299  0.1915  0.8450
  499TMC3    O1 7426   3.904   4.314   9.627  0.0273  0.0722  0.1796
  499TMC3    O2 7427   4.251   4.027   9.587 -0.4068  0.4773 -0.3458
  500MPD2     C 7428   3.519   0.565  10.836 -0.2497  0.0881 -0.8856
  500MPD2    C1 7429   3.554   0.648  10.733  0.5972 -0.1301 -0.5000
  500MPD2    C2 7430   3.468   0.680  10.629 -0.0551 -0.2092  0.2674
  500MPD2    C3 7431   3.331   0.641  10.645  0.2185  0.2684  0.2030
  500MPD2    C4 7432   3.294   0.580  10.754 -0.3390  0.4529 -0.7416
  500MPD2    C5 7433   3.383   0.540  10.852 -0.0306 -0.7348  0.8249
  500MPD2     H 7434   3.510   0.734  10.545 -1.5701 -1.5796 -1.3754
  500MPD2    H1 7435   3.192   0.559  10.782  0.8018 -1.2547  2.1271
  500MPD2    H2 7436   3.589   0.530  10.911 -0.1521  1.4528 -0.3372
  500MPD2    H3 7437   3.354   0.479  10.937 -0.2468 -0.1126  1.1893
  500MPD2     N 7438   3.227   0.669  10.547 -0.1523  0.2837  0.0263
  500MPD2    H5 7439   3.137   0.626  10.565 -1.2056  1.8616 -1.4504
  500MPD2    N1 7440   3.691   0.690  10.719  0.1405 -0.7050  0.3434
  500MPD2    H7 7441   3.712   0.730  10.627  0.3322 -1.4655  0.0556
  501TMC3    C1 7442   3.921   0.718  10.768  0.2788 -0.1960  0.5420
  501TMC3    C2 7443   3.947   0.743  10.635  0.3955  0.5469 -0.1786
  501TMC3    C3 7444   4.071   0.792  10.599 -0.0561  0.2731  0.2226
  501TMC3    C4 7445   4.017   0.743  10.866  0.7782 -0.5982  0.5124
  501TMC3    C5 7446   4.142   0.784  10.824 -0.1843 -0.5149  0.0240
  501TMC3    C6 7447   4.168   0.808  10.693 -0.8392 -0.2783  0.7504
  501TMC3     C 7448   3.788   0.696  10.815 -0.0481  0.3648  0.0151
  501TMC3     O 7449   3.779   0.669  10.936 -0.5195 -0.2948  0.0857
  501TMC3     H 7450   3.863   0.729  10.568 -0.4098  2.6265  0.4032
  501TMC3    H1 7451   3.997   0.729  10.971 -1.4774  0.7964  0.2879
  501TMC3    H2 7452   4.268   0.844  10.671 -0.9014 -0.7386 -0.2839
  501TMC3    C7 7453   4.259   0.770  10.917 -0.6796  0.7968 -0.4480
  501TMC3    C8 7454   4.076   0.883  10.483 -0.1343 -0.0757  0.2024
  501TMC3    O1 7455   4.356   0.702  10.893 -0.3886  0.3213  0.1592
  501TMC3    O2 7456   4.177   0.948  10.472  0.0782 -0.0239  0.1151
  502TMC3    C1 7457   3.050   4.584  14.943  0.2393  0.2404 -0.0189
  502TMC3    C2 7458   2.975   4.686  14.913 -0.4257  0.8372  0.5172
  502TMC3    C3 7459   2.835   4.679  14.908  0.1274 -0.3243  0.1864
  502TMC3    C4 7460   2.986   4.468  14.974 -0.7844  0.3094 -0.1395
  502TMC3    C5 7461   2.850   4.465  14.988 -0.6834  0.8278  0.6898
  502TMC3    C6 7462   2.766   4.565  14.938 -0.0620 -0.9447  0.5052
  502TMC3     C 7463   3.157   4.619  15.032  0.2679 -0.3862  0.3057
  502TMC3     O 7464   3.208   4.728  15.016  0.4299 -0.3708  0.4620
  502TMC3     H 7465   3.019   0.054  14.887  1.8869 -0.1866  0.6930
  502TMC3    H1 7466   3.047   4.379  14.986 -1.1604  0.0423 -0.2146
  502TMC3    H2 7467   2.658   4.564  14.931  0.0329  0.6423 -1.2285
  502TMC3    C7 7468   2.808   4.369  15.094 -0.0605 -0.4013 -0.0146
  502TMC3    C8 7469   2.766   0.078  14.880  0.5390 -0.9619 -0.5593
  502TMC3    O1 7470   2.895   4.309  15.154  0.2742  0.0090 -0.0351
  502TMC3    O2 7471   2.820   0.167  14.813  0.4511  0.3538 -0.5935
  503MPD2     C 7472   0.043   0.398  16.690 -0.2427  0.1750 -0.3464
  503MPD2    C1 7473   0.107   0.425  16.813  0.7560 -0.4012  0.6208
  503MPD2    C2 7474   0.148   0.316  16.889  0.0756 -0.5564 -0.1270
  503MPD2    C3 7475   0.126   0.183  16.854 -0.0536  0.3657 -0.4938
  503MPD2    C4 7476   0.050   0.159  16.740  0.2593 -1.3760 -0.1160
  503MPD2    C5 7477   0.009   0.270  16.673 -0.4004 -0.3566 -0.4994
  503MPD2     H 7478   0.199   0.334  16.983 -0.0137 -1.6597  0.1251
  503MPD2    H1 7479   0.012   0.059  16.724  0.8836 -1.5954 -0.2212
  503MPD2    H2 7480   0.002   0.469  16.618 -0.1103 -0.0874 -0.6791
  503MPD2    H3 7481   4.687   0.238  16.582 -0.2597  1.8246 -1.3525
  503MPD2     N 7482   0.166   0.091  16.946  0.1554  0.0027 -0.8667
  503MPD2    H5 7483   0.227   0.120  17.021  1.5920 -1.6093 -1.4078
  503MPD2    N1 7484   0.138   0.558  16.860  1.2439 -0.7767 -0.1205
  503MPD2    H7 7485   0.177   0.558  16.954  0.1779 -0.3032  0.3144
  504TMC3    C1 7486   0.211   4.611  17.041  0.5396 -0.0790  0.2563
  504TMC3    C2 7487   0.207   4.658  17.171 -0.5297  0.1069 -0.5730
  504TMC3    C3 7488   0.292   4.596  17.259 -0.2714  0.0548 -0.1616
  504TMC3    C4 7489   0.291   4.510  17.003  0.0040 -0.1834 -0.6279
  504TMC3    C5 7490   0.362   4.442  17.095  0.1143 -0.0290  0.0162
  504TMC3    C6 7491   0.378   4.492  17.219  0.5810 -0.4470  0.3268
  504TMC3     C 7492   0.139   4.680  16.936 -0.7356 -0.0908  0.6974
  504TMC3     O 7493   0.109   4.620  16.833 -0.2895  0.1349 -0.3191
  504TMC3     H 7494   0.137   0.010  17.193 -0.7041  0.6946 -3.3710
  504TMC3    H1 7495   0.279   4.481  16.900  1.6189  1.0197 -1.1490
  504TMC3    H2 7496   0.452   4.453  17.289  0.7112 -0.5925  0.1081
  504TMC3    C7 7497   0.462   4.359  17.029 -0.1802  0.5472  0.4119
  504TMC3    C8 7498   0.301   4.655  17.393 -0.1150 -0.0692 -0.1765
  504TMC3    O1 7499   0.437   4.316  16.915  0.0731  0.4116  0.5525
  504TMC3    O2 7500   0.222   0.019  17.412  0.1257  0.6700  0.0296
  505MPD2     C 7501   2.755   3.741   8.689  0.4592  0.5190  0.1729
  505MPD2    C1 7502   2.640   3.820   8.674 -0.9938  0.1953 -0.5563
  505MPD2    C2 7503   2.650   3.958   8.707  0.4406 -0.1069 -0.0077
  505MPD2    C3 7504   2.769   4.015   8.742 -0.5232 -0.5880 -0.6290
  505MPD2    C4 7505   2.877   3.936   8.770 -0.3169 -0.0468  0.4963
  505MPD2    C5 7506   2.866   3.798   8.739  0.4122 -0.9005 -0.0652
  505MPD2     H 7507   2.569   4.028   8.686 -0.1297 -0.2225  1.8514
  505MPD2    H1 7508   2.969   3.976   8.810  0.5420 -2.6471  1.1332
  505MPD2    H2 7509   2.760   3.637   8.658 -0.7845  0.5062  0.0308
  505MPD2    H3 7510   2.959   3.743   8.750  0.0054 -2.1889 -2.9846
  505MPD2     N 7511   2.793   4.154   8.760 -0.5088 -0.4916  0.2257
  505MPD2    H5 7512   2.888   4.178   8.788 -1.2111  0.0518  2.1392
  505MPD2    N1 7513   2.534   3.762   8.605  0.3205 -0.6570 -0.0061
  505MPD2    H7 7514   2.538   3.662   8.587  0.9150 -1.0587  2.4117
  506TMC3    C1 7515   2.290   3.749   8.581 -0.0609 -0.8883 -0.3960
  506TMC3    C2 7516   2.279   3.650   8.675  0.6631 -0.3378 -0.5309
  506TMC3    C3 7517   2.161   3.630   8.737  0.1424  0.6365 -0.6351
  506TMC3    C4 7518   2.182   3.831   8.557 -0.7334  0.3046  0.4296
  506TMC3    C5 7519   2.070   3.816   8.629  0.4327 -0.1390  0.4040
  506TMC3    C6 7520   2.057   3.707   8.717  0.7660  0.4760 -0.0475
  506TMC3     C 7521   2.416   3.829   8.583 -0.2976  0.7625  0.3128
  506TMC3     O 7522   2.384   3.948   8.594  0.2593  0.0238 -0.0487
  506TMC3     H 7523   2.369   3.589   8.679  1.1010  0.3356  0.0570
  506TMC3    H1 7524   2.184   3.902   8.475 -2.3958 -1.6595 -1.3173
  506TMC3    H2 7525   1.973   3.711   8.784  0.1251  1.3780 -0.9133
  506TMC3    C7 7526   2.021   3.937   8.690 -0.4508  0.1567  0.5118
  506TMC3    C8 7527   2.159   3.536   8.841  0.0905  0.3969  0.9369
  506TMC3    O1 7528   1.914   3.946   8.743 -0.2907  0.6686 -0.5423
  506TMC3    O2 7529   2.057   3.465   8.846 -0.5621 -0.3998  0.1572
  507TMC3    C1 7530   1.350   4.478  14.916 -0.1231 -0.0846 -0.3968
  507TMC3    C2 7531   1.320   4.381  14.819 -0.4664 -0.7975 -0.1744
  507TMC3    C3 7532   1.414   4.362  14.717 -0.3719  0.7870 -0.0784
  507TMC3    C4 7533   1.469   4.548  14.915  0.3296  0.6601 -0.1586
  507TMC3    C5 7534   1.550   4.539  14.805 -0.1019  0.0680  0.1179
  507TMC3    C6 7535   1.524   4.439  14.712 -0.6151 -0.4717 -0.3395
  507TMC3     C 7536   1.242   4.526  15.005 -0.5144 -0.8615 -0.5768
  507TMC3     O 7537   1.134   4.471  14.987 -0.1226 -0.1670  0.1980
  507TMC3     H 7538   1.222   4.335  14.814  0.0222 -1.4926 -3.2736
  507TMC3    H1 7539   1.493   4.629  14.983  1.0807  0.3469 -0.0583
  507TMC3    H2 7540   1.603   4.405  14.647 -0.2835  0.9016 -0.6305
  507TMC3    C7 7541   1.592   4.653  14.736 -0.0243  0.1831  0.4166
  507TMC3    C8 7542   1.354   4.355  14.594  0.1906  0.6314  0.8986
  507TMC3    O1 7543   1.608   4.642  14.617 -0.1107 -0.0383  0.0474
  507TMC3    O2 7544   1.272   4.269  14.579 -0.3359 -0.0269  0.7187
  508MPD2     C 7545   2.850   1.876  15.732 -0.0998 -0.0839 -0.1761
  508MPD2    C1 7546   2.787   1.969  15.809 -0.1536 -0.2659 -0.4890
  508MPD2    C2 7547   2.713   2.066  15.742  0.0291  0.2611  0.1162
  508MPD2    C3 7548   2.710   2.064  15.605 -0.5277 -0.3646  0.6028
  508MPD2    C4 7549   2.779   1.967  15.534  0.2515  0.0539 -0.3170
  508MPD2    C5 7550   2.844   1.878  15.600 -0.6223 -0.4373 -0.3206
  508MPD2     H 7551   2.653   2.146  15.783  1.2260  1.2712 -0.0971
  508MPD2    H1 7552   2.772   1.943  15.429  2.1072 -2.6279  0.1814
  508MPD2    H2 7553   2.889   1.793  15.790 -1.7530 -0.5550  0.2751
  508MPD2    H3 7554   2.885   1.788  15.554  1.5666  0.9559 -1.0642
  508MPD2     N 7555   2.644   2.168  15.544  0.0053  0.1331  0.0464
  508MPD2    H5 7556   2.610   2.238  15.610 -2.5125 -2.4551  1.4751
  508MPD2    N1 7557   2.782   1.954  15.951 -0.3701  0.0494  0.2011
  508MPD2    H7 7558   2.838   1.877  15.986 -2.0834 -0.3823  1.9963
  509TMC3    C1 7559   2.388   2.465  15.462  0.2631  0.0132 -0.5424
  509TMC3    C2 7560   2.371   2.496  15.328  0.0919  0.1852 -0.2142
  509TMC3    C3 7561   2.456   2.447  15.234  0.6339  0.6431  0.0896
  509TMC3    C4 7562   2.481   2.365  15.495  0.0015  0.6575 -0.3300
  509TMC3    C5 7563   2.554   2.309  15.393  0.4894  0.2112  0.1639
  509TMC3    C6 7564   2.547   2.354  15.260 -0.0172 -0.7377 -0.2683
  509TMC3     C 7565   2.362   2.574  15.560  0.6263 -0.0905 -0.2270
  509TMC3     O 7566   2.388   2.548  15.677 -0.8082 -0.0250  0.7186
  509TMC3     H 7567   2.293   2.567  15.304  1.5296  1.7500 -0.2561
  509TMC3    H1 7568   2.493   2.352  15.602 -0.6153 -2.1943 -0.6047
  509TMC3    H2 7569   2.628   2.326  15.194  1.7711 -0.4183  1.7857
  509TMC3    C7 7570   2.630   2.187  15.415 -0.6538 -0.0806  0.6459
  509TMC3    C8 7571   2.514   2.564  15.167 -0.6271  0.1091 -0.3124
  509TMC3    O1 7572   2.643   2.112  15.319 -0.4661  0.1881  0.5671
  509TMC3    O2 7573   2.557   2.564  15.056 -0.4341  0.2139 -0.0656
  510MPD2     C 7574   0.109   4.049  14.539 -0.1397 -0.6494 -0.1508
  510MPD2    C1 7575   0.195   3.954  14.595  0.2237  0.2237 -0.9000
  510MPD2    C2 7576   0.313   3.928  14.530 -0.1388  0.3640  0.6416
  510MPD2    C3 7577   0.339   3.981  14.404  0.0328 -0.0204  0.1146
  510MPD2    C4 7578   0.245   4.053  14.337  0.3847 -0.2922 -0.4901
  510MPD2    C5 7579   0.134   4.087  14.412 -0.5590  0.7456  0.3647
  510MPD2     H 7580   0.396   3.887  14.587  0.9370  2.2196  0.4255
  510MPD2    H1 7581   0.260   4.085  14.235 -1.7391 -0.0274 -0.7311
  510MPD2    H2 7582   0.007   4.063  14.573  0.2628 -0.7290  1.0900
  510MPD2    H3 7583   0.060   4.156  14.374  0.2453  1.1757 -0.4156
  510MPD2     N 7584   0.471   3.957  14.361 -0.3848  0.2810  0.4749
  510MPD2    H5 7585   0.524   3.891  14.416 -0.7582  0.5169  1.1213
  510MPD2    N1 7586   0.176   3.909  14.728  0.2116  0.0865  0.3413
  510MPD2    H7 7587   0.239   3.839  14.767 -0.1681  0.8671  2.3447
  511TMC3    C1 7588   0.037   3.848  14.910  0.2729 -0.2421 -0.2671
  511TMC3    C2 7589   4.700   3.884  15.029 -0.2779 -0.0029  0.1319
  511TMC3    C3 7590   4.687   3.799  15.126 -0.0844 -0.3090  0.9670
  511TMC3    C4 7591   0.080   3.722  14.901  0.4107 -0.1111  0.1224
  511TMC3    C5 7592   0.063   3.634  15.003 -0.9546  0.0480 -0.0191
  511TMC3    C6 7593   0.015   3.672  15.125 -0.4211 -0.3064  0.6624
  511TMC3     C 7594   0.063   3.943  14.799  1.0578 -0.2309  0.4317
  511TMC3     O 7595   0.001   4.049  14.808 -0.7155 -0.2121  0.1616
  511TMC3     H 7596   4.655   3.983  15.030  0.5134  0.3681 -0.8453
  511TMC3    H1 7597   0.095   3.683  14.801 -1.3592 -2.0801  0.6411
  511TMC3    H2 7598   4.727   3.595  15.200  0.5415 -1.0729  0.0704
  511TMC3    C7 7599   0.062   3.498  14.955 -0.2745 -0.0545  0.2871
  511TMC3    C8 7600   4.622   3.857  15.247 -0.6800 -0.4032  0.0479
  511TMC3    O1 7601   0.142   3.470  14.868 -0.7799 -0.1649  0.6159
  511TMC3    O2 7602   4.550   3.956  15.237 -0.1282  0.3910 -0.0156
  512TMC3    C1 7603   3.812   2.636  13.410  0.4128  0.1710 -0.3491
  512TMC3    C2 7604   3.909   2.656  13.502 -0.0441  0.0840  0.1602
  512TMC3    C3 7605   4.020   2.728  13.468 -0.8599 -0.8990  0.2165
  512TMC3    C4 7606   3.823   2.694  13.287 -0.2927 -1.0369  0.5402
  512TMC3    C5 7607   3.924   2.779  13.261 -0.0980  0.2130 -0.5577
  512TMC3    C6 7608   4.030   2.801  13.348  0.8044  0.1215 -0.5488
  512TMC3     C 7609   3.676   2.600  13.457  0.4138  0.2412  0.1342
  512TMC3     O 7610   3.595   2.554  13.376  0.1213 -0.5197 -0.0695
  512TMC3     H 7611   3.907   2.594  13.591  1.3943  1.1037  0.8990
  512TMC3    H1 7612   3.736   2.678  13.224  0.9289 -0.4598 -1.2985
  512TMC3    H2 7613   4.120   2.854  13.320  1.1013  0.3883  0.9380
  512TMC3    C7 7614   3.942   2.816  13.126  0.0848  0.3752  0.0805
  512TMC3    C8 7615   4.092   2.770  13.590 -0.3673 -0.5642  0.1682
  512TMC3    O1 7616   3.999   2.917  13.094  0.4127  0.1021  0.4703
  512TMC3    O2 7617   4.093   2.681  13.678 -0.4371  0.5789 -0.0317
  513MPD2     C 7618   0.676   2.611  12.779  0.1882 -0.0528  0.1560
  513MPD2    C1 7619   0.667   2.722  12.864 -1.1251  0.8298 -0.5794
  513MPD2    C2 7620   0.670   2.693  12.999 -0.1475  0.0487  0.9053
  513MPD2    C3 7621   0.680   2.573  13.053  0.5538 -0.0749 -0.3262
  513MPD2    C4 7622   0.683   2.463  12.974 -0.2043 -0.3375 -0.5685
  513MPD2    C5 7623   0.679   2.487  12.837  0.2168  0.1551  0.7217
  513MPD2     H 7624   0.678   2.772  13.073  0.6932 -0.4641  1.3675
  513MPD2    H1 7625   0.678   2.361  13.011 -0.9472  0.3266  1.1557
  513MPD2    H2 7626   0.669   2.620  12.672 -2.0465 -1.8989  0.1587
  513MPD2    H3 7627   0.687   2.391  12.787  2.8661  0.5539  0.3778
  513MPD2     N 7628   0.673   2.564  13.197 -0.4839  0.1530  0.2359
  513MPD2    H5 7629   0.657   2.654  13.240 -0.8874  0.1693  0.0459
  513MPD2    N1 7630   0.680   2.852  12.804 -0.2133 -0.2982  0.0813
  513MPD2    H7 7631   0.700   2.875  12.707  2.2779  1.6291  1.0405
  514TMC3    C1 7632   0.640   3.099  12.826 -0.7238 -0.7259  0.6830
  514TMC3    C2 7633   0.739   3.125  12.734 -0.1046  0.0289  0.8142
  514TMC3    C3 7634   0.756   3.260  12.716 -1.2305 -0.5713  0.6297
  514TMC3    C4 7635   0.576   3.193  12.902 -0.1481 -0.0815 -0.6779
  514TMC3    C5 7636   0.633   3.321  12.903 -0.1871 -0.0601  0.9143
  514TMC3    C6 7637   0.721   3.356  12.805  0.1673  0.1030 -0.2050
  514TMC3     C 7638   0.633   2.964  12.876 -0.7353 -0.0433  0.3384
  514TMC3     O 7639   0.568   2.958  12.984 -0.2386 -0.3449 -0.3303
  514TMC3     H 7640   0.763   3.058  12.652  0.2263 -1.6626  2.2994
  514TMC3    H1 7641   0.493   3.171  12.968  1.5205 -1.9329  0.7955
  514TMC3    H2 7642   0.727   3.463  12.785  1.2456  0.2683  0.9492
  514TMC3    C7 7643   0.698   3.342  13.031  0.1301 -0.4447  0.2702
  514TMC3    C8 7644   0.825   3.304  12.596  0.5519 -0.5720  0.3312
  514TMC3    O1 7645   0.763   3.441  13.056  0.2986  0.7350  0.7731
  514TMC3    O2 7646   0.785   3.250  12.494 -0.8050 -0.3734  0.4314
  515MPD2     C 7647   3.632   0.566  14.968  0.0098 -1.1741 -0.1821
  515MPD2    C1 7648   3.687   0.518  14.856 -0.0733  0.2078  1.1570
  515MPD2    C2 7649   3.792   0.581  14.800  0.8147  0.2264  0.3108
  515MPD2    C3 7650   3.849   0.691  14.856 -0.2275 -0.7976  0.2147
  515MPD2    C4 7651   3.789   0.747  14.964  0.3838  0.0129  0.4465
  515MPD2    C5 7652   3.684   0.682  15.020  0.2147 -0.3149 -0.3578
  515MPD2     H 7653   3.845   0.536  14.716  1.1922 -1.7017  1.6002
  515MPD2    H1 7654   3.823   0.831  15.022  0.9483 -0.9769  1.5641
  515MPD2    H2 7655   3.550   0.524  15.026  0.2014 -0.2561  0.7490
  515MPD2    H3 7656   3.652   0.717  15.118 -2.1776 -2.3519 -0.4180
  515MPD2     N 7657   3.974   0.743  14.821 -0.1646  0.3636  0.7692
  515MPD2    H5 7658   4.018   0.798  14.894 -2.0349  0.9019  1.4750
  515MPD2    N1 7659   3.646   0.387  14.809  0.2264 -0.3312  0.4689
  515MPD2    H7 7660   3.699   0.349  14.731  0.9320 -1.1443  1.3361
  516TMC3    C1 7661   3.563   0.173  14.794  0.1949  0.0947  0.0204
  516TMC3    C2 7662   3.593   0.163  14.661 -0.3048  0.1464 -0.0114
  516TMC3    C3 7663   3.584   0.035  14.603 -0.1196 -0.3877  0.2388
  516TMC3    C4 7664   3.525   0.065  14.873 -0.7604  0.5140 -0.0391
  516TMC3    C5 7665   3.514   4.673  14.806  0.2513  0.8290  0.4272
  516TMC3    C6 7666   3.546   4.656  14.677 -0.1326  0.2763 -0.2546
  516TMC3     C 7667   3.563   0.296  14.863 -0.1603  0.3071  0.4209
  516TMC3     O 7668   3.526   0.300  14.977  0.2071  0.1735  0.0729
  516TMC3     H 7669   3.624   0.249  14.602 -0.0968  0.6846  0.8762
  516TMC3    H1 7670   3.492   0.079  14.975  0.0053  4.1707 -0.2581
  516TMC3    H2 7671   3.535   4.561  14.626 -3.5898  0.7952 -0.4939
  516TMC3    C7 7672   3.470   4.557  14.888  0.2157  0.0531 -0.8165
  516TMC3    C8 7673   3.579   0.024  14.462 -0.2512 -0.0675 -0.8825
  516TMC3    O1 7674   3.510   4.559  15.007 -0.4843 -0.4733  0.5946
  516TMC3    O2 7675   3.536   4.644  14.419  0.3655 -0.0099  0.4116
  517MPD2     C 7676   3.241   2.120  17.534  0.3702 -1.0678 -0.9870
  517MPD2    C1 7677   3.353   2.101  17.616 -0.4406  0.0443  0.1091
  517MPD2    C2 7678   3.394   2.204  17.695  0.2527 -0.1956  0.7401
  517MPD2    C3 7679   3.324   2.331  17.701  0.4612  0.0634 -0.1452
  517MPD2    C4 7680   3.205   2.341  17.622  0.3974 -0.3318 -0.2629
  517MPD2    C5 7681   3.161   2.232  17.545  0.3429  0.4749 -0.1889
  517MPD2     H 7682   3.481   2.182   0.046 -1.2158  0.4936  3.0492
  517MPD2    H1 7683   3.149   2.434  17.632  1.2305 -0.0278  1.4752
  517MPD2    H2 7684   3.211   2.055  17.453 -1.0975  0.3663 -1.5920
  517MPD2    H3 7685   3.068   2.244  17.490  0.1069 -1.3443 -0.1721
  517MPD2     N 7686   3.365   2.436   0.075 -0.1434 -0.2933 -0.2196
  517MPD2    H5 7687   3.312   2.523   0.072  0.3378 -0.0702 -2.3955
  517MPD2    N1 7688   3.437   1.990  17.595  0.5809 -0.7862 -0.2201
  517MPD2    H7 7689   3.534   2.002  17.622  0.0334  0.2142  1.3226
  518TMC3    C1 7690   3.505   1.780  17.497 -0.3282 -0.1518 -0.1095
  518TMC3    C2 7691   3.472   1.648  17.469 -0.9704 -0.8282  0.1347
  518TMC3    C3 7692   3.572   1.562  17.436  0.6457  1.2303 -0.2969
  518TMC3    C4 7693   3.631   1.832  17.503  0.6466  0.0054  0.1313
  518TMC3    C5 7694   3.729   1.739  17.473  0.0314 -1.4852 -0.1837
  518TMC3    C6 7695   3.703   1.604  17.437 -0.4609  0.0551  0.3210
  518TMC3     C 7696   3.396   1.866  17.542  0.4799  0.1179  0.6225
  518TMC3     O 7697   3.278   1.831  17.526 -0.1280 -0.0506 -0.2386
  518TMC3     H 7698   3.368   1.616  17.468 -1.1936 -0.0850 -0.9560
  518TMC3    H1 7699   3.664   1.929  17.537  1.7393 -0.0434 -0.8133
  518TMC3    H2 7700   3.781   1.534  17.409  0.9451  0.4963  3.2019
  518TMC3    C7 7701   3.865   1.794  17.484  0.7164  0.5064 -0.2742
  518TMC3    C8 7702   3.551   1.425  17.397 -0.6476 -0.0876 -0.0176
  518TMC3    O1 7703   3.882   1.910  17.513 -0.4110  0.0645  0.0593
  518TMC3    O2 7704   3.637   1.376  17.327 -0.0820 -0.5959 -0.2540
  519MPD2     C 7705   0.293   0.399  14.370 -0.2576  0.8706 -0.4879
  519MPD2    C1 7706   0.313   0.401  14.234  0.0614 -0.5328  0.5213
  519MPD2    C2 7707   0.361   0.288  14.172  0.1808  0.8634  0.2586
  519MPD2    C3 7708   0.388   0.170  14.241  0.1298  0.0279 -0.6272
  519MPD2    C4 7709   0.364   0.167  14.377 -0.9897 -0.1581  0.4458
  519MPD2    C5 7710   0.314   0.282  14.438 -0.1305  0.3768  0.3361
  519MPD2     H 7711   0.365   0.270  14.065  1.2704  0.3399  0.3886
  519MPD2    H1 7712   0.387   0.075  14.429 -0.9931 -0.2438  0.2976
  519MPD2    H2 7713   0.241   0.475  14.427  0.6899 -0.3705  2.0476
  519MPD2    H3 7714   0.292   0.278  14.544 -0.0480  1.5639  0.4055
  519MPD2     N 7715   0.433   0.062  14.162  0.1710  0.0366  0.1569
  519MPD2    H5 7716   0.445   0.081  14.063 -0.9908  1.7968  0.3661
  519MPD2    N1 7717   0.273   0.509  14.163  0.1469 -0.2271  0.3166
  519MPD2    H7 7718   0.228   0.584  14.214  1.0219 -0.2455  1.1335
  520TMC3    C1 7719   0.541   4.580  14.114 -0.2921 -0.6865  0.3733
  520TMC3    C2 7720   0.479   4.551  13.994 -0.2421 -0.3604  0.6156
  520TMC3    C3 7721   0.538   4.461  13.914  0.3241  0.1097 -0.3484
  520TMC3    C4 7722   0.653   4.506  14.162  0.6057  0.4322 -0.1320
  520TMC3    C5 7723   0.709   4.419  14.078  0.5789  0.4279  0.6948
  520TMC3    C6 7724   0.651   4.391  13.957 -0.0926 -0.6126 -0.5390
  520TMC3     C 7725   0.489   4.673  14.213 -0.0329 -0.1542 -0.2448
  520TMC3     O 7726   0.508   4.636  14.332  0.4787  0.8271 -0.3340
  520TMC3     H 7727   0.381   4.598  13.987 -0.6721 -1.0541  2.1640
  520TMC3    H1 7728   0.686   4.520  14.264  1.1415 -0.0763 -0.2357
  520TMC3    H2 7729   0.691   4.318  13.887  0.3089 -1.0854  0.1803
  520TMC3    C7 7730   0.822   4.354  14.134 -0.8755 -0.0704  0.2237
  520TMC3    C8 7731   0.477   4.425  13.788 -0.3623 -0.0711  0.7639
  520TMC3    O1 7732   0.814   4.331  14.253 -0.4507 -0.5504  0.6628
  520TMC3    O2 7733   0.556   4.380  13.704 -0.2024  0.1359  0.0866
  521MPD2     C 7734   1.786   2.709  17.637  0.3931 -0.3531 -0.8611
  521MPD2    C1 7735   1.714   2.719  17.517  0.0778 -0.6980 -0.4763
  521MPD2    C2 7736   1.787   2.734  17.405  0.6075 -0.3828 -0.2821
  521MPD2    C3 7737   1.926   2.736  17.402  0.1156 -0.0876  0.4022
  521MPD2    C4 7738   1.994   2.730  17.518 -0.2741 -0.0686 -0.1728
  521MPD2    C5 7739   1.921   2.714  17.635 -0.5541 -0.2090  0.4969
  521MPD2     H 7740   1.741   2.751  17.308  0.7471  2.4986  0.1590
  521MPD2    H1 7741   2.101   2.719  17.529 -0.5351 -0.0609  2.3391
  521MPD2    H2 7742   1.729   2.694   0.017 -1.4332  0.3152 -1.8914
  521MPD2    H3 7743   1.981   2.696   0.012  1.9288 -2.0388 -1.5538
  521MPD2     N 7744   1.987   2.736  17.274 -0.1067 -0.2162  0.7839
  521MPD2    H5 7745   1.921   2.714  17.200 -1.2258  0.3789  1.6190
  521MPD2    N1 7746   1.572   2.703  17.516 -0.3926 -0.4583  0.0416
  521MPD2    H7 7747   1.534   2.691  17.609 -0.3286  1.5719  0.3169
  522TMC3    C1 7748   2.139   2.645  17.121 -0.0471  0.1125 -0.7640
  522TMC3    C2 7749   2.267   2.654  17.076  0.4040 -0.0929 -0.4895
  522TMC3    C3 7750   2.303   2.594  16.958  0.3673  0.4690  0.6597
  522TMC3    C4 7751   2.044   2.562  17.060 -0.1086 -0.1898 -0.3542
  522TMC3    C5 7752   2.092   2.496  16.950  0.9986 -0.3458 -0.7179
  522TMC3    C6 7753   2.220   2.503  16.895  0.3423 -0.5762  0.0748
  522TMC3     C 7754   2.119   2.715  17.247  0.5667 -0.4567 -0.9173
  522TMC3     O 7755   2.212   2.754  17.316 -0.3981 -0.0451  0.0019
  522TMC3     H 7756   2.341   2.725  17.111 -0.1563 -0.3522  1.1926
  522TMC3    H1 7757   1.946   2.544  17.102 -0.1995  0.7868 -0.1517
  522TMC3    H2 7758   2.241   2.439  16.810  1.1707 -0.8051  0.4440
  522TMC3    C7 7759   2.000   2.418  16.873 -0.3304 -0.2566  0.5396
  522TMC3    C8 7760   2.428   2.636  16.902 -0.6751  0.0989  0.2152
  522TMC3    O1 7761   2.052   2.345  16.789 -0.0433  0.2749  0.9434
  522TMC3    O2 7762   2.496   2.725  16.962  0.5208  0.0875  0.8986
  523MPD2     C 7763   4.312   2.199   9.602 -0.6442 -0.3453 -0.1313
  523MPD2    C1 7764   4.203   2.114   9.598  0.2270  0.1202 -0.1431
  523MPD2    C2 7765   4.081   2.161   9.546  0.0232 -0.7713 -0.2406
  523MPD2    C3 7766   4.069   2.289   9.494 -0.3952  0.2933 -0.2700
  523MPD2    C4 7767   4.180   2.372   9.500  0.6978  0.0563  0.1183
  523MPD2    C5 7768   4.297   2.330   9.552 -0.3125  0.1193 -0.2647
  523MPD2     H 7769   3.994   2.096   9.546 -0.8063  0.3482 -0.0753
  523MPD2    H1 7770   4.169   2.475   9.467  0.5552 -0.5086 -1.5886
  523MPD2    H2 7771   4.409   2.169   9.639 -0.1245 -0.5328 -1.6395
  523MPD2    H3 7772   4.386   2.392   9.545 -1.0237  1.1820  0.1343
  523MPD2     N 7773   3.966   2.348   9.422  0.2967 -0.1440 -0.1214
  523MPD2    H5 7774   3.980   2.440   9.382  2.1220  0.7815  2.7007
  523MPD2    N1 7775   4.216   1.987   9.665 -0.0842  0.3908  0.3458
  523MPD2    H7 7776   4.296   1.968   9.724  0.7267  1.5817 -0.3605
  524TMC3    C1 7777   3.742   2.397   9.357  0.4926 -0.1676  0.1418
  524TMC3    C2 7778   3.641   2.349   9.280  0.6665 -0.1470  0.3121
  524TMC3    C3 7779   3.575   2.446   9.203 -0.1807  1.2998 -0.2337
  524TMC3    C4 7780   3.770   2.530   9.384 -0.5915 -0.5029  0.7971
  524TMC3    C5 7781   3.704   2.623   9.305 -0.1752 -0.6181  0.0508
  524TMC3    C6 7782   3.614   2.575   9.210  0.8441 -0.1922 -0.2513
  524TMC3     C 7783   3.838   2.295   9.411 -0.4118  0.1227  0.5292
  524TMC3     O 7784   3.798   2.180   9.432 -0.0205  0.5735 -0.4473
  524TMC3     H 7785   3.636   2.243   9.257  1.4081 -0.0119 -0.4603
  524TMC3    H1 7786   3.845   2.561   9.456  0.9559 -0.0042 -1.0093
  524TMC3    H2 7787   3.571   2.648   9.142  1.3810 -0.0685 -0.4547
  524TMC3    C7 7788   3.686   2.758   9.339 -0.3253 -0.2852 -0.4213
  524TMC3    C8 7789   3.498   2.413   9.089 -0.1605 -0.4448 -0.4501
  524TMC3    O1 7790   3.597   2.821   9.280  0.0013 -0.5316  0.3809
  524TMC3    O2 7791   3.521   2.491   8.999 -0.3338 -0.1916  0.3223
  525MPD2     C 7792   1.642   4.080  14.496 -0.1852  1.0708 -0.4781
  525MPD2    C1 7793   1.773   4.096  14.531 -0.2605  0.0819 -0.5180
  525MPD2    C2 7794   1.849   4.202  14.485 -0.2447 -0.1574  0.7775
  525MPD2    C3 7795   1.793   4.300  14.412 -0.5068  0.2344 -0.0084
  525MPD2    C4 7796   1.663   4.284  14.381  0.9032  0.1920  0.4339
  525MPD2    C5 7797   1.591   4.171  14.408 -0.1169 -0.0870  0.1653
  525MPD2     H 7798   1.951   4.208  14.519 -0.6309 -0.9978  2.0988
  525MPD2    H1 7799   1.610   4.359  14.323  1.3958 -0.2495 -0.5871
  525MPD2    H2 7800   1.579   3.999  14.532 -0.3979  0.8665 -1.3123
  525MPD2    H3 7801   1.490   4.163  14.371  0.0029 -0.8519  0.0079
  525MPD2     N 7802   1.858   4.418  14.386  0.0921  0.2919  0.0177
  525MPD2    H5 7803   1.800   4.495  14.355 -0.2645  0.0962  0.1928
  525MPD2    N1 7804   1.833   4.000  14.617 -0.3288  0.5319  0.1583
  525MPD2    H7 7805   1.934   4.003  14.628 -0.5267  5.0034  0.6573
  526TMC3    C1 7806   1.830   3.832  14.791 -0.0774  0.7990 -0.0792
  526TMC3    C2 7807   1.777   3.812  14.918  0.4934  0.1445  0.3584
  526TMC3    C3 7808   1.864   3.752  15.005 -0.0615 -0.5467  0.6586
  526TMC3    C4 7809   1.959   3.797  14.749  0.1946  0.5196 -0.0936
  526TMC3    C5 7810   2.038   3.746  14.849  0.6902 -0.0482 -0.3495
  526TMC3    C6 7811   1.993   3.712  14.971 -0.1571 -0.3716  0.6617
  526TMC3     C 7812   1.757   3.935  14.710  0.6316  0.5997  0.2462
  526TMC3     O 7813   1.651   3.968  14.749 -0.5831  0.5673 -0.0763
  526TMC3     H 7814   1.692   3.868  14.954  1.2635  0.6457  1.3829
  526TMC3    H1 7815   1.990   3.785  14.645  4.2017  0.6619  1.0707
  526TMC3    H2 7816   2.047   3.654  15.045  2.5201 -0.2146 -1.1841
  526TMC3    C7 7817   2.175   3.728  14.821 -0.9977 -0.4550  0.9486
  526TMC3    C8 7818   1.829   3.737  15.145 -1.1152  0.3759  0.3790
  526TMC3    O1 7819   2.247   3.715  14.921 -0.2733 -0.0277  0.1086
  526TMC3    O2 7820   1.915   3.702  15.228 -0.5912  0.2982 -0.0168
  527MPD2     C 7821   4.615   2.460   1.461  0.5418 -0.3447  0.1241
  527MPD2    C1 7822   4.655   2.325   1.469 -0.1841  0.0642  0.0001
  527MPD2    C2 7823   4.727   2.275   1.372  0.2227  0.9970  0.2992
  527MPD2    C3 7824   0.047   2.355   1.264 -0.5752  0.0442 -0.5917
  527MPD2    C4 7825   4.721   2.485   1.250  0.0736  0.4819  0.2064
  527MPD2    C5 7826   4.650   2.540   1.350 -0.2426 -0.1019  0.1409
  527MPD2     H 7827   0.025   2.170   1.381  0.8525  1.2951  1.8995
  527MPD2    H1 7828   0.040   2.554   1.181  1.7511 -2.7640 -1.9221
  527MPD2    H2 7829   4.557   2.500   1.543 -0.9634 -3.9097  0.7947
  527MPD2    H3 7830   4.618   2.643   1.342  1.0051  0.3164  0.4605
  527MPD2     N 7831   0.136   2.292   1.171  0.3039 -0.4390 -0.0507
  527MPD2    H5 7832   0.163   2.198   1.198 -0.1987 -0.2713  1.0098
  527MPD2    N1 7833   4.615   2.232   1.573 -0.3000 -0.3885  0.0909
  527MPD2    H7 7834   4.647   2.137   1.558 -0.8211 -0.1297 -2.6249
  528TMC3    C1 7835   4.486   2.151   1.756  0.1641  0.2642  0.6183
  528TMC3    C2 7836   4.371   2.173   1.830 -0.5235 -0.0446 -0.5326
  528TMC3    C3 7837   4.346   2.082   1.926 -0.4049  0.3877  0.6529
  528TMC3    C4 7838   4.572   2.042   1.764  0.6565 -0.0480 -0.2411
  528TMC3    C5 7839   4.535   1.949   1.853 -0.2698  0.1117 -0.2542
  528TMC3    C6 7840   4.424   1.972   1.936 -0.1716  0.7362 -0.8339
  528TMC3     C 7841   4.535   2.263   1.682  0.3771 -0.3442  0.5518
  528TMC3     O 7842   4.494   2.377   1.715  0.1017 -0.2426 -1.0946
  528TMC3     H 7843   4.323   2.270   1.825  2.6472  1.6581  1.6146
  528TMC3    H1 7844   4.668   2.046   1.713  0.9220 -0.9977  0.1742
  528TMC3    H2 7845   4.398   1.906   2.018  2.6988 -0.0098 -0.5076
  528TMC3    C7 7846   4.630   1.858   1.917  0.3010  0.0289  0.4902
  528TMC3    C8 7847   4.329   2.141   2.056  0.3987  1.0244  0.4952
  528TMC3    O1 7848   0.020   1.896   1.908  0.0912 -0.0103  0.3389
  528TMC3    O2 7849   4.389   2.091   2.149 -0.1387 -0.5599 -0.1783
  529MPD2     C 7850   2.584   1.281   0.358 -0.0815  0.2693  0.2791
  529MPD2    C1 7851   2.576   1.151   0.312  0.9129 -0.4524 -0.0246
  529MPD2    C2 7852   2.582   1.135   0.178 -0.6145  0.6011 -0.1064
  529MPD2    C3 7853   2.584   1.243   0.091 -0.3920 -0.2031  0.0056
  529MPD2    C4 7854   2.588   1.372   0.140  0.5910 -1.0034 -0.5699
  529MPD2    C5 7855   2.591   1.389   0.272  0.0797  0.4660  0.4428
  529MPD2     H 7856   2.574   1.032   0.144  1.6698  0.5934 -0.6567
  529MPD2    H1 7857   2.587   1.454   0.069 -0.3024 -1.0825 -0.6517
  529MPD2    H2 7858   2.593   1.303   0.464 -0.9559 -1.8152  0.7863
  529MPD2    H3 7859   2.589   1.488   0.315  0.8366  1.3467 -1.5605
  529MPD2     N 7860   2.577   1.218  17.663 -0.1642  0.1590  0.2010
  529MPD2    H5 7861   2.564   1.302  17.606  2.4333  0.8580  0.6265
  529MPD2    N1 7862   2.566   1.034   0.393 -0.1653  0.5104 -0.2526
  529MPD2    H7 7863   2.573   0.945   0.344 -1.0851  0.9363 -1.1572
  530TMC3    C1 7864   2.569   0.887   0.567 -0.3009 -0.1722 -0.7285
  530TMC3    C2 7865   2.618   0.853   0.687 -0.0701  0.7492  0.4425
  530TMC3    C3 7866   2.603   0.726   0.729  0.1158 -1.4745 -0.6285
  530TMC3    C4 7867   2.481   0.810   0.496 -0.0553  0.0613  0.3462
  530TMC3    C5 7868   2.454   0.689   0.551  0.7822 -0.1801 -0.9191
  530TMC3    C6 7869   2.520   0.643   0.664  0.4921  0.1801 -0.2827
  530TMC3     C 7870   2.565   1.029   0.530  0.0359  0.0537  0.2235
  530TMC3     O 7871   2.558   1.119   0.616  0.0340  0.4634 -0.7350
  530TMC3     H 7872   2.695   0.922   0.718  1.0577 -0.7853  1.0804
  530TMC3    H1 7873   2.424   0.847   0.411 -1.0354  0.1589  1.0539
  530TMC3    H2 7874   2.492   0.548   0.706 -1.4776  0.9576  0.1490
  530TMC3    C7 7875   2.380   0.591   0.474 -0.1393 -0.3418  0.5876
  530TMC3    C8 7876   2.650   0.671   0.854  0.5134  0.3111 -0.1581
  530TMC3    O1 7877   2.372   0.617   0.354 -0.7067 -0.6709  0.0473
  530TMC3    O2 7878   2.672   0.551   0.871  0.0443 -0.2065  0.4312
  531MPD2     C 7879   0.810   3.139  13.498 -0.1290 -1.0089 -0.5665
  531MPD2    C1 7880   0.732   3.048  13.421 -0.3276  0.2969  0.1823
  531MPD2    C2 7881   0.701   3.089  13.292  0.4436 -0.0553  0.6465
  531MPD2    C3 7882   0.736   3.209  13.243 -0.0185  0.0194  0.0006
  531MPD2    C4 7883   0.815   3.296  13.309  0.3705 -0.6998 -0.3961
  531MPD2    C5 7884   0.846   3.255  13.437  0.2877  0.0244 -0.3202
  531MPD2     H 7885   0.637   3.027  13.229  0.7161  0.6188 -0.3025
  531MPD2    H1 7886   0.858   3.386  13.268  1.3961  0.3999  3.0727
  531MPD2    H2 7887   0.833   3.126  13.604  1.1489 -3.2562 -1.1109
  531MPD2    H3 7888   0.916   3.318  13.491  0.4372  0.4207 -0.9781
  531MPD2     N 7889   0.684   3.231  13.113  0.4298 -0.2600 -0.4935
  531MPD2    H5 7890   0.632   3.154  13.073 -2.2612  2.5014 -2.2598
  531MPD2    N1 7891   0.702   2.921  13.479 -0.0203 -0.0961 -0.6154
  531MPD2    H7 7892   0.721   2.911  13.578  0.6508  3.1322 -0.4393
  532TMC3    C1 7893   0.608   2.698  13.500 -0.9627  0.5928  0.0152
  532TMC3    C2 7894   0.569   2.602  13.409  0.5048 -0.0351 -1.1196
  532TMC3    C3 7895   0.631   2.477  13.410  0.7312 -0.4492  0.4501
  532TMC3    C4 7896   0.705   2.670  13.602 -0.8596 -0.3034  0.5445
  532TMC3    C5 7897   0.757   2.541  13.601 -0.5566 -0.0487  0.1338
  532TMC3    C6 7898   0.724   2.452  13.511  0.4883  0.2953 -1.0800
  532TMC3     C 7899   0.634   2.821  13.422 -0.0511 -0.0434 -0.1155
  532TMC3     O 7900   0.590   2.821  13.306 -0.2976  0.2354  0.6001
  532TMC3     H 7901   0.491   2.621  13.336  0.2821  0.1610 -0.8332
  532TMC3    H1 7902   0.721   2.751  13.672 -0.9678  0.6350 -0.5199
  532TMC3    H2 7903   0.781   2.361  13.503 -1.1673 -0.7446 -1.1643
  532TMC3    C7 7904   0.846   2.499  13.705  0.5988 -0.9763 -0.2144
  532TMC3    C8 7905   0.673   2.450  13.275  0.1181  0.1983  0.1737
  532TMC3    O1 7906   0.850   2.377  13.725  0.2190 -0.0195 -0.1051
  532TMC3    O2 7907   0.703   2.337  13.247 -0.3446 -0.2372  0.1069
  533TMC3    C1 7908   2.012   4.585  14.435  0.1303 -0.1322 -0.5923
  533TMC3    C2 7909   2.140   4.630  14.415  0.0279 -0.5578 -0.1776
  533TMC3    C3 7910   2.196   4.710  14.510 -0.0050  0.4187  0.1233
  533TMC3    C4 7911   1.948   4.611  14.554 -0.2308  0.3129  0.2142
  533TMC3    C5 7912   2.002   4.697  14.647 -0.1120 -0.3545 -0.3988
  533TMC3    C6 7913   2.127   0.019  14.622  0.4940  0.1650  0.2461
  533TMC3     C 7914   1.988   4.449  14.403 -0.3333 -0.0491  0.0518
  533TMC3     O 7915   2.084   4.374  14.419  0.0707 -0.5109 -0.0824
  533TMC3     H 7916   2.192   4.598  14.326 -1.5289  0.1575 -1.3455
  533TMC3    H1 7917   1.849   4.569  14.571 -1.0322  1.6971 -1.0122
  533TMC3    H2 7918   2.184   0.070  14.699  1.8208 -0.4498 -0.3155
  533TMC3    C7 7919   1.958   4.671  14.782  0.0991 -0.1931  0.0631
  533TMC3    C8 7920   2.283   0.090  14.476 -0.0893 -0.7622 -0.8998
  533TMC3    O1 7921   1.905   4.566  14.803 -0.7492 -0.2025 -0.0407
  533TMC3    O2 7922   2.330   0.163  14.567  0.0566  0.7590  0.0816
  534MPD2     C 7923   0.158   0.715   1.550 -0.3237  0.1778 -0.2810
  534MPD2    C1 7924   0.083   0.829   1.533 -0.0750  1.1587 -0.6569
  534MPD2    C2 7925   4.701   0.815   1.452 -0.0064  0.1241 -0.1833
  534MPD2    C3 7926   4.668   0.693   1.395  0.3042 -0.1116 -0.0529
  534MPD2    C4 7927   0.014   0.578   1.422 -0.3957 -0.0853  0.6007
  534MPD2    C5 7928   0.131   0.601   1.489  0.2719  0.0622  0.1028
  534MPD2     H 7929   4.656   0.909   1.425  0.4656  1.0396  2.2603
  534MPD2    H1 7930   4.703   0.479   1.397 -3.8153  0.8741  1.9778
  534MPD2    H2 7931   0.245   0.714   1.615  0.1253 -1.8957 -0.9188
  534MPD2    H3 7932   0.176   0.506   1.515 -1.6842 -0.8407  0.2506
  534MPD2     N 7933   4.556   0.672   1.313 -0.4639  0.2117  0.7113
  534MPD2    H5 7934   4.541   0.577   1.282 -0.7747  0.4407  0.1476
  534MPD2    N1 7935   0.113   0.955   1.593 -0.0807  0.5434 -0.4476
  534MPD2    H7 7936   0.045   1.029   1.579 -0.3539  0.0504 -1.6701
  535TMC3    C1 7937   4.342   0.698   1.227 -0.0615 -0.6151 -0.0150
  535TMC3    C2 7938   4.220   0.727   1.274  0.4921 -0.0456 -0.0749
  535TMC3    C3 7939   4.124   0.707   1.190 -0.0291 -0.1141  0.2226
  535TMC3    C4 7940   4.365   0.645   1.100  0.4119 -0.1992  0.0897
  535TMC3    C5 7941   4.257   0.605   1.033 -0.8445  0.1623 -0.1427
  535TMC3    C6 7942   4.134   0.634   1.072 -0.1850  0.0629  0.0918
  535TMC3     C 7943   4.453   0.760   1.293  0.4173  0.0159  0.3920
  535TMC3     O 7944   4.438   0.876   1.335 -0.4976 -0.2469 -0.1792
  535TMC3     H 7945   4.201   0.780   1.366  1.1400  2.3299 -1.3054
  535TMC3    H1 7946   4.466   0.638   1.062  1.2573 -3.9695  3.0529
  535TMC3    H2 7947   4.046   0.619   1.010  0.8281 -0.5938 -1.1960
  535TMC3    C7 7948   4.283   0.558   0.897 -0.5821 -0.2835  0.3923
  535TMC3    C8 7949   3.995   0.757   1.219 -0.1340  0.1472 -0.3690
  535TMC3    O1 7950   4.384   0.580   0.831  0.4368  0.1135  0.4697
  535TMC3    O2 7951   3.901   0.694   1.167 -0.7101  0.2542  0.0743
  536MPD2     C 7952   3.834   4.346  16.282  0.3860 -0.6151 -0.4189
  536MPD2    C1 7953   3.725   4.269  16.331 -0.4575  0.2623 -0.2168
  536MPD2    C2 7954   3.622   4.233  16.245 -0.3922 -0.7468 -0.2040
  536MPD2    C3 7955   3.624   4.269  16.113 -1.0018  0.0145  0.1918
  536MPD2    C4 7956   3.733   4.337  16.069  0.1046  0.2218  0.9428
  536MPD2    C5 7957   3.833   4.384  16.149 -0.1736 -0.1320 -0.4083
  536MPD2     H 7958   3.540   4.170  16.281 -2.6277  2.0022 -0.5004
  536MPD2    H1 7959   3.746   4.358  15.964 -0.0517 -0.1302  0.8542
  536MPD2    H2 7960   3.910   4.373  16.354  0.0815 -0.0527 -0.3111
  536MPD2    H3 7961   3.923   4.431  16.110 -0.1507 -0.2020 -0.4404
  536MPD2     N 7962   3.523   4.230  16.018 -0.5431 -0.8157 -0.1892
  536MPD2    H5 7963   3.548   4.253  15.922  0.3334  0.8998  0.4427
  536MPD2    N1 7964   3.718   4.252  16.469  0.4734  0.4668  0.2837
  536MPD2    H7 7965   3.804   4.275  16.518  0.5578  0.5639  0.0916
  537TMC3    C1 7966   3.623   4.183  16.678 -0.3775  0.0934 -0.2091
  537TMC3    C2 7967   3.727   4.250  16.742  0.1067  0.4497 -0.7442
  537TMC3    C3 7968   3.747   4.213  16.873 -0.4016 -0.1634 -0.2568
  537TMC3    C4 7969   3.553   4.084  16.741  0.1373  0.4423  0.4510
  537TMC3    C5 7970   3.592   4.039  16.864  0.1663  0.0478  0.0278
  537TMC3    C6 7971   3.680   4.113  16.934  0.5703 -0.1910 -0.1732
  537TMC3     C 7972   3.605   4.208  16.537  0.1039 -0.2103  0.2591
  537TMC3     O 7973   3.487   4.180  16.499 -0.4946  0.0485  0.2139
  537TMC3     H 7974   3.765   4.340  16.695  1.9301  0.8870  1.5230
  537TMC3    H1 7975   3.470   4.035  16.692  0.2824 -1.2338  1.8638
  537TMC3    H2 7976   3.729   4.079  17.024 -0.9139 -0.1739  0.6365
  537TMC3    C7 7977   3.477   4.001  16.938 -0.1358 -0.3359  0.6360
  537TMC3    C8 7978   3.828   4.305  16.958  0.1317 -0.0921 -0.1951
  537TMC3    O1 7979   3.365   4.032  16.901  0.0205 -0.2757 -0.4805
  537TMC3    O2 7980   3.842   4.277  17.079  0.3145  0.5347  0.0533
  538TMC3    C1 7981   4.588   2.195  10.690  0.3170 -0.4890  0.0183
  538TMC3    C2 7982   4.693   2.159  10.614 -0.0712 -0.5007  0.4260
  538TMC3    C3 7983   4.692   2.200  10.483  0.6824  0.6050 -0.0665
  538TMC3    C4 7984   4.475   2.252  10.640  0.6715 -0.4510  0.3777
  538TMC3    C5 7985   4.476   2.282  10.509  0.6062 -0.2564 -0.5382
  538TMC3    C6 7986   4.587   2.268  10.430 -0.1821 -0.9001  0.0524
  538TMC3     C 7987   4.607   2.219  10.830  0.1070  0.3942 -0.3020
  538TMC3     O 7988   4.571   2.324  10.881  0.2687 -0.1100 -0.0346
  538TMC3     H 7989   0.048   2.099  10.649 -0.6241 -0.5275  1.7195
  538TMC3    H1 7990   4.380   2.260  10.692  0.4988 -0.8003  0.1195
  538TMC3    H2 7991   4.583   2.298  10.326 -0.5684 -1.9388 -0.2259
  538TMC3    C7 7992   4.348   2.316  10.448  0.0769 -0.3742 -0.1741
  538TMC3    C8 7993   0.050   2.128  10.389 -0.4724  0.1646 -0.6373
  538TMC3    O1 7994   4.248   2.284  10.506 -0.0859  0.5158  0.2856
  538TMC3    O2 7995   0.064   2.178  10.279  0.5534 -0.4126 -0.2154
  539MPD2     C 7996   4.581   1.481  11.634  0.8296  0.8327 -0.7332
  539MPD2    C1 7997   4.542   1.456  11.506  0.5324 -0.6646 -0.3149
  539MPD2    C2 7998   4.507   1.563  11.420  0.2451  0.1607 -0.1613
  539MPD2    C3 7999   4.500   1.694  11.468  0.0743 -0.1949 -0.1557
  539MPD2    C4 8000   4.559   1.718  11.594  0.4565  0.5709  0.3533
  539MPD2    C5 8001   4.596   1.611  11.675 -0.0725  0.0808 -0.6892
  539MPD2     H 8002   4.461   1.532  11.327  0.0981  1.1921 -0.4368
  539MPD2    H1 8003   4.580   1.823  11.612  0.8468  0.6172 -0.3379
  539MPD2    H2 8004   4.612   1.405  11.705 -0.1879 -0.4379 -1.6578
  539MPD2    H3 8005   4.648   1.629  11.768 -1.6930  1.7274 -0.0990
  539MPD2     N 8006   4.462   1.809  11.400 -0.1177  0.5416 -0.3003
  539MPD2    H5 8007   4.501   1.890  11.446  2.2747 -0.5864 -0.3642
  539MPD2    N1 8008   4.519   1.325  11.463  0.0472 -0.5375  0.2546
  539MPD2    H7 8009   4.511   1.314  11.363 -0.1572  0.4832  0.1554
  540TMC3    C1 8010   4.395   1.952  11.217 -0.1502 -0.2826  0.4302
  540TMC3    C2 8011   4.343   1.964  11.095 -0.0273  0.5170  0.2560
  540TMC3    C3 8012   4.291   2.080  11.051  0.3827  0.0678  0.4006
  540TMC3    C4 8013   4.386   2.062  11.301 -0.5619  0.0581 -0.2484
  540TMC3    C5 8014   4.344   2.182  11.251 -0.4656  0.3941 -0.2429
  540TMC3    C6 8015   4.296   2.197  11.125  0.5229 -0.3200 -0.4401
  540TMC3     C 8016   4.424   1.815  11.268 -0.3459 -0.1608  0.0210
  540TMC3     O 8017   4.424   1.722  11.189 -0.4363 -0.6538 -0.1409
  540TMC3     H 8018   4.347   1.883  11.023  1.6937 -0.9746  2.0151
  540TMC3    H1 8019   4.424   2.063  11.403 -1.6066 -1.3322  0.1493
  540TMC3    H2 8020   4.233   2.279  11.095 -0.4918 -0.6564  0.7869
  540TMC3    C7 8021   4.286   2.268  11.351  1.1691  0.2375  0.1469
  540TMC3    C8 8022   4.217   2.087  10.925 -0.1390 -0.5087  0.5662
  540TMC3    O1 8023   4.262   2.228  11.464  0.1397  0.1511  0.4998
  540TMC3    O2 8024   4.194   2.198  10.883  0.2245  0.0265  0.1115
  541MPD2     C 8025   2.857   3.261  12.870 -0.0681 -0.0751  0.3243
  541MPD2    C1 8026   2.818   3.148  12.800 -0.2893  0.2940  0.5492
  541MPD2    C2 8027   2.782   3.166  12.668  0.2055  1.2055 -0.0580
  541MPD2    C3 8028   2.767   3.294  12.610 -0.8428  0.1258 -0.4845
  541MPD2    C4 8029   2.811   3.404  12.682  0.4458  0.8475 -0.0564
  541MPD2    C5 8030   2.854   3.387  12.812 -0.5397  0.0124 -0.3111
  541MPD2     H 8031   2.760   3.077  12.610 -0.5802  2.0122 -0.9949
  541MPD2    H1 8032   2.806   3.502  12.638 -2.4687 -0.6899 -3.1538
  541MPD2    H2 8033   2.891   3.255  12.973  1.8058  1.9812 -0.1631
  541MPD2    H3 8034   2.879   3.477  12.866 -0.0778 -0.6054  0.5202
  541MPD2     N 8035   2.699   3.308  12.487 -0.2713  0.2095 -0.2062
  541MPD2    H5 8036   2.692   3.221  12.434 -0.0066  0.5507 -0.8013
  541MPD2    N1 8037   2.821   3.018  12.847  0.8712  0.3302  0.0767
  541MPD2    H7 8038   2.814   2.942  12.781  1.6812  0.8441 -0.5950
  542TMC3    C1 8039   2.579   3.409  12.320 -0.9395 -0.2161 -0.1923
  542TMC3    C2 8040   2.614   3.308  12.238 -0.5307  0.0242 -0.8492
  542TMC3    C3 8041   2.545   3.302  12.117 -0.2505 -0.5925  0.0077
  542TMC3    C4 8042   2.466   3.481  12.291 -0.7427  0.0781 -0.2690
  542TMC3    C5 8043   2.396   3.456  12.176 -0.4782  0.0567  0.3936
  542TMC3    C6 8044   2.428   3.363  12.086  0.1852  0.5889  0.3200
  542TMC3     C 8045   2.615   3.414  12.456 -0.3631  1.1356 -0.2624
  542TMC3     O 8046   2.593   3.516  12.520  0.5460 -0.3537  0.3008
  542TMC3     H 8047   2.693   3.236  12.259  0.1534  1.8250  2.7117
  542TMC3    H1 8048   2.440   3.567  12.352 -1.6689 -0.0130 -0.5298
  542TMC3    H2 8049   2.380   3.363  11.989  0.4118 -2.2957  0.2056
  542TMC3    C7 8050   2.264   3.509  12.182 -0.4856  0.0494 -0.1400
  542TMC3    C8 8051   2.596   3.225  12.006  0.0497  0.3408  0.1840
  542TMC3    O1 8052   2.214   3.514  12.293 -0.1202  0.5288 -0.0869
  542TMC3    O2 8053   2.517   3.189  11.919  0.2694  0.3173 -0.0388
  543TMC3    C1 8054   1.732   0.039  16.984 -0.5575  0.3086 -0.8362
  543TMC3    C2 8055   1.708   4.636  17.016 -0.1154  0.4351 -1.1832
  543TMC3    C3 8056   1.704   4.614  17.147  0.5408  0.2972 -0.6395
  543TMC3    C4 8057   1.750   0.139  17.074 -0.2142  0.5244 -0.2641
  543TMC3    C5 8058   1.722   0.109  17.207 -0.8398 -0.0969  0.4442
  543TMC3    C6 8059   1.702   4.708  17.248 -0.1840 -0.1551  0.1309
  543TMC3     C 8060   1.804   0.061  16.860  0.0287 -0.8682  0.4424
  543TMC3     O 8061   1.914   0.116  16.868 -0.1006 -0.3690 -0.2857
  543TMC3     H 8062   1.698   4.551  16.950  0.7145 -0.6678  0.0925
  543TMC3    H1 8063   1.797   0.234  17.053  1.2497  0.0402  0.8742
  543TMC3    H2 8064   1.732   4.677  17.347 -1.2273  0.4539  0.6458
  543TMC3    C7 8065   1.773   0.209  17.302 -0.5991  0.2808 -0.3095
  543TMC3    C8 8066   1.721   4.478  17.192 -0.4228 -0.3092  0.4215
  543TMC3    O1 8067   1.794   0.321  17.247  0.6622 -0.4264  0.2755
  543TMC3    O2 8068   1.797   4.405  17.125  0.3470  0.1224 -0.1305
  544MPD2     C 8069   1.507   4.083  17.437  0.2051 -0.4089 -0.0257
  544MPD2    C1 8070   1.629   4.096  17.365 -0.5336 -0.0356  0.4032
  544MPD2    C2 8071   1.663   4.216  17.318  0.2070 -0.1609 -0.0636
  544MPD2    C3 8072   1.579   4.321  17.331 -0.6285  0.6030  0.2651
  544MPD2    C4 8073   1.463   4.312  17.408  0.1529 -0.0650  0.0753
  544MPD2    C5 8074   1.426   4.188  17.468  0.4477  0.1366  0.1729
  544MPD2     H 8075   1.758   4.237  17.270  1.0441 -0.3260  1.5252
  544MPD2    H1 8076   1.403   4.400  17.427  0.4282  0.3378 -0.9466
  544MPD2    H2 8077   1.483   3.991  17.489 -0.4474 -0.0696  0.2841
  544MPD2    H3 8078   1.335   4.168  17.524  1.3803 -0.9285  1.3107
  544MPD2     N 8079   1.609   4.448  17.274 -0.0117  0.0334  0.1488
  544MPD2    H5 8080   1.547   4.523  17.300  1.3867  0.7967  1.3145
  544MPD2    N1 8081   1.721   3.988  17.356  0.6724  0.6210  0.0649
  544MPD2    H7 8082   1.684   3.897  17.382 -0.7981  1.3504  0.5733
  545TMC3    C1 8083   1.892   3.856  17.279 -0.4628 -0.4359  1.0441
  545TMC3    C2 8084   1.988   3.825  17.183 -0.5702  0.0717 -0.2419
  545TMC3    C3 8085   2.030   3.694  17.164 -0.0815  0.2024  0.2997
  545TMC3    C4 8086   1.836   3.759  17.355 -1.1180 -0.4147  0.0118
  545TMC3    C5 8087   1.880   3.634  17.325  0.0114  0.4507  0.5849
  545TMC3    C6 8088   1.963   3.592  17.229 -0.2814 -0.0420  0.1983
  545TMC3     C 8089   1.837   3.981  17.284  0.1958 -0.4877  0.8121
  545TMC3     O 8090   1.906   4.068  17.230  0.5288 -0.1930 -0.3157
  545TMC3     H 8091   2.056   3.900  17.144  0.8766 -0.7833  0.6114
  545TMC3    H1 8092   1.777   3.771  17.445  2.5088 -1.7555  2.5945
  545TMC3    H2 8093   1.983   3.488  17.207 -0.0414  0.0074  0.1915
  545TMC3    C7 8094   1.835   3.530  17.418  0.1709  0.3275  0.2078
  545TMC3    C8 8095   2.139   3.660  17.072 -0.8748  0.0601  0.7508
  545TMC3    O1 8096   1.724   3.543  17.470  0.1207 -0.3644  0.0064
  545TMC3    O2 8097   2.176   3.762  17.019 -0.2944 -0.1700 -0.0460
  546MPD2     C 8098   3.295   0.061   0.032  0.6319 -0.2211 -0.6710
  546MPD2    C1 8099   3.292   0.077  17.608  0.3234 -0.0067 -0.6738
  546MPD2    C2 8100   3.393   0.157  17.552 -0.3025 -0.0593 -0.7845
  546MPD2    C3 8101   3.478   0.223  17.639  0.0244  0.0914  0.0591
  546MPD2    C4 8102   3.476   0.210   0.064 -0.1367  0.3774 -0.0367
  546MPD2    C5 8103   3.386   0.121   0.114 -0.6781  0.4114  0.3065
  546MPD2     H 8104   3.390   0.189  17.448 -0.4310  1.3528 -0.3339
  546MPD2    H1 8105   3.549   0.252   0.132  0.8584  2.8937 -2.6511
  546MPD2    H2 8106   3.222   4.722   0.077  1.3801 -0.7429 -0.2119
  546MPD2    H3 8107   3.374   0.115   0.221  2.7545 -1.6478  0.5755
  546MPD2     N 8108   3.571   0.313  17.591 -1.0059 -0.1363 -0.4508
  546MPD2    H5 8109   3.621   0.362  17.664  0.7477 -1.4112 -0.7725
  546MPD2    N1 8110   3.202   4.726  17.530  0.1438  0.6891 -0.6642
  546MPD2    H7 8111   3.141   4.667  17.585  0.7409 -0.5679 -1.3413
  547TMC3    C1 8112   3.075   4.652  17.342  0.3311 -0.2180  0.4816
  547TMC3    C2 8113   3.068   4.631  17.209 -0.3167  0.0753  0.5847
  547TMC3    C3 8114   2.965   4.548  17.159 -0.9894  1.0494 -0.4756
  547TMC3    C4 8115   2.991   4.589  17.428 -0.6583 -0.3483 -0.3448
  547TMC3    C5 8116   2.889   4.514  17.375  0.5935 -0.1363  0.1045
  547TMC3    C6 8117   2.879   4.484  17.243 -1.0602  0.3611  0.4470
  547TMC3     C 8118   3.195   4.719  17.389 -0.6699 -0.2982 -0.2641
  547TMC3     O 8119   3.278   0.036  17.314  0.2646 -1.1098 -0.1359
  547TMC3     H 8120   3.138   4.679  17.142 -0.7403 -1.6150 -1.0456
  547TMC3    H1 8121   2.992   4.604  17.536 -1.6508 -0.3413 -0.3339
  547TMC3    H2 8122   2.797   4.425  17.203  1.1779  0.8136 -4.6812
  547TMC3    C7 8123   2.824   4.415  17.461  0.9794  0.1271 -0.1601
  547TMC3    C8 8124   2.912   4.586  17.023 -0.3807  0.3777  0.2618
  547TMC3    O1 8125   2.792   4.449  17.574 -0.5226 -0.3451  0.2448
  547TMC3    O2 8126   2.813   4.525  16.990 -0.3679 -0.1273 -0.0948
  548MPD2     C 8127   3.378   0.209  12.706 -0.2367 -0.1799  0.2204
  548MPD2    C1 8128   3.313   0.086  12.700  0.5853  0.3232  0.3648
  548MPD2    C2 8129   3.388   4.708  12.659  0.1547  0.4835  0.0711
  548MPD2    C3 8130   3.527   4.717  12.657  0.6519  0.7945 -0.1273
  548MPD2    C4 8131   3.594   0.103  12.691  0.3243  0.0472 -0.8172
  548MPD2    C5 8132   3.517   0.216  12.700  0.0631 -1.1326  0.3714
  548MPD2     H 8133   3.349   4.609  12.637 -0.0033  1.2555 -3.1489
  548MPD2    H1 8134   3.702   0.110  12.683  0.7824 -3.0509  2.6707
  548MPD2    H2 8135   3.329   0.305  12.709 -0.8498 -0.5308  1.7108
  548MPD2    H3 8136   3.568   0.311  12.711  0.2480 -0.8974 -2.4237
  548MPD2     N 8137   3.599   4.604  12.612  0.0940  0.9968  0.1592
  548MPD2    H5 8138   3.546   4.518  12.609 -0.4984  1.3305  1.2838
  548MPD2    N1 8139   3.174   0.094  12.713 -0.1964 -0.4587 -0.1939
  548MPD2    H7 8140   3.140   0.189  12.719  0.4591 -0.2159 -0.2671
  549TMC3    C1 8141   2.955   0.043  12.696  0.5694 -0.0495  0.3123
  549TMC3    C2 8142   2.939   0.178  12.667  0.5153  0.2462  0.1989
  549TMC3    C3 8143   2.808   0.224  12.652 -0.3129  0.2447 -0.2718
  549TMC3    C4 8144   2.848   4.692  12.719 -0.1305  0.9776 -0.0423
  549TMC3    C5 8145   2.724   0.010  12.711  0.0731 -0.6450  0.4306
  549TMC3    C6 8146   2.703   0.145  12.690  0.6914 -0.2357 -0.0296
  549TMC3     C 8147   3.086   4.713  12.708 -0.4782 -0.4340 -0.1661
  549TMC3     O 8148   3.109   4.592  12.717  0.4598  0.0082 -0.2673
  549TMC3     H 8149   3.021   0.227  12.615  0.3109  0.6761  0.2842
  549TMC3    H1 8150   2.863   4.591  12.757 -1.9866  0.7829  0.1873
  549TMC3    H2 8151   2.604   0.188  12.681 -0.0670 -2.4152 -2.1504
  549TMC3    C7 8152   2.608   4.646  12.737  0.6065  0.2884 -0.1711
  549TMC3    C8 8153   2.785   0.315  12.541  0.1078  0.3811 -0.1991
  549TMC3    O1 8154   2.495   4.688  12.769 -0.0677  0.3499 -0.6893
  549TMC3    O2 8155   2.680   0.313  12.480 -0.2852  0.8812 -0.1850
  550TMC3    C1 8156   2.166   2.956  12.180 -0.4053 -0.0041  0.1180
  550TMC3    C2 8157   2.079   2.976  12.286 -1.0007 -0.1517  0.1878
  550TMC3    C3 8158   2.021   3.098  12.311  0.0953  0.0538  0.4656
  550TMC3    C4 8159   2.191   3.065  12.108  0.5696  0.4616  0.3393
  550TMC3    C5 8160   2.139   3.189  12.138 -0.1671  0.0400 -0.2293
  550TMC3    C6 8161   2.059   3.206  12.242  0.0583  0.0298  0.1882
  550TMC3     C 8162   2.110   2.849  12.102 -0.0416  0.2728 -0.9339
  550TMC3     O 8163   2.044   2.764  12.157  0.1107  0.2391 -0.2033
  550TMC3     H 8164   2.057   2.884  12.338  1.4457 -0.5504  0.4736
  550TMC3    H1 8165   2.273   3.069  12.037 -1.4830 -0.6390 -2.0862
  550TMC3    H2 8166   2.031   3.305  12.276  1.1215  0.4546 -0.1777
  550TMC3    C7 8167   2.096   3.259  12.021 -0.3254  0.1612  0.4817
  550TMC3    C8 8168   1.994   3.134  12.451 -0.3240  1.0237 -0.1203
  550TMC3    O1 8169   2.169   3.256  11.923  0.8626 -0.0519 -0.0168
  550TMC3    O2 8170   2.027   3.245  12.484 -0.1376 -0.1630 -0.5746
  551TMC3    C1 8171   4.462   1.103  13.270 -1.1676  0.3457 -0.2428
  551TMC3    C2 8172   4.498   1.223  13.216  0.6004 -0.0495 -0.2435
  551TMC3    C3 8173   4.485   1.336  13.291 -0.3872  0.2432  0.0107
  551TMC3    C4 8174   4.414   1.091  13.404 -0.2165  0.4618 -0.4758
  551TMC3    C5 8175   4.394   1.207  13.468 -0.4330  0.2497  0.1406
  551TMC3    C6 8176   4.424   1.331  13.415  0.2577  0.0716  0.1401
  551TMC3     C 8177   4.397   1.003  13.183 -0.7437 -0.0914 -0.0411
  551TMC3     O 8178   4.382   1.039  13.067 -0.4764  0.2735 -0.1396
  551TMC3     H 8179   4.534   1.220  13.114  0.3524  1.0597 -0.3688
  551TMC3    H1 8180   4.377   1.002  13.454 -1.0522  1.6070  0.9151
  551TMC3    H2 8181   4.412   1.427  13.464 -0.5378  0.1988 -0.2978
  551TMC3    C7 8182   4.384   1.197  13.616 -0.7037  0.6892  0.5663
  551TMC3    C8 8183   4.499   1.467  13.236 -0.2033 -0.6094  0.2107
  551TMC3    O1 8184   4.429   1.105  13.680 -0.4729 -0.1919 -0.1695
  551TMC3    O2 8185   4.467   1.563  13.306 -0.2763  0.1851 -0.0648
  552MPD2     C 8186   1.138   2.133  14.191 -0.0995  0.3815 -0.0080
  552MPD2    C1 8187   1.261   2.133  14.125 -0.5823  0.3739 -0.4882
  552MPD2    C2 8188   1.368   2.187  14.191  0.1197  0.3965  0.5714
  552MPD2    C3 8189   1.363   2.228  14.318 -0.0573 -0.4537  0.6241
  552MPD2    C4 8190   1.241   2.228  14.387  1.0685  0.6948 -0.3534
  552MPD2    C5 8191   1.128   2.179  14.323  0.6520  0.1719 -0.0802
  552MPD2     H 8192   1.452   2.226  14.134 -0.8631 -1.4391 -2.1098
  552MPD2    H1 8193   1.232   2.271  14.486 -1.0578  0.4238 -0.4365
  552MPD2    H2 8194   1.045   2.096  14.150 -0.4221  1.1439  0.0476
  552MPD2    H3 8195   1.031   2.184  14.371  1.6136  2.1601  1.6549
  552MPD2     N 8196   1.483   2.277  14.382 -0.8098 -0.1536 -0.2153
  552MPD2    H5 8197   1.478   2.318  14.475 -0.9112 -0.4769 -0.0801
  552MPD2    N1 8198   1.274   2.115  13.986  0.7325 -0.0957 -0.5875
  552MPD2    H7 8199   1.366   2.133  13.946  0.9407 -0.6177 -0.3424
  553TMC3    C1 8200   1.214   2.122  13.764 -0.7061  0.5465  0.7396
  553TMC3    C2 8201   1.128   2.194  13.680 -1.4422 -0.0909  0.2773
  553TMC3    C3 8202   1.173   2.246  13.561 -0.4482  0.5195  0.8348
  553TMC3    C4 8203   1.344   2.102  13.730  0.0183 -0.2061  1.0338
  553TMC3    C5 8204   1.378   2.144  13.599  0.1634 -0.3723 -0.3754
  553TMC3    C6 8205   1.295   2.207  13.514  0.0614  0.0975 -0.1617
  553TMC3     C 8206   1.166   2.106  13.900  0.3031 -0.0575 -0.1839
  553TMC3     O 8207   1.046   2.117  13.917 -0.2367 -0.5448  0.4836
  553TMC3     H 8208   1.027   2.222  13.709 -0.2532  2.0867  2.2457
  553TMC3    H1 8209   1.409   2.026  13.773  1.2341  0.0799 -0.3045
  553TMC3    H2 8210   1.346   2.258  13.432  0.7811  1.6404  1.2385
  553TMC3    C7 8211   1.520   2.133  13.558 -0.2086  0.5113 -0.9039
  553TMC3    C8 8212   1.170   2.387  13.555 -0.0082 -0.0643 -0.5341
  553TMC3    O1 8213   1.536   2.122  13.438  0.0054  0.6664 -0.5281
  553TMC3    O2 8214   1.237   2.444  13.640  0.0290 -0.3740 -0.2261
  554TMC3    C1 8215   3.380   1.611  11.432 -0.3151  0.0030  0.3001
  554TMC3    C2 8216   3.273   1.552  11.373  0.5453 -0.3461  0.9995
  554TMC3    C3 8217   3.224   1.608  11.257  0.0509 -0.1678  0.6618
  554TMC3    C4 8218   3.447   1.717  11.377  0.3623  0.3876 -0.0977
  554TMC3    C5 8219   3.399   1.771  11.265 -0.0767  0.1644 -0.0994
  554TMC3    C6 8220   3.284   1.719  11.207 -0.0862  0.1434  0.2974
  554TMC3     C 8221   3.409   1.562  11.569 -0.1334  0.4381 -0.7164
  554TMC3     O 8222   3.310   1.523  11.634 -0.1600 -0.4375 -0.6871
  554TMC3     H 8223   3.236   1.461  11.417 -2.8707  0.8826  0.6341
  554TMC3    H1 8224   3.545   1.754  11.406  0.6874 -1.8362  1.7132
  554TMC3    H2 8225   3.250   1.768  11.117 -0.0911  1.2303  0.8891
  554TMC3    C7 8226   3.480   1.856  11.172 -0.1285 -0.1851  0.5949
  554TMC3    C8 8227   3.158   1.522  11.160  0.1387 -0.1316  0.0637
  554TMC3    O1 8228   3.444   1.851  11.059  0.1401  0.0057  0.2271
  554TMC3    O2 8229   3.219   1.516  11.055  0.2652  0.2138  0.2896
  555TMC3    C1 8230   2.509   1.250  15.076  0.2688 -0.3204  0.6202
  555TMC3    C2 8231   2.507   1.343  15.175 -1.1617 -0.3259  0.2850
  555TMC3    C3 8232   2.526   1.306  15.306  0.4618 -0.1264 -0.7085
  555TMC3    C4 8233   2.526   1.116  15.108  0.3486  0.6516  0.1915
  555TMC3    C5 8234   2.550   1.085  15.241 -0.0145 -0.0624  0.4034
  555TMC3    C6 8235   2.545   1.179  15.343  1.0529 -0.2623 -0.2330
  555TMC3     C 8236   2.545   1.287  14.945  0.5681 -0.0814  0.3348
  555TMC3     O 8237   2.619   1.215  14.881 -0.1273  0.3302 -0.6560
  555TMC3     H 8238   2.476   1.443  15.149 -1.1069 -0.9587 -2.2155
  555TMC3    H1 8239   2.518   1.039  15.032 -0.5159  0.1339  0.8175
  555TMC3    H2 8240   2.531   1.155  15.448  2.9945  0.9799  0.2970
  555TMC3    C7 8241   2.546   0.950  15.287  0.2514  0.3754  0.4429
  555TMC3    C8 8242   2.481   1.410  15.404  0.1883  0.4443  0.0227
  555TMC3    O1 8243   2.521   0.920  15.403 -0.4295  0.1157 -0.1204
  555TMC3    O2 8244   2.439   1.520  15.365  0.4140 -0.1325  0.2762
  556MPD2     C 8245   0.669   2.707  10.233  0.9111  0.0297 -0.9087
  556MPD2    C1 8246   0.668   2.624  10.341  0.5552  0.0323  0.2834
  556MPD2    C2 8247   0.681   2.493  10.306  0.1452 -0.0327  0.1172
  556MPD2    C3 8248   0.698   2.452  10.173 -0.3230 -0.0021 -0.1308
  556MPD2    C4 8249   0.694   2.540  10.068 -0.6545  0.0412  0.1305
  556MPD2    C5 8250   0.675   2.668  10.103  0.0367  0.2270 -0.0003
  556MPD2     H 8251   0.699   2.424  10.388  0.6271  0.6737  0.6082
  556MPD2    H1 8252   0.706   2.506   9.965 -0.1501 -3.0882  1.2089
  556MPD2    H2 8253   0.670   2.810  10.266  0.2271 -0.0422 -0.6523
  556MPD2    H3 8254   0.664   2.743  10.025  1.1430  2.5260  2.0435
  556MPD2     N 8255   0.732   2.314  10.152 -0.1042 -0.1917  0.7161
  556MPD2    H5 8256   0.727   2.246  10.228  0.4923 -1.5078 -0.4151
  556MPD2    N1 8257   0.663   2.658  10.478 -0.0871  0.2817  0.0408
  556MPD2    H7 8258   0.645   2.591  10.552 -2.5545 -0.6885 -1.4269
  557TMC3    C1 8259   0.773   2.117  10.045 -0.0194 -0.4502  0.0970
  557TMC3    C2 8260   0.865   2.059   9.967 -0.0697 -0.6606  0.3684
  557TMC3    C3 8261   0.852   1.923   9.939 -0.5027 -0.2820  0.3464
  557TMC3    C4 8262   0.665   2.044  10.091  1.1048 -0.3092 -0.0142
  557TMC3    C5 8263   0.656   1.908  10.064 -0.0046 -0.5324  0.1917
  557TMC3    C6 8264   0.750   1.847   9.990  0.2095  0.1996 -0.2505
  557TMC3     C 8265   0.770   2.258  10.030 -0.3611  0.1602  1.2526
  557TMC3     O 8266   0.835   2.306   9.940 -0.0867 -0.6162 -0.2080
  557TMC3     H 8267   0.948   2.110   9.919  0.4271 -1.5464  0.2800
  557TMC3    H1 8268   0.601   2.095  10.162  0.2878 -0.4595 -0.6415
  557TMC3    H2 8269   0.744   1.742   9.966 -1.1074 -0.4588  2.9677
  557TMC3    C7 8270   0.565   1.830  10.145 -0.9139  0.1337  0.0756
  557TMC3    C8 8271   0.925   1.880   9.820 -0.1100  0.4928 -0.0274
  557TMC3    O1 8272   0.607   1.725  10.185  0.2523 -0.5919  0.1920
  557TMC3    O2 8273   0.934   1.958   9.726  0.0147  0.5498 -0.1325
  558TMC3    C1 8274   3.135   0.700  10.339 -0.6112  0.2009 -0.9560
  558TMC3    C2 8275   3.019   0.667  10.405  0.5591 -0.0874 -0.3269
  558TMC3    C3 8276   2.912   0.632  10.330  0.0852  0.7658  0.0981
  558TMC3    C4 8277   3.146   0.693  10.207  0.2251 -0.1912 -0.0964
  558TMC3    C5 8278   3.038   0.642  10.135 -0.5073  0.5154  0.7867
  558TMC3    C6 8279   2.918   0.611  10.196 -0.2201 -0.0475  0.1211
  558TMC3     C 8280   3.251   0.711  10.424 -0.1633 -0.4943  0.2058
  558TMC3     O 8281   3.354   0.739  10.365 -0.3219  0.1427 -0.0148
  558TMC3     H 8282   3.000   0.684  10.510 -0.0341  0.2089 -0.4829
  558TMC3    H1 8283   3.244   0.703  10.163 -0.1870 -0.6240 -1.1159
  558TMC3    H2 8284   2.837   0.568  10.138  0.4009 -1.9259  0.6120
  558TMC3    C7 8285   3.035   0.654   9.992  0.2949 -0.8222  0.1749
  558TMC3    C8 8286   2.785   0.600  10.396  0.1872  0.1250 -0.6590
  558TMC3    O1 8287   2.925   0.632   9.937 -0.4108  0.1542  0.1975
  558TMC3    O2 8288   2.689   0.575  10.323 -0.6295 -0.2888  0.7357
  559MPD2     C 8289   3.015   1.105  10.482 -0.7781 -0.1462  0.0161
  559MPD2    C1 8290   2.970   1.076  10.609 -0.0277 -0.5991  0.0913
  559MPD2    C2 8291   3.054   1.048  10.712 -0.8285  0.2999 -0.4706
  559MPD2    C3 8292   3.190   1.041  10.689 -0.4277  0.1706  0.1011
  559MPD2    C4 8293   3.236   1.062  10.559  0.7258 -0.0523  0.1120
  559MPD2    C5 8294   3.154   1.106  10.459 -0.2980 -0.3097 -0.7357
  559MPD2     H 8295   3.019   1.024  10.812 -1.2611  1.3629 -0.3695
  559MPD2    H1 8296   3.341   1.049  10.535  0.4285  0.7144 -1.5714
  559MPD2    H2 8297   2.941   1.134  10.408 -2.1874  0.8651  1.8356
  559MPD2    H3 8298   3.187   1.115  10.357 -1.9293  2.0164 -1.0668
  559MPD2     N 8299   3.267   1.003  10.797  0.1758  0.4354 -0.2429
  559MPD2    H5 8300   3.216   0.966  10.876  0.2134  2.4951  0.7170
  559MPD2    N1 8301   2.826   1.073  10.625 -0.2834  0.8158 -0.2517
  559MPD2    H7 8302   2.769   1.079  10.542  0.4849  0.5200 -0.8011
  560TMC3    C1 8303   3.461   0.957  10.929 -0.0698 -0.1464 -0.6287
  560TMC3    C2 8304   3.401   0.848  10.986 -0.3470 -0.1073  0.2395
  560TMC3    C3 8305   3.455   0.794  11.097  0.1411  0.4298 -0.2278
  560TMC3    C4 8306   3.579   1.013  10.974  0.6100  0.4909  0.6572
  560TMC3    C5 8307   3.633   0.955  11.093  0.0574  0.2342  0.7582
  560TMC3    C6 8308   3.567   0.848  11.154 -0.4670 -0.1457  0.3159
  560TMC3     C 8309   3.408   1.002  10.802 -0.1457  0.0123  0.6965
  560TMC3     O 8310   3.492   1.051  10.726  0.2501 -0.1988  0.1248
  560TMC3     H 8311   3.313   0.805  10.940  1.3563 -2.4751 -0.8250
  560TMC3    H1 8312   3.608   1.108  10.932 -0.2118 -0.5333 -2.2507
  560TMC3    H2 8313   3.611   0.822  11.249 -2.4973 -0.2022  1.2384
  560TMC3    C7 8314   3.732   1.026  11.166  0.0172 -0.4056 -0.0237
  560TMC3    C8 8315   3.385   0.682  11.161  0.2855  0.1082  0.3739
  560TMC3    O1 8316   3.737   1.005  11.291  0.5111 -0.2689 -1.0665
  560TMC3    O2 8317   3.266   0.672  11.141 -0.6065  0.4974 -0.3506
  561TMC3    C1 8318   1.113   4.560  11.270 -0.4864  0.4204  0.1660
  561TMC3    C2 8319   1.035   4.468  11.342 -0.3285 -0.2630 -0.1818
  561TMC3    C3 8320   0.902   4.507  11.360  0.0938 -0.4034 -0.8835
  561TMC3    C4 8321   1.069   4.672  11.205  0.0860 -0.0605 -0.7470
  561TMC3    C5 8322   0.940   4.700  11.225 -0.6057  0.0178 -0.0070
  561TMC3    C6 8323   0.857   4.626  11.310 -0.4296 -0.2671 -0.4858
  561TMC3     C 8324   1.218   4.492  11.198 -0.3539 -0.2814  0.1680
  561TMC3     O 8325   1.204   4.370  11.178  0.0092  0.1231 -0.3453
  561TMC3     H 8326   1.078   4.376  11.381 -0.3609  0.2713  1.1227
  561TMC3    H1 8327   1.124   0.000  11.130 -0.0390 -1.1197 -1.6246
  561TMC3    H2 8328   0.756   4.655  11.335 -0.2733 -0.9388  0.9232
  561TMC3    C7 8329   0.874   0.078  11.152  0.0173  0.3394  0.5061
  561TMC3    C8 8330   0.836   4.468  11.479 -0.1044  0.9060  0.4501
  561TMC3    O1 8331   0.753   0.088  11.161 -0.3850 -0.0008  0.1869
  561TMC3    O2 8332   0.836   4.349  11.510  0.0228  0.2153  0.3696
  562TMC3    C1 8333   2.525   1.865  16.388  0.6135  0.7855 -0.0149
  562TMC3    C2 8334   2.451   1.983  16.396  0.0995  0.5649  0.0379
  562TMC3    C3 8335   2.366   2.006  16.289  0.9438 -0.3200  0.8337
  562TMC3    C4 8336   2.521   1.784  16.278 -0.1175  0.2756  0.3590
  562TMC3    C5 8337   2.428   1.810  16.179 -0.1088  0.0967 -0.3455
  562TMC3    C6 8338   2.352   1.920  16.181  0.6212  0.4590  0.1384
  562TMC3     C 8339   2.629   1.836  16.481 -0.4875  0.4723 -0.7314
  562TMC3     O 8340   2.686   1.727  16.478 -0.0889  0.1617 -0.4098
  562TMC3     H 8341   2.456   2.051  16.481 -0.5171 -0.5782  0.9766
  562TMC3    H1 8342   2.584   1.696  16.273  1.3898  1.1938  3.8533
  562TMC3    H2 8343   2.271   1.924  16.109  1.8445 -0.5099 -1.2682
  562TMC3    C7 8344   2.386   1.710  16.074  0.1174  0.3657 -0.2595
  562TMC3    C8 8345   2.271   2.116  16.288 -0.2852 -0.0230 -0.3536
  562TMC3    O1 8346   2.302   1.749  15.994  0.6324 -0.7909 -0.3067
  562TMC3    O2 8347   2.234   2.147  16.404  0.3922 -0.2625 -0.3831
  563MPD2     C 8348   4.676   3.023  15.498  0.9141 -0.9285 -0.8036
  563MPD2    C1 8349   4.645   3.086  15.618  0.3960 -0.0280 -0.1088
  563MPD2    C2 8350   4.727   3.086  15.730 -0.1886 -1.3458 -0.1294
  563MPD2    C3 8351   0.121   3.035  15.705  0.3295 -0.8787 -0.2882
  563MPD2    C4 8352   0.160   2.995  15.583 -0.1154  0.2458 -0.4292
  563MPD2    C5 8353   0.077   2.986  15.479 -0.3767 -0.3397 -0.0105
  563MPD2     H 8354   4.701   3.132  15.825  1.3549 -1.3412  0.2896
  563MPD2    H1 8355   0.255   2.946  15.564  1.0810  2.0781  0.7979
  563MPD2    H2 8356   4.598   3.001  15.426  0.5433 -3.3778  0.3266
  563MPD2    H3 8357   0.109   2.936  15.388 -2.8372 -1.9558  0.0037
  563MPD2     N 8358   0.192   3.042  15.822 -1.0122  0.6077 -0.4742
  563MPD2    H5 8359   0.142   3.059  15.909  0.5894 -3.1049  1.2004
  563MPD2    N1 8360   4.516   3.121  15.642  0.1744  0.1608 -0.3586
  563MPD2    H7 8361   4.448   3.065  15.591  1.1225 -0.1079 -1.3136
  564TMC3    C1 8362   4.370   3.166  15.815  0.0166  0.0664 -0.3483
  564TMC3    C2 8363   4.266   3.095  15.764 -0.0444 -0.0673 -0.1877
  564TMC3    C3 8364   4.190   3.027  15.852 -0.0796 -0.3536  0.1525
  564TMC3    C4 8365   4.410   3.156  15.948  0.3474  0.4546  0.6750
  564TMC3    C5 8366   4.334   3.092  16.034  0.5790 -0.2218  0.2339
  564TMC3    C6 8367   4.219   3.026  15.988 -0.3133  0.2162 -0.9352
  564TMC3     C 8368   4.476   3.217  15.737 -0.0952  0.0120  0.3062
  564TMC3     O 8369   4.551   3.291  15.796  0.6856  0.2929  0.0814
  564TMC3     H 8370   4.243   3.115  15.660 -0.5493 -2.4231 -0.5198
  564TMC3    H1 8371   4.499   3.208  15.982  0.9623  0.5025 -0.9756
  564TMC3    H2 8372   4.155   2.971  16.056 -0.7836  0.2272 -1.3669
  564TMC3    C7 8373   4.408   3.013  16.131  0.5331  0.1685  0.0295
  564TMC3    C8 8374   4.089   2.920  15.812  0.6271 -0.0570 -0.6080
  564TMC3    O1 8375   4.508   3.068  16.180 -0.2546 -0.2044 -0.0892
  564TMC3    O2 8376   4.054   2.848  15.904 -0.1746  0.0126 -0.1260
  565TMC3    C1 8377   0.227   4.353  10.306 -0.3115 -0.6128 -0.6376
  565TMC3    C2 8378   0.228   4.221  10.355 -0.8146  0.0765  0.6233
  565TMC3    C3 8379   0.107   4.150  10.334  0.7403  0.6462  0.0336
  565TMC3    C4 8380   0.109   4.413  10.260 -0.4602  0.3330 -0.3441
  565TMC3    C5 8381   4.717   4.346  10.265 -0.6868  0.2697 -1.1459
  565TMC3    C6 8382   4.719   4.211  10.293  0.0545  0.4752  0.1309
  565TMC3     C 8383   0.342   4.440  10.335  0.5432  0.6802 -0.0693
  565TMC3     O 8384   0.358   4.551  10.284 -0.4005  0.2635 -0.4639
  565TMC3     H 8385   0.320   4.170  10.382  0.1365  1.2425 -0.4192
  565TMC3    H1 8386   0.099   4.520  10.246 -2.6039  0.1463 -0.2693
  565TMC3    H2 8387   4.625   4.158  10.283  0.4243 -0.4557  1.5016
  565TMC3    C7 8388   4.584   4.411  10.248  0.0848  0.4678  0.0643
  565TMC3    C8 8389   0.126   4.009  10.327  0.0925  0.4821  0.2889
  565TMC3    O1 8390   4.498   4.336  10.206  0.3791 -0.1289  0.4737
  565TMC3    O2 8391   0.219   3.960  10.393 -0.1860  0.0040 -0.0219
  566MPD2     C 8392   1.417   1.760  14.032 -0.0153  0.2759 -0.2841
  566MPD2    C1 8393   1.528   1.680  14.025 -0.2392  0.4050 -0.0635
  566MPD2    C2 8394   1.521   1.563  13.956  0.0128 -0.0750 -0.1678
  566MPD2    C3 8395   1.406   1.522  13.887 -0.1721  0.8960  0.8367
  566MPD2    C4 8396   1.296   1.602  13.894 -0.2299 -0.1331  0.2280
  566MPD2    C5 8397   1.304   1.716  13.972 -0.5409 -0.0984  0.0750
  566MPD2     H 8398   1.607   1.498  13.952 -0.8769 -1.3570  1.9138
  566MPD2    H1 8399   1.202   1.576  13.846 -0.5610 -1.2629  1.5031
  566MPD2    H2 8400   1.415   1.847  14.096  3.5891  0.1974 -0.0240
  566MPD2    H3 8401   1.211   1.770  13.987 -1.5584 -1.6877 -0.5454
  566MPD2     N 8402   1.402   1.401  13.815 -0.1188  0.7269 -0.2187
  566MPD2    H5 8403   1.321   1.392  13.755  1.9340 -0.7434 -2.8228
  566MPD2    N1 8404   1.659   1.709  14.077 -0.3559  0.2223 -0.4363
  566MPD2    H7 8405   1.732   1.639  14.076  0.2427  0.8366  0.2236
  567TMC3    C1 8406   1.842   1.847  14.077 -0.6597  0.5412  0.4769
  567TMC3    C2 8407   1.865   1.897  13.954  0.6374  0.2014 -0.0119
  567TMC3    C3 8408   1.989   1.866  13.900  1.0283  0.3593  0.7044
  567TMC3    C4 8409   1.908   1.750  14.142  0.8724 -0.2583  0.1140
  567TMC3    C5 8410   2.030   1.717  14.080 -0.2731  0.3126 -0.0667
  567TMC3    C6 8411   2.072   1.774  13.963 -0.0311 -1.0372  0.6073
  567TMC3     C 8412   1.698   1.837  14.102  0.3396 -0.2823 -0.4140
  567TMC3     O 8413   1.639   1.945  14.094 -0.1542 -0.2744  0.1029
  567TMC3     H 8414   1.787   1.941  13.892  0.8786  1.3955  0.5398
  567TMC3    H1 8415   1.879   1.723  14.243 -1.1530  2.8255  0.3545
  567TMC3    H2 8416   2.164   1.738  13.919 -0.3997 -1.2204 -0.0179
  567TMC3    C7 8417   2.112   1.610  14.131  0.6499  0.6999  0.0836
  567TMC3    C8 8418   2.008   1.887  13.758 -0.0376  0.2339 -0.1186
  567TMC3    O1 8419   2.220   1.604  14.080 -0.0026  0.1589 -0.1508
  567TMC3    O2 8420   1.907   1.867  13.688 -0.5078  0.3307 -0.6318
  568MPD2     C 8421   3.812   1.510  16.129  0.0848 -0.1529 -0.0128
  568MPD2    C1 8422   3.903   1.590  16.188  0.0445  0.1368  0.1466
  568MPD2    C2 8423   3.923   1.713  16.139  0.0618 -0.0437  0.3186
  568MPD2    C3 8424   3.868   1.765  16.022  0.7101 -0.1223  0.0387
  568MPD2    C4 8425   3.788   1.674  15.956 -0.1981 -0.4837  0.0563
  568MPD2    C5 8426   3.758   1.551  16.007 -0.8151  0.5503  0.0430
  568MPD2     H 8427   3.981   1.775  16.206  0.7546 -0.4990  0.1443
  568MPD2    H1 8428   3.728   1.705  15.871 -0.2270 -0.7366 -0.0144
  568MPD2    H2 8429   3.787   1.409  16.160  1.0609  0.0196  1.3208
  568MPD2    H3 8430   3.705   1.477  15.948  0.7976 -2.3739  2.3150
  568MPD2     N 8431   3.892   1.902  15.986 -0.3473  0.2622 -0.2708
  568MPD2    H5 8432   3.944   1.958  16.053  0.6143  0.6737 -1.3606
  568MPD2    N1 8433   3.959   1.548  16.309  0.6884 -0.1532 -0.5048
  568MPD2    H7 8434   3.923   1.460  16.344 -0.4532  1.0623  1.3965
  569TMC3    C1 8435   3.871   2.093  15.847  0.4215 -0.1963  0.1286
  569TMC3    C2 8436   3.922   2.165  15.952  0.0004 -0.5029  0.4516
  569TMC3    C3 8437   4.023   2.251  15.925 -0.3729 -0.7826  0.1054
  569TMC3    C4 8438   3.908   2.119  15.716  0.2468 -0.4542 -0.3286
  569TMC3    C5 8439   4.005   2.210  15.698  0.8747 -0.2218  0.1870
  569TMC3    C6 8440   4.067   2.267  15.802 -0.1285 -0.2072  0.1526
  569TMC3     C 8441   3.829   1.953  15.871 -0.5001  0.0268  0.1750
  569TMC3     O 8442   3.754   1.903  15.789 -0.6796  0.2775 -0.3257
  569TMC3     H 8443   3.881   2.147  16.051  0.0629  0.3277  0.6252
  569TMC3    H1 8444   3.860   2.079  15.628 -0.5647 -1.7619  0.7017
  569TMC3    H2 8445   4.165   2.313  15.790 -0.0456 -0.2220  0.7491
  569TMC3    C7 8446   3.988   2.310  15.588 -0.3807 -0.9060 -0.2799
  569TMC3    C8 8447   4.012   2.382  15.987  0.5632 -0.3279  0.0974
  569TMC3    O1 8448   3.934   2.275  15.486  0.1416 -0.0618 -0.3883
  569TMC3    O2 8449   4.038   2.474  15.911 -0.0483 -0.7619 -0.3757
  570TMC3    C1 8450   3.259   0.636  16.024 -0.5876  0.0356  0.0045
  570TMC3    C2 8451   3.298   0.669  15.899 -0.6965 -0.1828 -0.3945
  570TMC3    C3 8452   3.392   0.765  15.884 -0.3358  0.0886  0.4837
  570TMC3    C4 8453   3.300   0.720  16.124  0.8376  0.6562 -0.4444
  570TMC3    C5 8454   3.380   0.828  16.101  0.6308  0.1228  0.6902
  570TMC3    C6 8455   3.427   0.856  15.976  0.8828 -0.5250  0.5854
  570TMC3     C 8456   3.153   0.538  16.040  0.4418 -0.1321 -0.6343
  570TMC3     O 8457   3.095   0.500  15.937 -0.3218 -0.0243 -0.0281
  570TMC3     H 8458   3.250   0.617  15.818  1.7073 -2.2336 -0.4979
  570TMC3    H1 8459   3.259   0.707  16.224 -0.0708  1.8704 -0.6659
  570TMC3    H2 8460   3.492   0.938  15.946 -0.3064 -0.1386 -0.9158
  570TMC3    C7 8461   3.402   0.922  16.206 -0.6123 -0.1744  0.5594
  570TMC3    C8 8462   3.436   0.791  15.744  0.7162 -0.0867  0.3647
  570TMC3    O1 8463   3.406   0.883  16.321  0.6030 -0.6062  0.3825
  570TMC3    O2 8464   3.475   0.906  15.725 -0.5238 -0.3698  0.0778
  571MPD2     C 8465   1.870   2.333   0.137  0.3688  0.0306  0.1935
  571MPD2    C1 8466   1.770   2.370   0.051  0.3014  0.7994 -0.1343
  571MPD2    C2 8467   1.662   2.445   0.093 -0.2898  0.2738 -0.3534
  571MPD2    C3 8468   1.644   2.471   0.227  0.2434  0.3012  0.5453
  571MPD2    C4 8469   1.749   2.427   0.315  0.6941 -0.0177  0.1892
  571MPD2    C5 8470   1.862   2.365   0.270  0.3399  0.4214  0.4949
  571MPD2     H 8471   1.575   2.474   0.035 -1.2627  0.3936  1.1644
  571MPD2    H1 8472   1.735   2.443   0.421 -0.8658 -1.7254  0.2339
  571MPD2    H2 8473   1.948   2.264   0.108 -1.7982 -2.4808  0.3399
  571MPD2    H3 8474   1.937   2.336   0.343  0.5150 -0.5838 -0.0879
  571MPD2     N 8475   1.531   2.547   0.280 -0.6048 -0.2206 -0.1461
  571MPD2    H5 8476   1.516   2.550   0.381  0.5113 -0.0567  0.0081
  571MPD2    N1 8477   1.780   2.321  17.633 -0.4047 -0.0954  0.3861
  571MPD2    H7 8478   1.863   2.270  17.606 -0.8012 -0.0825 -0.8683
  572TMC3    C1 8479   1.386   2.721   0.280  0.4818  0.3736 -0.0270
  572TMC3    C2 8480   1.312   2.662   0.385 -0.0785 -0.2144  0.1310
  572TMC3    C3 8481   1.206   2.736   0.431 -0.9627 -0.1049 -0.1291
  572TMC3    C4 8482   1.368   2.846   0.237  0.7676  0.0580  0.3156
  572TMC3    C5 8483   1.270   2.918   0.299 -0.0265 -0.4762 -0.3554
  572TMC3    C6 8484   1.188   2.870   0.395  0.9082 -0.0248  0.7701
  572TMC3     C 8485   1.479   2.644   0.204 -0.3535 -0.0991 -0.3204
  572TMC3     O 8486   1.516   2.686   0.096 -0.0564  0.3075  0.1396
  572TMC3     H 8487   1.291   2.556   0.397 -0.6606 -0.1152 -0.0028
  572TMC3    H1 8488   1.407   2.896   0.148 -0.6772 -2.2450 -1.6083
  572TMC3    H2 8489   1.106   2.932   0.430  0.6804  1.1354 -1.8784
  572TMC3    C7 8490   1.257   3.059   0.259 -0.7381 -0.3407 -0.0020
  572TMC3    C8 8491   1.140   2.670   0.547 -0.2849  0.1891 -0.6445
  572TMC3    O1 8492   1.143   3.100   0.243 -0.0905  0.6395  0.9817
  572TMC3    O2 8493   1.162   2.549   0.561  0.1205 -0.9891  0.3035
  573MPD2     C 8494   1.987   3.370   1.004  0.4827  0.3522  0.3831
  573MPD2    C1 8495   2.125   3.396   1.009  0.4847 -0.0845  0.0730
  573MPD2    C2 8496   2.204   3.322   0.917  0.1402  0.4348  1.0673
  573MPD2    C3 8497   2.146   3.240   0.822  0.1630  0.1710 -0.7982
  573MPD2    C4 8498   2.010   3.208   0.838 -0.2711  0.2528 -0.6657
  573MPD2    C5 8499   1.936   3.272   0.929  0.1708 -0.3939  0.8265
  573MPD2     H 8500   2.310   3.341   0.907  0.4416 -0.3942  2.7183
  573MPD2    H1 8501   1.968   3.132   0.772  0.2101 -1.4942  1.0278
  573MPD2    H2 8502   1.921   3.424   1.072 -4.0701 -3.0491 -1.3493
  573MPD2    H3 8503   1.830   3.254   0.945 -0.0917  0.4449  0.0451
  573MPD2     N 8504   2.212   3.186   0.714  0.3222  0.4256  0.0654
  573MPD2    H5 8505   2.155   3.138   0.645 -0.2001 -0.6884  1.2683
  573MPD2    N1 8506   2.172   3.492   1.101  0.3600 -0.5405 -0.7773
  573MPD2    H7 8507   2.105   3.549   1.151  0.3631 -1.2723  0.0554
  574TMC3    C1 8508   2.366   3.182   0.532 -0.3256 -0.0906  0.6960
  574TMC3    C2 8509   2.258   3.158   0.454 -0.2501  0.5452 -0.2926
  574TMC3    C3 8510   2.268   3.188   0.319  0.1072  0.5330 -0.7510
  574TMC3    C4 8511   2.482   3.240   0.481  0.5364  0.3690 -0.3555
  574TMC3    C5 8512   2.483   3.263   0.346 -0.7412 -0.8125 -0.0760
  574TMC3    C6 8513   2.380   3.244   0.267 -0.4311  0.7128  0.1550
  574TMC3     C 8514   2.343   3.218   0.669 -0.3826 -0.5588 -0.3863
  574TMC3     O 8515   2.435   3.275   0.728 -0.8702  0.0685 -0.2162
  574TMC3     H 8516   2.175   3.095   0.484  0.4561 -1.2889 -2.2366
  574TMC3    H1 8517   2.562   3.268   0.549  0.4754  1.4945 -0.7469
  574TMC3    H2 8518   2.389   3.243   0.159 -0.7004  0.4638  0.1359
  574TMC3    C7 8519   2.614   3.283   0.280  0.8206  0.2488  0.7766
  574TMC3    C8 8520   2.162   3.152   0.234 -0.1988 -0.6191 -0.1476
  574TMC3    O1 8521   2.635   3.248   0.169 -0.8984  0.0716 -0.0638
  574TMC3    O2 8522   2.077   3.072   0.266 -0.0491 -0.0522  0.6916
  575TMC3    C1 8523   0.376   3.300  10.720  0.7687  0.2958 -0.0119
  575TMC3    C2 8524   0.395   3.189  10.644 -0.7273  0.1611 -0.2844
  575TMC3    C3 8525   0.357   3.190  10.515  0.1056  0.1045 -0.3394
  575TMC3    C4 8526   0.310   3.409  10.673  0.0571 -0.3237  0.1941
  575TMC3    C5 8527   0.266   3.403  10.541  0.2764  0.6448 -0.2939
  575TMC3    C6 8528   0.293   3.294  10.460  0.2510  0.4116 -0.0262
  575TMC3     C 8529   0.444   3.301  10.851  1.0117 -0.4156 -0.0700
  575TMC3     O 8530   0.470   3.191  10.892 -0.3384 -0.3420 -0.4502
  575TMC3     H 8531   0.444   3.103  10.687  0.4044  0.6931 -0.5150
  575TMC3    H1 8532   0.285   3.484  10.747  2.0233 -0.1922  0.7231
  575TMC3    H2 8533   0.273   3.292  10.353 -0.7836 -1.1715  0.2000
  575TMC3    C7 8534   0.170   3.500  10.497 -0.4423  0.8653  0.5325
  575TMC3    C8 8535   0.354   3.068  10.446  0.3354  0.6174  0.2188
  575TMC3    O1 8536   0.178   3.600  10.567  0.1930 -0.2344  0.5359
  575TMC3    O2 8537   0.336   3.074  10.327 -0.5612  0.8429  0.3313
  576MPD2     C 8538   0.390   0.568  12.611  0.2493 -0.2323 -0.8611
  576MPD2    C1 8539   0.428   0.659  12.508  0.2260 -0.4389 -0.1985
  576MPD2    C2 8540   0.417   0.793  12.547 -0.0872  0.0297  0.3861
  576MPD2    C3 8541   0.375   0.830  12.673 -0.0240  0.8421  0.1425
  576MPD2    C4 8542   0.325   0.737  12.764 -0.0016 -0.0541  0.1439
  576MPD2    C5 8543   0.341   0.605  12.734  0.7243  0.1305 -0.1767
  576MPD2     H 8544   0.444   0.872  12.477 -0.8986 -0.2953 -0.2932
  576MPD2    H1 8545   0.286   0.757  12.863  1.4747  0.5916  0.5957
  576MPD2    H2 8546   0.377   0.463  12.587  2.6747 -0.3539 -1.6465
  576MPD2    H3 8547   0.306   0.528  12.802 -0.8012 -0.0447 -1.1814
  576MPD2     N 8548   0.368   0.971  12.689 -0.2007  0.2076  0.2404
  576MPD2    H5 8549   0.396   1.025  12.608  0.1956 -1.5758 -0.8176
  576MPD2    N1 8550   0.465   0.620  12.381 -0.1557  0.1397 -0.3739
  576MPD2    H7 8551   0.447   0.690  12.310  2.1000 -0.2090 -1.2973
  577TMC3    C1 8552   0.500   0.461  12.206  0.1944 -0.1410  0.3787
  577TMC3    C2 8553   0.523   0.330  12.182 -0.3362  0.2588  0.5459
  577TMC3    C3 8554   0.562   0.296  12.056  0.2056 -0.5129  0.5262
  577TMC3    C4 8555   0.518   0.562  12.112 -0.0593 -0.3979 -0.1100
  577TMC3    C5 8556   0.572   0.523  11.995  0.5019 -0.3811  0.0468
  577TMC3    C6 8557   0.596   0.392  11.962  0.6368  0.6663  0.5523
  577TMC3     C 8558   0.506   0.492  12.348  0.9247 -0.2205 -1.0332
  577TMC3     O 8559   0.536   0.400  12.424 -0.1090 -0.3472  0.0845
  577TMC3     H 8560   0.492   0.253  12.252 -1.6875 -0.1476 -0.5004
  577TMC3    H1 8561   0.533   0.667  12.137 -0.7849 -0.5128  0.7894
  577TMC3    H2 8562   0.617   0.365  11.860  0.8803  0.1042  0.7545
  577TMC3    C7 8563   0.600   0.617  11.896  0.6894 -0.4095 -0.0206
  577TMC3    C8 8564   0.563   0.158  12.021  0.3583  0.3114  0.1159
  577TMC3    O1 8565   0.703   0.599  11.832 -0.1193 -0.1963  0.2105
  577TMC3    O2 8566   0.518   0.082  12.105 -0.1598 -0.3907  0.1054
  578MPD2     C 8567   2.709   1.314   0.846  0.3451 -0.5474  0.1038
  578MPD2    C1 8568   2.791   1.228   0.778  0.7641 -0.7163  0.2301
  578MPD2    C2 8569   2.859   1.132   0.847 -0.8808 -0.7375 -0.2255
  578MPD2    C3 8570   2.846   1.125   0.980  0.1939  0.9443  0.3101
  578MPD2    C4 8571   2.775   1.216   1.047  0.3121 -0.4786  0.5901
  578MPD2    C5 8572   2.700   1.304   0.977  0.4515 -0.1262 -0.5886
  578MPD2     H 8573   2.936   1.061   0.817  0.7869  1.4251 -1.0897
  578MPD2    H1 8574   2.771   1.223   1.155  1.8955  0.7289  0.5629
  578MPD2    H2 8575   2.652   1.391   0.796 -0.4397 -2.2559 -1.6091
  578MPD2    H3 8576   2.634   1.379   1.019  0.1024 -1.2512  0.8938
  578MPD2     N 8577   2.931   1.036   1.056  0.5995  0.1270  0.2388
  578MPD2    H5 8578   3.002   0.985   1.005 -0.0691 -0.1164 -0.4306
  578MPD2    N1 8579   2.831   1.258   0.646  0.6548  0.4109  0.5893
  578MPD2    H7 8580   2.787   1.340   0.604  1.0478  0.4703  0.2930
  579TMC3    C1 8581   3.061   0.951   1.221  0.1645 -0.3865  0.1686
  579TMC3    C2 8582   3.160   0.990   1.303 -0.6462 -0.2551  0.5914
  579TMC3    C3 8583   3.265   0.907   1.323 -0.0941 -0.6253 -0.3445
  579TMC3    C4 8584   3.059   0.835   1.144 -0.0645  0.1171 -1.1615
  579TMC3    C5 8585   3.163   0.750   1.171 -0.9671  0.2038 -0.3486
  579TMC3    C6 8586   3.272   0.786   1.252  0.3724  0.4696 -0.0120
  579TMC3     C 8587   2.966   1.053   1.190 -0.0520  0.8632  0.0949
  579TMC3     O 8588   2.936   1.136   1.274  0.1584  0.6454 -0.0549
  579TMC3     H 8589   3.154   1.089   1.347  0.0921 -0.2650  0.7149
  579TMC3    H1 8590   2.969   0.792   1.102 -0.6285  0.2894 -0.1038
  579TMC3    H2 8591   3.352   0.713   1.255  0.2173  0.3220  0.7096
  579TMC3    C7 8592   3.176   0.628   1.094 -0.0746  0.2002  0.2836
  579TMC3    C8 8593   3.378   0.973   1.386  0.6952  0.1511  0.9723
  579TMC3    O1 8594   3.265   0.554   1.127  0.4998  0.0834 -0.4254
  579TMC3    O2 8595   3.343   1.076   1.437  0.2747 -0.4618 -0.1918
  580TMC3    C1 8596   2.544   4.722  11.826 -0.0805 -0.2197  0.9974
  580TMC3    C2 8597   2.624   0.055  11.921 -1.0458  0.1791 -0.4998
  580TMC3    C3 8598   2.671   4.708  12.022  0.7257  0.7354  0.4947
  580TMC3    C4 8599   2.524   4.584  11.830 -0.1339  0.2780 -0.1170
  580TMC3    C5 8600   2.569   4.512  11.938  0.9094 -0.6188 -0.1491
  580TMC3    C6 8601   2.649   4.576  12.030  0.5464  0.2279 -0.6575
  580TMC3     C 8602   2.510   0.070  11.703 -0.4891  0.2429 -0.4294
  580TMC3     O 8603   2.449   0.015  11.611  0.1889 -0.0310 -0.2329
  580TMC3     H 8604   2.632   0.163  11.926  1.0698 -0.0555  1.5593
  580TMC3    H1 8605   2.452   4.548  11.757  1.1702 -1.3886 -0.5854
  580TMC3    H2 8606   2.682   4.515  12.113 -0.3107  0.5782 -0.0540
  580TMC3    C7 8607   2.535   4.379  11.968 -0.1617  0.2005 -0.2192
  580TMC3    C8 8608   2.765   0.049  12.114 -0.2279 -0.2064  0.6630
  580TMC3    O1 8609   2.537   4.362  12.087  0.5129 -0.2517 -0.1555
  580TMC3    O2 8610   2.736   0.159  12.153  0.1385  0.1063  0.6869
  581MPD2     C 8611   0.605   4.194  14.595  0.1913  0.2736  0.1004
  581MPD2    C1 8612   0.513   4.166  14.697  0.1657  0.0370 -0.3411
  581MPD2    C2 8613   0.387   4.216  14.684 -0.3394  0.7356  0.9070
  581MPD2    C3 8614   0.351   4.295  14.583 -0.1569 -0.1041  0.1038
  581MPD2    C4 8615   0.439   4.322  14.475 -0.8361 -0.3893 -0.3987
  581MPD2    C5 8616   0.566   4.275  14.485  0.0791  0.2130 -0.4539
  581MPD2     H 8617   0.321   4.194  14.768  1.1747 -0.9851  1.6395
  581MPD2    H1 8618   0.407   4.361  14.379 -1.4770 -1.2426 -0.5227
  581MPD2    H2 8619   0.703   4.148  14.599 -0.1195 -0.4575 -0.5425
  581MPD2    H3 8620   0.639   4.287  14.405 -0.2980  1.1478 -0.6624
  581MPD2     N 8621   0.228   4.362  14.585 -0.7312 -0.5382 -0.3949
  581MPD2    H5 8622   0.168   4.346  14.665  0.0642 -2.4081 -0.1822
  581MPD2    N1 8623   0.538   4.083  14.813  0.2853 -0.0912 -0.6625
  581MPD2    H7 8624   0.460   4.062  14.874  0.2113  1.6451 -0.1579
  582TMC3    C1 8625   0.660   3.963  14.975  0.1291  0.0965 -0.4486
  582TMC3    C2 8626   0.739   4.006  15.079  0.2584 -0.0170  0.4646
  582TMC3    C3 8627   0.697   3.963  15.201 -0.0489 -0.1535  0.1318
  582TMC3    C4 8628   0.546   3.883  14.988 -0.1117  0.2328 -0.9902
  582TMC3    C5 8629   0.509   3.846  15.116  0.5191  0.4749 -0.4822
  582TMC3    C6 8630   0.588   3.874  15.221  0.9665 -0.2635 -0.6626
  582TMC3     C 8631   0.659   4.058  14.866  0.3899 -0.6874 -1.2954
  582TMC3     O 8632   0.768   4.096  14.831  0.1264 -0.3135  0.0195
  582TMC3     H 8633   0.828   4.066  15.063 -0.3212  1.0559  1.2675
  582TMC3    H1 8634   0.483   3.850  14.906 -2.0013  0.8839  0.2162
  582TMC3    H2 8635   0.560   3.846  15.322 -0.4731 -1.2920 -1.3679
  582TMC3    C7 8636   0.376   3.904  15.138  0.4453 -0.4808  0.9510
  582TMC3    C8 8637   0.695   4.069  15.306  0.6226  0.3333  0.0505
  582TMC3    O1 8638   0.330   3.959  15.036 -0.1784  0.1108  0.6701
  582TMC3    O2 8639   0.624   4.046  15.404 -0.8402  0.3127 -0.6265
  583MPD2     C 8640   0.695   1.252  16.813  0.5905  0.1282  0.5638
  583MPD2    C1 8641   0.685   1.361  16.738  0.5816  0.2834  0.4189
  583MPD2    C2 8642   0.627   1.474  16.790 -0.0004 -0.1992 -0.0406
  583MPD2    C3 8643   0.591   1.480  16.924  0.0516  0.0377 -0.5469
  583MPD2    C4 8644   0.617   1.373  17.011  0.1743 -0.6542  0.6002
  583MPD2    C5 8645   0.662   1.260  16.951  0.2678  0.0378 -0.9192
  583MPD2     H 8646   0.617   1.561  16.727  0.5334  0.5382  0.8967
  583MPD2    H1 8647   0.613   1.365  17.120 -0.1136  1.6849  0.7420
  583MPD2    H2 8648   0.739   1.158  16.783  2.6055  1.1546  0.3292
  583MPD2    H3 8649   0.670   1.168  17.007 -0.3983 -0.3250 -1.4165
  583MPD2     N 8650   0.544   1.600  16.980 -0.7606 -0.7283  0.1902
  583MPD2    H5 8651   0.514   1.676  16.919 -1.0782 -0.8856  0.1502
  583MPD2    N1 8652   0.727   1.368  16.604  0.2761 -1.0906 -0.1309
  583MPD2    H7 8653   0.731   1.461  16.562 -1.1238 -1.8055 -1.8644
  584TMC3    C1 8654   0.456   1.761  17.134  0.2943 -0.4076  0.4431
  584TMC3    C2 8655   0.506   1.869  17.070 -0.6150 -1.0350  0.1359
  584TMC3    C3 8656   0.488   1.989  17.128 -0.6153  0.5421 -0.7041
  584TMC3    C4 8657   0.382   1.778  17.249  0.0175 -0.2431  0.3958
  584TMC3    C5 8658   0.357   1.905  17.293 -0.4902 -0.5527 -0.0195
  584TMC3    C6 8659   0.421   2.017  17.240 -0.9664 -0.0595 -0.1823
  584TMC3     C 8660   0.508   1.628  17.115 -0.0487  0.5029  1.0569
  584TMC3     O 8661   0.496   1.551  17.209  0.3271 -0.1171  0.2481
  584TMC3     H 8662   0.580   1.863  16.991  0.0560  1.9965  0.5177
  584TMC3    H1 8663   0.366   1.692  17.314 -2.9686  0.4654  0.5877
  584TMC3    H2 8664   0.400   2.117  17.274 -1.1811 -0.2508  0.2518
  584TMC3    C7 8665   0.291   1.918  17.422  0.0901  1.5899  0.5952
  584TMC3    C8 8666   0.553   2.097  17.066  0.2287 -0.6441  0.2667
  584TMC3    O1 8667   0.278   1.810  17.478 -0.3473  0.0023 -0.7490
  584TMC3    O2 8668   0.543   2.105  16.945  0.3296  0.1544 -0.1277
  585MPD2     C 8669   0.057   0.142   0.461  0.1144  0.0157 -0.9907
  585MPD2    C1 8670   0.032   0.106   0.331 -0.4742 -0.1313  0.0255
  585MPD2    C2 8671   0.089   4.720   0.272  0.4303 -0.2680  0.7461
  585MPD2    C3 8672   0.154   4.636   0.363  0.3991 -0.4786  0.5127
  585MPD2    C4 8673   0.182   4.672   0.491 -0.2874  0.0131  0.0224
  585MPD2    C5 8674   0.142   0.069   0.537  1.1084 -0.6047  0.1915
  585MPD2     H 8675   0.084   4.699   0.165  0.6290 -0.9433  0.8695
  585MPD2    H1 8676   0.233   4.605   0.559  0.9505  1.2701  0.3531
  585MPD2    H2 8677   0.018   0.235   0.500 -0.2715 -1.2603  1.6635
  585MPD2    H3 8678   0.161   0.090   0.641 -0.8514  1.9680  0.0456
  585MPD2     N 8679   0.215   4.514   0.334 -0.2574 -0.0988  0.2877
  585MPD2    H5 8680   0.262   4.478   0.417  1.5993  0.0978 -0.6825
  585MPD2    N1 8681   4.673   0.200   0.260 -0.5681  0.2274 -0.0583
  585MPD2    H7 8682   4.619   0.268   0.313 -1.8270 -1.8980  1.3804
  586TMC3    C1 8683   0.113   4.465   0.114 -0.2623  0.8459 -0.2140
  586TMC3    C2 8684   0.159   4.449  17.699 -0.1136  0.2544  0.6699
  586TMC3    C3 8685   0.063   4.439  17.602 -1.1869  0.1483 -0.0710
  586TMC3    C4 8686   4.710   4.476   0.147 -0.6104  0.0014 -0.3356
  586TMC3    C5 8687   4.615   4.480   0.040 -0.1053  0.0578  0.2986
  586TMC3    C6 8688   4.659   4.465  17.625 -0.4984 -0.1979 -0.3194
  586TMC3     C 8689   0.210   4.442   0.217 -0.7796 -0.2269  0.5849
  586TMC3     O 8690   0.292   4.351   0.186  0.5785  0.2452 -0.0621
  586TMC3     H 8691   0.259   4.419  17.672 -0.4763  0.9848 -1.5120
  586TMC3    H1 8692   4.675   4.470   0.249  0.3560  0.5020  0.0190
  586TMC3    H2 8693   4.581   4.468  17.550 -0.1055 -2.7455 -0.8164
  586TMC3    C7 8694   4.511   4.586   0.047  0.1151 -0.0485 -0.0815
  586TMC3    C8 8695   0.087   4.353  17.489  0.1777 -0.9864 -0.4127
  586TMC3    O1 8696   4.470   4.637  17.655 -0.1358 -0.6613  0.6934
  586TMC3    O2 8697   0.191   4.289  17.489  0.9092 -0.0493  0.1379
  587TMC3    C1 8698   1.996   3.673  16.350  0.0192 -0.8209  0.3119
  587TMC3    C2 8699   1.933   3.793  16.318 -0.7256  0.3742  0.0921
  587TMC3    C3 8700   2.020   3.899  16.281 -0.7177 -0.7031 -0.0850
  587TMC3    C4 8701   2.130   3.653  16.322  0.1352  0.3632 -0.6441
  587TMC3    C5 8702   2.206   3.749  16.262  0.0657  0.0649  0.3329
  587TMC3    C6 8703   2.155   3.877  16.246  0.2306 -0.2733  0.0366
  587TMC3     C 8704   1.932   3.591  16.451 -0.3484 -0.4556 -0.2047
  587TMC3     O 8705   2.002   3.550  16.541  0.0945  0.2176  0.9669
  587TMC3     H 8706   1.824   3.794  16.324 -0.6608 -0.1228  1.2261
  587TMC3    H1 8707   2.175   3.554  16.331  2.1759  1.2806 -0.7766
  587TMC3    H2 8708   2.204   3.956  16.189  0.2721  0.9432  1.7675
  587TMC3    C7 8709   2.349   3.727  16.240 -0.0383  0.0673  0.0975
  587TMC3    C8 8710   1.966   4.027  16.251  0.0024  0.2818 -0.1962
  587TMC3    O1 8711   2.375   3.630  16.167  0.0560 -0.6805 -0.5818
  587TMC3    O2 8712   2.016   4.089  16.156  0.1118 -0.1871 -0.2610
  588TMC3    C1 8713   0.097   1.231  10.002  0.7286 -0.3837 -0.2200
  588TMC3    C2 8714   0.001   1.150  10.051  0.1316 -0.6484  0.7241
  588TMC3    C3 8715   4.716   1.025   9.997 -0.9045 -0.3648 -0.7753
  588TMC3    C4 8716   0.171   1.199   9.890 -0.0653  0.5309  0.5491
  588TMC3    C5 8717   0.164   1.068   9.848 -1.0122  0.6616  0.3044
  588TMC3    C6 8718   0.074   0.977   9.895  0.0338 -0.5819 -0.0185
  588TMC3     C 8719   0.104   1.370  10.045 -0.3888  0.4702 -0.0702
  588TMC3     O 8720   4.721   1.413  10.087  0.0062  0.0439  0.2915
  588TMC3     H 8721   4.676   1.186  10.139 -2.6918 -1.2602 -0.7034
  588TMC3    H1 8722   0.213   1.277   9.828  0.7877  0.0061  0.4790
  588TMC3    H2 8723   0.050   0.888   9.838 -0.8871 -0.9435  0.9264
  588TMC3    C7 8724   0.231   1.039   9.722 -0.4691  0.5778  0.2736
  588TMC3    C8 8725   4.654   0.916  10.073  0.0295 -0.3024 -0.1164
  588TMC3    O1 8726   0.185   0.952   9.650 -0.2065 -0.1105  0.3143
  588TMC3    O2 8727   4.556   0.948  10.138 -0.1955  0.0558  0.5655
  589TMC3    C1 8728   3.301   3.879   1.295  0.5846 -0.1741 -0.7376
  589TMC3    C2 8729   3.408   3.949   1.339 -0.1688 -0.2607 -0.5316
  589TMC3    C3 8730   3.531   3.879   1.345 -0.4005  0.0299  0.1772
  589TMC3    C4 8731   3.308   3.744   1.268  0.0216  0.1994  0.1838
  589TMC3    C5 8732   3.433   3.689   1.260 -0.0655 -0.3782  0.4085
  589TMC3    C6 8733   3.545   3.755   1.294  0.2524  0.2035 -0.2486
  589TMC3     C 8734   3.177   3.942   1.251 -0.5101 -0.6523  0.4481
  589TMC3     O 8735   3.116   3.878   1.165 -0.3108  0.6903 -0.6178
  589TMC3     H 8736   3.407   4.055   1.362 -2.0195 -0.5558  0.7396
  589TMC3    H1 8737   3.227   3.683   1.229 -0.4790  1.8737 -1.4335
  589TMC3    H2 8738   3.637   3.700   1.277  0.4737 -0.0609  1.8233
  589TMC3    C7 8739   3.436   3.562   1.201 -0.6874  0.1250 -0.1245
  589TMC3    C8 8740   3.649   3.950   1.394  0.2712  0.6287  0.5065
  589TMC3    O1 8741   3.362   3.478   1.242 -0.1014 -0.1165  0.0661
  589TMC3    O2 8742   3.630   4.068   1.419 -0.6492 -0.0694  0.8335
  590MPD2     C 8743   3.389   2.128  16.539  0.0737 -0.0058  0.0617
  590MPD2    C1 8744   3.334   2.135  16.414  0.1182  0.1151 -0.3573
  590MPD2    C2 8745   3.390   2.216  16.319  0.5816 -0.2501 -0.5672
  590MPD2    C3 8746   3.501   2.298  16.356  0.2708 -0.4629  0.0076
  590MPD2    C4 8747   3.552   2.291  16.484  0.4608 -0.2685  0.5363
  590MPD2    C5 8748   3.501   2.197  16.575  0.0475  0.1598  0.0208
  590MPD2     H 8749   3.341   2.226  16.222  0.7113  1.4975 -0.4531
  590MPD2    H1 8750   3.634   2.352  16.519  0.4506  0.9848 -1.6406
  590MPD2    H2 8751   3.339   2.075  16.619 -0.0925 -1.1733 -0.8239
  590MPD2    H3 8752   3.537   2.184  16.676 -1.2295  1.9419  0.7107
  590MPD2     N 8753   3.554   2.394  16.262 -0.7286 -0.4222  0.3726
  590MPD2    H5 8754   3.502   2.411  16.176  1.3878 -2.3940 -1.2920
  590MPD2    N1 8755   3.207   2.080  16.402 -0.0788 -0.2328 -0.7360
  590MPD2    H7 8756   3.166   2.038  16.485  1.5889 -0.8043 -0.2118
  591TMC3    C1 8757   3.688   2.564  16.169  0.8202 -0.5404 -0.1619
  591TMC3    C2 8758   3.707   2.505  16.047  0.2756 -0.5129  0.0002
  591TMC3    C3 8759   3.716   2.583  15.943 -0.5521 -0.1053 -0.2307
  591TMC3    C4 8760   3.683   2.697  16.184  0.2431 -0.4851  0.0854
  591TMC3    C5 8761   3.689   2.771  16.072 -0.1343  0.5967 -0.0488
  591TMC3    C6 8762   3.713   2.715  15.949 -0.4280 -0.1390  0.2658
  591TMC3     C 8763   3.656   2.481  16.284 -0.4643  1.4186 -0.3581
  591TMC3     O 8764   3.713   2.515  16.387  0.3002  0.3995  0.2386
  591TMC3     H 8765   3.708   2.398  16.031  2.4071 -0.3719 -0.8322
  591TMC3    H1 8766   3.675   2.754  16.276  2.4060  1.2065 -0.7894
  591TMC3    H2 8767   3.746   2.772  15.863 -1.2022 -0.6803 -0.3824
  591TMC3    C7 8768   3.621   2.898  16.085  0.6306  0.0234  0.1165
  591TMC3    C8 8769   3.710   2.514  15.814 -0.0519 -0.5041  0.0493
  591TMC3    O1 8770   3.571   2.929  16.192  0.3407 -0.2172 -1.0918
  591TMC3    O2 8771   3.725   2.391  15.811  0.0320  0.5957  0.5688
  592MPD2     C 8772   3.936   4.064  11.563 -0.1782 -1.0746  0.6505
  592MPD2    C1 8773   3.911   4.098  11.692  0.3225 -0.3061 -0.7192
  592MPD2    C2 8774   3.814   4.025  11.763 -0.6159 -0.0412  0.3280
  592MPD2    C3 8775   3.756   3.910  11.711 -0.0166  0.0497 -0.1086
  592MPD2    C4 8776   3.787   3.876  11.579 -0.0514 -0.0581  0.1197
  592MPD2    C5 8777   3.879   3.947  11.508  0.6785 -0.0295 -0.3227
  592MPD2     H 8778   3.791   4.056  11.864 -0.4453  0.2679  0.2723
  592MPD2    H1 8779   3.760   3.789  11.520 -1.2609  0.3901  0.0244
  592MPD2    H2 8780   4.011   4.114  11.503 -1.2859 -0.4105 -0.1683
  592MPD2    H3 8781   3.898   3.921  11.404  2.8843 -1.1629  0.3761
  592MPD2     N 8782   3.672   3.830  11.789 -0.2247 -0.5881 -0.7747
  592MPD2    H5 8783   3.650   3.857  11.885  0.2556 -2.0291 -0.2585
  592MPD2    N1 8784   3.976   4.214  11.734  0.1346 -0.0243  1.0203
  592MPD2    H7 8785   4.037   4.262  11.669 -1.1063 -1.9433 -1.5353
  593TMC3    C1 8786   4.063   4.364  11.889  0.2480  0.1049  0.8394
  593TMC3    C2 8787   4.068   4.410  12.021  0.3977 -0.0751  0.7389
  593TMC3    C3 8788   4.150   4.511  12.057 -1.1478  0.0138 -0.0730
  593TMC3    C4 8789   4.160   4.405  11.804 -0.1773 -0.3190 -0.5044
  593TMC3    C5 8790   4.235   4.516  11.843 -0.0484 -0.2372  0.0068
  593TMC3    C6 8791   4.232   4.570  11.967  0.1065  0.0822 -0.1147
  593TMC3     C 8792   3.970   4.260  11.861  0.2334  0.1258  0.4333
  593TMC3     O 8793   3.918   4.217  11.959 -0.3449  0.4936 -0.8689
  593TMC3     H 8794   4.011   4.352  12.092  0.2971 -0.4676  0.3355
  593TMC3    H1 8795   4.159   4.365  11.703 -0.5473 -0.6102 -0.3867
  593TMC3    H2 8796   4.309   4.642  11.992  0.0849  0.0144  0.1517
  593TMC3    C7 8797   4.340   4.571  11.761 -0.0592 -0.0396  0.4995
  593TMC3    C8 8798   4.124   4.562  12.191 -0.2833  0.3583  0.4079
  593TMC3    O1 8799   4.413   4.664  11.797  0.1920 -0.9092  0.5665
  593TMC3    O2 8800   4.013   4.543  12.240 -0.0146 -0.1532  0.7148
  594MPD2     C 8801   1.961   2.689  13.908 -0.6164  0.4040  0.4864
  594MPD2    C1 8802   1.983   2.708  14.049  0.3108 -0.0741  0.1113
  594MPD2    C2 8803   2.052   2.823  14.080 -0.1762  0.1563  0.6192
  594MPD2    C3 8804   2.106   2.902  13.975  0.6952  0.4367 -0.3499
  594MPD2    C4 8805   2.075   2.870  13.840 -0.0936 -0.3220  0.1986
  594MPD2    C5 8806   1.995   2.768  13.808  0.5006 -0.0462  0.1470
  594MPD2     H 8807   2.070   2.851  14.183 -0.6286 -4.7227  2.0289
  594MPD2    H1 8808   2.106   2.932  13.758  0.8678  1.9190  2.2651
  594MPD2    H2 8809   1.900   2.606  13.875  0.9965 -1.1645  1.4722
  594MPD2    H3 8810   1.946   2.761  13.712 -0.5148 -0.4333  0.6914
  594MPD2     N 8811   2.182   3.019  14.014 -0.2602 -0.1913  0.6840
  594MPD2    H5 8812   2.184   3.045  14.111 -1.0946 -0.7787  0.8640
  594MPD2    N1 8813   1.925   2.620  14.144  0.1297 -0.1207  0.9156
  594MPD2    H7 8814   1.836   2.583  14.111 -0.0951  0.9012  0.3791
  595TMC3    C1 8815   2.546   3.316  13.996 -0.1092 -0.1679 -0.2611
  595TMC3    C2 8816   2.475   3.215  13.936 -0.3822  0.3089 -0.2547
  595TMC3    C3 8817   2.344   3.193  13.986 -0.5283  1.0141 -0.3937
  595TMC3    C4 8818   2.502   3.381  14.103 -0.1680  0.2648  0.6256
  595TMC3    C5 8819   2.380   3.352  14.157  0.3117  0.1838  0.1375
  595TMC3    C6 8820   2.302   3.253  14.104  0.3617 -0.1732 -0.0794
  595TMC3     C 8821   2.688   3.318  13.983  0.5406 -0.2082 -0.0684
  595TMC3     O 8822   2.743   3.426  13.998 -0.1075 -0.2916 -0.0566
  595TMC3     H 8823   2.512   3.148  13.859 -2.1922  0.5650 -1.3338
  595TMC3    H1 8824   2.559   3.459  14.151  0.5161 -0.3282  0.7824
  595TMC3    H2 8825   2.204   3.240  14.149 -0.1205  0.4383 -0.9360
  595TMC3    C7 8826   2.333   3.413  14.283  0.2127  0.5654 -0.2566
  595TMC3    C8 8827   2.267   3.085  13.924  0.1854 -0.0212  0.5408
  595TMC3    O1 8828   2.214   3.415  14.311  0.2627 -0.1043  0.6758
  595TMC3    O2 8829   2.282   3.077  13.806 -0.1158 -0.2055  0.3900
  596MPD2     C 8830   1.378   0.880  16.829  0.4372 -0.3800 -0.5100
  596MPD2    C1 8831   1.438   0.996  16.784  0.0895 -0.4472  0.1077
  596MPD2    C2 8832   1.461   1.019  16.647  0.0159 -0.1921 -0.6398
  596MPD2    C3 8833   1.418   0.927  16.553  0.5018  0.5652  0.2389
  596MPD2    C4 8834   1.362   0.811  16.595  0.9781  0.4086  0.1285
  596MPD2    C5 8835   1.339   0.785  16.733  0.1967  1.1618  0.6348
  596MPD2     H 8836   1.505   1.114  16.621  2.4057 -0.8220  1.1350
  596MPD2    H1 8837   1.334   0.731  16.528 -0.2849  0.4240  0.6504
  596MPD2    H2 8838   1.367   0.859  16.934 -0.8548  0.7841 -0.4040
  596MPD2    H3 8839   1.289   0.696  16.772  0.4579  0.2077 -1.2122
  596MPD2     N 8840   1.432   0.950  16.412  0.4051 -0.2189 -0.4569
  596MPD2    H5 8841   1.394   0.873  16.359 -0.1201 -0.4756  0.2923
  596MPD2    N1 8842   1.486   1.100  16.866  0.1352  0.1155 -0.0569
  596MPD2    H7 8843   1.539   1.177  16.828  0.4220  0.3810  0.8909
  597TMC3    C1 8844   1.473   1.251  17.055  0.2542  0.8866  0.2337
  597TMC3    C2 8845   1.591   1.315  17.014 -0.0525 -0.0080  0.3699
  597TMC3    C3 8846   1.597   1.445  17.050 -0.2921 -0.1257 -0.2771
  597TMC3    C4 8847   1.370   1.313  17.117 -0.0723 -0.0352  0.1956
  597TMC3    C5 8848   1.380   1.448  17.138 -0.0659 -0.1515  0.2256
  597TMC3    C6 8849   1.496   1.518  17.103 -0.1011 -0.1070  0.1736
  597TMC3     C 8850   1.440   1.122  16.992 -0.1142 -0.9497 -0.2150
  597TMC3     O 8851   1.377   1.047  17.067 -0.5312  0.2130  0.2527
  597TMC3     H 8852   1.670   1.266  16.960  0.4563  0.8332  0.3486
  597TMC3    H1 8853   1.282   1.259  17.150  0.5246 -0.6695  0.7311
  597TMC3    H2 8854   1.528   1.616  17.137 -2.1871 -0.0345  1.9111
  597TMC3    C7 8855   1.261   1.520  17.182  0.6576 -0.5282  0.0967
  597TMC3    C8 8856   1.725   1.508  17.015  0.7281 -0.5211 -0.5497
  597TMC3    O1 8857   1.168   1.456  17.230  0.9226  0.3110  0.2309
  597TMC3    O2 8858   1.724   1.629  17.009 -0.2513 -0.0709  0.5115
  598TMC3    C1 8859   4.293   2.763  15.361  0.0660 -0.0353 -0.3632
  598TMC3    C2 8860   4.240   2.647  15.310 -0.2948 -0.1154 -0.7071
  598TMC3    C3 8861   4.220   2.619  15.181 -0.5042  0.9564 -0.1764
  598TMC3    C4 8862   4.309   2.865  15.277  0.1922 -0.3129 -0.0779
  598TMC3    C5 8863   4.291   2.838  15.141  0.2144  0.3479  0.3897
  598TMC3    C6 8864   4.242   2.720  15.091  0.9730 -0.4524  0.1302
  598TMC3     C 8865   4.341   2.782  15.499  0.4945  0.1784 -0.5764
  598TMC3     O 8866   4.356   2.900  15.535 -0.9760  0.4761  0.3012
  598TMC3     H 8867   4.206   2.576  15.384  3.5609  0.5048  1.6557
  598TMC3    H1 8868   4.330   2.966  15.308 -2.0238  0.9654 -2.7371
  598TMC3    H2 8869   4.226   2.701  14.985 -0.1611 -1.3056  0.4464
  598TMC3    C7 8870   4.365   2.913  15.044  0.2780  0.4169  0.1334
  598TMC3    C8 8871   4.152   2.498  15.127  0.3902 -0.2474  0.4050
  598TMC3    O1 8872   4.376   2.864  14.933 -0.0018 -0.7387  0.3076
  598TMC3    O2 8873   4.117   2.501  15.009  0.3438  0.4748  0.2272
  599MPD2     C 8874   4.137   0.429  15.444 -1.2270 -0.3279  0.1361
  599MPD2    C1 8875   4.195   0.338  15.526  1.1302 -0.0382  0.4362
  599MPD2    C2 8876   4.141   0.313  15.657  0.2394  0.1323  0.2410
  599MPD2    C3 8877   4.040   0.393  15.709  0.7435  0.5353  0.1383
  599MPD2    C4 8878   3.987   0.496  15.631 -0.5448  0.1989  0.2252
  599MPD2    C5 8879   4.032   0.504  15.500  0.3914 -0.3217 -0.3946
  599MPD2     H 8880   4.198   0.248  15.722 -0.2437  1.1857  1.7002
  599MPD2    H1 8881   3.920   0.574  15.666  1.0448  2.0324 -0.8274
  599MPD2    H2 8882   4.173   0.445  15.343 -0.2327  1.5797  0.7954
  599MPD2    H3 8883   4.005   0.591  15.441  0.8121 -1.2405 -1.9538
  599MPD2     N 8884   3.994   0.377  15.841 -0.3681  0.5977 -0.3508
  599MPD2    H5 8885   3.912   0.433  15.861 -0.0946  0.5183  1.0280
  599MPD2    N1 8886   4.307   0.267  15.471  0.3596 -0.3627  0.3598
  599MPD2    H7 8887   4.332   0.297  15.377 -0.0338 -1.6021 -0.1425
  600TMC3    C1 8888   3.962   0.276  16.053  0.2600 -0.9132 -0.1482
  600TMC3    C2 8889   3.920   0.153  16.108  0.5527  0.1633  0.0397
  600TMC3    C3 8890   3.907   0.140  16.243 -0.3436  0.3100  0.0605
  600TMC3    C4 8891   3.964   0.391  16.126  0.4128 -0.7725  0.2634
  600TMC3    C5 8892   3.941   0.372  16.257 -0.1677 -0.4033  0.3620
  600TMC3    C6 8893   3.916   0.254  16.317 -0.0624  0.0091 -0.4570
  600TMC3     C 8894   4.021   0.265  15.920 -0.3608  0.3105 -0.5126
  600TMC3     O 8895   4.093   0.166  15.907  0.1857  0.3861 -0.5459
  600TMC3     H 8896   3.897   0.072  16.040  0.6774  0.2628 -0.1239
  600TMC3    H1 8897   3.984   0.485  16.075  2.3798 -0.4418  1.6454
  600TMC3    H2 8898   3.883   0.245  16.420  4.0847 -0.3235  0.8140
  600TMC3    C7 8899   3.965   0.476  16.347 -0.4264  0.2809 -0.5878
  600TMC3    C8 8900   3.806   0.045  16.281 -0.5410 -0.6206 -0.1395
  600TMC3    O1 8901   3.926   0.456  16.463 -0.5082 -0.0011  0.0600
  600TMC3    O2 8902   3.810   0.022  16.398  0.2861 -0.2820  0.3166
  601MPD2     C 8903   1.446   3.487   0.050  0.1616  0.1289  0.4550
  601MPD2    C1 8904   1.316   3.439   0.061 -0.4840 -0.4160 -1.1246
  601MPD2    C2 8905   1.293   3.323   0.125 -0.5334  0.0430  0.4394
  601MPD2    C3 8906   1.400   3.246   0.177  0.0574  0.0767  0.0992
  601MPD2    C4 8907   1.530   3.297   0.172  0.6979 -0.1407  0.1547
  601MPD2    C5 8908   1.545   3.417   0.103 -0.4863 -0.1460 -0.7947
  601MPD2     H 8909   1.195   3.276   0.122  0.0039 -1.0412 -0.4013
  601MPD2    H1 8910   1.618   3.260   0.225  0.9113  0.4369  0.2022
  601MPD2    H2 8911   1.479   3.564  17.692 -0.2516  0.3450  0.4974
  601MPD2    H3 8912   1.643   3.461   0.091 -0.7734  0.1143 -2.2199
  601MPD2     N 8913   1.383   3.120   0.231 -0.3141 -0.1986  0.0035
  601MPD2    H5 8914   1.465   3.070   0.264  0.5502  0.9340 -0.4454
  601MPD2    N1 8915   1.203   3.514   0.013  0.1174 -0.1012 -0.2379
  601MPD2    H7 8916   1.120   3.456   0.001  0.9187 -1.3088  0.1767
  602TMC3    C1 8917   1.101   3.668  17.573 -0.1070 -0.3444 -0.1809
  602TMC3    C2 8918   1.129   3.787  17.517  0.3471 -0.0753 -1.2728
  602TMC3    C3 8919   1.076   3.803  17.394  0.0729  1.2183 -0.3166
  602TMC3    C4 8920   1.029   3.571  17.508 -0.5569 -0.0894  0.2343
  602TMC3    C5 8921   0.991   3.585  17.378  0.3678  0.1297  0.1197
  602TMC3    C6 8922   1.011   3.704  17.316 -0.2009 -0.8389  0.6485
  602TMC3     C 8923   1.210   3.633  17.657  0.5405 -0.3751  0.4394
  602TMC3     O 8924   1.304   3.707  17.640 -0.0111 -0.4236 -0.0664
  602TMC3     H 8925   1.162   3.868  17.582  2.7131 -0.2012 -2.3299
  602TMC3    H1 8926   1.015   3.476  17.558 -1.9644 -0.0862 -0.1271
  602TMC3    H2 8927   0.972   3.737  17.221 -0.0738 -0.4226  0.7377
  602TMC3    C7 8928   0.967   3.462  17.304  0.2827 -0.4176 -0.1972
  602TMC3    C8 8929   1.141   3.906  17.319 -0.4330  0.4381  0.5870
  602TMC3    O1 8930   0.950   3.357  17.365  0.0359  0.7193 -0.1283
  602TMC3    O2 8931   1.163   4.010  17.375  0.3943  0.2313 -0.2485
  603TMC3    C1 8932   0.087   3.528  10.995 -0.3133 -0.4053 -0.0467
  603TMC3    C2 8933   0.088   3.456  11.111  0.6439  0.1292  0.4372
  603TMC3    C3 8934   0.178   3.503  11.204 -0.2103  0.2145 -0.0155
  603TMC3    C4 8935   0.149   3.653  10.981 -0.2475 -0.3153  0.1389
  603TMC3    C5 8936   0.235   3.691  11.079  0.4006 -0.1154 -0.2477
  603TMC3    C6 8937   0.258   3.618  11.189  0.2820 -0.5911  0.4869
  603TMC3     C 8938   0.023   3.479  10.877  0.0266 -0.3065 -0.1041
  603TMC3     O 8939   4.681   3.558  10.811 -0.2846 -0.0920 -0.0178
  603TMC3     H 8940   0.048   3.356  11.127 -0.3472  0.1737 -1.7828
  603TMC3    H1 8941   0.141   3.699  10.883 -1.5010  0.3196  0.5344
  603TMC3    H2 8942   0.318   3.660  11.269  1.1861  0.1452 -0.5694
  603TMC3    C7 8943   0.295   3.824  11.073 -0.1137  0.2174 -0.4661
  603TMC3    C8 8944   0.212   3.410  11.307  0.3850  0.1024  0.1960
  603TMC3    O1 8945   0.376   3.856  11.158 -0.7352  0.2458  0.1649
  603TMC3    O2 8946   0.204   3.293  11.270 -0.1942 -1.0175 -0.4989
  604MPD2     C 8947   0.643   2.133  16.332  0.3993 -0.4973  0.1328
  604MPD2    C1 8948   0.593   2.229  16.246 -0.6866 -0.0955 -0.0687
  604MPD2    C2 8949   0.614   2.214  16.110  0.4386  0.0728 -0.0220
  604MPD2    C3 8950   0.685   2.099  16.066  0.1104  0.1649 -0.0107
  604MPD2    C4 8951   0.727   2.004  16.154  0.9767  0.0354  0.1633
  604MPD2    C5 8952   0.698   2.019  16.284  0.2289 -0.3084  1.4111
  604MPD2     H 8953   0.578   2.290  16.043 -0.1835 -0.5717 -0.4202
  604MPD2    H1 8954   0.776   1.912  16.122  0.8842 -0.4607  1.4468
  604MPD2    H2 8955   0.634   2.138  16.440 -0.5067  3.1302 -0.1225
  604MPD2    H3 8956   0.724   1.940  16.354 -0.8270  0.8120  3.0690
  604MPD2     N 8957   0.713   2.081  15.931  0.2766  0.1471  0.2994
  604MPD2    H5 8958   0.669   2.153  15.875 -0.5550  0.7929  1.8044
  604MPD2    N1 8959   0.536   2.346  16.306  0.5495  0.1405 -0.4659
  604MPD2    H7 8960   0.567   2.360  16.402 -3.2005  0.0425  0.7504
  605TMC3    C1 8961   0.401   2.545  16.317  0.0851  0.7114 -0.1894
  605TMC3    C2 8962   0.477   2.591  16.423  0.2735  0.0320  0.0757
  605TMC3    C3 8963   0.455   2.713  16.469  0.1074  0.5296  0.6779
  605TMC3    C4 8964   0.304   2.622  16.269 -0.3070 -0.6742  0.4815
  605TMC3    C5 8965   0.266   2.735  16.339 -0.2063 -0.3886  0.0347
  605TMC3    C6 8966   0.338   2.783  16.444 -0.0750 -0.2491 -0.2443
  605TMC3     C 8967   0.462   2.432  16.238  0.8195  0.3285  0.4167
  605TMC3     O 8968   0.412   2.416  16.125 -0.3883 -0.5924 -0.0124
  605TMC3     H 8969   0.569   2.537  16.442  1.2291  1.4515 -0.4996
  605TMC3    H1 8970   0.245   2.592  16.183 -1.3908  2.8360 -0.0189
  605TMC3    H2 8971   0.300   2.872  16.494  0.0619  0.6407 -1.7043
  605TMC3    C7 8972   0.126   2.781  16.329 -0.1722  0.2080 -0.5943
  605TMC3    C8 8973   0.561   2.771  16.555 -0.0669 -0.1113 -0.6987
  605TMC3    O1 8974   0.097   2.899  16.340 -0.8439  0.0599  0.3384
  605TMC3    O2 8975   0.599   2.686  16.634 -0.0846  0.5056 -0.4455
  606TMC3    C1 8976   1.799   0.783  16.591 -0.6075  0.2078 -0.0474
  606TMC3    C2 8977   1.899   0.796  16.683  0.1032  0.5037 -0.3360
  606TMC3    C3 8978   1.921   0.696  16.768  0.3132  0.2284 -0.7034
  606TMC3    C4 8979   1.729   0.667  16.576 -0.1231 -0.8267 -0.1635
  606TMC3    C5 8980   1.758   0.570  16.668 -0.0521  0.7866 -0.8109
  606TMC3    C6 8981   1.852   0.581  16.764 -0.0575  0.5967  0.0424
  606TMC3     C 8982   1.791   0.887  16.489  0.9288  0.4506  0.9682
  606TMC3     O 8983   1.850   0.991  16.521 -0.0956 -0.3882 -0.0583
  606TMC3     H 8984   1.949   0.891  16.700 -0.5628  1.0917 -1.6947
  606TMC3    H1 8985   1.645   0.663  16.507  1.4968 -0.1454 -2.1624
  606TMC3    H2 8986   1.883   0.495  16.822 -0.7469  0.1243 -0.2891
  606TMC3    C7 8987   1.681   0.448  16.667  0.1161  0.2556 -0.0665
  606TMC3    C8 8988   2.011   0.722  16.877  0.3910 -0.0461 -0.1914
  606TMC3    O1 8989   1.641   0.406  16.561 -0.1718 -0.0569  1.1316
  606TMC3    O2 8990   2.091   0.809  16.860 -0.1107  0.1546  0.3200
  607MPD2     C 8991   3.880   3.517  11.775 -0.7460 -0.2848  0.5971
  607MPD2    C1 8992   3.897   3.569  11.905 -0.5554 -0.3474 -0.1852
  607MPD2    C2 8993   3.853   3.493  12.014  0.0666 -0.2229  0.3121
  607MPD2    C3 8994   3.798   3.367  12.004 -0.1436  0.4493  0.5855
  607MPD2    C4 8995   3.766   3.331  11.874  0.7482 -0.8076  0.1036
  607MPD2    C5 8996   3.812   3.397  11.764 -0.0282  0.4066  0.4793
  607MPD2     H 8997   3.863   3.538  12.112 -0.2540  1.4282 -0.4051
  607MPD2    H1 8998   3.724   3.237  11.840 -0.5971  0.0471 -0.6402
  607MPD2    H2 8999   3.912   3.565  11.684 -0.2097  2.6958  2.3770
  607MPD2    H3 9000   3.797   3.361  11.663  1.5335 -1.1537  0.8116
  607MPD2     N 9001   3.791   3.280  12.117  0.3131  0.1305 -0.4066
  607MPD2    H5 9002   3.843   3.315  12.197 -0.0566  0.3540 -0.2624
  607MPD2    N1 9003   3.970   3.681  11.935 -0.0062 -0.4304  0.1187
  607MPD2    H7 9004   3.979   3.692  12.036 -0.4506 -2.1593  0.3361
  608TMC3    C1 9005   4.144   3.842  11.930  0.0476  0.0154  0.0206
  608TMC3    C2 9006   4.171   3.815  12.061 -0.3775  0.1886  0.7045
  608TMC3    C3 9007   4.256   3.896  12.125  0.4918  0.5515  0.2403
  608TMC3    C4 9008   4.195   3.946  11.853 -0.7429 -0.4352  0.2331
  608TMC3    C5 9009   4.286   4.016  11.923  0.1955 -0.2515  0.1696
  608TMC3    C6 9010   4.315   3.997  12.056  0.0318 -0.7861 -0.7149
  608TMC3     C 9011   4.061   3.749  11.857  0.1320  0.4770  0.0017
  608TMC3     O 9012   4.066   3.743  11.737 -0.4781  0.4594 -0.3436
  608TMC3     H 9013   4.138   3.720  12.101  1.4589 -1.0947 -0.8673
  608TMC3    H1 9014   4.174   3.965  11.748 -0.3299 -0.0845  0.2145
  608TMC3    H2 9015   4.399   4.034  12.114  1.1843 -0.8850 -2.3082
  608TMC3    C7 9016   4.362   4.111  11.851  0.0575 -0.6879  0.1444
  608TMC3    C8 9017   4.320   3.837  12.248 -0.5082  0.1348 -0.2240
  608TMC3    O1 9018   4.361   4.115  11.727 -0.2845  0.0541  0.1251
  608TMC3    O2 9019   4.439   3.861  12.271 -0.8158 -0.6453  0.3594
  609TMC3    C1 9020   2.726   2.240   9.150  0.3497 -0.0019 -0.2312
  609TMC3    C2 9021   2.708   2.258   9.014  0.3415 -0.2540 -0.1942
  609TMC3    C3 9022   2.808   2.194   8.944 -0.0853  0.1706 -0.1133
  609TMC3    C4 9023   2.822   2.168   9.209  0.2270 -0.3222  0.3629
  609TMC3    C5 9024   2.908   2.101   9.129 -0.6692 -0.3877  0.1964
  609TMC3    C6 9025   2.907   2.121   8.990  0.1441 -0.1656 -0.4159
  609TMC3     C 9026   2.612   2.277   9.231  0.3678 -0.2762  0.4316
  609TMC3     O 9027   2.633   2.290   9.350  0.6620  0.0601  0.3757
  609TMC3     H 9028   2.639   2.325   8.963  0.8680 -0.0809 -0.6799
  609TMC3    H1 9029   2.825   2.150   9.316 -0.8534 -2.0445  0.1039
  609TMC3    H2 9030   2.978   2.083   8.917 -0.8771  3.3822 -3.2410
  609TMC3    C7 9031   3.007   2.016   9.186  0.6561 -0.3098 -0.7584
  609TMC3    C8 9032   2.814   2.223   8.806  0.2228 -0.1437 -0.2301
  609TMC3    O1 9033   3.038   2.032   9.304 -0.2030  0.0329  0.2061
  609TMC3    O2 9034   2.921   2.213   8.753  0.4213  0.3323 -0.1802
  610TMC3    C1 9035   4.171   3.959  12.783 -0.5033  0.3918 -0.2282
  610TMC3    C2 9036   4.298   3.994  12.748  0.0916  0.3045 -0.2328
  610TMC3    C3 9037   4.383   3.890  12.736 -1.0456 -0.4902  0.0100
  610TMC3    C4 9038   4.118   3.833  12.789 -0.6077 -0.5125  0.1033
  610TMC3    C5 9039   4.209   3.733  12.783  0.1106 -0.9847  0.2345
  610TMC3    C6 9040   4.340   3.758  12.761  0.0088  0.2069 -0.4212
  610TMC3     C 9041   4.072   4.061  12.812 -0.2119 -0.8003  0.1409
  610TMC3     O 9042   3.958   4.029  12.785 -0.0050 -0.4786  0.2130
  610TMC3     H 9043   4.328   4.097  12.732 -1.7506  1.1043  1.6283
  610TMC3    H1 9044   4.018   3.817  12.829 -0.3457 -1.8992  0.1970
  610TMC3    H2 9045   4.415   3.680  12.767  1.4253  1.6196  0.3373
  610TMC3    C7 9046   4.175   3.594  12.816 -0.1055 -0.2671  0.1488
  610TMC3    C8 9047   4.511   3.926  12.678  0.2640 -0.2136  0.1734
  610TMC3    O1 9048   4.265   3.507  12.822  0.0941 -0.1436  0.1941
  610TMC3    O2 9049   4.524   4.042  12.648  0.0165 -0.8021  0.1243
  611MPD2     C 9050   4.202   3.846  10.332 -0.0004  0.5227 -0.0754
  611MPD2    C1 9051   4.136   3.956  10.373  0.6494 -0.6857  0.5384
  611MPD2    C2 9052   4.206   4.069  10.419 -0.0483  0.3786  0.2931
  611MPD2    C3 9053   4.342   4.063  10.427  0.3086  0.2588 -0.0674
  611MPD2    C4 9054   4.409   3.956  10.371  0.0128 -0.1057  0.0217
  611MPD2    C5 9055   4.338   3.852  10.327 -0.0710  0.3840  0.5090
  611MPD2     H 9056   4.147   4.152  10.457 -1.0345 -0.2420  0.1095
  611MPD2    H1 9057   4.517   3.960  10.358 -0.1018  1.7108 -0.2878
  611MPD2    H2 9058   4.159   3.750  10.305 -0.3751  0.7621 -0.3283
  611MPD2    H3 9059   4.386   3.766  10.283 -0.8841  0.2581 -0.1314
  611MPD2     N 9060   4.423   4.165  10.482  0.2242  0.4033 -0.5344
  611MPD2    H5 9061   4.520   4.146  10.503 -0.1518 -1.4660 -0.5118
  611MPD2    N1 9062   3.989   3.952  10.380  0.3495 -0.5355 -0.2973
  611MPD2    H7 9063   3.941   3.864  10.362 -0.6751  0.4691 -2.5179
  612TMC3    C1 9064   4.462   4.378  10.585 -0.0069 -0.3817 -0.6817
  612TMC3    C2 9065   4.594   4.349  10.606  0.0137  0.2372  0.3135
  612TMC3    C3 9066   4.665   4.440  10.687 -0.0190  0.4039 -0.1819
  612TMC3    C4 9067   4.402   4.480  10.650 -0.0038  0.2114 -0.7083
  612TMC3    C5 9068   4.481   4.572  10.718 -0.5942 -0.0456 -0.4928
  612TMC3    C6 9069   4.613   4.552  10.748  0.2241 -1.0553  0.0973
  612TMC3     C 9070   4.374   4.293  10.509  0.2162 -0.0514  0.1636
  612TMC3     O 9071   4.261   4.339  10.494  0.1865  0.1304 -0.5826
  612TMC3     H 9072   4.654   4.274  10.555 -0.3979  1.3085 -1.7454
  612TMC3    H1 9073   4.301   4.511  10.627 -1.2823 -1.7513  2.3492
  612TMC3    H2 9074   4.667   4.630  10.801 -1.8735  0.9468 -0.7627
  612TMC3    C7 9075   4.425   4.641  10.825  0.2276  0.4260 -0.3336
  612TMC3    C8 9076   0.077   4.416  10.727  0.0477 -0.8141  0.7976
  612TMC3    O1 9077   4.474   0.020  10.869 -0.5992  0.4258 -0.3146
  612TMC3    O2 9078   0.127   4.508  10.784  0.1022  0.1819 -1.1503
  613MPD2     C 9079   3.014   1.091  16.656 -0.0998  1.0421 -0.2185
  613MPD2    C1 9080   2.934   1.159  16.561  0.7798 -0.5194  0.4711
  613MPD2    C2 9081   2.816   1.092  16.526  0.3883  0.0339 -0.0429
  613MPD2    C3 9082   2.792   0.962  16.562 -0.0414 -0.1905  0.6374
  613MPD2    C4 9083   2.871   0.898  16.653 -0.2613 -0.5625  0.8870
  613MPD2    C5 9084   2.980   0.969  16.709  0.0303 -0.2992 -0.1294
  613MPD2     H 9085   2.755   1.144  16.453 -0.4499 -0.4141  0.3323
  613MPD2    H1 9086   2.867   0.791  16.669 -1.2255 -0.7224 -0.4481
  613MPD2    H2 9087   3.107   1.131  16.697  0.4402 -0.2077 -0.2245
  613MPD2    H3 9088   3.056   0.930  16.776  0.8312 -0.8190 -1.3415
  613MPD2     N 9089   2.687   0.886  16.492  0.4500 -0.4742  0.1892
  613MPD2    H5 9090   2.679   0.787  16.513  1.0051 -1.1981 -2.9301
  613MPD2    N1 9091   2.975   1.287  16.510 -0.0188  0.0224  0.7523
  613MPD2    H7 9092   3.068   1.324  16.529  0.1672 -0.0381 -0.0577
  614TMC3    C1 9093   2.998   1.442  16.332  0.1049 -0.5544  0.4882
  614TMC3    C2 9094   3.095   1.365  16.274 -0.3423 -0.3520 -0.9231
  614TMC3    C3 9095   3.103   1.336  16.140 -0.0821  1.1852  0.7447
  614TMC3    C4 9096   2.921   1.514  16.245 -0.0266 -0.2500  0.7246
  614TMC3    C5 9097   2.919   1.477  16.115  0.0732 -0.0393 -0.0378
  614TMC3    C6 9098   3.011   1.394  16.059  0.3631 -0.2560  0.5482
  614TMC3     C 9099   2.911   1.360  16.409 -0.2291 -0.1289 -0.0958
  614TMC3     O 9100   2.797   1.348  16.367  0.2387  0.1578 -0.7524
  614TMC3     H 9101   3.163   1.322  16.347 -0.5326 -0.4401 -0.7985
  614TMC3    H1 9102   2.850   1.587  16.281 -1.7983 -1.1181 -1.0223
  614TMC3    H2 9103   3.008   1.401  15.950  1.5390  2.0294  0.6546
  614TMC3    C7 9104   2.832   1.553  16.025 -0.2239  0.1642 -0.5594
  614TMC3    C8 9105   3.137   1.205  16.116  0.2225 -0.0491  0.1373
  614TMC3    O1 9106   2.810   1.672  16.051  0.2696  0.0274  0.0515
  614TMC3    O2 9107   3.128   1.136  16.216 -0.2024  0.1669  0.6520
  615MPD2     C 9108   2.521   2.480  16.195  0.5357 -0.7724 -0.3143
  615MPD2    C1 9109   2.417   2.571  16.205  0.5933 -0.3025 -0.5763
  615MPD2    C2 9110   2.303   2.560  16.127  0.0415 -0.2027 -0.1556
  615MPD2    C3 9111   2.305   2.486  16.018 -0.1053 -0.5023  0.3301
  615MPD2    C4 9112   2.413   2.397  16.000 -1.0453  0.0509 -0.1063
  615MPD2    C5 9113   2.515   2.395  16.091 -0.2909 -0.1129 -0.0496
  615MPD2     H 9114   2.224   2.634  16.137 -1.2548 -1.9969  2.8686
  615MPD2    H1 9115   2.412   2.329  15.915  0.0762 -0.0997 -0.0097
  615MPD2    H2 9116   2.606   2.484  16.261  0.3596  0.7697 -0.1661
  615MPD2    H3 9117   2.602   2.332  16.075 -1.1258 -1.4913  0.9351
  615MPD2     N 9118   2.202   2.494  15.919 -0.0424  0.4689 -0.0597
  615MPD2    H5 9119   2.218   2.438  15.835 -0.2230  0.6171 -0.1939
  615MPD2    N1 9120   2.410   2.672  16.300 -0.8613  0.3331 -0.3271
  615MPD2    H7 9121   2.318   2.714  16.306 -1.6495 -1.3170 -0.8077
  616TMC3    C1 9122   2.476   2.836  16.466 -1.1683  0.3229  0.1629
  616TMC3    C2 9123   2.563   2.935  16.480 -0.9176  0.8090 -0.4736
  616TMC3    C3 9124   2.542   3.026  16.579  0.3970  0.0455 -0.8595
  616TMC3    C4 9125   2.361   2.822  16.542  0.0722  1.0907 -0.8937
  616TMC3    C5 9126   2.346   2.912  16.647 -0.0667  0.0258 -0.6112
  616TMC3    C6 9127   2.428   3.018  16.654  0.4839 -0.0978  0.6354
  616TMC3     C 9128   2.516   2.726  16.377 -0.3419 -0.3705  0.7537
  616TMC3     O 9129   2.638   2.714  16.360  0.4682  0.0726  0.2285
  616TMC3     H 9130   2.658   2.932  16.427 -0.4531  0.1577  0.4089
  616TMC3    H1 9131   2.298   2.734  16.537  0.0983  1.1630 -2.3291
  616TMC3    H2 9132   2.418   3.091  16.733  0.0875  1.0402 -0.4535
  616TMC3    C7 9133   2.226   2.915  16.728  0.3681 -0.8668 -0.3020
  616TMC3    C8 9134   2.604   3.163  16.556 -0.1521  0.0858 -0.1105
  616TMC3    O1 9135   2.245   2.929  16.848 -0.5682 -0.0857  0.5632
  616TMC3    O2 9136   2.528   3.254  16.592 -0.1057 -0.0868  0.2827
  617MPD2     C 9137   0.292   1.096  13.657 -0.3717  0.1499 -0.2957
  617MPD2    C1 9138   0.297   1.039  13.787 -0.2417  0.0511  0.1477
  617MPD2    C2 9139   0.179   0.999  13.847 -0.2073 -0.2324  0.1483
  617MPD2    C3 9140   0.061   1.006  13.779 -0.2628 -0.6764  0.2050
  617MPD2    C4 9141   0.053   1.049  13.656  0.2561  0.2999 -0.9250
  617MPD2    C5 9142   0.165   1.091  13.596  0.5646 -0.1952  0.0965
  617MPD2     H 9143   0.173   0.964  13.949  0.2998 -1.7711 -0.3488
  617MPD2    H1 9144   4.689   1.056  13.598 -0.6036  0.5452  0.4742
  617MPD2    H2 9145   0.385   1.126  13.610 -0.7991  1.4545 -0.3073
  617MPD2    H3 9146   0.148   1.138  13.500  1.2129 -0.6430 -0.2402
  617MPD2     N 9147   4.666   0.956  13.834 -0.5010 -0.0095  0.3390
  617MPD2    H5 9148   4.581   0.971  13.780 -0.5381  0.0301  0.4086
  617MPD2    N1 9149   0.426   1.014  13.840 -0.2246  0.1468  0.3756
  617MPD2    H7 9150   0.502   1.048  13.782 -1.0313 -3.5998 -2.8891
  618TMC3    C1 9151   0.592   0.922  13.967 -0.6388  1.0875  0.6519
  618TMC3    C2 9152   0.646   0.796  13.966  0.2213  0.2762 -0.1927
  618TMC3    C3 9153   0.780   0.789  13.959 -0.4718 -0.0594 -0.0436
  618TMC3    C4 9154   0.665   1.031  13.934 -0.6338 -0.3120  0.1276
  618TMC3    C5 9155   0.801   1.019  13.933  0.7706  0.2045 -0.1166
  618TMC3    C6 9156   0.859   0.898  13.945 -0.3537  0.0913 -0.8756
  618TMC3     C 9157   0.449   0.933  13.950 -0.6167 -0.4364  1.5497
  618TMC3     O 9158   0.386   0.857  14.020 -0.6597  0.0401 -0.0707
  618TMC3     H 9159   0.572   0.716  13.968  0.3342  0.1718 -0.2258
  618TMC3    H1 9160   0.617   1.127  13.920  0.3017  0.0141 -0.8366
  618TMC3    H2 9161   0.967   0.886  13.952 -0.6266 -0.9506  1.4605
  618TMC3    C7 9162   0.868   1.135  13.988  0.2062  0.3524  0.4930
  618TMC3    C8 9163   0.833   0.663  13.906  0.1552 -0.0704 -0.9724
  618TMC3    O1 9164   0.794   1.179  14.076 -0.1265 -0.3468  0.2083
  618TMC3    O2 9165   0.744   0.585  13.876  0.5474 -0.8508  0.2637
  619MPD2     C 9166   1.713   2.631  13.502  0.0398 -0.5784  0.6587
  619MPD2    C1 9167   1.596   2.687  13.456  0.4787  0.1918  0.0707
  619MPD2    C2 9168   1.528   2.615  13.356  0.4807  0.6110 -0.5240
  619MPD2    C3 9169   1.571   2.489  13.314  0.0085 -0.1572 -0.3633
  619MPD2    C4 9170   1.683   2.432  13.368 -0.4975  0.1901  0.0852
  619MPD2    C5 9171   1.747   2.501  13.465  0.4066  0.4192  0.1445
  619MPD2     H 9172   1.442   2.658  13.305 -1.0393 -0.8432  0.7764
  619MPD2    H1 9173   1.707   2.332  13.334  1.1679 -0.5526  3.3803
  619MPD2    H2 9174   1.775   2.676  13.579  0.7901  1.0263 -0.8949
  619MPD2    H3 9175   1.840   2.465  13.507  1.1561  0.3097 -1.6236
  619MPD2     N 9176   1.506   2.414  13.214 -0.3849  0.2298  0.3055
  619MPD2    H5 9177   1.539   2.319  13.200  2.2629  0.9610  1.5382
  619MPD2    N1 9178   1.546   2.823  13.486  0.0960  0.1776 -0.1327
  619MPD2    H7 9179   1.470   2.855  13.428 -0.1487  0.5958  0.4173
  620TMC3    C1 9180   1.482   3.003  13.615  0.0881 -0.8892 -0.1737
  620TMC3    C2 9181   1.410   3.046  13.509 -0.4938 -1.1191  0.4988
  620TMC3    C3 9182   1.287   3.103  13.521  0.8634  0.0889 -0.1972
  620TMC3    C4 9183   1.433   3.011  13.744  0.1799 -0.5448  0.3840
  620TMC3    C5 9184   1.307   3.058  13.762 -0.5574  0.4411  0.2502
  620TMC3    C6 9185   1.239   3.116  13.657 -0.2890 -0.0460 -0.0644
  620TMC3     C 9186   1.589   2.900  13.584  0.5926 -0.2769 -0.3277
  620TMC3     O 9187   1.668   2.875  13.671 -0.1148  0.4811  0.1876
  620TMC3     H 9188   1.445   3.024  13.409 -1.9350 -2.0834  0.1995
  620TMC3    H1 9189   1.500   2.981  13.824  1.2557 -0.6115 -0.5469
  620TMC3    H2 9190   1.136   3.148  13.668 -0.4119  0.7841 -3.3445
  620TMC3    C7 9191   1.222   2.987  13.855  0.5588  0.4951  0.8933
  620TMC3    C8 9192   1.192   3.056  13.428 -0.4560  0.6100 -0.7129
  620TMC3    O1 9193   1.102   3.017  13.846 -0.1708  0.8906  0.8657
  620TMC3    O2 9194   1.213   3.084  13.310 -0.0828  0.3243 -0.0710
  621MPD2     C 9195   1.974   2.603  10.202  0.6917  0.3044  0.0078
  621MPD2    C1 9196   2.094   2.538  10.177  0.3212 -0.5617 -0.3146
  621MPD2    C2 9197   2.193   2.606  10.114  0.1074 -0.5977  0.0299
  621MPD2    C3 9198   2.178   2.740  10.080 -0.5231 -0.3936  0.0576
  621MPD2    C4 9199   2.063   2.807  10.110  0.2490 -0.1340  0.2419
  621MPD2    C5 9200   1.963   2.739  10.181 -0.3397 -0.1272  0.0949
  621MPD2     H 9201   2.281   2.551  10.083 -1.2788 -1.7590 -1.7888
  621MPD2    H1 9202   2.050   2.911  10.084  0.5058  0.0797  0.9873
  621MPD2    H2 9203   1.901   2.547  10.258  0.5632  1.8542  1.4043
  621MPD2    H3 9204   1.870   2.779  10.218 -0.8969  0.4298 -1.8688
  621MPD2     N 9205   2.287   2.808  10.014 -0.5716 -0.3315 -0.3653
  621MPD2    H5 9206   2.375   2.758  10.018  0.3153  1.4291  1.9291
  621MPD2    N1 9207   2.124   2.400  10.209  0.1879  0.0879 -0.0004
  621MPD2    H7 9208   2.211   2.357  10.178 -0.8313 -1.0636 -1.2496
  622TMC3    C1 9209   2.114   2.181  10.303  0.0516 -0.2215 -0.1706
  622TMC3    C2 9210   2.037   2.078  10.355  1.5623 -1.0030  0.4810
  622TMC3    C3 9211   2.077   1.945  10.348 -0.2325  0.3694 -0.5300
  622TMC3    C4 9212   2.243   2.158  10.260  0.3019  0.9516 -0.3438
  622TMC3    C5 9213   2.280   2.029  10.256  0.8688 -0.5557  0.1558
  622TMC3    C6 9214   2.198   1.921  10.290 -0.2992 -0.1789 -0.9762
  622TMC3     C 9215   2.043   2.308  10.273 -0.9425  0.0152 -0.6851
  622TMC3     O 9216   1.928   2.321  10.313 -0.2308 -0.6121 -0.7015
  622TMC3     H 9217   1.951   2.108  10.413  1.6629 -0.6662  0.4561
  622TMC3    H1 9218   2.301   2.236  10.214 -0.5791  1.1631 -1.1029
  622TMC3    H2 9219   2.230   1.817  10.290  0.4109  0.0454  0.0500
  622TMC3    C7 9220   2.408   2.015  10.191 -0.0237 -0.4082  0.5188
  622TMC3    C8 9221   1.999   1.832  10.401 -0.0171  0.7947  0.6048
  622TMC3    O1 9222   2.481   2.113  10.172  0.2403 -0.3495 -0.4686
  622TMC3    O2 9223   2.060   1.733  10.442  0.1420 -0.7419  0.2400
  623MPD2     C 9224   0.751   2.522  16.081  0.3884  0.4465 -0.4523
  623MPD2    C1 9225   0.743   2.642  16.144 -0.4563  0.3760  0.1884
  623MPD2    C2 9226   0.851   2.675  16.229 -0.3889  0.1832 -0.9023
  623MPD2    C3 9227   0.940   2.576  16.267 -0.7943 -0.0577 -0.2071
  623MPD2    C4 9228   0.937   2.451  16.210 -0.5645  0.6567 -0.6223
  623MPD2    C5 9229   0.842   2.431  16.113  0.1979 -0.5497  0.7773
  623MPD2     H 9230   0.846   2.768  16.285  0.2021  0.1206 -0.7419
  623MPD2    H1 9231   1.008   2.372  16.227 -2.1105 -0.4954  0.5500
  623MPD2    H2 9232   0.675   2.492  16.011 -2.5351  2.4164  1.8355
  623MPD2    H3 9233   0.841   2.339  16.055 -2.7075  0.8546 -1.4043
  623MPD2     N 9234   1.023   2.607  16.376 -0.3893  0.1135  0.3376
  623MPD2    H5 9235   1.016   2.706  16.397 -0.7039  0.4467 -1.2795
  623MPD2    N1 9236   0.653   2.737  16.099 -0.0153 -0.1731  0.4760
  623MPD2    H7 9237   0.576   2.718  16.036  1.8066  0.3487 -1.9026
  624TMC3    C1 9238   1.230   2.527  16.779 -0.6619  0.0536 -0.7934
  624TMC3    C2 9239   1.177   2.639  16.827  0.0422  0.0647 -0.7339
  624TMC3    C3 9240   1.116   2.733  16.746 -0.5675 -0.5437 -0.2540
  624TMC3    C4 9241   1.219   2.489  16.649  0.5198  0.1528  0.5895
  624TMC3    C5 9242   1.152   2.581  16.575 -0.0187 -0.1297  0.3242
  624TMC3    C6 9243   1.103   2.702  16.613  0.6473  0.8256 -0.1342
  624TMC3     C 9244   1.363   2.497  16.821 -1.1287 -1.1397 -0.7239
  624TMC3     O 9245   1.416   2.588  16.888 -0.0184  0.0068  0.3098
  624TMC3     H 9246   1.189   2.663  16.933 -4.7435 -0.8047  0.0137
  624TMC3    H1 9247   1.244   2.390  16.613 -0.1733  0.5110 -0.8790
  624TMC3    H2 9248   1.033   2.755  16.550  0.4086 -1.6727 -1.9448
  624TMC3    C7 9249   1.106   2.524  16.447  0.1302 -0.2103 -0.2557
  624TMC3    C8 9250   1.001   2.818  16.788 -0.0523 -0.1948  0.1148
  624TMC3    O1 9251   1.105   2.403  16.439  0.2420 -0.0970 -0.5028
  624TMC3    O2 9252   0.916   2.771  16.868  0.6471  0.3595 -0.1185
  625MPD2     C 9253   0.975   3.810   0.555 -0.0588  0.1658 -0.6839
  625MPD2    C1 9254   1.054   3.921   0.535 -0.2972  0.5544 -0.1999
  625MPD2    C2 9255   1.181   3.908   0.583  0.7398 -0.5259  0.8261
  625MPD2    C3 9256   1.230   3.794   0.643 -0.2665 -0.5231  0.3204
  625MPD2    C4 9257   1.144   3.689   0.669 -0.1220  0.0990 -0.1390
  625MPD2    C5 9258   1.016   3.702   0.623 -0.2819  0.2736  0.2140
  625MPD2     H 9259   1.253   3.988   0.568  0.4660 -0.0081  2.2421
  625MPD2    H1 9260   1.174   3.594   0.712 -0.5902  0.3490  0.7413
  625MPD2    H2 9261   0.871   3.812   0.523 -0.2508  0.1759 -0.0644
  625MPD2    H3 9262   0.947   3.619   0.630 -0.5811  0.6091  1.2999
  625MPD2     N 9263   1.370   3.796   0.674 -0.1271  0.9507  0.4693
  625MPD2    H5 9264   1.418   3.873   0.628  1.7990  0.7745  2.1998
  625MPD2    N1 9265   1.003   4.034   0.472  0.0945  0.6536  0.3176
  625MPD2    H7 9266   1.078   4.103   0.461 -1.3556  2.2339  0.2769
  626TMC3    C1 9267   0.867   4.201   0.387  0.3226  0.1618  0.2310
  626TMC3    C2 9268   0.776   4.236   0.294 -0.1310 -0.5627 -0.2850
  626TMC3    C3 9269   0.721   4.363   0.296 -0.1639  0.0619  0.1133
  626TMC3    C4 9270   0.915   4.292   0.473 -0.1404  0.1516  0.4656
  626TMC3    C5 9271   0.880   4.423   0.469 -0.0068 -0.5548 -0.3522
  626TMC3    C6 9272   0.783   4.457   0.379 -0.0759  0.3710  0.7121
  626TMC3     C 9273   0.877   4.064   0.426 -0.2473  0.1673  0.4797
  626TMC3     O 9274   0.782   3.990   0.410 -0.4933 -0.5295 -0.8291
  626TMC3     H 9275   0.754   4.155   0.226 -2.4678 -1.3021  1.3324
  626TMC3    H1 9276   0.983   4.264   0.552 -1.6186  0.5683  1.8876
  626TMC3    H2 9277   0.757   4.563   0.374 -1.4086  0.0321  0.6025
  626TMC3    C7 9278   0.930   4.515   0.567  0.2799  0.0477 -0.9927
  626TMC3    C8 9279   0.651   4.402   0.175  0.7538  0.0666  0.4665
  626TMC3    O1 9280   1.042   4.503   0.619  0.2412  0.8908 -0.6317
  626TMC3    O2 9281   0.691   4.350   0.071 -0.5762 -0.0936 -0.1740
  627MPD2     C 9282   4.201   4.484  14.217  0.4797 -0.3384 -0.3394
  627MPD2    C1 9283   4.268   4.408  14.314 -0.4234  0.0431 -0.1732
  627MPD2    C2 9284   4.205   4.291  14.351  0.0942  0.0786  0.3439
  627MPD2    C3 9285   4.089   4.238  14.291  0.1256  0.2266  0.2971
  627MPD2    C4 9286   4.028   4.320  14.198  0.0840  0.0152  0.3741
  627MPD2    C5 9287   4.084   4.441  14.168  0.2864 -0.2539  0.4700
  627MPD2     H 9288   4.246   4.239  14.437 -0.6666  3.4359  2.7105
  627MPD2    H1 9289   3.935   4.287  14.154  0.1561 -1.1551  1.1125
  627MPD2    H2 9290   4.227   4.585  14.184 -0.7905  0.4108  0.9744
  627MPD2    H3 9291   4.034   4.506  14.097 -0.0285 -1.2066 -0.1668
  627MPD2     N 9292   4.032   4.122  14.347 -0.2058 -0.3552  0.1154
  627MPD2    H5 9293   4.089   4.076  14.418  1.2594  0.8765 -0.2491
  627MPD2    N1 9294   4.385   4.446  14.384  0.6189  0.5458 -0.0796
  627MPD2    H7 9295   4.423   4.380  14.451  0.8908 -0.1573 -0.9339
  628TMC3    C1 9296   4.559   4.577  14.473 -0.8912 -0.4008  0.4910
  628TMC3    C2 9297   4.663   4.482  14.466 -0.0859 -0.7194  0.9499
  628TMC3    C3 9298   0.048   4.506  14.542 -0.4023  0.5491 -0.3621
  628TMC3    C4 9299   4.576   4.695  14.536 -0.4088 -0.2247 -0.0967
  628TMC3    C5 9300   4.693   4.717  14.595 -0.4153 -0.2106  0.2515
  628TMC3    C6 9301   0.068   4.624  14.611  0.3308  0.8228  0.3833
  628TMC3     C 9302   4.449   4.571  14.376 -0.1118 -0.3622 -0.1089
  628TMC3     O 9303   4.419   4.683  14.328 -0.0990  0.2917  0.9269
  628TMC3     H 9304   4.652   4.397  14.400  0.1078 -0.0643  0.0743
  628TMC3    H1 9305   4.497   0.041  14.529 -0.7769 -0.5472  0.6643
  628TMC3    H2 9306   0.173   4.638  14.636 -0.0210 -0.0084  2.2825
  628TMC3    C7 9307   4.725   0.129  14.616  0.0593  0.9688  1.0650
  628TMC3    C8 9308   0.171   4.447  14.489  1.0697 -0.0804  0.6290
  628TMC3    O1 9309   0.092   0.150  14.692  0.7467 -0.1215  0.3266
  628TMC3    O2 9310   0.177   4.443  14.365  0.5478  0.1787  0.2172
  629MPD2     C 9311   2.969   3.499  16.421 -0.2626 -0.1749 -0.2772
  629MPD2    C1 9312   3.024   3.379  16.435 -0.0721 -0.2389  0.5349
  629MPD2    C2 9313   2.942   3.273  16.453  0.0551  0.7873 -0.3828
  629MPD2    C3 9314   2.805   3.280  16.472  0.3038 -0.4325 -0.0848
  629MPD2    C4 9315   2.756   3.408  16.473  0.4969 -0.5479 -0.4448
  629MPD2    C5 9316   2.835   3.515  16.441  0.1002 -0.5331  0.4534
  629MPD2     H 9317   2.979   3.172  16.468  0.0532  1.2789  2.9376
  629MPD2    H1 9318   2.650   3.424  16.485 -0.1355 -3.8505 -1.6259
  629MPD2    H2 9319   3.034   3.585  16.409  0.0913 -0.3657  0.2573
  629MPD2    H3 9320   2.791   3.613  16.449 -0.4252 -0.5506 -2.4785
  629MPD2     N 9321   2.732   3.166  16.516  0.2021  0.4556  0.1302
  629MPD2    H5 9322   2.786   3.081  16.527 -0.5433  0.0062  0.3624
  629MPD2    N1 9323   3.164   3.372  16.429  0.4359 -0.4204  0.3366
  629MPD2    H7 9324   3.208   3.463  16.423  2.5238 -1.4008  0.9042
  630TMC3    C1 9325   3.382   3.289  16.462 -0.4801 -0.1308  0.3232
  630TMC3    C2 9326   3.442   3.393  16.388 -0.1390  0.8844  0.3328
  630TMC3    C3 9327   3.578   3.407  16.408 -0.5427  0.6844  0.0681
  630TMC3    C4 9328   3.452   3.209  16.547  0.4577  0.2385  0.0549
  630TMC3    C5 9329   3.581   3.245  16.581  0.5506  0.1584  0.3646
  630TMC3    C6 9330   3.647   3.336  16.509  0.1872  0.1540  0.0773
  630TMC3     C 9331   3.241   3.257  16.457  0.0274 -0.5298 -0.0850
  630TMC3     O 9332   3.208   3.141  16.481  0.2383  0.6108  0.1017
  630TMC3     H 9333   3.382   3.448  16.316 -3.7332 -2.7281  0.5657
  630TMC3    H1 9334   3.401   3.130  16.601  1.8049 -1.3200 -0.9596
  630TMC3    H2 9335   3.751   3.362  16.528  0.4112 -0.0548 -0.8807
  630TMC3    C7 9336   3.648   3.179  16.693  0.1733 -0.0771  0.2012
  630TMC3    C8 9337   3.660   3.480  16.318 -0.3096  0.0583 -0.0698
  630TMC3    O1 9338   3.580   3.092  16.755 -0.1675  0.2903  0.2742
  630TMC3    O2 9339   3.778   3.447  16.325  0.4451 -0.1705  0.9040
  631MPD2     C 9340   1.234   2.942  15.667  0.5966 -0.3685 -0.0843
  631MPD2    C1 9341   1.309   2.926  15.558 -0.2620 -0.3065  0.3666
  631MPD2    C2 9342   1.437   2.874  15.561 -0.4818 -0.6736  0.3844
  631MPD2    C3 9343   1.479   2.828  15.686  0.0345  0.1875  0.4533
  631MPD2    C4 9344   1.401   2.838  15.799  0.1639 -0.4149 -0.1822
  631MPD2    C5 9345   1.281   2.893  15.782 -0.1433 -0.2546 -0.2298
  631MPD2     H 9346   1.499   2.879  15.472  0.0638  0.0301  0.8049
  631MPD2    H1 9347   1.426   2.816  15.902 -0.7327 -1.7460 -0.2479
  631MPD2    H2 9348   1.138   2.992  15.672  3.1419  4.3370  1.9348
  631MPD2    H3 9349   1.221   2.908  15.871  0.9655  0.3514  0.4130
  631MPD2     N 9350   1.609   2.777  15.697  0.2372  0.3243  0.4954
  631MPD2    H5 9351   1.677   2.780  15.622  1.3111 -1.2010  1.3986
  631MPD2    N1 9352   1.256   2.969  15.438  0.5489 -0.0668 -0.7498
  631MPD2    H7 9353   1.168   3.018  15.447  0.5928 -0.3344  1.1286
  632TMC3    C1 9354   1.219   3.012  15.211  0.3410 -0.3840  0.3279
  632TMC3    C2 9355   1.081   3.008  15.219 -0.7582  0.4784  0.0667
  632TMC3    C3 9356   1.004   3.018  15.108  0.1917 -0.4304  0.5903
  632TMC3    C4 9357   1.284   3.048  15.095  0.3894  0.1006  0.4272
  632TMC3    C5 9358   1.198   3.068  14.985  0.4197 -0.0477 -0.0799
  632TMC3    C6 9359   1.062   3.061  14.993 -0.9587 -0.8039  0.0005
  632TMC3     C 9360   1.309   2.966  15.312  0.1290 -0.1403 -0.1567
  632TMC3     O 9361   1.422   2.935  15.275  0.1214 -0.3327  0.1620
  632TMC3     H 9362   1.036   2.981  15.314 -2.0166 -1.0551 -0.9762
  632TMC3    H1 9363   1.392   3.058  15.091  0.1597  2.0582 -0.9294
  632TMC3    H2 9364   1.001   3.079  14.905  1.4642  0.5411 -1.4114
  632TMC3    C7 9365   1.250   3.095  14.851 -0.1533  0.4892  0.0856
  632TMC3    C8 9366   0.865   3.056  15.135 -0.7945 -0.0087 -0.1671
  632TMC3    O1 9367   1.178   3.110  14.758 -0.2232 -0.2164  0.1518
  632TMC3    O2 9368   0.831   3.069  15.253  0.3206 -0.2426 -0.0905
  633MPD2     C 9369   0.916   1.043  17.432 -0.4186 -0.6412  0.4993
  633MPD2    C1 9370   0.999   0.993  17.333 -0.2552 -0.2096  0.1361
  633MPD2    C2 9371   1.064   0.873  17.357 -0.4787 -0.0737  0.0537
  633MPD2    C3 9372   1.049   0.803  17.473 -0.6478  1.5705  0.2300
  633MPD2    C4 9373   0.967   0.857  17.572 -0.4998 -0.3480  0.8418
  633MPD2    C5 9374   0.900   0.975  17.549 -0.5197  0.7922 -1.1179
  633MPD2     H 9375   1.124   0.834  17.276  0.3285 -1.1576  1.1744
  633MPD2    H1 9376   0.939   0.803  17.661  0.9470 -0.3964  1.2579
  633MPD2    H2 9377   0.853   1.130  17.423  0.7628  0.0788 -0.7888
  633MPD2    H3 9378   0.826   1.010  17.621 -0.3203 -0.3778 -0.3402
  633MPD2     N 9379   1.086   0.671  17.480  0.0085 -0.4242  0.0930
  633MPD2    H5 9380   1.049   0.615  17.556  1.9385  0.0417  1.3752
  633MPD2    N1 9381   1.014   1.043  17.204  0.7135 -0.2985 -0.2532
  633MPD2    H7 9382   1.083   0.997  17.147 -0.0623 -0.5269 -1.0147
  634TMC3    C1 9383   1.014   1.181  17.011  0.4073 -0.4689  0.1356
  634TMC3    C2 9384   1.034   1.081  16.922 -0.2839 -0.2986 -1.0459
  634TMC3    C3 9385   1.049   1.112  16.791  0.9707 -0.1397 -0.3504
  634TMC3    C4 9386   1.012   1.318  16.974  0.3401 -0.1392  0.0508
  634TMC3    C5 9387   1.022   1.337  16.840  0.3942  0.3447  0.2222
  634TMC3    C6 9388   1.033   1.242  16.744  0.0143 -0.0257 -0.5663
  634TMC3     C 9389   0.965   1.155  17.150  0.0595 -0.0434 -0.3601
  634TMC3     O 9390   0.889   1.230  17.205 -0.3152  0.0430 -0.7550
  634TMC3     H 9391   1.028   0.976  16.951 -0.6109 -0.6256 -2.3008
  634TMC3    H1 9392   1.000   1.403  17.039 -0.1929 -0.6083  0.5671
  634TMC3    H2 9393   1.050   1.262  16.639  1.4046 -0.9225 -0.5008
  634TMC3    C7 9394   1.020   1.472  16.781  0.1781  0.1940 -0.6072
  634TMC3    C8 9395   1.045   1.001  16.702 -0.4430  0.3856 -0.6332
  634TMC3    O1 9396   1.062   1.487  16.666 -0.2246  0.1552  0.1530
  634TMC3    O2 9397   0.987   0.904  16.745 -0.8343 -0.5398 -0.3089
  635TMC3    C1 9398   1.751   2.310  17.408  0.4708  0.3493 -1.0124
  635TMC3    C2 9399   1.884   2.318  17.395 -0.2332 -0.3897 -0.2110
  635TMC3    C3 9400   1.957   2.240  17.308 -0.0716  0.7337 -0.4748
  635TMC3    C4 9401   1.678   2.227  17.323  0.4378 -0.6976 -0.1984
  635TMC3    C5 9402   1.749   2.156  17.222  0.0501 -0.1068 -0.1038
  635TMC3    C6 9403   1.890   2.157  17.224  0.3872  0.1460 -0.5318
  635TMC3     C 9404   1.688   2.341  17.532  0.4341 -0.1573  0.5549
  635TMC3     O 9405   1.567   2.352  17.541 -0.0448  0.7999 -1.2460
  635TMC3     H 9406   1.934   2.386  17.463  0.7771 -1.3656  0.0301
  635TMC3    H1 9407   1.572   2.209  17.334  1.0210 -4.0048  0.1400
  635TMC3    H2 9408   1.933   2.085  17.156 -3.0141 -1.5219 -0.9130
  635TMC3    C7 9409   1.686   2.083  17.122 -0.0529 -0.7474  0.1293
  635TMC3    C8 9410   2.099   2.259  17.289  0.1328 -0.5789  0.6974
  635TMC3    O1 9411   1.744   1.983  17.082  0.3659 -0.0882  0.0911
  635TMC3    O2 9412   2.159   2.332  17.367  0.3273 -0.1203  0.4959
  636MPD2     C 9413   2.346   1.461  15.902 -0.2718 -0.5229 -0.0420
  636MPD2    C1 9414   2.422   1.464  16.021  0.1838 -0.5612  0.1163
  636MPD2    C2 9415   2.478   1.335  16.063 -0.0307  0.8951  0.3091
  636MPD2    C3 9416   2.454   1.217  16.000 -0.1874 -0.1016 -0.9547
  636MPD2    C4 9417   2.391   1.231  15.879 -0.7236  1.0622 -0.5636
  636MPD2    C5 9418   2.346   1.345  15.829  0.5938 -0.6226 -0.1101
  636MPD2     H 9419   2.527   1.330  16.160  2.0142  0.2855 -0.7493
  636MPD2    H1 9420   2.365   1.136  15.834  0.8266  0.7475 -0.8053
  636MPD2    H2 9421   2.296   1.549  15.862 -0.8441  0.3946  2.6789
  636MPD2    H3 9422   2.287   1.339  15.739  0.9646 -1.1126 -0.3205
  636MPD2     N 9423   2.493   1.090  16.056  0.6467  0.1154  0.8176
  636MPD2    H5 9424   2.519   1.087  16.154  0.9505  0.9159  0.7674
  636MPD2    N1 9425   2.446   1.584  16.095  0.1783 -0.7678  0.0064
  636MPD2    H7 9426   2.501   1.573  16.179 -2.8579 -1.5679  1.9206
  637TMC3    C1 9427   2.526   0.854  16.078  0.1805  0.4160 -0.6322
  637TMC3    C2 9428   2.495   0.883  16.202  0.6549  0.5948  0.9305
  637TMC3    C3 9429   2.561   0.828  16.300  0.3854  0.1519  0.7680
  637TMC3    C4 9430   2.624   0.764  16.038 -0.1516 -0.3389 -1.0396
  637TMC3    C5 9431   2.700   0.721  16.143 -0.6345 -0.2127 -0.2961
  637TMC3    C6 9432   2.663   0.741  16.272  0.0377  1.0170  0.2069
  637TMC3     C 9433   2.502   0.969  15.991 -0.0902  0.0571  0.0618
  637TMC3     O 9434   2.492   0.937  15.871 -0.2949 -0.2641  1.0370
  637TMC3     H 9435   2.410   0.945  16.229  0.1363  1.1327 -1.9602
  637TMC3    H1 9436   2.650   0.772  15.933 -0.5687  0.9780 -1.0459
  637TMC3    H2 9437   2.733   0.709  16.348  0.2716 -1.5228 -1.0656
  637TMC3    C7 9438   2.828   0.774  16.117  0.5190 -0.0443 -0.9108
  637TMC3    C8 9439   2.602   0.934  16.391  0.1165  0.1239 -0.2397
  637TMC3    O1 9440   2.863   0.850  16.205  0.0075 -0.0361 -0.3046
  637TMC3    O2 9441   2.565   1.046  16.358 -0.1314  0.3353 -0.4424
  638MPD2     C 9442   1.961   0.159  15.072 -0.6460  0.3253 -0.0436
  638MPD2    C1 9443   1.955   0.043  15.004  0.3913  0.0917  0.5938
  638MPD2    C2 9444   1.909   4.662  15.072 -0.1421  0.5563  0.1920
  638MPD2    C3 9445   1.886   4.673  15.208 -0.3780 -0.0037  0.0477
  638MPD2    C4 9446   1.894   0.062  15.278  0.1587 -0.2785 -0.1825
  638MPD2    C5 9447   1.926   0.175  15.204  0.4686  0.4184 -0.5394
  638MPD2     H 9448   1.896   4.564  15.027  0.3538 -0.6244  2.5604
  638MPD2    H1 9449   1.884   0.058  15.386  3.8325 -3.2364  0.0871
  638MPD2    H2 9450   1.992   0.245  15.013 -1.0484  0.7901  0.4198
  638MPD2    H3 9451   1.922   0.270  15.255 -0.0691  1.0350 -1.7145
  638MPD2     N 9452   1.857   4.546  15.268 -0.1113  0.7076  0.3117
  638MPD2    H5 9453   1.829   4.477  15.200  0.3878  1.6976 -0.9016
  638MPD2    N1 9454   1.979   0.047  14.868 -0.0135 -0.1991 -0.0689
  638MPD2    H7 9455   2.012   0.136  14.830 -0.3626  0.4885  1.2354
  639TMC3    C1 9456   1.879   4.374  15.413  0.4181  0.2283  0.8639
  639TMC3    C2 9457   1.786   4.296  15.363  0.7883  0.2677 -0.1188
  639TMC3    C3 9458   1.820   4.165  15.340 -0.4218  0.2018  0.2844
  639TMC3    C4 9459   2.006   4.335  15.441 -0.2973  0.1804 -0.3699
  639TMC3    C5 9460   2.039   4.205  15.404 -0.1587 -0.1529 -0.4475
  639TMC3    C6 9461   1.944   4.120  15.363 -0.0223 -0.9102  0.5874
  639TMC3     C 9462   1.873   4.517  15.404 -0.2413 -0.4289 -0.4345
  639TMC3     O 9463   1.929   4.582  15.491  0.1798  0.4034 -0.6359
  639TMC3     H 9464   1.697   4.348  15.329 -0.4578 -1.7713  0.0025
  639TMC3    H1 9465   2.078   4.408  15.474 -0.2549  0.1156 -0.3187
  639TMC3    H2 9466   1.963   4.020  15.325 -1.3511 -1.0669  0.3430
  639TMC3    C7 9467   2.178   4.154  15.408  0.5180 -0.3671  0.0019
  639TMC3    C8 9468   1.734   4.094  15.248  0.0190 -0.8571  0.1126
  639TMC3    O1 9469   2.192   4.039  15.439  0.2756 -0.0029  0.2661
  639TMC3    O2 9470   1.779   4.036  15.151 -0.4665 -0.3792 -0.5787
  640MPD2     C 9471   3.825   3.035   9.849  0.4631  0.1945 -0.5273
  640MPD2    C1 9472   3.690   3.036   9.831 -0.0226  0.4165 -0.0757
  640MPD2    C2 9473   3.612   3.114   9.910  0.0506 -0.7441 -0.4870
  640MPD2    C3 9474   3.670   3.200  10.000 -0.0424 -0.5055 -0.2243
  640MPD2    C4 9475   3.808   3.212  10.005 -0.5513  0.6440 -0.0913
  640MPD2    C5 9476   3.884   3.114   9.938  0.5665 -0.1007 -0.0165
  640MPD2     H 9477   3.505   3.101   9.908  0.2145 -1.6149 -2.9394
  640MPD2    H1 9478   3.854   3.282  10.074  0.8268 -0.5671  0.1974
  640MPD2    H2 9479   3.889   2.977   9.784  1.3511  1.0243 -0.4023
  640MPD2    H3 9480   3.993   3.118   9.940  0.6245 -0.9099 -2.2573
  640MPD2     N 9481   3.584   3.297  10.066  0.6113 -0.1486  0.0665
  640MPD2    H5 9482   3.629   3.379  10.105 -0.2614 -0.2840  1.3752
  640MPD2    N1 9483   3.630   2.949   9.734  0.3602  0.2479 -0.1051
  640MPD2    H7 9484   3.688   2.870   9.707 -1.7685 -0.5496 -2.3180
  641TMC3    C1 9485   3.445   2.836   9.630 -0.2704  0.1092  0.6248
  641TMC3    C2 9486   3.499   2.716   9.664 -0.0890 -0.3614 -0.2064
  641TMC3    C3 9487   3.461   2.603   9.600  0.2919  0.1045  0.1622
  641TMC3    C4 9488   3.357   2.840   9.525  0.4381  0.1473  0.6539
  641TMC3    C5 9489   3.324   2.723   9.463  0.1123  0.7373 -0.6605
  641TMC3    C6 9490   3.376   2.604   9.496 -0.4313  0.7861 -0.2299
  641TMC3     C 9491   3.498   2.957   9.699  0.2140 -0.7443 -0.9485
  641TMC3     O 9492   3.426   3.057   9.695 -0.2263 -0.0678 -0.4301
  641TMC3     H 9493   3.562   2.715   9.752  0.1328 -0.9928 -0.3707
  641TMC3    H1 9494   3.308   2.932   9.495 -0.6300 -0.6199  0.0438
  641TMC3    H2 9495   3.350   2.516   9.440 -0.9489  1.6425 -1.3372
  641TMC3    C7 9496   3.282   2.741   9.329 -0.0135  0.0529  0.3134
  641TMC3    C8 9497   3.524   2.472   9.637 -0.7929  0.5310  0.4242
  641TMC3    O1 9498   3.285   2.851   9.280 -0.4078  0.7461  0.0658
  641TMC3    O2 9499   3.485   2.379   9.563 -0.5489 -0.2227 -0.9347
  642TMC3    C1 9500   3.794   4.468  12.580  0.1055  0.6391  0.5950
  642TMC3    C2 9501   3.932   4.469  12.564 -0.0648  0.3968 -0.8442
  642TMC3    C3 9502   4.000   4.349  12.555  0.4468 -0.0156  0.1090
  642TMC3    C4 9503   3.718   4.352  12.576  1.0444  0.0476  0.5660
  642TMC3    C5 9504   3.793   4.236  12.558 -0.0927 -0.5821 -0.2181
  642TMC3    C6 9505   3.929   4.232  12.540 -0.0125 -0.4787 -0.0749
  642TMC3     C 9506   3.732   4.601  12.571 -0.5523 -0.1494 -0.6412
  642TMC3     O 9507   3.803   4.694  12.542  0.4771  0.3083 -0.7069
  642TMC3     H 9508   3.982   4.565  12.560 -0.2667  0.6014  1.2556
  642TMC3    H1 9509   3.613   4.349  12.603  1.2744  1.7220  1.6621
  642TMC3    H2 9510   3.974   4.135  12.524  0.9403 -0.0837  0.1814
  642TMC3    C7 9511   3.726   4.125  12.499  0.6139  0.2893 -0.4200
  642TMC3    C8 9512   4.143   4.341  12.583  0.6414 -0.5125  0.2090
  642TMC3    O1 9513   3.645   4.149  12.412  0.0145 -0.3301  0.4079
  642TMC3    O2 9514   4.190   4.229  12.563  0.4634 -0.0918  0.2635
  643TMC3    C1 9515   2.317   4.113   0.369  0.5744 -0.1533 -0.3507
  643TMC3    C2 9516   2.189   4.162   0.335 -0.3414 -0.0478  0.2357
  643TMC3    C3 9517   2.156   4.193   0.206  0.0884 -0.8256 -0.0017
  643TMC3    C4 9518   2.404   4.090   0.266 -0.0499 -0.3509 -0.3554
  643TMC3    C5 9519   2.364   4.107   0.140  0.3070  0.7837  0.3127
  643TMC3    C6 9520   2.242   4.159   0.107  0.2651 -0.8852 -0.8029
  643TMC3     C 9521   2.362   4.152   0.500 -0.0847  0.1505  0.1253
  643TMC3     O 9522   2.276   4.203   0.573  0.0664 -0.3968  0.6523
  643TMC3     H 9523   2.104   4.179   0.401 -0.3501 -2.6508  0.8709
  643TMC3    H1 9524   2.508   4.064   0.283 -0.3770 -0.7049  1.1495
  643TMC3    H2 9525   2.208   4.169   0.005  2.6336  0.4762 -1.4567
  643TMC3    C7 9526   2.471   4.143   0.048  0.0682 -0.3455  0.6764
  643TMC3    C8 9527   2.095   4.322   0.180 -0.3254 -0.0684 -0.4166
  643TMC3    O1 9528   2.457   4.251   0.003 -0.3226  0.0561  0.7284
  643TMC3    O2 9529   2.006   4.353   0.253  0.1769  0.0825 -0.3209
  644MPD2     C 9530   3.798   4.102   9.327  0.5324  0.0501  0.2065
  644MPD2    C1 9531   3.677   4.057   9.374  0.1426 -0.4775 -0.0323
  644MPD2    C2 9532   3.580   4.153   9.408  0.4103  0.5043  0.0930
  644MPD2    C3 9533   3.600   4.285   9.407  0.1831 -0.4794 -0.2720
  644MPD2    C4 9534   3.718   4.333   9.343  0.4853  0.0379  0.5975
  644MPD2    C5 9535   3.816   4.239   9.314 -0.3353  0.6569 -0.3400
  644MPD2     H 9536   3.487   4.127   9.457  0.4709  1.6437  0.8154
  644MPD2    H1 9537   3.734   4.438   9.320  3.4245 -0.0783  2.0175
  644MPD2    H2 9538   3.883   4.037   9.307 -0.0100 -0.9443  1.1100
  644MPD2    H3 9539   3.913   4.280   9.290 -0.9724  3.0521  1.2756
  644MPD2     N 9540   3.494   4.368   9.450  0.3129  0.5370  0.7669
  644MPD2    H5 9541   3.418   4.323   9.500  0.7415 -1.0247  0.0302
  644MPD2    N1 9542   3.645   3.919   9.376  0.0162  0.8185 -0.1937
  644MPD2    H7 9543   3.714   3.855   9.337 -0.3640 -0.0701  0.5701
  645TMC3    C1 9544   3.366   4.562   9.489  0.2641 -0.3371  0.2627
  645TMC3    C2 9545   3.297   4.658   9.418  0.5423 -0.7839 -0.7488
  645TMC3    C3 9546   3.220   0.019   9.480  0.2466 -0.0732  0.2083
  645TMC3    C4 9547   3.330   4.534   9.621  0.1948  0.6563  0.7224
  645TMC3    C5 9548   3.244   4.626   9.680 -0.0020 -0.3498  0.5001
  645TMC3    C6 9549   3.198   0.003   9.614 -0.9201 -0.0214  0.8919
  645TMC3     C 9550   3.482   4.503   9.423  0.2046 -0.4231  0.8708
  645TMC3     O 9551   3.559   4.577   9.361 -0.0404 -0.1283  0.3152
  645TMC3     H 9552   3.313   4.661   9.311  1.4343 -2.4827 -0.6677
  645TMC3    H1 9553   3.390   4.464   9.678 -0.9323  0.6955  1.9491
  645TMC3    H2 9554   3.148   0.080   9.672  1.7024  1.1084  1.6797
  645TMC3    C7 9555   3.194   4.616   9.808  0.1628  0.3191  1.0086
  645TMC3    C8 9556   3.169   0.136   9.429 -0.2666  0.4230  0.3388
  645TMC3    O1 9557   3.114   4.704   9.845  0.0083  0.1241  0.7557
  645TMC3    O2 9558   3.083   0.190   9.500 -0.1616 -0.2348 -0.6504
  646MPD2     C 9559   1.994   3.383  14.592  0.3294  0.3323 -0.2449
  646MPD2    C1 9560   1.926   3.390  14.709 -0.0950  0.0005 -0.1900
  646MPD2    C2 9561   1.807   3.455  14.714 -0.1360  0.3370 -0.2589
  646MPD2    C3 9562   1.752   3.513  14.600  0.0704  0.0947  0.1840
  646MPD2    C4 9563   1.823   3.501  14.486  0.3082  0.1021 -0.1437
  646MPD2    C5 9564   1.942   3.436  14.478 -0.1533 -0.2727  0.0890
  646MPD2     H 9565   1.753   3.477  14.806  1.8438  0.7615  0.7964
  646MPD2    H1 9566   1.798   3.561  14.399 -0.4107  1.1020  0.7622
  646MPD2    H2 9567   2.088   3.330  14.580 -0.8371 -1.2247 -2.5422
  646MPD2    H3 9568   1.990   3.410  14.384 -0.6273 -0.5229 -0.0841
  646MPD2     N 9569   1.644   3.607  14.621 -0.0849 -0.0535  0.0471
  646MPD2    H5 9570   1.596   3.601  14.710  0.7738 -1.6211  0.4164
  646MPD2    N1 9571   1.998   3.343  14.817  0.4384  0.4908  0.4628
  646MPD2    H7 9572   2.086   3.299  14.792 -0.2192 -0.6101  0.0724
  647TMC3    C1 9573   2.081   3.309  15.018 -0.2627  1.3591  0.5685
  647TMC3    C2 9574   2.059   3.253  15.143  0.0830  0.9174  0.0457
  647TMC3    C3 9575   2.164   3.257  15.227 -0.1539  0.9755  0.2318
  647TMC3    C4 9576   2.206   3.367  14.980 -0.3703 -0.0947  1.0309
  647TMC3    C5 9577   2.311   3.361  15.066  0.2409  0.9184 -0.6155
  647TMC3    C6 9578   2.289   3.314  15.194 -0.2341 -0.0277  0.2343
  647TMC3     C 9579   1.962   3.345  14.948 -0.1502  0.1494  0.9157
  647TMC3     O 9580   1.872   3.398  15.002  0.2274 -0.5326  0.8299
  647TMC3     H 9581   1.960   3.216  15.168 -0.4567  2.2601 -0.0647
  647TMC3    H1 9582   2.218   3.410  14.882 -0.8614  0.6011  1.2708
  647TMC3    H2 9583   2.379   3.303  15.254  0.6690  0.8803 -0.9251
  647TMC3    C7 9584   2.443   3.364  15.008 -0.2540  0.5305 -0.8584
  647TMC3    C8 9585   2.185   3.126  15.296 -0.3367  0.0861 -0.5717
  647TMC3    O1 9586   2.526   3.403  15.090  0.3784  0.5426  0.3655
  647TMC3    O2 9587   2.151   3.028  15.232 -0.4603 -0.1801 -0.1801
  648TMC3    C1 9588   1.458   1.042  16.203 -0.2916 -0.3146 -0.2760
  648TMC3    C2 9589   1.440   0.915  16.148  0.0606  0.1193 -0.0892
  648TMC3    C3 9590   1.454   0.906  16.013 -0.3844 -0.1443  1.0931
  648TMC3    C4 9591   1.455   1.157  16.127  0.3331 -0.4908 -0.0258
  648TMC3    C5 9592   1.467   1.140  15.988  0.2958  0.1634 -0.4632
  648TMC3    C6 9593   1.478   1.013  15.930 -0.2849 -0.0844  0.0770
  648TMC3     C 9594   1.453   1.065  16.344 -0.2173 -0.0661 -0.1377
  648TMC3     O 9595   1.486   1.174  16.393 -0.5536 -0.2015 -0.1061
  648TMC3     H 9596   1.436   0.823  16.205 -0.4990  0.0014 -0.3260
  648TMC3    H1 9597   1.464   1.252  16.178 -1.7129  0.9676 -2.4258
  648TMC3    H2 9598   1.509   1.007  15.827  1.4485 -4.7359  0.8696
  648TMC3    C7 9599   1.465   1.258  15.897  0.0795 -0.4245 -0.2218
  648TMC3    C8 9600   1.435   0.776  15.957  0.3296 -0.1526  0.4306
  648TMC3    O1 9601   1.534   1.261  15.794  0.5305 -0.5909  0.2146
  648TMC3    O2 9602   1.363   0.702  16.014 -0.1394 -0.8287 -0.0496
  649TMC3    C1 9603   1.200   2.370  12.054 -0.2132  0.7538 -0.5541
  649TMC3    C2 9604   1.302   2.458  12.076 -0.1334 -0.1391 -0.3632
  649TMC3    C3 9605   1.360   2.449  12.197 -0.7975 -0.0060 -0.1806
  649TMC3    C4 9606   1.158   2.279  12.141 -0.1558 -0.5569  0.1120
  649TMC3    C5 9607   1.225   2.269  12.261 -0.1624 -0.7613 -0.4175
  649TMC3    C6 9608   1.327   2.360  12.296  0.1606  0.3444  0.1134
  649TMC3     C 9609   1.164   2.341  11.916 -0.2768  0.3072 -0.1902
  649TMC3     O 9610   1.055   2.288  11.896 -0.2055 -0.5829 -0.4033
  649TMC3     H 9611   1.313   2.538  12.004  1.0958 -1.2136 -1.3740
  649TMC3    H1 9612   1.076   2.211  12.121 -1.1011  0.9282 -1.0452
  649TMC3    H2 9613   1.374   2.364  12.393 -0.8195 -2.1574  0.7013
  649TMC3    C7 9614   1.169   2.169  12.354  0.2583 -0.2808  0.4345
  649TMC3    C8 9615   1.426   2.566  12.245  0.2971 -1.0326 -0.4856
  649TMC3    O1 9616   1.064   2.105  12.332 -0.4902  0.5147 -0.1530
  649TMC3    O2 9617   1.408   2.607  12.365  0.2713  0.2508 -0.0036
  650TMC3    C1 9618   2.866   3.752  12.410  0.0475  0.3789 -0.3592
  650TMC3    C2 9619   2.836   3.848  12.506 -0.6982  0.7381 -0.0873
  650TMC3    C3 9620   2.719   3.905  12.489  0.4866 -0.1435 -0.9952
  650TMC3    C4 9621   2.778   3.704  12.315  0.2725 -0.1330 -0.5945
  650TMC3    C5 9622   2.651   3.769  12.307 -0.1821  0.5180  0.4505
  650TMC3    C6 9623   2.628   3.879  12.394  0.1833  0.0204  0.0733
  650TMC3     C 9624   2.992   3.687  12.437 -0.7023  0.2586  0.4117
  650TMC3     O 9625   3.066   3.744  12.515  0.3073  0.0379  0.2069
  650TMC3     H 9626   2.891   3.875  12.595  2.6377  0.1401 -1.9739
  650TMC3    H1 9627   2.802   3.637  12.234 -0.3913 -1.9285  0.7111
  650TMC3    H2 9628   2.539   3.939  12.383  0.4187  0.5438  1.0345
  650TMC3    C7 9629   2.604   3.784  12.166 -0.2362  0.4166 -0.1595
  650TMC3    C8 9630   2.710   4.033  12.559 -0.6932  0.2651 -0.8531
  650TMC3    O1 9631   2.628   3.693  12.086  0.7526 -0.1156  0.4360
  650TMC3    O2 9632   2.812   4.095  12.585 -0.2052  0.2770  0.2683
  651MPD2     C 9633   1.935   0.583  10.466 -0.5143  0.2731  0.0508
  651MPD2    C1 9634   1.910   0.669  10.568 -0.3601  0.6006 -0.4767
  651MPD2    C2 9635   2.017   0.740  10.616  0.2973  1.1198  0.0364
  651MPD2    C3 9636   2.140   0.733  10.562 -0.0688 -0.4491 -0.2862
  651MPD2    C4 9637   2.162   0.651  10.457  0.6337  0.2027  0.8101
  651MPD2    C5 9638   2.063   0.571  10.413 -0.0207 -0.1567  0.0672
  651MPD2     H 9639   2.014   0.800  10.706 -0.9211  0.7420  0.2502
  651MPD2    H1 9640   2.259   0.636  10.411  0.8178  0.8901  0.9762
  651MPD2    H2 9641   1.856   0.517  10.431  0.4724 -0.5830 -0.5522
  651MPD2    H3 9642   2.080   0.481  10.355 -0.6797  0.2927 -0.8440
  651MPD2     N 9643   2.237   0.825  10.608  0.1507 -0.8405 -0.2920
  651MPD2    H5 9644   2.208   0.877  10.690  4.2879 -1.3080  1.5032
  651MPD2    N1 9645   1.779   0.694  10.615 -0.5229 -0.1037 -0.0293
  651MPD2    H7 9646   1.765   0.775  10.675  1.4150 -0.8339  1.3896
  652TMC3    C1 9647   2.610   1.058  10.714 -0.2408 -0.4716 -0.0405
  652TMC3    C2 9648   2.555   0.957  10.629  0.1127  0.2932  0.2685
  652TMC3    C3 9649   2.418   0.973  10.604 -0.3657  0.0563 -0.0817
  652TMC3    C4 9650   2.536   1.149  10.786 -0.4127  0.4075 -0.2337
  652TMC3    C5 9651   2.401   1.151  10.756 -0.4905  0.0878 -0.6183
  652TMC3    C6 9652   2.337   1.066  10.670 -0.6292 -0.0849 -0.3127
  652TMC3     C 9653   2.756   1.069  10.741 -0.0634 -0.7035  0.3993
  652TMC3     O 9654   2.789   1.085  10.857 -0.3745 -0.0463 -0.1866
  652TMC3     H 9655   2.613   0.876  10.586  0.8928 -0.2832  2.3812
  652TMC3    H1 9656   2.582   1.220  10.853  0.8811 -2.0947  1.5405
  652TMC3    H2 9657   2.230   1.070  10.658 -0.5763 -1.3990 -1.2808
  652TMC3    C7 9658   2.331   1.277  10.768  0.3317  0.3532  0.1819
  652TMC3    C8 9659   2.358   0.858  10.548 -0.5274 -0.0397  0.7895
  652TMC3    O1 9660   2.210   1.275  10.774  0.7682  0.4630 -0.3859
  652TMC3    O2 9661   2.413   0.812  10.446  0.6165 -0.6343 -0.5544
  653MPD2     C 9662   0.588   1.164  17.505  0.0275  0.6876  0.0240
  653MPD2    C1 9663   0.532   1.264  17.435  0.2693 -0.3046  0.1809
  653MPD2    C2 9664   0.455   1.232  17.322 -0.0019  0.0475  0.2291
  653MPD2    C3 9665   0.439   1.101  17.282  0.1356 -0.5239  0.5774
  653MPD2    C4 9666   0.496   0.999  17.361 -0.4398  0.6749 -0.3667
  653MPD2    C5 9667   0.566   1.033  17.475 -0.2130 -0.3046  0.3449
  653MPD2     H 9668   0.405   1.314  17.273  1.0228 -1.6041 -3.6028
  653MPD2    H1 9669   0.508   0.895  17.332 -0.6979 -0.1835  2.6530
  653MPD2    H2 9670   0.635   1.182  17.601  0.6873  1.0945 -0.3828
  653MPD2    H3 9671   0.603   0.955  17.540 -0.4036  1.0647  2.1051
  653MPD2     N 9672   0.354   1.073  17.176 -0.0992  0.2883 -0.6139
  653MPD2    H5 9673   0.312   1.153  17.129  1.1896  0.4406 -1.5271
  653MPD2    N1 9674   0.547   1.401  17.461  0.5922  0.2079  0.6861
  653MPD2    H7 9675   0.517   1.466  17.389  1.0199 -0.9257 -0.5105
  654TMC3    C1 9676   0.229   0.925  17.026  0.1840  0.2460 -0.0696
  654TMC3    C2 9677   0.159   1.040  16.984 -0.1877 -0.7438 -0.2691
  654TMC3    C3 9678   0.064   1.024  16.882  0.1739 -0.1133 -0.2628
  654TMC3    C4 9679   0.214   0.799  16.963 -0.5312 -0.1891  0.1922
  654TMC3    C5 9680   0.117   0.792  16.869  0.7762  0.2409 -1.1163
  654TMC3    C6 9681   0.036   0.899  16.832  0.1146  0.3573 -0.7899
  654TMC3     C 9682   0.324   0.944  17.133  0.3929 -0.1644 -0.0973
  654TMC3     O 9683   0.377   0.838  17.161  0.0514 -0.4179  0.5515
  654TMC3     H 9684   0.166   1.133  17.039  0.2458  0.7089 -2.7773
  654TMC3    H1 9685   0.271   0.717  17.005 -2.1851 -1.2865  0.3113
  654TMC3    H2 9686   4.695   0.886  16.749 -0.3759 -2.7697  0.1047
  654TMC3    C7 9687   0.096   0.672  16.790  0.0743 -0.1574 -0.4163
  654TMC3    C8 9688   4.717   1.143  16.846  0.2009  0.5387 -0.8160
  654TMC3    O1 9689   0.065   0.687  16.671  0.2044  0.6180 -0.6171
  654TMC3    O2 9690   4.615   1.119  16.782  0.1937  0.4712  0.3896
  655MPD2     C 9691   2.093   1.181  15.613 -0.3890 -0.4312  0.0380
  655MPD2    C1 9692   1.979   1.247  15.571  0.3959 -0.0197 -0.3481
  655MPD2    C2 9693   1.949   1.240  15.435  0.1081  0.4405  0.6488
  655MPD2    C3 9694   2.019   1.165  15.345  0.0789 -0.3571 -0.7336
  655MPD2    C4 9695   2.116   1.082  15.396 -0.5332 -0.3519  0.2594
  655MPD2    C5 9696   2.155   1.092  15.530  0.2043 -0.0184  0.8606
  655MPD2     H 9697   1.867   1.307  15.410 -0.0808  0.1635  0.5318
  655MPD2    H1 9698   2.169   1.014  15.329 -1.0966  0.6318 -1.2015
  655MPD2    H2 9699   2.124   1.181  15.717  1.0793 -1.2480 -0.3966
  655MPD2    H3 9700   2.235   1.028  15.565 -1.3988 -2.8026 -0.5684
  655MPD2     N 9701   1.975   1.159  15.210 -0.4608  0.2481  0.2869
  655MPD2    H5 9702   1.888   1.209  15.196 -1.0228 -0.1362  2.4296
  655MPD2    N1 9703   1.900   1.334  15.646  0.0568 -0.3792  1.1842
  655MPD2    H7 9704   1.821   1.382  15.603  1.8843  0.5819 -1.0505
  656TMC3    C1 9705   1.838   1.468  15.826  0.3468 -0.4027 -0.4958
  656TMC3    C2 9706   1.779   1.464  15.945  0.4242 -0.4499  0.0663
  656TMC3    C3 9707   1.693   1.567  15.976 -0.3038  0.0818  0.9672
  656TMC3    C4 9708   1.828   1.583  15.745 -0.6242 -0.8356 -0.2526
  656TMC3    C5 9709   1.741   1.686  15.779 -0.2483 -0.6836  0.1763
  656TMC3    C6 9710   1.672   1.678  15.900  0.0755  0.2931 -0.5957
  656TMC3     C 9711   1.926   1.364  15.781 -0.0494 -0.4480  0.9799
  656TMC3     O 9712   1.977   1.303  15.875 -0.2672  0.0672  0.3434
  656TMC3     H 9713   1.783   1.379  16.012  0.6400 -0.7364 -0.3072
  656TMC3    H1 9714   1.888   1.589  15.654  2.2391  0.6406  1.7312
  656TMC3    H2 9715   1.609   1.761  15.929 -0.6166 -0.3052 -0.4008
  656TMC3    C7 9716   1.740   1.798  15.693  0.4184  0.8148 -0.3225
  656TMC3    C8 9717   1.626   1.548  16.104 -0.8134 -0.4226  0.4188
  656TMC3    O1 9718   1.817   1.790  15.595 -0.3700  0.1314  0.4393
  656TMC3    O2 9719   1.612   1.435  16.139  0.4172  0.0939 -0.1836
  657TMC3    C1 9720   0.782   0.973  14.748  0.1755  0.7960 -0.3068
  657TMC3    C2 9721   0.786   1.007  14.886 -0.2079  0.0232 -0.5863
  657TMC3    C3 9722   0.743   1.132  14.918  0.3919 -0.1874 -0.1526
  657TMC3    C4 9723   0.705   1.045  14.654  0.3737  0.7931  0.2306
  657TMC3    C5 9724   0.657   1.167  14.706  0.1183  0.4457 -0.6232
  657TMC3    C6 9725   0.689   1.217  14.823 -0.1698 -0.1882 -0.6457
  657TMC3     C 9726   0.821   0.842  14.709  0.1283  0.3110  1.2311
  657TMC3     O 9727   0.768   0.805  14.606  0.0111 -0.1033  0.1905
  657TMC3     H 9728   0.808   0.926  14.954 -1.4420  1.6919  1.7841
  657TMC3    H1 9729   0.714   1.027  14.548 -1.9650  0.0829  0.1659
  657TMC3    H2 9730   0.632   1.299  14.865 -1.9736 -2.5252  1.4849
  657TMC3    C7 9731   0.563   1.246  14.625 -0.1639 -0.3191  0.5489
  657TMC3    C8 9732   0.721   1.154  15.055  0.4178 -0.1037  1.0912
  657TMC3    O1 9733   0.550   1.361  14.660 -0.3969 -0.3130 -0.3279
  657TMC3    O2 9734   0.621   1.216  15.083 -0.7459 -0.1704  0.5130
  658MPD2     C 9735   2.246   1.266  14.491  0.6203 -0.0285  0.0129
  658MPD2    C1 9736   2.114   1.304  14.512 -0.0543  0.0435  0.1102
  658MPD2    C2 9737   2.048   1.393  14.423  0.2755  0.5332  0.8021
  658MPD2    C3 9738   2.119   1.451  14.319 -0.6712 -0.4222  0.0538
  658MPD2    C4 9739   2.252   1.420  14.305 -0.0264  0.4273  0.4222
  658MPD2    C5 9740   2.312   1.327  14.389  0.7337  0.5622  0.6107
  658MPD2     H 9741   1.947   1.424  14.448 -0.4528  2.6814 -4.8115
  658MPD2    H1 9742   2.309   1.463  14.223 -2.3297  2.7535  0.0183
  658MPD2    H2 9743   2.290   1.188  14.552  1.4014  0.0912 -0.4047
  658MPD2    H3 9744   2.415   1.303  14.364  0.4525 -0.7052  0.6839
  658MPD2     N 9745   2.049   1.541  14.232 -0.3844  0.6247 -0.1762
  658MPD2    H5 9746   1.948   1.548  14.245 -0.8881 -3.0610 -2.2981
  658MPD2    N1 9747   2.054   1.228  14.618 -0.6261 -0.0857 -0.2911
  658MPD2    H7 9748   2.119   1.174  14.675 -0.2915 -1.6189 -2.1320
  659TMC3    C1 9749   1.883   1.175  14.780 -0.5131  0.0592  0.0183
  659TMC3    C2 9750   1.983   1.118  14.864  0.2289  0.4136  0.6097
  659TMC3    C3 9751   1.940   1.079  14.991 -0.2931  0.6144 -0.6943
  659TMC3    C4 9752   1.749   1.153  14.799 -0.3410  0.5499 -0.0134
  659TMC3    C5 9753   1.713   1.107  14.921 -0.1752  0.0204  1.1004
  659TMC3    C6 9754   1.807   1.064  15.019  0.3208  0.8737 -0.3600
  659TMC3     C 9755   1.918   1.227  14.652 -0.2255  0.7275  0.3944
  659TMC3     O 9756   1.831   1.287  14.589  0.2871  0.7112 -0.0892
  659TMC3     H 9757   2.083   1.160  14.872  0.2040  0.5637  0.1056
  659TMC3    H1 9758   1.681   1.186  14.721 -0.7534 -0.8426 -0.2424
  659TMC3    H2 9759   1.778   1.028  15.118 -0.8213 -1.1044 -1.4153
  659TMC3    C7 9760   1.576   1.107  14.963 -0.3831 -0.0612  0.1859
  659TMC3    C8 9761   2.031   1.098  15.102 -0.0455 -0.8594 -0.7430
  659TMC3    O1 9762   1.552   1.099  15.085  0.4790 -0.3952 -0.2811
  659TMC3    O2 9763   2.145   1.050  15.093 -0.1390 -0.6607  0.1304
  660MPD2     C 9764   0.280   4.457  12.495  0.0182  0.5720 -0.2103
  660MPD2    C1 9765   0.263   4.517  12.613 -0.3632 -0.4533 -0.9320
  660MPD2    C2 9766   0.251   4.438  12.725  0.2114 -0.5280 -0.3914
  660MPD2    C3 9767   0.244   4.299  12.727 -0.0605  0.3238  1.6557
  660MPD2    C4 9768   0.264   4.242  12.605 -0.0450 -0.4543 -0.7668
  660MPD2    C5 9769   0.285   4.318  12.488  0.3907 -0.4006  0.5768
  660MPD2     H 9770   0.215   4.492  12.811  0.8168 -0.4837 -0.1648
  660MPD2    H1 9771   0.262   4.134  12.601 -1.9538 -0.5420  2.9919
  660MPD2    H2 9772   0.290   4.515  12.404 -0.4262 -0.6649 -1.0537
  660MPD2    H3 9773   0.303   4.261  12.398 -2.5663  0.4637 -0.5410
  660MPD2     N 9774   0.208   4.221  12.831 -0.1907  0.4043  0.9134
  660MPD2    H5 9775   0.180   4.124  12.825  1.4730  0.0120 -0.4399
  660MPD2    N1 9776   0.235   4.653  12.598  0.0680  0.0864 -0.2009
  660MPD2    H7 9777   0.248   4.689  12.504  1.1093  1.6857  0.5583
  661TMC3    C1 9778   0.154   0.136  12.640  0.2429  0.0632  0.2608
  661TMC3    C2 9779   0.209   0.171  12.516  0.1413  0.5386 -0.1860
  661TMC3    C3 9780   0.133   0.268  12.441  1.5734 -0.6212 -0.4780
  661TMC3    C4 9781   0.030   0.184  12.678  0.8201 -0.3489 -0.7488
  661TMC3    C5 9782   4.681   0.260  12.600 -0.6294  0.4871 -0.0254
  661TMC3    C6 9783   0.011   0.313  12.485  0.3494 -0.4750  0.0798
  661TMC3     C 9784   0.193   0.015  12.697  0.0020 -0.2800 -0.2432
  661TMC3     O 9785   0.162   4.711  12.809  0.2303  0.2766  0.1114
  661TMC3     H 9786   0.310   0.150  12.484  0.4181 -0.3756  1.3258
  661TMC3    H1 9787   4.726   0.151  12.776 -1.7043  1.2505 -1.0082
  661TMC3    H2 9788   4.683   0.394  12.439  0.9685  0.0926  0.3270
  661TMC3    C7 9789   4.536   0.248  12.614 -0.6861  0.1311 -0.6972
  661TMC3    C8 9790   0.170   0.280  12.306 -0.0948  0.1160 -0.1928
  661TMC3    O1 9791   4.489   0.257  12.728 -0.5660  0.3049 -0.7277
  661TMC3    O2 9792   0.233   0.180  12.262 -0.1296  0.3403 -0.9418
  662MPD2     C 9793   0.070   4.221  16.996 -0.2405  0.5611 -0.6306
  662MPD2    C1 9794   0.128   4.165  17.104  0.3354  0.0215  0.4121
  662MPD2    C2 9795   0.107   4.220  17.229  0.4234  0.4098  0.0714
  662MPD2    C3 9796   0.017   4.320  17.250  0.3804  0.1479 -0.2561
  662MPD2    C4 9797   4.681   4.375  17.141 -0.3530  0.4559  0.6386
  662MPD2    C5 9798   4.703   4.319  17.017  0.7661 -0.0856 -0.0282
  662MPD2     H 9799   0.167   4.182  17.310  1.9367  1.2388 -0.6525
  662MPD2    H1 9800   4.621   4.465  17.147  0.5913  1.0215  1.8072
  662MPD2    H2 9801   0.071   4.183  16.894  2.6569 -2.1559  0.4083
  662MPD2    H3 9802   4.641   4.348  16.932  0.4524  0.0155  0.2327
  662MPD2     N 9803   0.006   4.383  17.383  0.5871  0.1466  0.4501
  662MPD2    H5 9804   4.679   4.466  17.401 -0.4450 -0.8998  2.1895
  662MPD2    N1 9805   0.224   4.060  17.106  0.7202 -0.6136  0.2593
  662MPD2    H7 9806   0.261   4.019  17.192  3.0580 -0.7373 -0.8012
  663TMC3    C1 9807   0.360   3.892  17.020 -0.0290  0.3665  0.4388
  663TMC3    C2 9808   0.451   3.925  17.122  0.9320  0.9774 -0.0227
  663TMC3    C3 9809   0.568   3.853  17.126  0.5522  0.7000 -0.0650
  663TMC3    C4 9810   0.352   3.778  16.955  0.2098 -0.5007  0.1423
  663TMC3    C5 9811   0.452   3.694  16.988  0.2419 -0.6701 -0.0057
  663TMC3    C6 9812   0.560   3.734  17.066 -0.2724  0.7259  0.4400
  663TMC3     C 9813   0.255   3.989  16.995  0.2140 -0.5651  0.6060
  663TMC3     O 9814   0.210   3.997  16.879  1.0888 -0.0956  0.3269
  663TMC3     H 9815   0.454   4.030  17.149 -0.6031  1.4643 -1.7555
  663TMC3    H1 9816   0.267   3.744  16.897 -1.1130  0.2234  1.6728
  663TMC3    H2 9817   0.627   3.661  17.111  2.0350  2.0287 -0.8653
  663TMC3    C7 9818   0.420   3.548  16.983  0.9831 -0.0587  0.0196
  663TMC3    C8 9819   0.625   3.847  17.257  0.3458 -0.1763 -0.5917
  663TMC3    O1 9820   0.298   3.525  16.984 -0.8340  0.3150 -0.4344
  663TMC3    O2 9821   0.731   3.782  17.269 -0.2624 -0.1611  0.4204
  664MPD2     C 9822   2.957   3.034  17.518  0.5861 -1.0727  0.2707
  664MPD2    C1 9823   3.062   3.067  17.603  0.5574  0.2935 -0.6388
  664MPD2    C2 9824   3.045   3.042   0.035 -0.4835  0.4990  0.5189
  664MPD2    C3 9825   2.930   2.987   0.086 -0.3342 -0.1539 -0.4170
  664MPD2    C4 9826   2.830   2.963   0.002 -0.2856 -0.5729 -0.4509
  664MPD2    C5 9827   2.844   2.982  17.574  0.2920  0.0839 -0.3245
  664MPD2     H 9828   3.130   3.061   0.099  0.0487  1.4515 -0.4796
  664MPD2    H1 9829   2.737   2.927   0.045  0.2509  2.3138  3.1303
  664MPD2    H2 9830   2.967   3.060  17.413  1.8311 -2.1611  0.1239
  664MPD2    H3 9831   2.762   2.950  17.511  1.0746  1.1216 -1.8844
  664MPD2     N 9832   2.922   2.981   0.230 -0.0126  0.7692  0.5977
  664MPD2    H5 9833   3.013   2.988   0.275  0.6281 -0.0330 -0.5604
  664MPD2    N1 9834   3.180   3.131  17.561  0.4028 -0.2091  0.2689
  664MPD2    H7 9835   3.235   3.168  17.638 -0.9602  1.1754  0.5819
  665TMC3    C1 9836   2.835   2.958   0.455 -0.0234 -0.2279  0.4958
  665TMC3    C2 9837   2.732   2.922   0.534 -0.0384  0.1069 -0.4451
  665TMC3    C3 9838   2.737   2.981   0.659 -0.2361  0.1385 -0.4545
  665TMC3    C4 9839   2.931   3.048   0.502  0.4706  0.9373  0.1071
  665TMC3    C5 9840   2.915   3.113   0.618 -0.5557 -0.0112 -0.1181
  665TMC3    C6 9841   2.820   3.081   0.700 -0.4465  0.3867 -0.4040
  665TMC3     C 9842   2.820   2.935   0.310 -0.1198 -1.4149 -0.7924
  665TMC3     O 9843   2.708   2.910   0.275  0.1269  0.3937 -0.1794
  665TMC3     H 9844   2.670   2.836   0.513 -0.6935 -0.1009  2.3812
  665TMC3    H1 9845   3.009   3.085   0.436  0.1298 -0.6946 -1.1905
  665TMC3    H2 9846   2.807   3.131   0.795 -2.1626 -0.5557 -0.1301
  665TMC3    C7 9847   3.013   3.226   0.645 -0.3353 -0.4218  0.1016
  665TMC3    C8 9848   2.624   2.959   0.745 -0.5734 -0.4993 -0.4431
  665TMC3    O1 9849   3.117   3.228   0.579  0.8738 -0.1290 -0.6477
  665TMC3    O2 9850   2.532   2.898   0.702  0.3084 -0.0343  0.2032
  666TMC3    C1 9851   2.434   2.967   9.924  0.1920 -0.3667  0.4010
  666TMC3    C2 9852   2.515   2.863   9.944 -0.3393 -0.4561  0.4129
  666TMC3    C3 9853   2.629   2.876  10.013  0.6776 -0.3876 -0.0459
  666TMC3    C4 9854   2.468   3.092   9.975  0.5921 -0.4229 -0.6794
  666TMC3    C5 9855   2.579   3.101  10.056  0.1842 -0.1843 -0.0930
  666TMC3    C6 9856   2.662   2.997  10.079 -0.3256 -0.1729 -0.2884
  666TMC3     C 9857   2.299   2.934   9.956 -0.2237 -0.0513 -0.9376
  666TMC3     O 9858   2.219   3.027   9.954 -0.2425 -0.0784  0.5193
  666TMC3     H 9859   2.496   2.770   9.893 -1.6364 -1.0272  1.9162
  666TMC3    H1 9860   2.393   3.171   9.974  0.0501 -0.9056  3.0567
  666TMC3    H2 9861   2.733   3.006  10.160  1.5740  3.0533 -2.3208
  666TMC3    C7 9862   2.601   3.219  10.134  0.5665 -0.3828 -0.3126
  666TMC3    C8 9863   2.679   2.753  10.061 -0.6887  0.0559 -0.0049
  666TMC3    O1 9864   2.499   3.276  10.167 -0.4054  0.3091  0.5449
  666TMC3    O2 9865   2.599   2.664  10.079  0.0482 -0.3029 -0.5996
  667MPD2     C 9866   4.166   2.720  14.592  0.6837 -0.1767 -0.9567
  667MPD2    C1 9867   4.042   2.785  14.611 -0.0401  0.0994  0.1191
  667MPD2    C2 9868   3.927   2.710  14.613 -0.0207  0.4053 -0.2361
  667MPD2    C3 9869   3.932   2.576  14.572 -0.9045 -0.6994  0.0238
  667MPD2    C4 9870   4.050   2.513  14.559  0.3703  1.0986 -0.5033
  667MPD2    C5 9871   4.164   2.585  14.573  0.0364 -0.0510 -0.1599
  667MPD2     H 9872   3.838   2.759  14.649 -0.0030 -0.0788  0.4581
  667MPD2    H1 9873   4.057   2.409  14.530 -0.4072  1.4971 -2.0875
  667MPD2    H2 9874   4.264   2.767  14.601 -0.7476  2.6462 -0.0585
  667MPD2    H3 9875   4.257   2.530  14.570 -0.4009 -0.7735 -0.3209
  667MPD2     N 9876   3.817   2.495  14.578 -0.3855  0.2151 -0.1764
  667MPD2    H5 9877   3.836   2.395  14.587  0.9065  0.5370  0.6618
  667MPD2    N1 9878   4.043   2.911  14.671  0.0753 -1.0635 -0.6466
  667MPD2    H7 9879   3.953   2.931  14.713 -0.0186 -0.3430 -1.1910
  668TMC3    C1 9880   4.126   3.078  14.810  0.2627 -0.6680  0.2549
  668TMC3    C2 9881   4.215   3.185  14.823 -0.2088 -0.7846  0.2462
  668TMC3    C3 9882   4.209   3.258  14.941  0.0382  0.1074 -0.2015
  668TMC3    C4 9883   4.027   3.042  14.900  0.0320 -0.2379  0.3266
  668TMC3    C5 9884   4.043   3.108  15.022 -0.4796  0.2291 -0.8551
  668TMC3    C6 9885   4.125   3.216  15.040  0.4685  0.1738 -0.4924
  668TMC3     C 9886   4.148   2.990  14.696 -1.1203  0.5573  0.2776
  668TMC3     O 9887   4.247   3.013  14.624 -0.1784  0.2305 -0.8023
  668TMC3     H 9888   4.282   3.207  14.741 -1.6423  2.7070  0.0209
  668TMC3    H1 9889   3.964   2.954  14.890  1.7965 -1.8835  3.5762
  668TMC3    H2 9890   4.106   3.284  15.122 -2.0912  1.8830 -2.4946
  668TMC3    C7 9891   3.946   3.085  15.126  0.7724  0.4933  0.7235
  668TMC3    C8 9892   4.274   3.386  14.951  0.2873  0.5231 -0.1483
  668TMC3    O1 9893   3.951   3.153  15.228 -0.1387 -0.6248 -0.7258
  668TMC3    O2 9894   4.266   3.439  15.062 -0.0662  0.1184 -0.3401
  669TMC3    C1 9895   1.821   2.461  14.568  0.1301 -0.0474  0.2785
  669TMC3    C2 9896   1.707   2.405  14.520 -0.2454  0.3313 -0.0769
  669TMC3    C3 9897   1.691   2.405  14.388  0.2966  0.1748 -0.4948
  669TMC3    C4 9898   1.915   2.531  14.494 -0.1794 -0.7800  0.1449
  669TMC3    C5 9899   1.882   2.534  14.357 -0.6691 -0.0706 -0.5923
  669TMC3    C6 9900   1.773   2.475  14.301 -0.1981  0.1683 -0.0940
  669TMC3     C 9901   1.836   2.443  14.714 -0.0603 -0.4152  0.4733
  669TMC3     O 9902   1.732   2.422  14.775  0.0952  0.2227 -0.1877
  669TMC3     H 9903   1.656   2.334  14.583 -4.7583  3.0425 -0.6393
  669TMC3    H1 9904   2.006   2.575  14.535 -0.8677  0.9125 -0.1342
  669TMC3    H2 9905   1.769   2.463  14.193 -0.0249 -0.4840 -0.0282
  669TMC3    C7 9906   1.974   2.607  14.273  0.4272 -0.8307  0.0888
  669TMC3    C8 9907   1.613   2.295  14.328  0.0876 -0.0823 -0.4417
  669TMC3    O1 9908   2.066   2.660  14.334 -0.0891  0.1505 -0.5031
  669TMC3    O2 9909   1.665   2.254  14.223  0.8919  0.1729 -0.1714
  670MPD2     C 9910   0.336   0.849  13.201 -0.9742 -0.1766  0.0016
  670MPD2    C1 9911   0.424   0.834  13.306 -0.0049  0.6074  0.4972
  670MPD2    C2 9912   0.380   0.807  13.434  0.5853 -0.4784 -0.1355
  670MPD2    C3 9913   0.251   0.769  13.465 -0.3018 -0.2800  0.4926
  670MPD2    C4 9914   0.165   0.778  13.357 -0.6772  0.5033  0.4298
  670MPD2    C5 9915   0.207   0.812  13.232 -0.3233 -0.1127 -0.1221
  670MPD2     H 9916   0.447   0.815  13.518 -0.0442 -1.9618  0.5004
  670MPD2    H1 9917   0.060   0.750  13.363 -0.3854 -0.4307  1.1357
  670MPD2    H2 9918   0.360   0.870  13.098  0.0738 -1.9809 -0.1273
  670MPD2    H3 9919   0.139   0.823  13.148 -1.4814  0.2886  0.8625
  670MPD2     N 9920   0.224   0.708  13.588  0.1671  0.1302  0.1623
  670MPD2    H5 9921   0.304   0.673  13.639 -0.4855 -2.2810 -0.4710
  670MPD2    N1 9922   0.558   0.850  13.293 -0.5334 -0.1550  0.0469
  670MPD2    H7 9923   0.612   0.837  13.378 -0.4894  1.0916  0.1994
  671TMC3    C1 9924   0.096   0.639  13.767  0.2271  0.3245 -0.4136
  671TMC3    C2 9925   0.203   0.652  13.850 -0.0001 -0.2730 -0.0412
  671TMC3    C3 9926   0.179   0.600  13.982  0.4932  0.4330 -0.5181
  671TMC3    C4 9927   4.702   0.564  13.797 -0.4120  0.9594 -0.5335
  671TMC3    C5 9928   4.688   0.525  13.931 -0.0283 -0.3489  0.1457
  671TMC3    C6 9929   0.060   0.546  14.025  0.2915  0.5724  0.0611
  671TMC3     C 9930   0.094   0.689  13.640 -0.1425  0.6452 -0.0547
  671TMC3     O 9931   4.719   0.719  13.586 -0.2912 -1.1472 -0.4837
  671TMC3     H 9932   0.278   0.728  13.832 -0.8344  0.7710  0.9517
  671TMC3    H1 9933   4.617   0.564  13.730 -1.8765 -1.1626  1.2988
  671TMC3    H2 9934   0.038   0.529  14.130 -2.4925 -0.1765 -0.6305
  671TMC3    C7 9935   4.628   0.383  13.942  0.4390 -0.4670 -0.6651
  671TMC3    C8 9936   0.293   0.537  14.032 -0.0101  0.5957 -0.5517
  671TMC3    O1 9937   4.546   0.351  13.859 -0.4384 -0.2690  0.3172
  671TMC3    O2 9938   0.375   0.492  13.955 -0.2993  0.6863  0.4037
  672MPD2     C 9939   4.705   1.198   1.314  0.4662 -0.0548  0.2182
  672MPD2    C1 9940   0.088   1.122   1.274 -0.0638  0.6279  0.4522
  672MPD2    C2 9941   0.213   1.156   1.320  0.4643  0.4748 -0.1295
  672MPD2    C3 9942   0.233   1.276   1.386  0.7967 -0.4179 -0.2420
  672MPD2    C4 9943   0.120   1.352   1.403 -0.3508 -0.6026  0.9934
  672MPD2    C5 9944   4.722   1.321   1.371 -0.0909 -0.1800 -0.4435
  672MPD2     H 9945   0.297   1.090   1.301  3.0875  3.3481  1.2850
  672MPD2    H1 9946   0.132   1.447   1.454 -0.6238 -0.2218  0.3450
  672MPD2    H2 9947   4.608   1.158   1.286 -0.0018  1.1785  0.0979
  672MPD2    H3 9948   4.641   1.391   1.389  1.2366  1.4760 -0.9291
  672MPD2     N 9949   0.366   1.318   1.422  0.0383  1.0741  0.6508
  672MPD2    H5 9950   0.389   1.416   1.436 -0.6218  1.2678  0.3441
  672MPD2    N1 9951   0.068   1.008   1.190  0.9053 -0.1308  0.3559
  672MPD2    H7 9952   0.147   0.945   1.187  0.8207 -0.1876 -0.5939
  673TMC3    C1 9953   4.717   0.886   1.008 -0.1985  0.9305  0.2804
  673TMC3    C2 9954   0.036   0.770   1.054  0.7410  0.5721  0.1637
  673TMC3    C3 9955   0.030   0.661   0.975  0.4212 -0.0730 -0.1842
  673TMC3    C4 9956   4.690   0.905   0.875  0.1686 -0.4569 -0.0717
  673TMC3    C5 9957   4.696   0.794   0.788  0.3833  0.3649  1.0650
  673TMC3    C6 9958   4.727   0.672   0.839  0.0499  0.3937 -0.1362
  673TMC3     C 9959   4.702   1.006   1.094  0.4183  0.5222 -0.6117
  673TMC3     O 9960   4.620   1.095   1.064 -0.3564 -0.1505  0.2139
  673TMC3     H 9961   0.039   0.760   1.162  0.4912  0.2939  0.1475
  673TMC3    H1 9962   4.661   1.001   0.834 -2.4023 -1.1205  0.1810
  673TMC3    H2 9963   0.011   0.585   0.775  0.1731 -0.1518  0.6285
  673TMC3    C7 9964   0.004   0.815   0.651 -0.0167  0.0760  0.6337
  673TMC3    C8 9965   0.034   0.530   1.040 -0.5537  1.0522 -0.2070
  673TMC3    O1 9966   0.061   0.723   0.598  0.3654  0.7412  0.0258
  673TMC3    O2 9967   4.681   0.444   1.002  0.1562 -0.4345 -0.1707
  674MPD2     C 9968   0.102   0.826  17.360 -0.9544 -0.6794 -0.5659
  674MPD2    C1 9969   0.160   0.707  17.394  0.4882 -0.1642 -0.3945
  674MPD2    C2 9970   0.073   0.609  17.448 -0.0902 -0.3086 -0.7606
  674MPD2    C3 9971   4.668   0.616  17.442 -0.5463  0.2348 -0.5207
  674MPD2    C4 9972   4.611   0.732  17.391  0.2647 -0.5096  0.7492
  674MPD2    C5 9973   4.692   0.835  17.352  0.0512 -0.4149  0.0408
  674MPD2     H 9974   0.112   0.519  17.494  2.2988  1.9265  1.5613
  674MPD2    H1 9975   4.504   0.737  17.375  0.7741 -0.9780 -2.8023
  674MPD2    H2 9976   0.159   0.917  17.341 -0.7443 -0.2324  2.3270
  674MPD2    H3 9977   4.628   0.919  17.328  0.0935 -0.9410 -1.9074
  674MPD2     N 9978   4.595   0.519  17.512  0.2503 -0.1360 -0.0405
  674MPD2    H5 9979   4.648   0.437  17.540 -1.9965 -1.4601  0.3066
  674MPD2    N1 9980   0.301   0.690  17.400  0.4155  0.0413 -0.1326
  674MPD2    H7 9981   0.344   0.780  17.383  1.3332 -0.2223  0.8015
  675TMC3    C1 9982   0.492   0.569  17.493 -0.3990  0.3702 -0.0272
  675TMC3    C2 9983   0.512   0.661  17.589  0.0247  0.1370 -0.0346
  675TMC3    C3 9984   0.553   0.619   0.004 -0.6054  0.2321 -0.1806
  675TMC3    C4 9985   0.542   0.439  17.512 -0.1963  0.1162  0.1579
  675TMC3    C5 9986   0.585   0.402  17.638 -0.9267  0.2618  0.4690
  675TMC3    C6 9987   0.585   0.487   0.035  0.5225 -0.2681  0.0378
  675TMC3     C 9988   0.366   0.569  17.419 -0.2058 -0.6758  0.3964
  675TMC3     O 9989   0.324   0.460  17.393  0.1061  0.3961  0.2200
  675TMC3     H 9990   0.463   0.757  17.582  0.4637  0.3637  0.0370
  675TMC3    H1 9991   0.541   0.365  17.434  1.6843  1.3377 -1.0399
  675TMC3    H2 9992   0.628   0.463   0.132 -1.8897  0.1009  1.1872
  675TMC3    C7 9993   0.656   0.272  17.647 -0.5292 -0.9575  0.0766
  675TMC3    C8 9994   0.538   0.720   0.105 -1.1024  0.3578  0.4901
  675TMC3    O1 9995   0.638   0.189  17.558 -0.2524 -0.2952 -0.1305
  675TMC3    O2 9996   0.548   0.841   0.086  1.1821  0.1637  0.4088
  676MPD2     C 9997   3.188   3.860  11.254  0.0859  0.3252  0.8461
  676MPD2    C1 9998   3.077   3.781  11.280  0.4541  0.4667 -0.2889
  676MPD2    C2 9999   3.031   3.711  11.176 -0.6054  0.4502  0.5707
  676MPD2    C310000   3.086   3.706  11.049  0.4370  0.1441 -0.3993
  676MPD2    C410001   3.190   3.787  11.026  0.7032 -0.1910 -0.3791
  676MPD2    C510002   3.243   3.857  11.131 -0.5693 -0.0757  0.4241
  676MPD2     H10003   2.951   3.643  11.203  0.4759 -0.3811  1.7035
  676MPD2    H110004   3.229   3.775  10.926  0.8426 -2.8775 -0.0158
  676MPD2    H210005   3.246   3.907  11.333  0.6544 -0.1105  0.6916
  676MPD2    H310006   3.338   3.909  11.123 -0.2657 -0.5427  0.9076
  676MPD2     N10007   3.049   3.617  10.941  0.3066  0.0661 -0.1434
  676MPD2    H510008   3.098   3.628  10.853  1.7052 -1.6426  0.3999
  676MPD2    N110009   3.018   3.761  11.406 -0.5196 -0.7349 -1.1396
  676MPD2    H710010   2.933   3.707  11.416 -0.0475 -1.3850 -0.6561
  677TMC3    C110011   3.007   3.722  11.635  1.3441 -0.7534 -0.3121
  677TMC3    C210012   2.880   3.672  11.626 -0.5705  0.2049  0.0803
  677TMC3    C310013   2.812   3.641  11.739  0.0636 -0.3312  0.0213
  677TMC3    C410014   3.066   3.736  11.755 -0.5013  0.6210  0.7767
  677TMC3    C510015   2.988   3.716  11.871 -0.2145 -0.4198  0.3786
  677TMC3    C610016   2.859   3.665  11.865 -0.3708 -0.4610  0.1216
  677TMC3     C10017   3.068   3.792  11.526 -0.6211  0.5411  0.5006
  677TMC3     O10018   3.156   3.871  11.552  0.8692  0.1492 -0.6991
  677TMC3     H10019   2.839   3.651  11.528  1.0081  2.5045 -1.0727
  677TMC3    H110020   3.171   3.765  11.759 -0.2467 -0.1858  0.1302
  677TMC3    H210021   2.812   3.618  11.951 -1.2286  1.6637  0.8226
  677TMC3    C710022   3.046   3.753  11.999  0.8934  0.2939 -0.1510
  677TMC3    C810023   2.716   3.546  11.737  0.1741  1.3739 -0.8947
  677TMC3    O110024   2.999   3.701  12.094 -0.1810  0.6324  0.5583
  677TMC3    O210025   2.612   3.569  11.797 -0.1868 -0.5174  0.1237
  678MPD2     C10026   4.142   4.038   1.451 -0.2848 -0.2320 -0.0860
  678MPD2    C110027   4.132   3.906   1.410 -0.1517 -0.3026 -0.2918
  678MPD2    C210028   4.008   3.863   1.383 -0.5432 -0.0215  0.5927
  678MPD2    C310029   3.894   3.937   1.425 -0.6538  0.1741 -0.1821
  678MPD2    C410030   3.911   4.064   1.476  0.1184 -1.1506  0.0285
  678MPD2    C510031   4.037   4.114   1.478 -0.3284 -0.1103  1.3703
  678MPD2     H10032   3.988   3.761   1.352  2.0763 -0.0930 -0.9017
  678MPD2    H110033   3.829   4.131   1.502  2.4112  1.9652 -0.7396
  678MPD2    H210034   4.235   4.086   1.479  0.3962 -1.3455 -0.4555
  678MPD2    H310035   4.045   4.215   1.517 -0.0681  0.7728 -0.9632
  678MPD2     N10036   3.766   3.883   1.393  0.4062  0.3279 -0.0338
  678MPD2    H510037   3.767   3.784   1.370 -1.4757  0.0055  1.1824
  678MPD2    N110038   4.240   3.828   1.377 -0.1048 -0.4367 -0.5384
  678MPD2    H710039   4.215   3.731   1.360  1.5608 -1.0825  0.7011
  679TMC3    C110040   4.532   3.561   1.292 -0.2664  0.2687 -0.3666
  679TMC3    C210041   4.453   3.648   1.365 -0.8474 -0.3116 -0.6345
  679TMC3    C310042   4.457   3.779   1.321  0.0458 -0.2390 -0.1172
  679TMC3    C410043   4.619   3.597   1.194 -0.2010  1.1829 -0.0616
  679TMC3    C510044   4.621   3.728   1.162 -0.4998 -0.3576  0.0743
  679TMC3    C610045   4.534   3.819   1.219 -0.1581 -0.3884  0.0291
  679TMC3     C10046   4.547   3.426   1.339 -0.2843  0.0079  0.2899
  679TMC3     O10047   4.648   3.360   1.309  0.2568  0.6706 -0.1762
  679TMC3     H10048   4.400   3.625   1.457 -1.0367  0.3787 -0.5698
  679TMC3    H110049   4.686   3.522   1.153  2.0037  2.4640  1.2054
  679TMC3    H210050   4.535   3.923   1.187  0.4763 -0.3442  0.1910
  679TMC3    C710051   4.682   3.769   1.036  0.6141 -0.6685 -0.0773
  679TMC3    C810052   4.374   3.877   1.381 -0.6627  0.3112  1.1530
  679TMC3    O110053   4.636   3.863   0.972  0.5487 -0.2821  0.1348
  679TMC3    O210054   4.420   3.995   1.387 -0.1621 -0.2059 -0.5107
  680MPD2     C10055   0.410   2.293  12.965 -0.0228 -1.0999  0.0626
  680MPD2    C110056   0.431   2.208  13.081  0.2088 -0.8697  0.2779
  680MPD2    C210057   0.394   2.250  13.212 -0.1176  0.2530  0.8969
  680MPD2    C310058   0.327   2.374  13.216 -0.2969  0.3250 -0.1034
  680MPD2    C410059   0.299   2.457  13.105 -0.0418  0.3714  0.2369
  680MPD2    C510060   0.341   2.408  12.978  0.1165 -0.0890  0.2730
  680MPD2     H10061   0.418   2.191  13.299  1.0064  0.7458  0.9209
  680MPD2    H110062   0.259   2.558  13.111 -2.3323 -0.5569  0.5387
  680MPD2    H210063   0.462   2.260  12.876  0.2125  0.7791 -0.4920
  680MPD2    H310064   0.333   2.468  12.889 -4.4176 -0.3450  0.5022
  680MPD2     N10065   0.292   2.428  13.345 -0.0267 -0.6510  0.9409
  680MPD2    H510066   0.236   2.513  13.349  0.4901 -0.2683 -0.1082
  680MPD2    N110067   0.510   2.090  13.084 -0.5523 -0.1225 -0.0444
  680MPD2    H710068   0.537   2.054  13.175  1.2456  0.9944 -0.1385
  681TMC3    C110069   0.649   1.920  13.011  0.4084 -0.2042 -0.1827
  681TMC3    C210070   0.640   1.846  13.128  0.0703 -0.1958  0.0525
  681TMC3    C310071   0.742   1.777  13.181 -1.2046  0.9961 -0.4811
  681TMC3    C410072   0.761   1.908  12.938  0.8881 -0.0773  0.2577
  681TMC3    C510073   0.863   1.830  12.987 -0.1725  0.1800  0.1848
  681TMC3    C610074   0.854   1.765  13.108 -0.3978 -0.3831  0.8522
  681TMC3     C10075   0.558   2.026  12.970  1.0473 -0.6333  0.1199
  681TMC3     O10076   0.555   2.046  12.853 -0.1245  0.3085  0.1099
  681TMC3     H10077   0.549   1.865  13.184 -1.1227 -0.0481 -1.9387
  681TMC3    H110078   0.773   1.975  12.854  0.1859 -0.0773  0.1571
  681TMC3    H210079   0.936   1.710  13.154  0.8374  1.6977  1.1400
  681TMC3    C710080   0.992   1.823  12.917 -0.4315 -0.0727 -0.6940
  681TMC3    C810081   0.759   1.774  13.323 -0.7316 -0.8201  0.3718
  681TMC3    O110082   1.078   1.777  12.986  0.1657  0.0634  0.0412
  681TMC3    O210083   0.874   1.763  13.366  0.2494  0.3979  0.3689
  682MPD2     C10084   2.553   4.220  11.049  0.3043  0.1191 -0.7112
  682MPD2    C110085   2.442   4.136  11.048 -0.4882  1.1002 -0.4584
  682MPD2    C210086   2.344   4.153  11.143 -0.1687 -0.7571  0.1293
  682MPD2    C310087   2.350   4.255  11.230 -0.7213 -0.6385  0.1494
  682MPD2    C410088   2.464   4.332  11.233  0.3319 -0.6443 -0.1120
  682MPD2    C510089   2.568   4.312  11.149  0.2694  0.2126  0.4142
  682MPD2     H10090   2.259   4.087  11.128  1.6416 -2.9288 -0.4660
  682MPD2    H110091   2.459   4.418  11.299  1.4022  0.4309 -1.4049
  682MPD2    H210092   2.634   4.216  10.977 -1.0514  0.6965 -2.2727
  682MPD2    H310093   2.659   4.370  11.154 -1.1489  2.3055  1.9626
  682MPD2     N10094   2.249   4.278  11.328 -0.0824  0.1227 -0.4745
  682MPD2    H510095   2.263   4.351  11.397 -0.1604 -2.3759  2.1444
  682MPD2    N110096   2.425   4.036  10.945 -0.3976 -0.7035  0.1747
  682MPD2    H710097   2.348   3.971  10.955  0.6036 -1.6479  1.7695
  683TMC3    C110098   2.082   4.248  11.696 -0.1681  0.1604 -0.7299
  683TMC3    C210099   1.954   4.207  11.705 -1.4203 -0.0079 -0.4658
  683TMC3    C310100   1.871   4.190  11.595  0.2494  0.1732  0.4073
  683TMC3    C410101   2.135   4.289  11.577 -0.1691  0.7493  0.4747
  683TMC3    C510102   2.064   4.243  11.466 -0.2226  0.6072 -0.5445
  683TMC3    C610103   1.934   4.205  11.475 -0.6497 -0.0856 -0.0253
  683TMC3     C10104   2.147   4.265  11.823 -0.0874 -0.0750 -0.0580
  683TMC3     O10105   2.196   4.372  11.849 -0.4643 -0.1679  0.2280
  683TMC3     H10106   1.914   4.178  11.802  1.1822  0.9622  0.8849
  683TMC3    H110107   2.242   4.303  11.567  0.0712 -1.9397 -0.7762
  683TMC3    H210108   1.880   4.167  11.389 -0.2062 -0.3616 -0.1813
  683TMC3    C710109   2.138   4.196  11.347  0.2283 -0.2120  0.6067
  683TMC3    C810110   1.768   4.105  11.600  0.1896 -0.0294 -0.4071
  683TMC3    O110111   2.087   4.117  11.272  0.1014 -0.0677 -0.6165
  683TMC3    O210112   1.689   4.106  11.694  0.0919  0.1148 -0.3264
  684MPD2     C10113   0.166   3.326  16.498 -0.5839 -0.1644  0.0638
  684MPD2    C110114   0.166   3.343  16.359  0.9147 -0.5431 -0.3247
  684MPD2    C210115   0.145   3.474  16.315  0.0312  0.3619 -0.8497
  684MPD2    C310116   0.137   3.582  16.403 -0.2710  0.7364  0.6246
  684MPD2    C410117   0.144   3.563  16.538  0.8123 -0.0227 -0.1200
  684MPD2    C510118   0.146   3.435  16.584  0.3827 -0.0465 -0.8464
  684MPD2     H10119   0.152   3.498  16.210 -1.0507 -2.1221 -1.4801
  684MPD2    H110120   0.141   3.646  16.608 -0.6206  1.2970 -1.7201
  684MPD2    H210121   0.184   3.230  16.544  0.4508  0.3194  0.6738
  684MPD2    H310122   0.159   3.416  16.689  2.0532 -1.9910 -1.4158
  684MPD2     N10123   0.128   3.720  16.358 -0.0103  0.1464  0.1453
  684MPD2    H510124   0.144   3.793  16.427 -0.6612  0.6138 -0.1929
  684MPD2    N110125   0.213   3.241  16.267  0.0031  0.2708  0.0617
  684MPD2    H710126   0.177   3.247  16.172  1.8880 -0.5908 -0.7218
  685TMC3    C110127   0.389   3.100  16.179 -0.4354  0.0253 -0.2243
  685TMC3    C210128   0.322   3.099  16.061 -0.2607 -0.1033 -0.4437
  685TMC3    C310129   0.363   3.007  15.966  0.1231  0.2777  0.8005
  685TMC3    C410130   0.501   3.032  16.197 -0.2126  0.3747 -0.3034
  685TMC3    C510131   0.543   2.948  16.106  0.2855 -0.2081 -0.3958
  685TMC3    C610132   0.467   2.923  15.992 -0.5704 -0.4700 -0.3373
  685TMC3     C10133   0.324   3.153  16.295 -0.1104 -0.0018  0.5884
  685TMC3     O10134   0.361   3.117  16.407 -0.3308 -0.0424  0.5687
  685TMC3     H10135   0.242   3.170  16.045  1.3447  1.3843 -1.9400
  685TMC3    H110136   0.552   3.043  16.292 -1.3449  1.3389  0.1944
  685TMC3    H210137   0.510   2.856  15.919 -0.8259 -1.2636  0.2386
  685TMC3    C710138   0.662   2.867  16.139  0.0168  0.1118 -0.4960
  685TMC3    C810139   0.321   3.001  15.831 -0.3255  0.5771  0.1857
  685TMC3    O110140   0.752   2.929  16.195 -0.4241 -0.1132  0.5600
  685TMC3    O210141   0.385   2.944  15.746  0.3484  0.3849  0.4785
  686MPD2     C10142   1.794   3.060  15.487 -0.2029  0.3735  0.5766
  686MPD2    C110143   1.855   2.994  15.589 -0.0890 -0.0279 -0.4824
  686MPD2    C210144   1.925   2.872  15.555 -0.5058  0.3268  0.0162
  686MPD2    C310145   1.909   2.820  15.425 -0.1444  0.0145 -0.0334
  686MPD2    C410146   1.856   2.892  15.329 -0.7150  0.9452 -0.0600
  686MPD2    C510147   1.799   3.016  15.353  0.4269 -0.3795  0.6158
  686MPD2     H10148   1.973   2.817  15.635  0.0726 -1.3695 -1.4749
  686MPD2    H110149   1.857   2.885  15.221  0.6906 -0.0525  0.0241
  686MPD2    H210150   1.749   3.153  15.521 -0.0146  0.4570  0.6011
  686MPD2    H310151   1.752   3.073  15.274 -0.5393 -1.1431  0.6348
  686MPD2     N10152   1.955   2.688  15.390 -0.5031 -0.0362 -0.2999
  686MPD2    H510153   1.958   2.676  15.289 -0.0803  0.0158 -0.2925
  686MPD2    N110154   1.845   3.043  15.724  0.0686  0.1805 -0.1368
  686MPD2    H710155   1.793   3.128  15.740  1.4657  1.0888 -0.4114
  687TMC3    C110156   1.942   2.581  15.612 -0.3775 -0.0447  0.3109
  687TMC3    C210157   1.812   2.621  15.639  0.7203 -0.2879 -0.1050
  687TMC3    C310158   1.780   2.632  15.767 -0.6294  0.5008 -0.0267
  687TMC3    C410159   2.022   2.518  15.711  0.5793 -0.0456  0.7704
  687TMC3    C510160   1.983   2.523  15.840 -0.0060 -0.0666  0.1485
  687TMC3    C610161   1.861   2.581  15.862 -0.4120  0.9931  0.2589
  687TMC3     C10162   1.988   2.591  15.480 -0.0769  0.0668 -0.4184
  687TMC3     O10163   2.073   2.507  15.452 -0.5271 -0.3409 -0.2230
  687TMC3     H10164   1.749   2.643  15.553  1.2375  2.0103  0.1146
  687TMC3    H110165   2.127   2.501  15.688  0.0630 -2.3366  0.1500
  687TMC3    H210166   1.816   2.587  15.961 -0.3000  0.5684  0.3394
  687TMC3    C710167   2.076   2.543  15.942 -0.5010 -0.8939 -0.9379
  687TMC3    C810168   1.656   2.699  15.796  0.8513  0.4633 -0.2181
  687TMC3    O110169   2.028   2.587  16.049 -0.1795 -0.1940 -0.1663
  687TMC3    O210170   1.601   2.686  15.907  0.7388 -0.1461  0.1010
  688MPD2     C10171   0.961   1.930  17.196  0.6784  0.1535 -0.5191
  688MPD2    C110172   0.964   1.822  17.281 -0.6266  0.1914 -0.2219
  688MPD2    C210173   1.064   1.727  17.263  0.6373 -0.0875 -0.1006
  688MPD2    C310174   1.171   1.748  17.170 -0.0835 -0.2508 -0.0303
  688MPD2    C410175   1.175   1.869  17.103 -0.4927  0.3549 -0.0626
  688MPD2    C510176   1.074   1.963  17.121  0.4117 -0.2694 -0.4635
  688MPD2     H10177   1.054   1.629  17.309  2.2733 -0.3517 -0.2898
  688MPD2    H110178   1.263   1.901  17.049 -0.1510 -2.1583 -0.9804
  688MPD2    H210179   0.878   1.999  17.200 -0.3179 -1.0827  0.3440
  688MPD2    H310180   1.072   2.053  17.061  1.2605 -0.9581 -1.5430
  688MPD2     N10181   1.268   1.653  17.144  0.5854  0.3815  0.8337
  688MPD2    H510182   1.349   1.682  17.090 -0.1081  0.2210 -0.2943
  688MPD2    N110183   0.850   1.785  17.364  0.0407 -0.0261 -0.2026
  688MPD2    H710184   0.853   1.698  17.416  1.9132 -0.7817 -1.5721
  689TMC3    C110185   0.657   1.807  17.476 -0.4484 -0.1726  0.4986
  689TMC3    C210186   0.627   1.877  17.588  0.0348  0.5171 -0.6591
  689TMC3    C310187   0.578   1.810  17.696  0.3230  0.3478  0.6709
  689TMC3    C410188   0.634   1.668  17.471  0.2097  0.1556  0.4879
  689TMC3    C510189   0.584   1.605  17.580  0.3341 -0.8560  0.4422
  689TMC3    C610190   0.549   1.672  17.694 -0.0198  0.0639  0.0799
  689TMC3     C10191   0.749   1.866  17.391  0.0057 -0.0312 -0.1768
  689TMC3     O10192   0.724   1.984  17.357 -0.7501  0.0079 -0.8757
  689TMC3     H10193   0.664   1.978  17.601 -0.3802  0.8245 -1.8558
  689TMC3    H110194   0.657   1.607  17.384 -0.1361 -0.3593  0.7560
  689TMC3    H210195   0.488   1.623   0.058  0.3959  0.6476  0.7926
  689TMC3    C710196   0.590   1.458  17.584  0.1344 -0.7879 -0.2277
  689TMC3    C810197   0.515   1.887   0.096  0.4631  0.1113 -0.5270
  689TMC3    O110198   0.619   1.408  17.694 -0.2362  1.2242 -0.1754
  689TMC3    O210199   0.493   1.824   0.201  0.5359  0.2266 -0.3972
  690MPD2     C10200   3.135   3.522  15.947  0.6824 -0.7041 -0.1272
  690MPD2    C110201   3.091   3.516  15.814 -1.0570  0.3345 -0.5118
  690MPD2    C210202   3.151   3.601  15.727  0.3191  0.4679  0.1033
  690MPD2    C310203   3.250   3.684  15.772 -0.0465  0.2938 -0.1009
  690MPD2    C410204   3.298   3.682  15.901  0.2025 -0.0694  0.9236
  690MPD2    C510205   3.237   3.601  15.992 -0.0854 -0.0162 -0.7635
  690MPD2     H10206   3.126   3.587  15.622  1.4836 -0.5341 -0.0406
  690MPD2    H110207   3.363   3.760  15.938  2.6684 -1.8121  0.2680
  690MPD2    H210208   3.088   3.447  16.010  3.0375 -3.2231 -1.3763
  690MPD2    H310209   3.261   3.611  16.098  2.4204 -0.8861 -1.2507
  690MPD2     N10210   3.306   3.759  15.669 -0.3663  0.3976  0.5414
  690MPD2    H510211   3.259   3.760  15.579  1.3083 -0.8918 -0.3405
  690MPD2    N110212   2.981   3.430  15.773  0.4901  0.3044 -0.1330
  690MPD2    H710213   2.940   3.464  15.687 -0.7251 -0.3089  0.2007
  691TMC3    C110214   2.800   3.281  15.790 -0.1582  0.5334  0.6217
  691TMC3    C210215   2.688   3.266  15.862 -1.0625  0.0419 -0.3629
  691TMC3    C310216   2.567   3.227  15.808 -0.2769 -0.2152  0.0604
  691TMC3    C410217   2.784   3.278  15.654 -0.0888 -0.2967 -0.3902
  691TMC3    C510218   2.663   3.250  15.605 -0.3938  0.0974 -0.5273
  691TMC3    C610219   2.551   3.221  15.674  0.2095  0.0800 -0.3872
  691TMC3     C10220   2.920   3.331  15.848 -0.3735  0.5337  0.0662
  691TMC3     O10221   2.936   3.297  15.966 -0.0350 -0.5802  0.7697
  691TMC3     H10222   2.688   3.290  15.968 -1.2467 -0.4585 -0.2529
  691TMC3    H110223   2.872   3.287  15.592  1.0039 -1.2132  1.0240
  691TMC3    H210224   2.453   3.197  15.635 -0.7113  0.5830  1.6314
  691TMC3    C710225   2.662   3.207  15.468  0.0656 -0.7802  0.0148
  691TMC3    C810226   2.453   3.243  15.894  0.0568  0.0521 -0.6016
  691TMC3    O110227   2.700   3.286  15.385  0.0522 -0.2827  0.1893
  691TMC3    O210228   2.469   3.208  16.009 -0.0510  0.2554 -0.3192
  692TMC3    C110229   4.503   0.120  15.463 -0.2207 -0.3921 -0.2276
  692TMC3    C210230   4.583   0.214  15.404  0.1252 -0.2184  0.4413
  692TMC3    C310231   4.711   0.231  15.432  0.0304 -0.1871 -0.4218
  692TMC3    C410232   4.564   0.015  15.532  0.0612 -0.4050  0.2867
  692TMC3    C510233   4.694   0.037  15.574  0.3243 -0.2763 -0.4700
  692TMC3    C610234   0.042   0.146  15.527  0.0880 -0.6225  0.6258
  692TMC3     C10235   4.391   0.171  15.533 -0.6562  0.3747  0.2771
  692TMC3     O10236   4.384   0.125  15.648 -0.1894  0.2574 -0.2672
  692TMC3     H10237   4.526   0.298  15.363  0.8143 -1.1085 -2.3777
  692TMC3    H110238   4.509   4.673  15.594  0.6187 -0.0908  1.1425
  692TMC3    H210239   0.135   0.173  15.576  0.1963 -1.1242  0.6959
  692TMC3    C710240   4.690   0.017  15.720 -1.0813  0.0135  0.3326
  692TMC3    C810241   0.001   0.369  15.465  0.1386 -0.4172 -0.1013
  692TMC3    O110242   4.662   0.121  15.784 -0.7333 -0.2501 -0.2031
  692TMC3    O210243   4.708   0.448  15.371 -0.3772  0.2742  0.3543
  693MPD2     C10244   4.020   2.542  10.163  0.1998  0.6007  1.2789
  693MPD2    C110245   4.005   2.427  10.227  0.2832  0.8147 -0.3216
  693MPD2    C210246   4.115   2.361  10.275 -0.5451  0.0642 -0.2388
  693MPD2    C310247   4.241   2.411  10.251  0.4828 -0.2234 -0.0425
  693MPD2    C410248   4.251   2.522  10.171 -0.6684 -0.2128 -0.8223
  693MPD2    C510249   4.140   2.584  10.126  0.2022  1.1266 -0.1430
  693MPD2     H10250   4.097   2.273  10.336 -0.2299  0.6474  0.6971
  693MPD2    H110251   4.347   2.562  10.142  0.2090 -0.8875  1.2058
  693MPD2    H210252   3.936   2.589  10.114  0.6707 -0.4230 -0.4809
  693MPD2    H310253   4.147   2.675  10.067  1.0783  1.4092  0.3952
  693MPD2     N10254   4.354   2.382  10.328  0.0340 -0.1632  0.1867
  693MPD2    H510255   4.443   2.415  10.291  1.0194 -3.6171 -0.4946
  693MPD2    N110256   3.879   2.379  10.258 -0.2358 -0.6589 -0.1859
  693MPD2    H710257   3.801   2.443  10.248  0.3195 -0.3003 -2.2341
  694TMC3    C110258   3.726   2.227  10.351  0.2828  0.6207  0.6811
  694TMC3    C210259   3.664   2.104  10.322 -0.2277 -0.9017 -0.3638
  694TMC3    C310260   3.615   2.029  10.430  0.5957  0.1430  0.6375
  694TMC3    C410261   3.741   2.266  10.481  0.1325  0.2321  0.4439
  694TMC3    C510262   3.699   2.174  10.583 -0.5190 -0.9438  0.5469
  694TMC3    C610263   3.632   2.059  10.558  0.1237 -0.1706 -0.2422
  694TMC3     C10264   3.848   2.243  10.280  0.1677  0.9727  0.2288
  694TMC3     O10265   3.914   2.144  10.260 -0.4936  0.0575  0.0651
  694TMC3     H10266   3.650   2.077  10.218  3.2010  1.4407 -1.4670
  694TMC3    H110267   3.800   2.356  10.492  1.1615 -0.5080  1.0776
  694TMC3    H210268   3.582   2.005  10.638  2.3666  0.9854  1.9185
  694TMC3    C710269   3.724   2.217  10.717  0.6036 -0.3444 -0.2498
  694TMC3    C810270   3.551   1.894  10.406  1.1633  0.5413  0.7031
  694TMC3    O110271   3.731   2.339  10.730 -0.5787 -0.0987  0.5268
  694TMC3    O210272   3.464   1.849  10.480  0.1368 -0.0600 -0.1312
  695MPD2     C10273   0.302   4.392  13.557 -0.4889 -0.5200 -0.0692
  695MPD2    C110274   0.255   4.402  13.688 -0.2687 -0.3696 -0.3275
  695MPD2    C210275   0.121   4.395  13.719 -0.2239  0.1823 -0.3149
  695MPD2    C310276   0.033   4.375  13.610 -0.9043  0.1729 -0.0031
  695MPD2    C410277   0.083   4.375  13.476  0.0218  0.6752  0.1705
  695MPD2    C510278   0.216   4.375  13.448  0.2746 -0.7141 -0.1245
  695MPD2     H10279   0.088   4.391  13.822 -0.4030 -0.8385 -0.4110
  695MPD2    H110280   0.014   4.361  13.394 -0.3114 -2.0032  0.9204
  695MPD2    H210281   0.407   4.408  13.537 -0.2897 -0.1194  1.3565
  695MPD2    H310282   0.252   4.360  13.347 -0.7210 -2.2458 -0.2433
  695MPD2     N10283   4.622   4.380  13.642 -0.1826 -0.7120 -0.0527
  695MPD2    H510284   4.615   4.407  13.740  1.2887 -1.0603  0.1581
  695MPD2    N110285   0.342   4.427  13.789 -0.3351  0.1453  1.0015
  695MPD2    H710286   0.307   4.447  13.882 -1.3467  1.8268  0.2542
  696TMC3    C110287   4.394   4.408  13.634 -0.7358 -0.5627  0.1857
  696TMC3    C210288   4.402   4.432  13.766  0.1801  0.5259 -0.4377
  696TMC3    C310289   4.316   4.521  13.828  0.0778 -0.0264  0.6541
  696TMC3    C410290   4.292   4.462  13.555 -0.6732  0.1013 -0.2752
  696TMC3    C510291   4.202   4.543  13.620  0.3430  0.6731 -0.0460
  696TMC3    C610292   4.209   4.566  13.757  0.1519 -0.4297 -1.2952
  696TMC3     C10293   4.511   4.355  13.565  0.0688 -0.0927  0.1340
  696TMC3     O10294   4.495   4.323  13.446 -0.5531 -0.4011  0.1869
  696TMC3     H10295   4.481   4.394  13.830 -1.1938 -0.2422  0.8187
  696TMC3    H110296   4.286   4.443  13.449  0.1171 -2.3377  0.1145
  696TMC3    H210297   4.139   4.624  13.815  0.8197 -0.8054 -0.0965
  696TMC3    C710298   4.195   4.667  13.543 -0.0577  0.7651  0.4281
  696TMC3    C810299   4.375   4.636  13.895 -0.2323  0.0396 -0.0168
  696TMC3    O110300   4.158   4.654  13.427 -0.3204 -0.1336 -0.2689
  696TMC3    O210301   4.337   0.017  13.865  0.1011 -0.3120  0.3510
  697MPD2     C10302   4.334   1.543  15.603  0.0983 -0.1569  0.3434
  697MPD2    C110303   4.284   1.533  15.480  0.0463  0.3113  0.2737
  697MPD2    C210304   4.311   1.643  15.399 -0.5619 -0.0353 -0.5922
  697MPD2    C310305   4.383   1.758  15.440  0.8660  0.5784  0.3980
  697MPD2    C410306   4.438   1.766  15.565 -0.0505 -0.3377 -0.4520
  697MPD2    C510307   4.409   1.651  15.643 -0.0733 -0.0964  0.9464
  697MPD2     H10308   4.269   1.640  15.299 -0.4485 -2.3958 -0.5622
  697MPD2    H110309   4.498   1.847  15.604 -1.4636 -0.6341  2.3239
  697MPD2    H210310   4.324   1.471  15.684 -0.2274 -1.0431 -0.4874
  697MPD2    H310311   4.448   1.647  15.744  0.4819  0.2535  0.7467
  697MPD2     N10312   4.420   1.848  15.339  0.1290  0.1768  0.0310
  697MPD2    H510313   4.393   1.828  15.243 -0.8386  1.0579  0.1118
  697MPD2    N110314   4.205   1.430  15.434 -0.0978  0.0227  0.3994
  697MPD2    H710315   4.202   1.420  15.333 -1.1929  1.4303  0.2857
  698TMC3    C110316   4.511   2.031  15.243  0.5582  0.1884  0.3528
  698TMC3    C210317   4.494   2.165  15.259 -0.8060 -0.8817 -0.3355
  698TMC3    C310318   4.475   2.233  15.142  0.0318 -0.4736  0.1653
  698TMC3    C410319   4.510   1.967  15.126 -0.0200  0.6427 -0.1162
  698TMC3    C510320   4.526   2.036  15.010  0.1931 -0.0347 -0.0421
  698TMC3    C610321   4.499   2.177  15.023 -0.1126 -0.1659 -0.1444
  698TMC3     C10322   4.499   1.962  15.360  0.7178 -0.0916  0.2125
  698TMC3     O10323   4.549   2.011  15.457 -0.4018 -0.0064  0.3694
  698TMC3     H10324   4.510   2.216  15.354 -0.6636 -2.2140  0.3591
  698TMC3    H110325   4.518   1.859  15.123 -0.7278  0.4810  3.8677
  698TMC3    H210326   4.488   2.234  14.932  1.6458 -0.6488 -0.6552
  698TMC3    C710327   4.472   1.974  14.885 -0.2255  0.2932 -0.4474
  698TMC3    C810328   4.506   2.376  15.154  0.5982  0.0252  0.1880
  698TMC3    O110329   4.421   2.056  14.811  0.0658 -0.4137  0.1572
  698TMC3    O210330   4.478   2.427  15.262  0.2976 -0.3658 -0.8718
  699TMC3    C110331   0.155   4.143  13.029 -0.1436 -0.0957  0.3851
  699TMC3    C210332   0.221   4.084  13.138 -0.2619 -1.0325  0.3417
  699TMC3    C310333   0.177   3.964  13.203  0.7164  0.2476 -0.7178
  699TMC3    C410334   0.037   4.090  12.992 -0.5328 -0.2144 -0.0043
  699TMC3    C510335   0.000   3.972  13.050  0.2870 -0.3110  0.5097
  699TMC3    C610336   0.076   3.900  13.147 -0.2948  0.0688  0.6022
  699TMC3     C10337   0.217   4.250  12.959  1.1021 -0.0539  0.2978
  699TMC3     O10338   0.265   4.342  13.024  0.6615 -0.1880 -0.2847
  699TMC3     H10339   0.305   4.135  13.182  0.0556 -0.3891 -1.0351
  699TMC3    H110340   4.702   4.149  12.926  0.8528  0.0577 -1.0808
  699TMC3    H210341   0.034   3.813  13.196  1.3080 -1.9536 -1.6051
  699TMC3    C710342   4.586   3.942  13.038 -0.3085 -0.5915 -0.0818
  699TMC3    C810343   0.222   3.926  13.334 -0.4521  0.4293  0.4880
  699TMC3    O110344   4.522   4.039  13.008  0.2410  0.1026 -0.3595
  699TMC3    O210345   0.338   3.941  13.367  0.4694 -0.5332  0.0250
  700TMC3    C110346   3.239   2.176  17.062  0.5356 -0.3471  0.4721
  700TMC3    C210347   3.277   2.041  17.066  0.0448  0.0127  0.3339
  700TMC3    C310348   3.353   2.009  17.179  0.5225 -0.0191  0.0639
  700TMC3    C410349   3.278   2.271  17.155  0.4742 -0.0408  0.0885
  700TMC3    C510350   3.364   2.232  17.256  0.4547  0.1472  0.9591
  700TMC3    C610351   3.406   2.102  17.269 -0.3944  0.1365 -0.0105
  700TMC3     C10352   3.225   2.227  16.926  0.1105  0.0014  0.1471
  700TMC3     O10353   3.167   2.153  16.846  0.1760  0.8120 -0.2036
  700TMC3     H10354   3.262   1.965  16.991 -0.4612  0.3539  0.0843
  700TMC3    H110355   3.245   2.373  17.139  0.8425 -0.1139 -1.1757
  700TMC3    H210356   3.482   2.078  17.343 -1.1905 -2.0523  0.0961
  700TMC3    C710357   3.415   2.329  17.343 -0.0681 -1.0899 -0.2643
  700TMC3    C810358   3.449   1.904  17.150  0.0878 -0.3366 -0.0584
  700TMC3    O110359   3.524   2.314  17.394  0.2238  0.2975  0.2206
  700TMC3    O210360   3.568   1.909  17.184 -0.4051 -0.2590 -0.6927
  701TMC3    C110361   3.447   0.945  15.241 -0.2837 -0.4394  0.1024
  701TMC3    C210362   3.440   0.913  15.108 -0.3068 -0.5093  0.1451
  701TMC3    C310363   3.525   0.974  15.018  0.3706  0.2663 -0.5999
  701TMC3    C410364   3.537   1.037  15.288  0.2413  0.7848  0.5774
  701TMC3    C510365   3.625   1.095  15.202  0.0402  0.9337  0.0920
  701TMC3    C610366   3.618   1.064  15.063 -0.2651  0.2440  0.2378
  701TMC3     C10367   3.316   0.934  15.306 -0.3040  0.4249  0.2562
  701TMC3     O10368   3.232   0.869  15.248  0.3269  0.1464  0.2978
  701TMC3     H10369   3.366   0.842  15.071 -0.8680  2.0268 -3.6545
  701TMC3    H110370   3.550   1.043  15.395  0.7689  1.3005  0.4852
  701TMC3    H210371   3.673   1.123  14.991  0.7942 -1.0372  0.0084
  701TMC3    C710372   3.691   1.221  15.232 -0.1499 -0.4598 -0.2010
  701TMC3    C810373   3.492   0.969  14.872  0.5795 -0.3357 -0.3951
  701TMC3    O110374   3.737   1.287  15.138 -0.1948 -0.4253  0.4868
  701TMC3    O210375   3.579   1.013  14.798 -0.1461 -0.2280  0.6571
  702MPD2     C10376   3.424   3.247  10.469 -0.3653 -0.2146 -0.1138
  702MPD2    C110377   3.361   3.356  10.513 -0.2121  0.0442 -0.1370
  702MPD2    C210378   3.422   3.481  10.501  0.0709  0.2357 -0.4865
  702MPD2    C310379   3.542   3.496  10.427  0.2439 -0.4136  0.1884
  702MPD2    C410380   3.607   3.382  10.380  0.2333 -0.0775 -0.4582
  702MPD2    C510381   3.546   3.256  10.404  0.1163 -0.3654 -0.2525
  702MPD2     H10382   3.373   3.564  10.552  0.1814  0.1198 -0.1921
  702MPD2    H110383   3.697   3.381  10.320  0.3094  0.0427 -0.3466
  702MPD2    H210384   3.379   3.149  10.480  1.9501 -1.2161  0.3756
  702MPD2    H310385   3.603   3.166  10.384  0.6569  0.1287 -0.9715
  702MPD2     N10386   3.594   3.620  10.409 -0.3416 -0.3405 -0.6181
  702MPD2    H510387   3.696   3.626  10.404 -0.5280  1.7433 -1.9490
  702MPD2    N110388   3.240   3.353  10.588  0.1699 -0.5006 -0.2350
  702MPD2    H710389   3.226   3.438  10.641 -0.0945 -0.6414 -0.0834
  703TMC3    C110390   3.597   3.864  10.452  0.1802  0.1240 -0.1227
  703TMC3    C210391   3.526   3.941  10.538  0.6414  0.5292 -0.9413
  703TMC3    C310392   3.594   4.052  10.582  0.2538 -0.3056 -0.2258
  703TMC3    C410393   3.725   3.890  10.406 -0.1205 -1.0299 -0.4246
  703TMC3    C510394   3.774   4.013  10.444  0.0280 -0.8415  0.5614
  703TMC3    C610395   3.713   4.095  10.528 -0.3331 -0.3880 -0.2002
  703TMC3     C10396   3.522   3.736  10.416  0.7756  0.4997  0.3433
  703TMC3     O10397   3.397   3.738  10.405 -0.5440  0.3497 -0.1697
  703TMC3     H10398   3.435   3.901  10.582  1.1073  1.4780  0.8937
  703TMC3    H110399   3.764   3.841  10.318 -0.5512 -0.6175 -0.8430
  703TMC3    H210400   3.766   4.180  10.568 -0.0339 -0.0846 -1.2426
  703TMC3    C710401   3.913   4.061  10.411 -0.1401 -0.6531  0.4198
  703TMC3    C810402   3.526   4.132  10.682 -0.0742  0.3955  0.3883
  703TMC3    O110403   3.938   4.178  10.431  0.0600  0.4790 -0.4358
  703TMC3    O210404   3.570   4.241  10.698  0.0340 -0.7646  0.1868
  704TMC3    C110405   1.064   1.602  12.004 -0.5980  0.9443  0.0870
  704TMC3    C210406   1.178   1.602  11.940 -0.0481 -0.5679 -0.3207
  704TMC3    C310407   1.289   1.584  12.010 -0.4238 -0.6305 -0.0859
  704TMC3    C410408   1.043   1.574  12.139  0.2321  0.5812  0.1556
  704TMC3    C510409   1.162   1.528  12.195  0.3362 -0.3734  0.3984
  704TMC3    C610410   1.284   1.532  12.136 -0.0177  0.5037  0.2073
  704TMC3     C10411   0.950   1.581  11.926 -0.1004  0.2739 -0.0657
  704TMC3     O10412   0.856   1.657  11.933 -0.3098 -0.0810  0.0674
  704TMC3     H10413   1.190   1.622  11.834 -0.0157 -0.2578 -0.2592
  704TMC3    H110414   0.944   1.552  12.176  0.5343 -0.8395  0.0936
  704TMC3    H210415   1.377   1.515  12.190 -1.6159  0.2440  2.8128
  704TMC3    C710416   1.144   1.402  12.259 -0.1614  0.7734  0.4814
  704TMC3    C810417   1.412   1.541  11.936  1.0178 -0.5524  0.4450
  704TMC3    O110418   1.243   1.329  12.266 -0.1945  0.0433  0.3084
  704TMC3    O210419   1.393   1.463  11.845 -0.3878 -0.2630 -0.0474
  705MPD2     C10420   0.295   4.397  16.352  0.8935 -0.2890  0.0837
  705MPD2    C110421   0.196   4.470  16.281  0.0546 -1.1990  0.6736
  705MPD2    C210422   0.097   4.529  16.356  0.1379  0.3042 -0.0294
  705MPD2    C310423   0.079   4.508  16.496  1.0487  0.3819 -0.7915
  705MPD2    C410424   0.177   4.428  16.558  0.2317 -0.1599 -0.6100
  705MPD2    C510425   0.273   4.372  16.485 -0.2287  0.4670 -0.1935
  705MPD2     H10426   0.020   4.593  16.314 -0.4684 -0.2253  0.2882
  705MPD2    H110427   0.160   4.401  16.661 -1.8409 -0.1573 -0.9637
  705MPD2    H210428   0.376   4.350  16.297 -0.0312 -1.5169 -0.2282
  705MPD2    H310429   0.349   4.316  16.538 -0.2674 -0.1041 -0.7336
  705MPD2     N10430   4.700   4.552  16.578  0.2160  0.2389 -0.7369
  705MPD2    H510431   4.727   4.539  16.674 -2.4589 -1.2970 -0.1991
  705MPD2    N110432   0.200   4.511  16.147 -0.1095  0.4726  0.4514
  705MPD2    H710433   0.133   4.580  16.116 -1.2727  0.5942  3.2514
  706TMC3    C110434   0.438   4.609  15.758  0.6706  0.9349 -0.1012
  706TMC3    C210435   0.383   0.009  15.749 -0.2028  0.8569 -0.0494
  706TMC3    C310436   0.295   0.050  15.839 -0.2293  0.4649 -0.2414
  706TMC3    C410437   0.411   4.518  15.860  0.5840  0.5102  0.3565
  706TMC3    C510438   0.315   4.566  15.947  0.7128  0.0187  0.3423
  706TMC3    C610439   0.255   4.690  15.932  0.2531 -0.5183  0.6473
  706TMC3     C10440   0.548   4.594  15.663  0.3098  0.6117 -0.5614
  706TMC3     O10441   0.618   4.696  15.641 -0.2058  0.1317  0.5107
  706TMC3     H10442   0.419   0.079  15.674  0.5041 -2.7007 -3.0654
  706TMC3    H110443   0.458   4.420  15.857  0.5157  0.5148 -0.8022
  706TMC3    H210444   0.182   4.720  16.005 -0.2932  0.9881 -0.5331
  706TMC3    C710445   0.304   4.484  16.066  0.4295  0.4015  0.1365
  706TMC3    C810446   0.262   0.189  15.845  0.7088 -0.3154  0.1971
  706TMC3    O110447   0.393   4.401  16.082 -0.1976 -0.1055 -0.5109
  706TMC3    O210448   0.257   0.244  15.735 -0.0018  0.6961  0.0528
  707TMC3    C110449   1.379   3.829   1.110 -0.1355 -0.2318 -0.2059
  707TMC3    C210450   1.342   3.702   1.091 -0.7515 -0.3800  0.1882
  707TMC3    C310451   1.227   3.672   1.027  0.0913  0.0108 -0.0203
  707TMC3    C410452   1.305   3.935   1.058 -0.1206 -0.0150 -0.0513
  707TMC3    C510453   1.192   3.906   0.986 -0.4055 -0.0018 -0.1505
  707TMC3    C610454   1.156   3.775   0.968 -0.2186  0.2741 -0.0557
  707TMC3     C10455   1.514   3.848   1.151  0.5376 -0.3117  0.2371
  707TMC3     O10456   1.575   3.746   1.180  0.0854  0.4367 -0.0843
  707TMC3     H10457   1.373   3.626   1.161 -1.5250 -0.9182 -0.0487
  707TMC3    H110458   1.349   4.034   1.062 -0.3876  0.2099 -2.5605
  707TMC3    H210459   1.072   3.746   0.906 -1.8884 -0.8931  2.7376
  707TMC3    C710460   1.103   4.008   0.949  0.3410 -0.3271  0.3399
  707TMC3    C810461   1.173   3.542   1.016  0.2147 -0.2697 -0.1304
  707TMC3    O110462   1.120   4.119   1.003 -0.0586 -0.1207  0.2612
  707TMC3    O210463   1.059   3.537   0.969  0.4250 -0.7833 -0.8555
  708MPD2     C10464   3.929   2.303  13.566 -0.3222  0.1645 -0.0605
  708MPD2    C110465   3.791   2.279  13.571 -0.0971  0.3018  0.5665
  708MPD2    C210466   3.716   2.329  13.674 -0.2483  0.3644  0.2846
  708MPD2    C310467   3.776   2.388  13.780 -0.1677  0.5660  1.1672
  708MPD2    C410468   3.914   2.405  13.786  0.1083 -0.6009  0.1909
  708MPD2    C510469   3.986   2.360  13.678  0.2904  0.0279 -0.5885
  708MPD2     H10470   3.608   2.324  13.669 -0.1011 -1.0396 -1.3424
  708MPD2    H110471   3.972   2.460  13.858 -0.9127 -4.5207  4.0304
  708MPD2    H210472   3.990   2.283  13.479  0.0468  0.2510  0.1789
  708MPD2    H310473   4.093   2.374  13.677  0.4244 -0.7435  2.2977
  708MPD2     N10474   3.700   2.441  13.889  0.2814 -0.6929 -0.3173
  708MPD2    H510475   3.747   2.488  13.965  1.4427 -0.2652 -1.2970
  708MPD2    N110476   3.729   2.214  13.461 -0.1771  0.2065 -0.1979
  708MPD2    H710477   3.785   2.209  13.376 -1.2243 -0.7363 -0.8264
  709TMC3    C110478   3.549   2.184  13.301  0.1712  0.2924 -0.3414
  709TMC3    C210479   3.602   2.275  13.218 -0.0694  0.2523 -0.1325
  709TMC3    C310480   3.513   2.344  13.141 -0.2383 -0.6825 -0.0177
  709TMC3    C410481   3.412   2.149  13.302  0.1238 -0.3960 -0.5774
  709TMC3    C510482   3.327   2.226  13.234  0.1502  0.0681  0.4052
  709TMC3    C610483   3.379   2.329  13.152 -0.2133 -0.1510 -0.0156
  709TMC3     C10484   3.594   2.192  13.442  0.4061 -0.5627 -0.0975
  709TMC3     O10485   3.502   2.186  13.523 -0.0745 -0.2801 -0.0365
  709TMC3     H10486   3.707   2.300  13.224  0.0056  0.3196 -1.7551
  709TMC3    H110487   3.381   2.067  13.366 -1.1770 -0.0794 -0.7833
  709TMC3    H210488   3.321   2.412  13.115  2.8921  1.5798 -0.9742
  709TMC3    C710489   3.208   2.270  13.301 -0.2915 -0.4986 -0.2022
  709TMC3    C810490   3.561   2.447  13.053  0.0179  1.3556 -0.7143
  709TMC3    O110491   3.127   2.340  13.241 -0.2378  0.2859 -0.1292
  709TMC3    O210492   3.677   2.478  13.068 -1.0275  0.8710  0.8819
  710TMC3    C110493   4.680   4.130   0.237 -0.2849 -0.1162  0.2766
  710TMC3    C210494   0.026   4.076   0.135 -0.5944 -0.8462  0.3602
  710TMC3    C310495   0.146   4.018   0.174  0.0096  0.1369 -0.2539
  710TMC3    C410496   4.702   4.096   0.368  0.0782 -0.0070  0.1423
  710TMC3    C510497   0.092   4.029   0.399 -0.1496 -0.6020 -0.2406
  710TMC3    C610498   0.176   3.985   0.306 -0.1212  0.6202 -0.3733
  710TMC3     C10499   4.554   4.193   0.197  0.5835 -0.1859 -0.2103
  710TMC3     O10500   4.521   4.175   0.080 -0.3079 -0.0041  0.7966
  710TMC3     H10501   0.001   4.091   0.030  0.6720  0.3462  0.2252
  710TMC3    H110502   4.642   4.136   0.449  0.1797  0.6696 -0.1226
  710TMC3    H210503   0.267   3.936   0.337 -1.6578 -1.4395  0.8378
  710TMC3    C710504   0.094   3.971   0.532 -0.4184  0.1250 -0.3561
  710TMC3    C810505   0.239   3.994   0.066 -0.4646 -1.1681  0.8819
  710TMC3    O110506   0.014   4.010   0.621  0.1988  0.0242 -0.6538
  710TMC3    O210507   0.203   4.033  17.670  0.4565  0.1463  0.3528
  711TMC3    C110508   4.193   0.726  14.745 -0.1235  0.2587 -0.2048
  711TMC3    C210509   4.222   0.799  14.853  0.1782 -0.1962 -0.2326
  711TMC3    C310510   4.340   0.775  14.912  0.7296 -0.0990  0.4784
  711TMC3    C410511   4.274   0.630  14.689  0.5641 -0.3497  0.1154
  711TMC3    C510512   4.391   0.618  14.754  0.3531 -0.0802 -0.4784
  711TMC3    C610513   4.439   0.695  14.859 -0.1658  0.0467 -0.5638
  711TMC3     C10514   4.055   0.701  14.717 -0.1512  0.3265 -0.3705
  711TMC3     O10515   4.022   0.639  14.614 -0.3947  0.3809  0.5396
  711TMC3     H10516   4.163   0.874  14.904  0.2575  0.4047 -1.0139
  711TMC3    H110517   4.241   0.578  14.600  0.6253 -0.1551 -0.0192
  711TMC3    H210518   4.525   0.674  14.921 -0.3990 -2.1410 -0.9820
  711TMC3    C710519   4.440   0.478  14.763  0.5834 -0.9876  0.6131
  711TMC3    C810520   4.340   0.811  15.047 -0.6192  0.2875  0.3797
  711TMC3    O110521   4.522   0.454  14.848  0.0106 -0.2258  0.4503
  711TMC3    O210522   4.237   0.826  15.118  0.0389 -0.0957  0.0030
  712MPD2     C10523   1.341   1.650  13.536  0.1180  0.0968  0.5378
  712MPD2    C110524   1.218   1.667  13.470 -0.0523 -0.4038  0.1555
  712MPD2    C210525   1.205   1.780  13.383 -0.1291 -0.9173 -0.1973
  712MPD2    C310526   1.319   1.861  13.366 -0.4196 -0.1496 -0.2987
  712MPD2    C410527   1.434   1.834  13.427 -0.3593  0.2252  0.2476
  712MPD2    C510528   1.449   1.728  13.506 -0.2808 -0.1602  0.2790
  712MPD2     H10529   1.117   1.797  13.322 -0.8843 -1.7897  0.6453
  712MPD2    H110530   1.520   1.899  13.417  0.7623 -1.0824  1.2922
  712MPD2    H210531   1.365   1.557  13.586 -0.4821 -0.3259  0.0434
  712MPD2    H310532   1.553   1.718  13.535 -0.9081 -1.3194  2.1247
  712MPD2     N10533   1.316   1.962  13.265  0.2421  0.3438 -0.4209
  712MPD2    H510534   1.407   1.993  13.232  1.4497  0.0845  2.6943
  712MPD2    N110535   1.108   1.584  13.468  0.6818  0.2611  0.4381
  712MPD2    H710536   1.038   1.612  13.400 -2.2568 -1.7652  2.6183
  713TMC3    C110537   1.235   2.124  13.112  0.0980  0.2658  0.0341
  713TMC3    C210538   1.322   2.222  13.148 -0.4451 -0.0885  0.4096
  713TMC3    C310539   1.317   2.344  13.084 -0.0142  0.2744  0.2203
  713TMC3    C410540   1.129   2.151  13.027  0.5110 -0.4972  0.6587
  713TMC3    C510541   1.122   2.268  12.964 -0.2007 -0.0222 -0.4390
  713TMC3    C610542   1.220   2.365  12.985 -0.0838 -0.1617  0.0012
  713TMC3     C10543   1.204   2.018  13.214  0.7684  0.0713 -0.0363
  713TMC3     O10544   1.096   2.024  13.264  0.0260 -0.3847 -0.8044
  713TMC3     H10545   1.398   2.205  13.223 -1.0847 -0.7472  0.9099
  713TMC3    H110546   1.063   2.070  12.999 -2.6460  2.0502  0.7619
  713TMC3    H210547   1.226   2.455  12.926  1.0965 -1.1859 -1.4259
  713TMC3    C710548   1.033   2.270  12.847  0.4317 -0.1623 -0.1644
  713TMC3    C810549   1.397   2.463  13.137 -0.5367  0.3480 -0.1112
  713TMC3    O110550   0.936   2.202  12.848  0.0306  0.0809  0.0150
  713TMC3    O210551   1.346   2.576  13.113 -0.8874  0.7232 -0.4983
  714MPD2     C10552   2.763   0.714   1.351  0.9836  0.0322 -0.3059
  714MPD2    C110553   2.791   0.617   1.263 -0.7404  0.0273  0.7509
  714MPD2    C210554   2.751   0.633   1.133 -0.5933  0.2971 -0.4467
  714MPD2    C310555   2.687   0.753   1.087 -0.2410  0.2412 -0.3659
  714MPD2    C410556   2.667   0.857   1.177  0.4101  0.5500 -0.5603
  714MPD2    C510557   2.714   0.834   1.302  0.1300  0.4798 -0.1746
  714MPD2     H10558   2.782   0.553   1.068 -0.1945 -0.7010  0.9811
  714MPD2    H110559   2.610   0.948   1.161  1.5040  1.2184 -0.7085
  714MPD2    H210560   2.796   0.706   1.454  3.5004  0.2236 -1.0846
  714MPD2    H310561   2.679   0.904   1.377 -0.0510  0.8737 -0.6316
  714MPD2     N10562   2.642   0.765   0.952  0.1716  0.1592 -0.4458
  714MPD2    H510563   2.597   0.852   0.925 -0.7307 -0.3334 -0.5356
  714MPD2    N110564   2.867   0.503   1.310  0.0849 -0.0457  0.3661
  714MPD2    H710565   2.917   0.521   1.396 -1.7379  0.9997  1.2064
  715TMC3    C110566   3.012   0.318   1.266  0.1944  0.8338  0.2331
  715TMC3    C210567   3.030   0.192   1.229  0.0410  0.5386  0.6031
  715TMC3    C310568   3.156   0.138   1.247 -0.3143  0.2252  0.8412
  715TMC3    C410569   3.109   0.392   1.324 -0.2631 -0.2062 -0.0881
  715TMC3    C510570   3.220   0.326   1.357  0.4247  0.6172  0.4391
  715TMC3    C610571   3.253   0.206   1.321 -0.6586 -0.7748 -0.5904
  715TMC3     C10572   2.879   0.382   1.246  0.1035 -0.3778 -0.0239
  715TMC3     O10573   2.812   0.334   1.155  0.4652 -0.4469  0.0691
  715TMC3     H10574   2.959   0.130   1.174  2.6087 -2.4029  0.6302
  715TMC3    H110575   3.103   0.499   1.335 -1.0300 -0.2273 -0.2633
  715TMC3    H210576   3.350   0.164   1.343  0.5881  2.7494  0.6158
  715TMC3    C710577   3.330   0.403   1.416  0.6759 -0.7033 -0.7044
  715TMC3    C810578   3.182   0.004   1.206  0.1318 -0.5328  0.0774
  715TMC3    O110579   3.443   0.377   1.382 -0.2652 -0.5051 -0.2748
  715TMC3    O210580   3.117   4.695   1.108 -0.2250  0.2448  0.5203
  716MPD2     C10581   3.820   2.404   9.853  0.2258 -0.1016  0.4987
  716MPD2    C110582   3.710   2.373   9.770 -0.6643 -0.6096  0.1116
  716MPD2    C210583   3.663   2.248   9.751 -0.3418 -0.2293  0.5095
  716MPD2    C310584   3.743   2.144   9.799 -0.0641  0.6352 -0.3329
  716MPD2    C410585   3.858   2.171   9.878 -0.3383 -0.2727  0.0465
  716MPD2    C510586   3.890   2.305   9.911 -0.0184 -0.5505 -0.0571
  716MPD2     H10587   3.580   2.230   9.683  0.1383 -0.8379  0.0835
  716MPD2    H110588   3.918   2.091   9.920 -0.0123 -1.1575 -2.0689
  716MPD2    H210589   3.849   2.506   9.876  1.7272 -0.5315  0.5117
  716MPD2    H310590   3.978   2.315   9.973  0.8479 -1.2928 -1.1606
  716MPD2     N10591   3.700   2.017   9.764  0.0081  0.2729 -0.7397
  716MPD2    H510592   3.607   2.016   9.723  0.8836 -2.3755 -2.6333
  716MPD2    N110593   3.633   2.481   9.722  0.1827 -0.1363  0.1026
  716MPD2    H710594   3.675   2.571   9.742 -0.6167 -0.1104  1.7297
  717TMC3    C110595   3.701   1.807   9.693  0.0584 -0.0187  0.4507
  717TMC3    C210596   3.604   1.846   9.603  0.1426 -0.2743 -0.0073
  717TMC3    C310597   3.536   1.752   9.536 -0.0054 -0.2449 -0.3114
  717TMC3    C410598   3.737   1.674   9.707 -0.0334 -0.1734 -0.0929
  717TMC3    C510599   3.657   1.584   9.644  0.3640 -0.0031  0.1616
  717TMC3    C610600   3.554   1.616   9.562  0.2647  0.2209  0.0035
  717TMC3     C10601   3.765   1.900   9.776  0.0625  0.0264 -0.0791
  717TMC3     O10602   3.869   1.869   9.833 -0.2520  0.1211 -0.5418
  717TMC3     H10603   3.581   1.951   9.585 -0.9401 -0.2082  1.7043
  717TMC3    H110604   3.830   1.649   9.758 -0.7040 -2.4850  0.0050
  717TMC3    H210605   3.478   1.543   9.540 -0.0098  0.4191  0.2893
  717TMC3    C710606   3.657   1.446   9.692  0.2065  0.4579 -0.9203
  717TMC3    C810607   3.429   1.795   9.440 -0.3431  0.0126 -0.1767
  717TMC3    O110608   3.733   1.421   9.789  0.2988  0.1059  0.4252
  717TMC3    O210609   3.391   1.908   9.452  0.4397 -0.3692  0.0402
  718MPD2     C10610   2.437   2.066  12.233 -0.0712  0.1022  0.1490
  718MPD2    C110611   2.483   1.934  12.222  0.6366  0.7811  0.6617
  718MPD2    C210612   2.451   1.841  12.319 -0.3157 -0.4689 -0.1616
  718MPD2    C310613   2.393   1.875  12.434  0.4071 -0.4462 -1.1413
  718MPD2    C410614   2.362   2.004  12.461  0.5199  0.4760 -0.3866
  718MPD2    C510615   2.390   2.097  12.363 -0.4898  0.4038  0.2235
  718MPD2     H10616   2.478   1.736  12.308 -0.7102 -0.2493 -3.2534
  718MPD2    H110617   2.333   2.034  12.561  0.7129  0.9223 -0.4629
  718MPD2    H210618   2.466   2.133  12.153  2.9905 -1.5448 -0.0815
  718MPD2    H310619   2.383   2.201  12.396 -1.3931 -0.2491  2.0771
  718MPD2     N10620   2.368   1.769  12.525  0.2296  0.3134  0.3124
  718MPD2    H510621   2.392   1.678  12.487 -2.7865 -0.3085 -0.0857
  718MPD2    N110622   2.563   1.906  12.109  0.5564  0.9508 -0.4720
  718MPD2    H710623   2.595   1.984  12.053  1.8001  0.8285  0.0662
  719TMC3    C110624   2.689   1.776  11.957  0.3095 -1.0408  0.0499
  719TMC3    C210625   2.717   1.645  11.920  0.0108  0.1373 -0.0420
  719TMC3    C310626   2.845   1.593  11.939  0.4855  0.4288  0.0708
  719TMC3    C410627   2.797   1.864  11.974  0.0578 -0.1342 -0.0588
  719TMC3    C510628   2.923   1.813  11.968  0.3039 -0.9425  0.6602
  719TMC3    C610629   2.951   1.674  11.940 -0.0919  0.5931 -0.4345
  719TMC3     C10630   2.599   1.779  12.068  0.1879  0.1629  0.5281
  719TMC3     O10631   2.559   1.676  12.116 -0.0206 -0.2901  0.1829
  719TMC3     H10632   2.633   1.579  11.904 -1.1122  1.0906  1.9010
  719TMC3    H110633   2.783   1.963  12.017  1.5039  0.8034 -1.7306
  719TMC3    H210634   3.045   1.619  11.940 -0.3640  0.1365 -0.3785
  719TMC3    C710635   3.028   1.903  11.957  0.6041  1.1481  0.6597
  719TMC3    C810636   2.853   1.470  12.015 -0.1497  0.6430  0.5590
  719TMC3    O110637   2.996   2.018  11.931  0.5488 -0.5075 -0.5993
  719TMC3    O210638   2.956   1.409  12.012  0.7340  0.5685  0.5483
  720MPD2     C10639   0.707   3.261  13.874  1.0837 -0.6750  1.0647
  720MPD2    C110640   0.775   3.355  13.798  0.2417  0.1451  0.5301
  720MPD2    C210641   0.911   3.378  13.830 -0.1245  0.3462  0.2554
  720MPD2    C310642   0.982   3.309  13.923 -0.3041 -0.0548 -0.0344
  720MPD2    C410643   0.913   3.219  14.001 -0.4444 -0.6957 -0.2983
  720MPD2    C510644   0.772   3.199  13.972 -0.2911  0.1187  0.0225
  720MPD2     H10645   0.949   3.458  13.768  2.9613  0.7966  2.7391
  720MPD2    H110646   0.960   3.173  14.087  0.5469  0.6665 -0.1189
  720MPD2    H210647   0.600   3.244  13.862  0.9218  0.2534  1.1779
  720MPD2    H310648   0.707   3.139  14.036  2.8625 -1.3505  1.8636
  720MPD2     N10649   1.121   3.348  13.941 -0.5352  0.1384 -0.2761
  720MPD2    H510650   1.168   3.391  13.862  1.2434 -0.3981  0.5089
  720MPD2    N110651   0.721   3.427  13.690 -0.5593  0.1438 -0.2539
  720MPD2    H710652   0.781   3.492  13.641  0.6883 -1.5407 -0.9542
  721TMC3    C110653   1.339   3.291  14.038 -0.1913 -0.0336  0.0934
  721TMC3    C210654   1.408   3.266  14.153 -0.6636  0.4660  0.7434
  721TMC3    C310655   1.539   3.241  14.159 -1.2114  0.3018  0.3382
  721TMC3    C410656   1.416   3.309  13.927  0.2041  0.1729 -0.3372
  721TMC3    C510657   1.550   3.294  13.925  0.3270  0.6182  0.1393
  721TMC3    C610658   1.613   3.260  14.044  0.5897 -0.1898  0.0041
  721TMC3     C10659   1.190   3.297  14.044 -0.3890 -0.2597  0.0642
  721TMC3     O10660   1.152   3.295  14.159 -0.6986  0.4396 -0.3968
  721TMC3     H10661   1.354   3.293  14.243  0.6008  0.3667  1.5133
  721TMC3    H110662   1.374   3.338  13.832 -0.1737 -0.6965 -0.4305
  721TMC3    H210663   1.718   3.232  14.047  0.6555 -0.1145 -1.6518
  721TMC3    C710664   1.628   3.304  13.802 -0.0577  0.4925 -0.0522
  721TMC3    C810665   1.605   3.218  14.284 -0.1654  0.5252 -0.5165
  721TMC3    O110666   1.743   3.266  13.811  0.5665 -0.0731  0.0768
  721TMC3    O210667   1.726   3.207  14.284  0.0353  0.1850 -0.1043
  722MPD2     C10668   0.056   2.100  12.670  0.2436  0.1569 -0.7218
  722MPD2    C110669   0.029   2.132  12.538  0.0058 -0.1716  0.4637
  722MPD2    C210670   4.625   2.142  12.490 -0.2087  0.5213  0.4757
  722MPD2    C310671   4.525   2.116  12.580 -0.6680 -0.1612 -0.0375
  722MPD2    C410672   4.553   2.080  12.708 -0.2011 -0.5376  0.6088
  722MPD2    C510673   4.676   2.068  12.752  0.2974 -0.2815 -0.5987
  722MPD2     H10674   4.607   2.181  12.390  1.4499  1.1827  0.4334
  722MPD2    H110675   4.474   2.064  12.781 -0.3529 -0.2603  0.5090
  722MPD2    H210676   0.159   2.104  12.704  0.1067  1.6964 -0.4946
  722MPD2    H310677   4.694   2.031  12.853 -0.7443 -1.9951 -1.0467
  722MPD2     N10678   4.390   2.131  12.544 -0.0581  0.5590 -0.7356
  722MPD2    H510679   4.325   2.128  12.621  0.0897  0.9574 -0.5954
  722MPD2    N110680   0.130   2.170  12.439  0.0989 -0.5444  0.7292
  722MPD2    H710681   0.106   2.186  12.341 -0.1020 -1.7624  0.5888
  723TMC3    C110682   4.207   2.190  12.403  0.0511 -0.0468 -0.5639
  723TMC3    C210683   4.141   2.124  12.301 -0.2853  0.4224  0.1786
  723TMC3    C310684   4.007   2.155  12.277  0.8424 -0.6068 -0.6197
  723TMC3    C410685   4.154   2.285  12.477 -0.0811  0.8352  0.4921
  723TMC3    C510686   4.028   2.326  12.432 -0.2706 -0.1101  0.4699
  723TMC3    C610687   3.957   2.269  12.337 -0.0535  0.3892 -0.1635
  723TMC3     C10688   4.345   2.147  12.418  0.8712  1.0779  0.4483
  723TMC3     O10689   4.395   2.126  12.310  0.0479  0.2327 -0.0057
  723TMC3     H10690   4.198   2.060  12.234  3.1566  1.5142  2.0605
  723TMC3    H110691   4.217   2.338  12.547 -1.4146  1.0795  1.5058
  723TMC3    H210692   3.854   2.299  12.317  0.0113  1.4248  1.1081
  723TMC3    C710693   3.970   2.454  12.481  0.2282  0.0009  0.4129
  723TMC3    C810694   3.918   2.040  12.296  0.9210  0.0086  0.1703
  723TMC3    O110695   3.910   2.525  12.403  0.2876 -0.1529  0.1902
  723TMC3    O210696   3.809   2.084  12.331 -0.1269  0.1930  0.3840
  724TMC3    C110697   4.473   4.522   9.706 -0.5401 -0.2154 -0.3215
  724TMC3    C210698   4.450   4.653   9.713 -0.0858 -0.2869 -1.0161
  724TMC3    C310699   4.542   0.008   9.654  0.3685  0.3268 -0.5574
  724TMC3    C410700   4.579   4.468   9.637  0.1588  0.3577  0.1199
  724TMC3    C510701   4.670   4.551   9.576 -0.8018 -0.8861 -0.9133
  724TMC3    C610702   4.654   4.683   9.595 -0.8639  0.0536 -0.2755
  724TMC3     C10703   4.394   4.431   9.793  0.6106 -0.3380 -0.4490
  724TMC3     O10704   4.452   4.328   9.829 -0.0071  0.4624 -0.3633
  724TMC3     H10705   4.384   4.699   9.787  2.5123 -0.5994  1.4901
  724TMC3    H110706   4.588   4.361   9.621  1.0205  0.4253  0.1587
  724TMC3    H210707   0.006   0.016   9.553  0.7113 -1.3250  0.7642
  724TMC3    C710708   0.067   4.496   9.527  0.0020  0.4444 -0.1011
  724TMC3    C810709   4.528   0.151   9.668 -0.0736 -0.0493 -0.4726
  724TMC3    O110710   0.171   4.558   9.549 -0.4855 -0.1700  0.5320
  724TMC3    O210711   4.417   0.201   9.682  0.0551  0.1997  0.0994
  725TMC3    C110712   1.948   3.716  12.978  0.0891  0.8877 -0.1921
  725TMC3    C210713   1.821   3.770  12.965 -0.0394  0.2841 -0.3695
  725TMC3    C310714   1.735   3.672  12.945  0.6598 -0.3622  0.3844
  725TMC3    C410715   1.980   3.586  12.965  0.4248 -0.2625  0.3112
  725TMC3    C510716   1.882   3.494  12.944  0.1992 -0.1654 -0.2760
  725TMC3    C610717   1.759   3.536  12.930  0.0118 -0.0011 -1.0453
  725TMC3     C10718   2.052   3.817  13.014  0.2078 -0.2013  0.6719
  725TMC3     O10719   2.007   3.915  13.068  0.1819  0.1485  0.4203
  725TMC3     H10720   1.802   3.877  12.967 -0.5984  0.1251  2.3743
  725TMC3    H110721   2.080   3.547  12.986  0.7408  1.1782  1.5040
  725TMC3    H210722   1.682   3.462  12.913 -0.7448  0.6394 -0.3974
  725TMC3    C710723   1.921   3.357  12.907  0.2928 -0.3238 -0.7940
  725TMC3    C810724   1.598   3.703  12.906 -0.7048 -0.7962 -0.0941
  725TMC3    O110725   2.033   3.331  12.863 -0.3701 -0.7384 -0.0784
  725TMC3    O210726   1.510   3.632  12.951 -0.0036  0.5220  0.7474
  726MPD2     C10727   4.681   0.334  11.014 -0.3536 -0.1057  0.5592
  726MPD2    C110728   4.583   0.416  10.976  0.5368 -0.4599 -0.0714
  726MPD2    C210729   4.464   0.413  11.053  0.1041  0.2589 -0.1604
  726MPD2    C310730   4.432   0.318  11.147  0.2811 -0.0353  0.0972
  726MPD2    C410731   4.544   0.237  11.183  0.1426  0.1878  0.0683
  726MPD2    C510732   4.664   0.245  11.117  0.2746 -0.4538  0.0192
  726MPD2     H10733   4.387   0.475  11.008 -0.8191 -0.8020 -0.0511
  726MPD2    H110734   4.542   0.181  11.276 -0.5844 -1.5005 -0.9826
  726MPD2    H210735   0.048   0.323  10.962 -0.8491  0.1945 -0.4067
  726MPD2    H310736   0.019   0.179  11.137 -0.3454 -1.1295  0.3645
  726MPD2     N10737   4.309   0.314  11.220  0.6635 -0.5570 -1.2571
  726MPD2    H510738   4.303   0.264  11.309  0.2831  0.0710 -0.9244
  726MPD2    N110739   4.586   0.504  10.866  0.0402  0.4792  0.2745
  726MPD2    H710740   4.508   0.568  10.861  1.3460  2.0543 -0.1346
  727TMC3    C110741   4.649   0.602  10.672  0.6850  0.0335 -0.3179
  727TMC3    C210742   0.028   0.647  10.593 -0.2754  0.6527 -0.3213
  727TMC3    C310743   4.720   0.721  10.479  0.0588 -0.4386  0.4768
  727TMC3    C410744   4.517   0.605  10.624  0.2796 -0.1996 -1.1245
  727TMC3    C510745   4.491   0.669  10.508 -0.0175 -0.6787  0.1130
  727TMC3    C610746   4.589   0.729  10.434  0.5125  0.5659 -0.5517
  727TMC3     C10747   4.696   0.513  10.777  0.2832 -0.1772  0.5964
  727TMC3     O10748   0.072   0.448  10.770 -0.3635  0.0309 -0.4203
  727TMC3     H10749   0.132   0.634  10.621  0.3895  2.3648 -2.0215
  727TMC3    H110750   4.432   0.573  10.684  0.0537 -1.7932 -2.3047
  727TMC3    H210751   4.563   0.796  10.352  1.5383  0.6330 -0.8170
  727TMC3    C710752   4.362   0.653  10.440 -0.6101  0.1178 -0.6510
  727TMC3    C810753   0.092   0.798  10.422  0.3818 -0.1936  0.5779
  727TMC3    O110754   4.343   0.728  10.345  0.0783 -0.2817  0.4572
  727TMC3    O210755   0.207   0.750  10.434  0.0551  0.0554  0.0212
  728TMC3    C110756   3.449   3.924  15.568 -0.9022 -0.3051  0.3578
  728TMC3    C210757   3.530   4.031  15.611  0.6409 -0.5151  0.0104
  728TMC3    C310758   3.545   4.146  15.539  0.4926 -0.8502 -0.0251
  728TMC3    C410759   3.372   3.933  15.458 -0.8803  0.3127  0.4453
  728TMC3    C510760   3.382   4.052  15.387 -0.4745 -0.0910  0.3482
  728TMC3    C610761   3.458   4.164  15.430  0.1092  0.6261  0.5882
  728TMC3     C10762   3.427   3.831  15.678  0.1603  0.3102 -0.3671
  728TMC3     O10763   3.511   3.819  15.765 -0.2689  0.1633  0.0818
  728TMC3     H10764   3.596   4.010  15.695  0.8339  1.5826  0.3726
  728TMC3    H110765   3.318   3.850  15.414  2.9392 -1.8436 -0.1645
  728TMC3    H210766   3.449   4.261  15.382 -0.3450 -0.0923 -0.7760
  728TMC3    C710767   3.318   4.052  15.255 -0.2436 -0.0785 -0.5906
  728TMC3    C810768   3.593   4.254  15.609  0.2599  0.1520  0.0688
  728TMC3    O110769   3.229   3.973  15.237  0.0198 -0.2623  0.5544
  728TMC3    O210770   3.620   4.247  15.728 -0.3657  0.4373  0.0690
  729MPD2     C10771   0.570   0.534  16.806  0.2390 -0.0911  0.7787
  729MPD2    C110772   0.634   0.417  16.784 -0.5516  0.1473  0.6145
  729MPD2    C210773   0.702   0.359  16.887 -0.2357  0.1807 -0.0642
  729MPD2    C310774   0.697   0.412  17.018  0.2353 -0.0548 -0.1778
  729MPD2    C410775   0.623   0.525  17.039  0.6742 -0.1301  0.1240
  729MPD2    C510776   0.559   0.584  16.930 -0.1889  0.5366  0.5807
  729MPD2     H10777   0.764   0.272  16.869 -3.1704 -2.0415  0.6178
  729MPD2    H110778   0.608   0.564  17.139  0.1508  0.1605 -0.0696
  729MPD2    H210779   0.512   0.585  16.730  0.9319 -1.4291 -0.6371
  729MPD2    H310780   0.500   0.671  16.956  1.5353  0.7777  3.7904
  729MPD2     N10781   0.774   0.350  17.116 -0.0125 -0.3698  0.2155
  729MPD2    H510782   0.824   0.264  17.093  0.2699 -0.1176 -0.1066
  729MPD2    N110783   0.635   0.372  16.650  0.1923  0.5196 -0.0217
  729MPD2    H710784   0.591   0.430  16.580 -0.1059  1.2401  0.7576
  730TMC3    C110785   0.900   0.336  17.319  0.0734  0.5714  0.2948
  730TMC3    C210786   0.987   0.254  17.247 -0.4417  0.1967 -0.2796
  730TMC3    C310787   1.116   0.276  17.220  0.0754  0.2657 -0.2612
  730TMC3    C410788   0.957   0.440  17.388  0.2192 -0.2591  0.3510
  730TMC3    C510789   1.092   0.453  17.376  0.3111 -0.0456 -0.0234
  730TMC3    C610790   1.177   0.375  17.295  0.5293  1.4733 -0.4685
  730TMC3     C10791   0.790   0.398  17.243 -0.5635  0.5964  0.0370
  730TMC3     O10792   0.750   0.497  17.308  0.5220 -0.2058  0.0768
  730TMC3     H10793   0.936   0.181  17.185  0.4325  0.3543 -1.1925
  730TMC3    H110794   0.906   0.510  17.453 -1.2548 -0.5906 -0.4553
  730TMC3    H210795   1.282   0.400  17.296  0.8354  0.1936 -0.6079
  730TMC3    C710796   1.145   0.593  17.385 -0.2412  0.8149  0.1097
  730TMC3    C810797   1.181   0.210  17.105 -0.4526  0.2309 -0.6040
  730TMC3    O110798   1.229   0.634  17.302  0.0819 -0.0391 -0.8298
  730TMC3    O210799   1.122   0.117  17.053  0.4359 -0.0272 -0.1414
  731MPD2     C10800   1.114   3.620  12.326  0.3799 -0.4311  0.1352
  731MPD2    C110801   1.053   3.507  12.288 -0.4456  0.2921 -0.6020
  731MPD2    C210802   0.972   3.440  12.381 -0.6156 -0.7639  0.3159
  731MPD2    C310803   0.966   3.490  12.515 -0.3363 -0.4752  0.4597
  731MPD2    C410804   1.027   3.609  12.543 -0.6574  0.4816 -0.0935
  731MPD2    C510805   1.103   3.674  12.453 -0.4202  0.1541 -0.2738
  731MPD2     H10806   0.916   3.352  12.353 -0.0498 -1.0834  0.1792
  731MPD2    H110807   1.023   3.638  12.647 -0.0980  1.2519 -0.2865
  731MPD2    H210808   1.183   3.665  12.255  0.9527 -0.0656  0.9242
  731MPD2    H310809   1.163   3.757  12.489 -0.8292 -0.0155  0.8223
  731MPD2     N10810   0.892   3.424  12.619  0.6139  0.0271  0.3043
  731MPD2    H510811   0.897   3.455  12.715 -1.5787 -0.6563  0.6444
  731MPD2    N110812   1.096   3.458  12.163  0.3198 -0.7225 -0.2707
  731MPD2    H710813   1.160   3.517  12.112 -1.1105  0.8176 -0.2865
  732TMC3    C110814   1.119   3.315  11.979 -0.3736  0.2487 -0.3578
  732TMC3    C210815   1.074   3.207  11.911  0.8540  0.5324  0.3028
  732TMC3    C310816   1.112   3.198  11.780 -0.1577 -0.6401 -0.2225
  732TMC3    C410817   1.237   3.377  11.939 -0.1062  0.0018 -0.3346
  732TMC3    C510818   1.278   3.351  11.812  0.1488  0.0074 -0.5570
  732TMC3    C610819   1.213   3.270  11.724 -0.1206 -0.0257  0.0327
  732TMC3     C10820   1.055   3.340  12.105  0.0374 -0.5342 -0.0756
  732TMC3     O10821   0.968   3.266  12.151  0.9790  0.3547 -0.1228
  732TMC3     H10822   0.997   3.142  11.949 -0.6716  1.5576 -1.0785
  732TMC3    H110823   1.292   3.449  11.999 -0.9001  1.6379 -1.5713
  732TMC3    H210824   1.244   3.259  11.621 -1.7337  2.2714 -0.7179
  732TMC3    C710825   1.405   3.389  11.774 -0.3456  0.4168 -0.5518
  732TMC3    C810826   1.062   3.092  11.697 -0.0769  1.0966  0.4227
  732TMC3    O110827   1.413   3.419  11.657  0.2130 -0.5231 -0.1391
  732TMC3    O210828   1.076   3.102  11.573 -0.5318 -0.3670  0.2571
  733TMC3    C110829   2.260   1.498  12.853 -0.0656 -0.1071  0.3655
  733TMC3    C210830   2.239   1.622  12.800  0.8170  0.4517  0.1597
  733TMC3    C310831   2.337   1.672  12.722 -0.4579  0.3255 -0.2800
  733TMC3    C410832   2.364   1.420  12.814  0.4194  0.2916  0.2481
  733TMC3    C510833   2.457   1.471  12.731  1.1571  0.2305  0.3805
  733TMC3    C610834   2.449   1.603  12.684  0.7021 -0.9490  0.1075
  733TMC3     C10835   2.151   1.429  12.917 -0.2442 -0.9479  0.8939
  733TMC3     O10836   2.181   1.362  13.016  0.5910  1.2739  0.0465
  733TMC3     H10837   2.146   1.675  12.815 -0.3618 -1.2643 -0.9210
  733TMC3    H110838   2.368   1.315  12.837 -0.1277  0.2665  0.2193
  733TMC3    H210839   2.533   1.652  12.638  0.3103  0.0371  0.4470
  733TMC3    C710840   2.552   1.381  12.669 -0.1309 -0.3822 -0.5331
  733TMC3    C810841   2.309   1.791  12.647  0.5423  0.4974 -0.4580
  733TMC3    O110842   2.586   1.281  12.727  0.1618  0.6364 -0.3915
  733TMC3    O210843   2.228   1.878  12.681  0.6794  0.4958 -0.1207
  734MPD2     C10844   4.339   3.401  12.521 -0.4343 -0.1050 -0.4761
  734MPD2    C110845   4.211   3.426  12.482 -0.2202  0.5580  0.0695
  734MPD2    C210846   4.176   3.549  12.426 -0.1245 -0.1788 -0.4402
  734MPD2    C310847   4.274   3.650  12.406  0.0248 -0.6496  0.0325
  734MPD2    C410848   4.403   3.614  12.434 -0.0972  0.4978  0.1547
  734MPD2    C510849   4.437   3.493  12.491  0.4462  0.4547 -0.3191
  734MPD2     H10850   4.074   3.569  12.393 -0.1448  2.7417  1.3758
  734MPD2    H110851   4.486   3.681  12.417 -0.2807  0.0198 -2.5144
  734MPD2    H210852   4.373   3.304  12.554 -0.9440 -0.0650  0.1736
  734MPD2    H310853   4.540   3.473  12.521 -0.0372  1.1171  1.7839
  734MPD2     N10854   4.235   3.760  12.325  0.1021 -0.4570 -0.9908
  734MPD2    H510855   4.135   3.763  12.304 -0.1012 -1.1936 -0.1068
  734MPD2    N110856   4.125   3.314  12.486 -0.3149  0.5494 -0.3980
  734MPD2    H710857   4.155   3.236  12.545  1.5118  1.1212 -0.5689
  735TMC3    C110858   3.936   3.183  12.420 -0.1924  0.6444 -0.1358
  735TMC3    C210859   3.814   3.186  12.344 -0.3807  1.0977 -0.1534
  735TMC3    C310860   3.800   3.089  12.242 -0.3053 -0.3735  0.1896
  735TMC3    C410861   4.026   3.078  12.402 -1.3612 -0.4038  0.5169
  735TMC3    C510862   4.001   2.980  12.309  0.7637 -0.2127  0.4873
  735TMC3    C610863   3.896   2.990  12.222  0.3350  0.1952  0.2909
  735TMC3     C10864   3.998   3.313  12.431 -0.0457 -0.4352 -0.1417
  735TMC3     O10865   3.943   3.399  12.366 -0.5324  0.2113  0.0014
  735TMC3     H10866   3.744   3.267  12.359 -2.5072 -0.9523  0.8577
  735TMC3    H110867   4.110   3.059  12.468  0.8770  2.8646 -1.3617
  735TMC3    H210868   3.885   2.920  12.141 -0.5555  1.6381 -0.8274
  735TMC3    C710869   4.123   2.906  12.265 -0.4898  0.2126 -0.4176
  735TMC3    C810870   3.760   3.148  12.111 -0.3426  0.4875 -0.0694
  735TMC3    O110871   4.229   2.965  12.281  0.5966  0.0320  0.0988
  735TMC3    O210872   3.724   3.082  12.013 -0.3786  0.0995 -0.2148
  736MPD2     C10873   4.152   2.555  12.156  0.2541 -0.0685 -0.0311
  736MPD2    C110874   4.187   2.689  12.163 -0.2536  0.4080 -0.4588
  736MPD2    C210875   4.305   2.729  12.099 -0.2483 -0.4412 -0.6752
  736MPD2    C310876   4.390   2.637  12.040  0.5224  0.6553  0.0537
  736MPD2    C410877   4.346   2.506  12.037 -0.0581 -1.0246  0.1008
  736MPD2    C510878   4.238   2.467  12.102 -0.1092  0.2846 -0.1675
  736MPD2     H10879   4.334   2.834  12.091 -0.7817 -0.2688 -0.3508
  736MPD2    H110880   4.402   2.422  11.998 -1.6583 -1.6732 -0.7736
  736MPD2    H210881   4.061   2.516  12.200 -1.9826  3.4437 -1.5598
  736MPD2    H310882   4.227   2.360  12.119  2.3669  0.1945  0.9522
  736MPD2     N10883   4.517   2.668  11.975 -0.4872 -0.2661 -0.6050
  736MPD2    H510884   4.565   2.583  11.949  2.2421  1.2586 -0.5296
  736MPD2    N110885   4.091   2.780  12.218 -0.5062 -0.7878 -0.6986
  736MPD2    H710886   3.995   2.750  12.224 -1.0198  1.2001  1.2368
  737TMC3    C110887   4.710   2.785  11.902  0.3056  0.4254 -0.7297
  737TMC3    C210888   0.064   2.894  11.926 -0.2605 -0.4386  0.1207
  737TMC3    C310889   0.168   2.913  11.841 -0.5138  0.4596 -0.1013
  737TMC3    C410890   0.011   2.687  11.809 -0.6869  0.2762 -0.1907
  737TMC3    C510891   0.126   2.709  11.736  0.0342  0.8749  0.1356
  737TMC3    C610892   0.208   2.818  11.753  0.1205  0.2504 -0.5070
  737TMC3     C10893   4.583   2.795  11.967 -0.0320  0.6471 -0.1311
  737TMC3     O10894   4.557   2.899  12.021  0.0068  0.2907 -0.4317
  737TMC3     H10895   0.036   2.977  11.989  1.9087 -0.5133  1.1667
  737TMC3    H110896   4.687   2.592  11.805 -0.9766  0.4029  0.5830
  737TMC3    H210897   0.296   2.827  11.690 -0.0740  2.7515 -0.4401
  737TMC3    C710898   0.148   2.617  11.626  0.5270 -0.7557  1.2412
  737TMC3    C810899   0.227   3.051  11.844  0.1695 -1.1417  0.7300
  737TMC3    O110900   0.119   2.503  11.654 -0.3694  0.1120 -0.1606
  737TMC3    O210901   0.218   3.123  11.941  0.3106 -0.4699  0.1329
  738MPD2     C10902   4.591   2.658  15.120 -0.6770 -0.4861  0.4284
  738MPD2    C110903   4.636   2.555  15.043  0.3673  0.4079  0.9815
  738MPD2    C210904   0.025   2.570  14.965 -0.1353  0.2401 -0.3912
  738MPD2    C310905   0.099   2.686  14.970 -0.2939 -0.0165 -0.0073
  738MPD2    C410906   0.057   2.788  15.051  0.5528 -0.0075  0.3320
  738MPD2    C510907   4.662   2.778  15.121  0.2068  0.4870 -0.7255
  738MPD2     H10908   0.067   2.481  14.920 -2.2817 -0.5416 -0.8568
  738MPD2    H110909   0.117   2.877  15.063 -0.9549  1.0761 -0.2445
  738MPD2    H210910   4.498   2.655  15.176 -1.4886 -0.6805 -0.9270
  738MPD2    H310911   4.633   2.854  15.193 -1.9279 -0.1905 -0.8576
  738MPD2     N10912   0.217   2.717  14.896  1.1834 -0.2968 -0.3203
  738MPD2    H510913   0.273   2.800  14.911  0.0414  0.5778 -0.9247
  738MPD2    N110914   4.579   2.423  15.052 -0.4993 -0.1388  0.2055
  738MPD2    H710915   4.594   2.365  14.970  1.6924  0.6048  0.0887
  739TMC3    C110916   0.372   2.684  14.741  1.0324 -0.4565 -0.2512
  739TMC3    C210917   0.377   2.656  14.607 -0.1687 -0.5537 -0.0761
  739TMC3    C310918   0.502   2.633  14.553 -0.3816  0.0088  0.7934
  739TMC3    C410919   0.487   2.695  14.823  0.4922 -1.1747  0.7857
  739TMC3    C510920   0.608   2.688  14.763  0.4447  0.0013 -0.5601
  739TMC3    C610921   0.617   2.649  14.627  0.0957  0.2634  0.0998
  739TMC3     C10922   0.260   2.625  14.803  0.4424 -0.1000  0.1356
  739TMC3     O10923   0.212   2.523  14.752 -0.3479 -0.0990  0.1573
  739TMC3     H10924   0.289   2.646  14.545 -0.6175  1.0077  0.3118
  739TMC3    H110925   0.490   2.715  14.929  2.6932 -1.4140  0.7765
  739TMC3    H210926   0.707   2.635  14.569 -0.1913  0.9738 -0.5235
  739TMC3    C710927   0.717   2.657  14.852  0.0703  0.4151 -0.5840
  739TMC3    C810928   0.504   2.596  14.413  0.6095  0.2562 -0.2391
  739TMC3    O110929   0.686   2.632  14.970  0.2826 -0.2731 -0.0183
  739TMC3    O210930   0.402   2.633  14.362 -0.0520  0.7156 -0.0110
  740TMC3    C110931   0.671   3.951  14.240  0.0292 -0.5152 -0.3978
  740TMC3    C210932   0.736   3.917  14.357 -0.4358 -0.1466 -0.4562
  740TMC3    C310933   0.848   3.844  14.348 -0.7197 -0.1022 -0.5078
  740TMC3    C410934   0.725   3.922  14.117  0.4176  0.1325  0.8997
  740TMC3    C510935   0.846   3.858  14.110  0.0384 -0.8111  0.2044
  740TMC3    C610936   0.899   3.811  14.222 -0.7079  0.2288  0.8021
  740TMC3     C10937   0.535   4.007  14.246  0.7958 -0.7253  0.7151
  740TMC3     O10938   0.503   4.094  14.166  0.0458 -0.6122 -0.2327
  740TMC3     H10939   0.699   3.935  14.457  1.1621 -1.7990  0.4294
  740TMC3    H110940   0.668   3.943  14.027  1.3261  1.2105  0.5778
  740TMC3    H210941   1.001   3.775  14.225  0.1699  2.7347  0.6600
  740TMC3    C710942   0.913   3.808  13.995 -0.2403  0.1377  0.4119
  740TMC3    C810943   0.906   3.795  14.475  0.2741 -0.4977  0.6718
  740TMC3    O110944   0.985   3.708  14.012 -0.2476  0.2744  0.4792
  740TMC3    O210945   0.886   3.868  14.572  0.3018  0.1514 -0.3503
  741TMC3    C110946   0.422   2.877  13.922 -0.5650 -0.2335 -0.3212
  741TMC3    C210947   0.294   2.874  13.978 -0.4598  0.5706 -0.1564
  741TMC3    C310948   0.280   2.877  14.113  0.4433  0.0006  0.3323
  741TMC3    C410949   0.535   2.880  14.001  0.2438 -0.2114  0.4634
  741TMC3    C510950   0.511   2.872  14.138  0.6177 -0.3558 -0.0226
  741TMC3    C610951   0.391   2.879  14.195  0.1698  0.3358  0.5008
  741TMC3     C10952   0.437   2.926  13.780 -0.1970  0.4060 -0.1556
  741TMC3     O10953   0.555   2.958  13.758  0.2145  0.0171  0.2368
  741TMC3     H10954   0.203   2.867  13.920 -0.8114  0.3201  0.4283
  741TMC3    H110955   0.634   2.895  13.962 -0.1584  0.8042 -0.1702
  741TMC3    H210956   0.377   2.869  14.302 -2.2297 -0.4170  0.1247
  741TMC3    C710957   0.614   2.899  14.231 -0.3627  0.4914 -0.4123
  741TMC3    C810958   0.147   2.855  14.172  0.3704  0.0114  0.4893
  741TMC3    O110959   0.582   2.946  14.341 -0.2803  0.3695  0.9804
  741TMC3    O210960   0.052   2.907  14.114  0.5272  0.0613 -0.0739
  742TMC3    C110961   0.248   2.018  15.196 -0.4366 -0.1235 -0.7127
  742TMC3    C210962   0.211   1.973  15.071 -0.4750 -0.9960  0.1620
  742TMC3    C310963   0.277   1.868  15.012  0.4393  0.1352 -0.1615
  742TMC3    C410964   0.363   1.968  15.255  0.3170  0.0077  0.1148
  742TMC3    C510965   0.435   1.872  15.188 -0.1866 -0.3309  0.3041
  742TMC3    C610966   0.396   1.824  15.067  0.2830 -0.4997 -0.6607
  742TMC3     C10967   0.179   2.138  15.239 -0.0137  0.1943 -0.1424
  742TMC3     O10968   0.109   2.189  15.158 -0.3080 -0.4017  0.5921
  742TMC3     H10969   0.107   1.988  15.042 -0.0573 -1.0913 -1.3549
  742TMC3    H110970   0.401   2.018  15.344 -0.3382  1.0692 -0.1900
  742TMC3    H210971   0.441   1.732  15.034  2.1225  0.3992 -0.6832
  742TMC3    C710972   0.545   1.808  15.261 -0.3224 -0.3384 -0.9071
  742TMC3    C810973   0.227   1.802  14.893  0.3382  0.5857 -0.1259
  742TMC3    O110974   0.627   1.744  15.189 -0.6526  0.3698  0.5899
  742TMC3    O210975   0.230   1.681  14.872  0.2988  0.0892 -0.4998
  743MPD2     C10976   1.797   2.374   0.724 -0.3633 -0.0424 -0.3061
  743MPD2    C110977   1.909   2.446   0.764 -0.2033 -0.3509 -0.2808
  743MPD2    C210978   2.032   2.383   0.766  0.3643  0.2195  0.5301
  743MPD2    C310979   2.055   2.254   0.715  0.6090  0.8426 -0.2127
  743MPD2    C410980   1.940   2.182   0.685  0.3395 -0.6905  0.3280
  743MPD2    C510981   1.818   2.245   0.690  0.3023 -1.0230  0.3171
  743MPD2     H10982   2.113   2.443   0.806  0.2488  2.7074 -2.9998
  743MPD2    H110983   1.941   2.076   0.662 -2.6274 -1.0564  1.8888
  743MPD2    H210984   1.692   2.400   0.724 -0.7715 -1.6982  0.7437
  743MPD2    H310985   1.737   2.190   0.643 -1.8067  0.2680  2.3959
  743MPD2     N10986   2.183   2.206   0.704 -0.7386 -0.2366 -0.5961
  743MPD2    H510987   2.254   2.272   0.735 -0.7026 -1.0638  1.0885
  743MPD2    N110988   1.902   2.583   0.790  0.1934  0.1056 -0.0128
  743MPD2    H710989   1.983   2.628   0.830  0.0332  0.2317  0.1701
  744TMC3    C110990   1.809   2.774   0.883  0.3601  1.1367 -0.4737
  744TMC3    C210991   1.695   2.838   0.924  0.3608 -0.7449  0.7103
  744TMC3    C310992   1.705   2.943   1.020  0.1278  0.0884 -0.9042
  744TMC3    C410993   1.937   2.810   0.926 -0.0158 -1.0309 -0.3585
  744TMC3    C510994   1.937   2.921   1.013 -0.5191  0.3215  0.2707
  744TMC3    C610995   1.825   2.986   1.066 -0.2355  0.1740 -0.5096
  744TMC3     C10996   1.785   2.654   0.805 -0.2053 -0.7735  0.1928
  744TMC3     O10997   1.670   2.613   0.797 -0.1843  0.0477 -0.4578
  744TMC3     H10998   1.603   2.803   0.880  0.5422 -1.2673  0.7447
  744TMC3    H110999   2.033   2.765   0.908  0.3913  0.4498 -1.9124
  744TMC3    H211000   1.844   3.069   1.134 -2.1476 -0.5545  0.9286
  744TMC3    C711001   2.063   2.952   1.080 -0.2357 -0.1040  0.0553
  744TMC3    C811002   1.596   3.037   1.040  0.0371 -0.2489  0.5050
  744TMC3    O111003   2.055   2.976   1.201  0.6792  0.6887 -0.3946
  744TMC3    O211004   1.627   3.136   1.105  0.4480  0.1082 -0.6174
  745TMC3    C111005   0.950   1.419  13.521 -0.1183  0.3396  0.2364
  745TMC3    C211006   0.877   1.371  13.627 -0.2922 -0.7667  0.1978
  745TMC3    C311007   0.746   1.337  13.600 -0.7369 -0.6867 -0.0498
  745TMC3    C411008   0.903   1.421  13.394 -0.0343  0.0931 -0.5547
  745TMC3    C511009   0.783   1.364  13.373 -0.3996  0.1141 -0.1042
  745TMC3    C611010   0.693   1.335  13.476  0.2443 -0.1053  0.2650
  745TMC3     C11011   1.078   1.480  13.549 -0.1977 -0.4548  0.3727
  745TMC3     O11012   1.144   1.431  13.637  0.9297  0.0265 -0.2709
  745TMC3     H11013   0.925   1.331  13.716  1.0391  2.7790  1.0695
  745TMC3    H111014   0.973   1.455  13.319 -1.1710  0.2991 -1.5338
  745TMC3    H211015   0.599   1.281  13.468  1.5067 -2.2698  0.1525
  745TMC3    C711016   0.713   1.391  13.247  0.4374  0.1754  0.1773
  745TMC3    C811017   0.654   1.360  13.711 -0.1078  0.3234  0.4318
  745TMC3    O111018   0.598   1.435  13.251 -0.6588 -0.3198 -0.0600
  745TMC3    O211019   0.536   1.353  13.681  0.2406 -0.4177 -0.0637
  746TMC3    C111020   2.938   3.445  10.833 -0.1443 -0.7138  0.0776
  746TMC3    C211021   3.054   3.397  10.774 -0.1320  0.3826 -0.6408
  746TMC3    C311022   3.046   3.284  10.692  0.1498  0.4019  0.2503
  746TMC3    C411023   2.821   3.376  10.817  0.1036  0.3638 -0.6128
  746TMC3    C511024   2.821   3.259  10.756 -0.3888 -0.5658  0.0585
  746TMC3    C611025   2.933   3.210  10.684 -0.0651 -0.0645 -0.0641
  746TMC3     C11026   2.941   3.532  10.946 -0.4771  0.6230  0.7926
  746TMC3     O11027   2.861   3.512  11.033 -0.5508 -0.1093 -0.4184
  746TMC3     H11028   3.149   3.439  10.804 -1.1246  2.4371 -0.4141
  746TMC3    H111029   2.735   3.405  10.877  1.1313  1.9677  0.0894
  746TMC3    H211030   2.938   3.114  10.634 -0.8591  0.0730 -0.4248
  746TMC3    C711031   2.704   3.190  10.778 -0.3365 -0.4288  0.2151
  746TMC3    C811032   3.155   3.247  10.601  0.2734  0.5894  0.0730
  746TMC3    O111033   2.600   3.258  10.772 -0.3078  0.2173 -0.2109
  746TMC3    O211034   3.153   3.144  10.536  0.5288 -0.4507 -0.1579
  747TMC3    C111035   0.651   2.796  10.677 -0.2259 -0.2682  0.5056
  747TMC3    C211036   0.592   2.701  10.746  0.4857  0.5011 -0.6205
  747TMC3    C311037   0.559   2.728  10.877  0.7671 -1.3722 -0.0419
  747TMC3    C411038   0.704   2.910  10.730 -0.5052 -0.8045  0.0665
  747TMC3    C511039   0.671   2.931  10.859  0.5904 -0.0334  0.3028
  747TMC3    C611040   0.601   2.837  10.938  0.5250 -0.2023  0.4428
  747TMC3     C11041   0.680   2.784  10.533  0.1973 -0.6544  0.2147
  747TMC3     O11042   0.703   2.888  10.473 -0.1017  0.3241  0.2607
  747TMC3     H11043   0.542   2.615  10.701  0.1696  0.3936 -0.0629
  747TMC3    H111044   0.753   2.980  10.664 -1.5719  0.5582  0.7224
  747TMC3    H211045   0.589   2.843  11.045 -1.0982  0.4697  0.2204
  747TMC3    C711046   0.729   3.039  10.930 -0.7705 -0.1081 -0.8249
  747TMC3    C811047   0.458   2.634  10.939  0.3789  0.0358  0.3536
  747TMC3    O111048   0.702   3.049  11.049  0.0478 -0.0851 -0.1159
  747TMC3    O211049   0.420   2.532  10.876 -0.5159 -0.0487 -0.2353
  748MPD2     C11050   1.432   4.500   1.288 -0.1344  0.7012 -1.0030
  748MPD2    C111051   1.507   4.598   1.358  0.4623  0.0788 -0.0893
  748MPD2    C211052   1.648   4.608   1.341  0.1419 -0.3109 -0.0988
  748MPD2    C311053   1.715   4.525   1.250 -0.0008 -0.0629  0.3166
  748MPD2    C411054   1.636   4.442   1.168  0.6795 -0.3237  0.5721
  748MPD2    C511055   1.503   4.420   1.193  0.0706 -0.2079 -0.2718
  748MPD2     H11056   1.704   4.682   1.396 -0.2609 -0.8589  1.0663
  748MPD2    H111057   1.675   4.381   1.087 -0.3527  0.2309 -0.3522
  748MPD2    H211058   1.326   4.491   1.306  0.4856 -1.1515  1.8041
  748MPD2    H311059   1.445   4.356   1.128 -0.1979 -0.6742  0.4139
  748MPD2     N11060   1.855   4.536   1.240  0.1415 -0.1446  0.0222
  748MPD2    H511061   1.895   4.607   1.301 -0.1480  0.2443 -0.2467
  748MPD2    N111062   1.426   4.673   1.447 -0.2304  0.2915 -0.0640
  748MPD2    H711063   1.325   4.660   1.448  0.0391 -1.6402  0.9637
  749TMC3    C111064   2.065   4.535   1.163  1.0902 -0.7000  0.5234
  749TMC3    C211065   2.123   4.555   1.286 -0.2000 -0.0327  0.1291
  749TMC3    C311066   2.259   4.575   1.288  0.4085  0.4815  0.2854
  749TMC3    C411067   2.119   4.560   1.043  0.3355 -0.2674  0.0080
  749TMC3    C511068   2.254   4.589   1.056 -0.3903 -0.2369  0.3660
  749TMC3    C611069   2.325   4.593   1.173 -0.3371 -0.8816  0.0929
  749TMC3     C11070   1.937   4.480   1.150  0.6453  0.0479  0.0253
  749TMC3     O11071   1.915   4.403   1.062  0.4592  0.5163 -0.0136
  749TMC3     H11072   2.069   4.517   1.372 -2.2734  0.8927 -0.7683
  749TMC3    H111073   2.065   4.556   0.950  2.3136 -3.8928 -1.0082
  749TMC3    H211074   2.433   4.601   1.167 -0.6175  2.2833 -0.8895
  749TMC3    C711075   2.321   4.642   0.932 -0.8631 -0.8901 -0.0391
  749TMC3    C811076   2.325   4.549   1.403  0.3925  0.7546 -0.9552
  749TMC3    O111077   2.395   0.007   0.956 -0.1637  0.1514  0.4824
  749TMC3    O211078   2.280   4.572   1.513  0.0419  0.3171 -0.3147
  750MPD2     C11079   3.617   0.444  11.648 -0.6196 -0.0579  0.0379
  750MPD2    C111080   3.485   0.402  11.635 -0.2050  0.2403 -0.2863
  750MPD2    C211081   3.455   0.273  11.662 -0.0294  0.1917 -0.5354
  750MPD2    C311082   3.560   0.179  11.694  0.4918  0.0598 -0.3743
  750MPD2    C411083   3.693   0.226  11.699 -0.0141 -0.1141 -0.1282
  750MPD2    C511084   3.718   0.356  11.680  0.4810  0.1788  0.4685
  750MPD2     H11085   3.356   0.230  11.656 -0.1986  0.5488 -0.2748
  750MPD2    H111086   3.778   0.160  11.706  0.3400  0.3377 -0.1276
  750MPD2    H211087   3.639   0.547  11.625  0.6206 -0.4849 -0.6833
  750MPD2    H311088   3.820   0.391  11.691  0.8960 -1.1452  0.8167
  750MPD2     N11089   3.530   0.042  11.729 -0.4847  0.2519 -0.0038
  750MPD2    H511090   3.608   4.708  11.750  0.3531  0.5387 -2.1745
  750MPD2    N111091   3.390   0.491  11.582 -0.0008  0.1710  0.0706
  750MPD2    H711092   3.410   0.587  11.555  1.5911  0.1094  1.0151
  751TMC3    C111093   3.423   4.572  11.784 -0.3678 -0.1092 -0.1707
  751TMC3    C211094   3.308   4.510  11.827  0.0686 -0.4422  0.1336
  751TMC3    C311095   3.306   4.379  11.804  0.8374 -0.1002  1.0154
  751TMC3    C411096   3.518   4.503  11.706  0.2499  0.1241 -0.0796
  751TMC3    C511097   3.498   4.375  11.672  0.0935 -0.7721  0.1036
  751TMC3    C611098   3.390   4.308  11.724 -0.1040  0.1556 -0.0708
  751TMC3     C11099   3.407   4.717  11.755 -0.1380 -0.2334 -0.7873
  751TMC3     O11100   3.295   0.034  11.744  0.1263  0.1719  0.0512
  751TMC3     H11101   3.226   4.561  11.876 -1.7897 -1.7050 -1.6736
  751TMC3    H111102   3.594   4.558  11.651  2.6561 -1.1316  1.9912
  751TMC3    H211103   3.371   4.205  11.696  1.4350  0.2251 -1.4022
  751TMC3    C711104   3.571   4.326  11.556  0.6847  0.3903 -0.4441
  751TMC3    C811105   3.196   4.301  11.859 -0.8859 -0.4141 -0.9159
  751TMC3    O111106   3.599   4.412  11.472  0.0997 -0.2949  0.3688
  751TMC3    O211107   3.159   4.322  11.972  0.5087 -0.3327 -0.1189
  752TMC3    C111108   1.230   4.392  17.015  0.3780  0.0522 -0.2530
  752TMC3    C211109   1.096   4.390  17.003  0.3130 -0.3338  0.4844
  752TMC3    C311110   1.020   4.471  17.086  0.2624 -0.2077 -0.0347
  752TMC3    C411111   1.281   4.463  17.120 -0.7260 -0.7949  0.7206
  752TMC3    C511112   1.214   4.549  17.196  0.1618  0.3965  0.3531
  752TMC3    C611113   1.076   4.550  17.187 -0.0838  0.2609  0.3686
  752TMC3     C11114   1.289   4.411  16.884  0.7518 -0.8427 -0.8313
  752TMC3     O11115   1.411   4.394  16.866  0.7717 -0.4605 -0.3674
  752TMC3     H11116   1.049   4.321  16.934  0.9397 -1.0452  0.7751
  752TMC3    H111117   1.390   4.462  17.124 -0.6711 -0.0429 -0.5496
  752TMC3    H211118   1.011   4.613  17.246  2.6345  2.2237  1.2383
  752TMC3    C711119   1.282   4.649  17.273 -0.4209 -0.0623  0.2105
  752TMC3    C811120   0.904   4.531  17.019 -0.2261 -0.2651  0.2131
  752TMC3    O111121   1.399   4.661  17.248 -0.8909  0.1241 -0.0412
  752TMC3    O211122   0.900   4.527  16.897  0.0683 -0.0408  0.0522
  753TMC3    C111123   4.115   1.205  13.175  0.3955 -0.4689 -0.6202
  753TMC3    C211124   4.083   1.245  13.296  1.0778 -0.4848  0.1516
  753TMC3    C311125   3.993   1.167  13.365  0.6863 -0.1765 -0.0349
  753TMC3    C411126   4.079   1.083  13.130 -0.1653  0.2431  0.5285
  753TMC3    C511127   4.007   0.998  13.210  0.2322 -0.3975  0.5324
  753TMC3    C611128   3.959   1.039  13.332 -0.1821  0.5151  0.1451
  753TMC3     C11129   4.163   1.307  13.075  0.5477 -0.4770  0.6634
  753TMC3     O11130   4.125   1.423  13.098 -0.3293 -0.1043 -0.0936
  753TMC3     H11131   4.113   1.343  13.330  4.7804 -1.1691 -1.0134
  753TMC3    H111132   4.088   1.059  13.025 -0.9723 -0.4664  0.6198
  753TMC3    H211133   3.883   0.978  13.379 -1.9006  1.8085 -0.9859
  753TMC3    C711134   3.938   0.888  13.144 -0.4609  0.3140  0.0353
  753TMC3    C811135   3.986   1.204  13.503  0.1381  0.6861  0.3966
  753TMC3    O111136   3.877   0.914  13.040 -0.3671 -0.5355 -0.0495
  753TMC3    O211137   3.970   1.323  13.516 -0.2798 -1.2945  0.3437
  754MPD2     C11138   2.998   0.224  13.040 -0.0789  0.0016 -0.6182
  754MPD2    C111139   3.001   0.092  13.056  0.2794 -0.7791 -0.1591
  754MPD2    C211140   2.878   0.023  13.043 -0.0659  0.2105  0.5514
  754MPD2    C311141   2.760   0.099  13.041  0.5595 -0.0702 -0.6824
  754MPD2    C411142   2.763   0.234  13.023 -0.6810  0.4398 -0.0245
  754MPD2    C511143   2.885   0.298  13.020  0.0763  0.1470 -0.1592
  754MPD2     H11144   2.894   4.644  13.038  0.4601  0.3106  0.0360
  754MPD2    H111145   2.672   0.292  13.019 -1.2885 -0.4602  0.6147
  754MPD2    H211146   3.088   0.284  13.030 -1.9452  2.9288  0.0880
  754MPD2    H311147   2.903   0.405  13.010 -0.1512  0.0689 -1.4440
  754MPD2     N11148   2.630   0.042  13.065  0.2975 -0.1900 -0.6715
  754MPD2    H511149   2.551   0.106  13.061  1.5832  1.5816  2.4633
  754MPD2    N111150   3.130   0.036  13.085 -0.1457 -0.4820 -0.0734
  754MPD2    H711151   3.212   0.095  13.072  2.4234 -3.3916  2.9135
  755MPD2     C11152   1.853   0.412  13.081  0.0473 -0.3772 -0.1034
  755MPD2    C111153   1.869   0.335  13.193 -0.2466 -0.4373 -0.3015
  755MPD2    C211154   1.963   0.233  13.194  0.4682  0.7132 -0.0843
  755MPD2    C311155   2.036   0.205  13.076  0.3590  1.3436  0.3698
  755MPD2    C411156   2.009   0.279  12.963 -0.3029  0.5321  0.1357
  755MPD2    C511157   1.915   0.380  12.962 -0.1542  0.8136  0.1049
  755MPD2     H11158   1.981   0.176  13.284  0.9592 -0.2165 -0.7738
  755MPD2    H111159   2.063   0.253  12.873  0.5745  0.0498  0.8113
  755MPD2    H211160   1.778   0.490  13.076  1.9634  1.4816  0.4367
  755MPD2    H311161   1.900   0.431  12.868  0.1372 -0.2304 -0.5121
  755MPD2     N11162   2.129   0.096  13.065  0.3694 -0.1409 -0.0543
  755MPD2    H511163   2.187   0.086  12.982  1.3939 -3.2010  1.0466
  755MPD2    N111164   1.812   0.369  13.319  0.1753  0.7879 -0.2353
  755MPD2    H711165   1.854   0.313  13.391 -0.8795  0.2185 -0.0608
  756MPD2     C11166   3.079   0.745   9.717 -0.8427  0.0872  0.4236
  756MPD2    C111167   3.177   0.691   9.798  0.0576 -0.0685 -0.3408
  756MPD2    C211168   3.301   0.657   9.740 -0.2022 -0.4450 -0.1741
  756MPD2    C311169   3.324   0.651   9.604 -0.1681 -1.0039  0.4945
  756MPD2    C411170   3.222   0.692   9.523 -0.4223 -0.1729  0.6071
  756MPD2    C511171   3.107   0.746   9.581 -0.3387  0.0018  0.0989
  756MPD2     H11172   3.375   0.609   9.802 -0.3297 -1.8176 -1.0810
  756MPD2    H111173   3.227   0.692   9.415  2.5378 -0.4393  0.7605
  756MPD2    H211174   2.987   0.789   9.754 -0.7702  0.2429  0.4207
  756MPD2    H311175   3.027   0.779   9.515 -0.2662  2.1264  1.0550
  756MPD2     N11176   3.432   0.576   9.560 -0.5030  0.1356 -0.0735
  756MPD2    H511177   3.499   0.542   9.628 -1.3048  0.9068  1.1012
  756MPD2    N111178   3.158   0.666   9.938  0.2051 -0.7184  0.1438
  756MPD2    H711179   3.240   0.651   9.995  0.2714 -0.7614  0.0366
  757MPD2     C11180   3.570   4.383   9.887 -0.5583 -0.0921  0.4302
  757MPD2    C111181   3.668   4.378   9.793  0.2408  0.0771 -0.2765
  757MPD2    C211182   3.702   4.493   9.722  0.4420  0.6047 -0.1978
  757MPD2    C311183   3.645   4.612   9.761  0.1250 -0.2671 -0.4560
  757MPD2    C411184   3.571   4.622   9.870  0.7986 -0.5223 -0.1159
  757MPD2    C511185   3.534   4.512   9.933 -0.6731 -0.2489  0.6819
  757MPD2     H11186   3.772   4.494   9.640 -0.5262  2.5283 -1.0007
  757MPD2    H111187   3.544   4.717   9.914  0.6351 -0.4748 -0.3201
  757MPD2    H211188   3.530   4.296   9.937 -0.5936  0.4463  1.3353
  757MPD2    H311189   3.475   4.528  10.022  0.3496  0.1255  1.2751
  757MPD2     N11190   3.665   4.725   9.678 -0.1307  0.4337 -0.2945
  757MPD2    H511191   3.731   4.716   9.602 -1.6724 -0.6925 -1.4908
  757MPD2    N111192   3.715   4.251   9.754 -0.7891 -0.3743 -0.0316
  757MPD2    H711193   3.661   4.169   9.781  1.0667 -1.3203  0.7665
  758MPD2     C11194   2.641   3.996  15.879 -0.8767  0.0820  0.9151
  758MPD2    C111195   2.732   4.090  15.932  0.4086 -0.4919  0.0018
  758MPD2    C211196   2.685   4.189  16.015  0.7560  0.2942 -0.3290
  758MPD2    C311197   2.553   4.199  16.046 -0.0804  0.3419  0.0219
  758MPD2    C411198   2.464   4.104  16.004 -0.6350  0.5142  0.1423
  758MPD2    C511199   2.506   4.008  15.913  0.0685 -0.0065 -0.2861
  758MPD2     H11200   2.763   4.259  16.045 -0.0336 -0.2688  3.0388
  758MPD2    H111201   2.360   4.118  16.031 -0.5433  0.1649  0.6887
  758MPD2    H211202   2.681   3.918  15.815  1.4920  2.8641 -0.9754
  758MPD2    H311203   2.440   3.928  15.881  1.5226 -0.6593 -1.6750
  758MPD2     N11204   2.505   4.304  16.131 -0.2521 -0.0143  0.2438
  758MPD2    H511205   2.406   4.299  16.151 -0.5826 -1.2012 -1.6634
  758MPD2    N111206   2.866   4.068  15.904  0.1892  0.2006  0.3104
  758MPD2    H711207   2.884   3.999  15.832 -2.7155  0.9232 -1.0677
  759MPD2     C11208   1.386   2.529  10.232 -0.1182 -0.1618  0.7656
  759MPD2    C111209   1.423   2.394  10.249 -0.3404  0.4037 -0.4959
  759MPD2    C211210   1.535   2.352  10.192  0.3909 -0.9939 -0.2619
  759MPD2    C311211   1.611   2.442  10.108  0.5054  0.6954  0.3504
  759MPD2    C411212   1.566   2.569  10.080 -0.6972 -0.2460  0.0412
  759MPD2    C511213   1.455   2.617  10.147 -0.3004 -0.2271  0.3117
  759MPD2     H11214   1.565   2.248  10.202  0.1556 -0.9113  1.2092
  759MPD2    H111215   1.627   2.617  10.005  1.6575 -2.9199  0.2087
  759MPD2    H211216   1.297   2.567  10.282  0.0497  0.7279  0.3998
  759MPD2    H311217   1.411   2.715  10.135  0.3570  0.3774  2.9382
  759MPD2     N11218   1.738   2.396  10.059  0.5566 -0.4456 -0.5213
  759MPD2    H511219   1.772   2.312  10.104 -0.4728 -0.3910  0.3616
  759MPD2    N111220   1.346   2.296  10.317 -0.1348 -0.2755 -0.6041
  759MPD2    H711221   1.394   2.208  10.336  0.0052 -0.0978 -0.1140
  760MPD2     C11222   1.069   0.227  12.018  0.1583  0.0282 -0.7277
  760MPD2    C111223   1.210   0.216  12.024  0.9212  0.1835 -0.1972
  760MPD2    C211224   1.272   0.139  12.122  0.1202  0.7735 -0.4772
  760MPD2    C311225   1.193   0.079  12.217 -0.2681  0.3374  0.9558
  760MPD2    C411226   1.057   0.082  12.210  0.6830  0.0498  0.0742
  760MPD2    C511227   1.000   0.151  12.108 -0.0819 -0.4514  0.0178
  760MPD2     H11228   1.378   0.119  12.114 -0.4892 -2.0110 -1.6738
  760MPD2    H111229   0.994   0.030  12.282  0.3459 -0.0247 -0.2792
  760MPD2    H211230   1.011   0.284  11.946  0.3114  3.5947  2.0139
  760MPD2    H311231   0.892   0.143  12.109 -0.1956  0.9021 -0.5792
  760MPD2     N11232   1.248   0.019  12.332 -0.4237  0.4308  0.3542
  760MPD2    H511233   1.186   4.695  12.393 -0.9893  1.7357  0.8806
  760MPD2    N111234   1.296   0.279  11.926 -0.3038 -0.3367 -0.9194
  760MPD2    H711235   1.390   0.241  11.933  0.1551  0.8764 -0.4312
  761MPD2     C11236   2.785   4.006  11.753 -0.0889 -0.1599  0.1051
  761MPD2    C111237   2.852   4.046  11.641 -0.1410 -0.2257 -0.5342
  761MPD2    C211238   2.974   4.113  11.651 -0.5829 -0.0586 -0.0681
  761MPD2    C311239   3.034   4.138  11.768 -0.1950  0.1522 -0.4676
  761MPD2    C411240   2.972   4.093  11.881 -0.4840 -0.8263  0.8004
  761MPD2    C511241   2.851   4.027  11.877 -0.3006  0.0708  0.0030
  761MPD2     H11242   3.023   4.159  11.567  0.6552 -0.7845  0.2673
  761MPD2    H111243   3.019   4.112  11.977 -0.4860 -2.9181  1.2294
  761MPD2    H211244   2.688   3.958  11.747  1.0070 -2.4429  0.6440
  761MPD2    H311245   2.817   3.993  11.974  3.4245  0.0342  1.2984
  761MPD2     N11246   3.151   4.211  11.763  0.0813 -0.0847 -0.0918
  761MPD2    H511247   3.197   4.210  11.673 -2.1768  2.2337 -1.2605
  761MPD2    N111248   2.788   4.031  11.512  0.3907  0.2690 -0.0701
  761MPD2    H711249   2.696   3.989  11.509  0.8828 -0.8467  0.1272
  762MPD2     C11250   3.219   4.236  11.087  0.2843  0.0009  0.5211
  762MPD2    C111251   3.152   4.144  11.009  1.1082  0.4865  0.3228
  762MPD2    C211252   3.217   4.090  10.893  0.1526 -0.5908 -0.6817
  762MPD2    C311253   3.340   4.144  10.854  1.0414 -0.5222  0.6268
  762MPD2    C411254   3.399   4.235  10.935  0.4325 -0.5875  0.0022
  762MPD2    C511255   3.336   4.278  11.052 -0.2153 -0.7668  0.4292
  762MPD2     H11256   3.163   4.013  10.839 -1.6685  0.0563  0.2158
  762MPD2    H111257   3.502   4.263  10.919  0.3807 -1.2335 -1.4431
  762MPD2    H211258   3.177   4.259  11.185  1.1448 -1.0027  1.1361
  762MPD2    H311259   3.386   4.352  11.114 -1.0990  0.3214 -0.1707
  762MPD2     N11260   3.414   4.080  10.740  0.2983  0.6201  0.4629
  762MPD2    H511261   3.372   4.003  10.688  0.4209  0.0372  1.2162
  762MPD2    N111262   3.020   4.108  11.042  0.2638 -0.4725 -0.1291
  762MPD2    H711263   2.994   4.139  11.135  1.2932 -0.7623  0.2533
  763MPD2     C11264   4.135   4.589  16.350  0.3990 -0.4805  0.3765
  763MPD2    C111265   4.198   4.638  16.236 -0.7844  0.5009  0.4341
  763MPD2    C211266   4.235   0.038  16.239  0.9488  0.6376  0.4110
  763MPD2    C311267   4.215   0.116  16.351 -0.4862 -0.0472 -0.9059
  763MPD2    C411268   4.164   0.058  16.471 -1.5776  0.5669 -0.2656
  763MPD2    C511269   4.117   4.656  16.467  0.1054 -0.0746  0.2254
  763MPD2     H11270   4.286   0.081  16.154 -2.3910 -1.2256 -2.5197
  763MPD2    H111271   4.139   0.112  16.561  0.1432  0.0987  0.4877
  763MPD2    H211272   4.084   4.494  16.341 -1.4733  0.7778 -2.0522
  763MPD2    H311273   4.061   4.614  16.550 -0.8821 -1.3896 -1.1200
  763MPD2     N11274   4.258   0.245  16.370  0.6425  0.2144  0.0672
  763MPD2    H511275   4.267   0.283  16.463 -0.4029 -0.1577  0.3294
  763MPD2    N111276   4.219   4.560  16.117 -0.0984 -0.1945  0.4919
  763MPD2    H711277   4.258   4.604  16.035  3.0300  0.1798  2.1871
  764MPD2     C11278   2.489   1.667  16.800  0.6606 -0.6720  0.3625
  764MPD2    C111279   2.453   1.536  16.762 -0.0012  0.6803 -0.4027
  764MPD2    C211280   2.488   1.433  16.851 -0.1970  1.0864  0.2500
  764MPD2    C311281   2.553   1.459  16.972  0.2498  1.3249  0.5958
  764MPD2    C411282   2.590   1.585  17.003  0.2552  0.1025  0.6101
  764MPD2    C511283   2.550   1.685  16.921 -0.1683  0.2585 -0.1446
  764MPD2     H11284   2.453   1.336  16.816 -1.2425  1.4256  0.3605
  764MPD2    H111285   2.622   1.612  17.104 -0.1510  1.1860  0.4524
  764MPD2    H211286   2.472   1.757  16.743 -1.5726 -1.2856  0.0417
  764MPD2    H311287   2.578   1.784  16.954  0.6020  0.8685 -2.5968
  764MPD2     N11288   2.574   1.348  17.059 -0.3547  0.0459 -0.1653
  764MPD2    H511289   2.549   1.255  17.027 -1.2004 -0.6842  2.6020
  764MPD2    N111290   2.381   1.512  16.642 -0.4809 -0.3365 -0.0282
  764MPD2    H711291   2.365   1.417  16.612  1.5429 -1.6517  3.1129
  765MPD2     C11292   2.021   3.427  16.053 -1.0965 -0.2334 -0.0224
  765MPD2    C111293   2.067   3.513  15.961  0.2636  0.3343 -0.5647
  765MPD2    C211294   2.177   3.480  15.882  0.2968 -0.2362  0.0937
  765MPD2    C311295   2.239   3.354  15.900 -0.0482  0.2249  0.8304
  765MPD2    C411296   2.185   3.259  15.985 -0.9865  0.3366 -0.4538
  765MPD2    C511297   2.077   3.301  16.060  0.1851 -0.2136  0.1508
  765MPD2     H11298   2.220   3.550  15.811  1.2666 -1.4874 -0.5650
  765MPD2    H111299   2.219   3.156  15.995 -0.1235  0.5448 -1.3366
  765MPD2    H211300   1.942   3.440  16.126 -2.6034 -0.1461 -1.6695
  765MPD2    H311301   2.030   3.233  16.130 -0.3632 -1.4114 -1.3517
  765MPD2     N11302   2.360   3.326  15.836  0.0983  0.0370  0.4318
  765MPD2    H511303   2.391   3.386  15.760 -1.8243  1.5760  0.8766
  765MPD2    N111304   2.001   3.635  15.948  0.6463 -0.1152  0.2963
  765MPD2    H711305   1.909   3.637  15.991  0.3257  0.6214 -0.4254
  766MPD2     C11306   1.488   3.854  15.502  0.0967 -0.0354  0.3989
  766MPD2    C111307   1.625   3.837  15.507  0.1637 -0.4108  0.5030
  766MPD2    C211308   1.696   3.792  15.395  0.0268 -0.1735  0.1350
  766MPD2    C311309   1.630   3.778  15.275 -0.7936  0.3448 -0.1909
  766MPD2    C411310   1.495   3.802  15.263 -0.2200 -0.2451 -0.3510
  766MPD2    C511311   1.427   3.843  15.376 -0.9356 -0.1584  0.1592
  766MPD2     H11312   1.804   3.794  15.409 -0.1610 -0.0896  1.5432
  766MPD2    H111313   1.451   3.799  15.165  1.8392  1.7513 -1.3339
  766MPD2    H211314   1.437   3.904  15.583  1.8061  0.6981  1.0254
  766MPD2    H311315   1.323   3.867  15.359 -0.8745 -1.1233 -1.5647
  766MPD2     N11316   1.698   3.749  15.157  0.0895  0.3509  0.0018
  766MPD2    H511317   1.650   3.782  15.074  0.6340 -2.5702 -1.4467
  766MPD2    N111318   1.697   3.849  15.625  0.2477 -0.2477 -0.0368
  766MPD2    H711319   1.783   3.796  15.622  0.6609  0.5266 -2.1716
  767MPD2     C11320   1.376   4.189  15.227  0.6818 -0.0899  0.5331
  767MPD2    C111321   1.491   4.131  15.181  0.5807  0.1054  0.0725
  767MPD2    C211322   1.498   4.088  15.051 -0.0050  0.8217  0.3370
  767MPD2    C311323   1.384   4.093  14.969  0.3079 -0.2856  0.4003
  767MPD2    C411324   1.264   4.142  15.022 -0.1721 -0.5850 -0.3441
  767MPD2    C511325   1.262   4.189  15.155  0.1034 -0.4617 -0.1890
  767MPD2     H11326   1.587   4.038  15.015  0.2485  0.6698  1.1869
  767MPD2    H111327   1.169   4.138  14.970 -1.3629 -1.2353  1.9034
  767MPD2    H211328   1.359   4.226  15.328  0.7479  0.0706  0.4837
  767MPD2    H311329   1.172   4.227  15.202  1.5404  1.6000  0.8836
  767MPD2     N11330   1.396   4.020  14.849 -0.6199 -0.1313 -0.1442
  767MPD2    H511331   1.491   4.003  14.817 -1.5290 -3.0012 -1.3540
  767MPD2    N111332   1.605   4.137  15.273 -0.3064  0.5527 -0.3813
  767MPD2    H711333   1.587   4.171  15.367  1.3880  0.1835  0.0660
  768MPD2     C11334   2.603   2.993  10.420  0.0044  0.6320  0.5711
  768MPD2    C111335   2.545   2.870  10.426 -0.0627 -0.6794  0.1360
  768MPD2    C211336   2.629   2.762  10.452  0.5249  0.8236  0.5554
  768MPD2    C311337   2.764   2.789  10.488  0.0092 -0.1352 -0.2377
  768MPD2    C411338   2.810   2.918  10.480  0.4767 -0.4590  0.3606
  768MPD2    C511339   2.730   3.019  10.440  0.4891 -0.3782  0.1207
  768MPD2     H11340   2.587   2.662  10.441 -1.9392  1.9732 -0.6319
  768MPD2    H111341   2.913   2.945  10.499  0.7565  0.1586 -2.0185
  768MPD2    H211342   2.549   3.086  10.403 -1.1145 -0.0031  0.6088
  768MPD2    H311343   2.772   3.119  10.437 -0.5377  0.0085 -1.2806
  768MPD2     N11344   2.855   2.690  10.534  0.5722 -0.4776  0.6688
  768MPD2    H511345   2.955   2.711  10.536  0.1878  1.4087 -0.3590
  768MPD2    N111346   2.407   2.847  10.406  0.0413  0.3895  0.1290
  768MPD2    H711347   2.371   2.754  10.420 -2.3209  1.6551  2.3801
  769MPD2     C11348   3.192   0.865  14.484  0.3060  0.8134 -0.4780
  769MPD2    C111349   3.107   0.863  14.593 -0.0842 -1.0175  0.7835
  769MPD2    C211350   3.167   0.891  14.716 -0.7109 -0.0783  0.7032
  769MPD2    C311351   3.307   0.914  14.721  0.0885  0.2229 -0.1342
  769MPD2    C411352   3.381   0.901  14.605  0.6057  0.7191  0.1000
  769MPD2    C511353   3.329   0.883  14.485 -0.4633  0.1387  1.0335
  769MPD2     H11354   3.112   0.901  14.809 -2.0310 -0.8329  0.0015
  769MPD2    H111355   3.489   0.908  14.615  0.6733 -0.4218  0.2249
  769MPD2    H211356   3.149   0.846  14.387 -1.0367 -0.9260  0.4537
  769MPD2    H311357   3.383   0.874  14.392 -1.4257  0.0868  0.4842
  769MPD2     N11358   3.363   0.929  14.848  0.1359 -0.0242 -0.1072
  769MPD2    H511359   3.300   0.927  14.928 -0.7043  0.4202 -0.7644
  769MPD2    N111360   2.969   0.833  14.577 -0.1535 -0.3165  0.5695
  769MPD2    H711361   2.928   0.811  14.487 -2.6313  1.3369  1.2834
  770MPD2     C11362   2.425   0.180  14.972  0.9521  0.8676 -0.6296
  770MPD2    C111363   2.550   0.197  14.927  0.0233  0.5078  0.0404
  770MPD2    C211364   2.574   0.313  14.861  0.4993 -0.7132 -0.3595
  770MPD2    C311365   2.478   0.411  14.845 -0.4224 -0.0296  0.4983
  770MPD2    C411366   2.351   0.391  14.896 -0.2668  0.2053 -0.1159
  770MPD2    C511367   2.324   0.273  14.954  1.1261  0.2925  0.2925
  770MPD2     H11368   2.675   0.328  14.823 -0.5124  0.6003 -2.4793
  770MPD2    H111369   2.263   0.453  14.879 -0.8292 -0.1614  1.4617
  770MPD2    H211370   2.387   0.086  15.010 -0.0755  0.9921 -1.3610
  770MPD2    H311371   2.227   0.248  14.997  0.5106 -1.5854 -2.2061
  770MPD2     N11372   2.521   0.528  14.776  0.0933  0.1130  0.4057
  770MPD2    H511373   2.622   0.535  14.765  0.2947 -2.4671  0.8125
  770MPD2    N111374   2.641   0.088  14.937 -0.0111 -0.8497 -0.3603
  770MPD2    H711375   2.610   0.013  14.999  1.4034 -1.1546 -0.0078
  771MPD2     C11376   4.298   3.072  13.935  0.0760 -0.3180 -0.4374
  771MPD2    C111377   4.225   3.150  13.848 -0.0018  0.2900  0.2474
  771MPD2    C211378   4.172   3.094  13.734 -0.0101 -0.0332  0.4908
  771MPD2    C311379   4.176   2.954  13.711  0.4187  0.2688  0.1786
  771MPD2    C411380   4.267   2.882  13.786  0.2700 -0.1184  0.4601
  771MPD2    C511381   4.317   2.940  13.901 -0.5758  0.0246  0.1488
  771MPD2     H11382   4.107   3.145  13.664 -1.7851 -3.9707 -0.7372
  771MPD2    H111383   4.281   2.775  13.790 -0.4066 -0.2931 -2.1090
  771MPD2    H211384   4.339   3.116  14.025  0.8779 -1.8093 -0.0695
  771MPD2    H311385   4.379   2.883  13.970  0.1654 -0.3529 -0.8204
  771MPD2     N11386   4.097   2.906  13.606 -0.0128 -0.1776 -0.7649
  771MPD2    H511387   4.041   2.966  13.546 -1.4987 -2.0180 -1.1934
  771MPD2    N111388   4.212   3.289  13.866 -0.2314  0.2378 -0.0334
  771MPD2    H711389   4.135   3.327  13.812 -0.0512  0.9753  0.2365
  772MPD2     C11390   3.877   3.664  13.482 -0.1588 -0.0341 -0.2633
  772MPD2    C111391   3.860   3.668  13.623 -0.1899 -0.2195  0.6877
  772MPD2    C211392   3.736   3.654  13.677  0.2566  0.1771 -0.2950
  772MPD2    C311393   3.624   3.628  13.596 -0.1763 -0.4365 -0.2944
  772MPD2    C411394   3.645   3.619  13.460 -0.2482  0.4529  0.3220
  772MPD2    C511395   3.769   3.642  13.404  0.4887  0.2299 -0.0867
  772MPD2     H11396   3.730   3.666  13.784  0.4012 -0.5881 -0.1956
  772MPD2    H111397   3.565   3.597  13.391  1.7711 -0.7898 -1.6217
  772MPD2    H211398   3.977   3.667  13.439 -0.4775  0.2106 -0.9785
  772MPD2    H311399   3.771   3.625  13.297 -1.4999 -0.2511 -0.0547
  772MPD2     N11400   3.493   3.591  13.651 -0.4257  0.1911  0.3600
  772MPD2    H511401   3.423   3.555  13.587 -0.4249  1.7426 -0.5232
  772MPD2    N111402   3.971   3.682  13.710  0.4511 -0.1145 -0.1490
  772MPD2    H711403   3.950   3.692  13.809  0.2207 -0.7405 -0.1355
  773MPD2     C11404   2.998   0.189   0.215  0.2681  0.1056 -0.3070
  773MPD2    C111405   2.910   0.093   0.165 -0.4640 -0.0722  0.3720
  773MPD2    C211406   2.899   4.695   0.227 -0.0233  0.2270 -0.0855
  773MPD2    C311407   2.981   4.663   0.335 -0.5591  0.0036  0.1027
  773MPD2    C411408   3.053   0.034   0.388 -0.0041 -0.2531 -0.7499
  773MPD2    C511409   3.070   0.158   0.328 -0.2773  0.2367  0.4043
  773MPD2     H11410   2.820   4.627   0.196 -0.0448  0.5086 -0.6391
  773MPD2    H111411   3.126   0.031   0.468 -2.0916 -2.6235  1.0629
  773MPD2    H211412   3.028   0.280   0.164  3.3285 -0.0080  1.2474
  773MPD2    H311413   3.126   0.235   0.380  0.7893 -0.9251  0.9536
  773MPD2     N11414   2.962   4.532   0.390 -0.7082 -0.6586 -0.5799
  773MPD2    H511415   2.902   4.465   0.344  0.6182 -1.7642 -0.6831
  773MPD2    N111416   2.835   0.116   0.058 -0.2318  0.0204 -0.1180
  773MPD2    H711417   2.781   0.037   0.025  1.7654 -0.8994 -1.2623
  774MPD2     C11418   2.787   3.745  13.215  0.5019  0.4090 -0.3841
  774MPD2    C111419   2.692   3.831  13.268 -0.0511 -0.1596 -0.1997
  774MPD2    C211420   2.720   3.966  13.282  0.7724  0.3884 -0.0628
  774MPD2    C311421   2.844   4.013  13.244  0.7891 -0.4964 -0.5887
  774MPD2    C411422   2.933   3.924  13.179  0.3185  0.5955 -0.3096
  774MPD2    C511423   2.898   3.793  13.161  0.7562  0.2003  0.2218
  774MPD2     H11424   2.645   4.036  13.316 -0.4235  0.6372 -3.1987
  774MPD2    H111425   3.028   3.941  13.131  0.4800 -1.4910 -0.7379
  774MPD2    H211426   2.762   3.639  13.212  0.3009  0.3895  2.2566
  774MPD2    H311427   2.967   3.719  13.121  2.1125  1.3156  0.5111
  774MPD2     N11428   2.884   4.151  13.266  0.3902 -0.1186 -0.6232
  774MPD2    H511429   2.808   4.209  13.299  0.5655 -0.7524  0.8886
  774MPD2    N111430   2.569   3.768  13.310  0.2719  0.2868  0.2715
  774MPD2    H711431   2.568   3.666  13.308 -1.7717  0.2951  0.6901
  775MPD2     C11432   3.538   0.546  15.494  0.4725 -0.1684  0.3130
  775MPD2    C111433   3.538   0.667  15.561  0.2055  0.2921 -0.1238
  775MPD2    C211434   3.630   0.760  15.513  1.4177 -0.3765 -0.1126
  775MPD2    C311435   3.720   0.738  15.408  0.3822  0.5950  0.4492
  775MPD2    C411436   3.710   0.619  15.344  0.6196 -0.1285 -0.4135
  775MPD2    C511437   3.624   0.525  15.389  0.0217  1.1455  0.2077
  775MPD2     H11438   3.618   0.857  15.561 -1.3865 -0.9853  0.4547
  775MPD2    H111439   3.779   0.590  15.265 -1.9205  1.4419 -3.1964
  775MPD2    H211440   3.471   0.467  15.527  0.6987 -0.4111  0.1912
  775MPD2    H311441   3.624   0.426  15.344 -0.4186  0.0961  2.5283
  775MPD2     N11442   3.823   0.827  15.369 -1.0926  0.3861  0.0663
  775MPD2    H511443   3.890   0.794  15.300 -1.8779  1.4645 -1.1973
  775MPD2    N111444   3.449   0.682  15.670  0.1658  0.0309  0.0553
  775MPD2    H711445   3.380   0.608  15.677  0.5984 -0.5160 -1.5200
  776MPD2     C11446   3.460   1.100  11.613  0.6184 -0.2439  0.2351
  776MPD2    C111447   3.398   1.069  11.497  0.2981 -0.7016 -0.2958
  776MPD2    C211448   3.425   1.146  11.385  0.5683 -0.1539  0.2368
  776MPD2    C311449   3.521   1.243  11.389  0.1731 -0.1225 -0.1441
  776MPD2    C411450   3.584   1.268  11.506  0.0231 -0.0331  0.3695
  776MPD2    C511451   3.551   1.194  11.616 -0.2501  0.1711  0.3870
  776MPD2     H11452   3.372   1.133  11.292  3.2824 -1.4431 -1.1266
  776MPD2    H111453   3.646   1.356  11.519  0.0370  0.2211 -1.3476
  776MPD2    H211454   3.442   1.045  11.705 -0.4607 -0.9469 -0.4056
  776MPD2    H311455   3.591   1.204  11.717  1.3509  1.0784 -0.3368
  776MPD2     N11456   3.568   1.307  11.271  0.1293 -0.1433  0.4176
  776MPD2    H511457   3.637   1.376  11.297  0.6911 -1.0076  1.2176
  776MPD2    N111458   3.302   0.963  11.508  0.9911 -0.4813 -0.2056
  776MPD2    H711459   3.299   0.906  11.591  0.3337 -1.8153 -1.1519
  777MPD2     C11460   3.141   3.646   0.901  0.1950  0.0142 -0.1324
  777MPD2    C111461   3.018   3.600   0.951  0.3050  0.5997 -0.4002
  777MPD2    C211462   2.957   3.491   0.890  0.1395 -0.0326  0.1566
  777MPD2    C311463   3.025   3.418   0.795 -0.8319 -0.0621 -0.3298
  777MPD2    C411464   3.158   3.444   0.768 -0.0569  0.4392  0.1372
  777MPD2    C511465   3.215   3.561   0.820  0.2610 -0.2809 -0.0422
  777MPD2     H11466   2.858   3.459   0.920  0.0414  0.9541  0.8520
  777MPD2    H111467   3.218   3.389   0.697 -0.6035  1.5630 -1.2006
  777MPD2    H211468   3.193   3.720   0.961 -1.6493  1.2693 -0.0816
  777MPD2    H311469   3.321   3.570   0.798  0.6403 -4.7900 -0.0734
  777MPD2     N11470   2.961   3.308   0.740 -0.0891  0.6398 -0.2635
  777MPD2    H511471   2.860   3.304   0.747 -0.0515 -1.1648 -0.7597
  777MPD2    N111472   2.966   3.676   1.058 -0.2412 -0.4270  0.6335
  777MPD2    H711473   3.027   3.740   1.108 -0.1458  1.2633 -1.6677
  778MPD2     C11474   4.369   3.667  14.909  0.2977 -0.7675  0.2646
  778MPD2    C111475   4.392   3.562  14.823 -0.2870  0.4410 -1.0967
  778MPD2    C211476   4.444   3.601  14.705  0.4134  0.1061 -0.3910
  778MPD2    C311477   4.478   3.726  14.667  0.4327 -0.4062  0.5823
  778MPD2    C411478   4.461   3.828  14.762  0.0461 -0.2225 -0.0887
  778MPD2    C511479   4.408   3.796  14.881 -0.0147  1.0678 -0.0638
  778MPD2     H11480   4.465   3.519  14.637  1.1696 -0.3085  0.3334
  778MPD2    H111481   4.509   3.921  14.733 -1.1962 -0.3305 -2.5388
  778MPD2    H211482   4.323   3.651  15.006 -0.6459  2.8418  0.4314
  778MPD2    H311483   4.372   3.875  14.946 -1.1214 -0.6140  1.3780
  778MPD2     N11484   4.526   3.750  14.543 -0.5619 -0.1094 -0.2005
  778MPD2    H511485   4.531   3.665  14.486  1.0444 -1.3832  1.8406
  778MPD2    N111486   4.345   3.428  14.837 -0.0954  0.4200  0.0566
  778MPD2    H711487   4.377   3.368  14.762 -3.0320 -1.5205  0.3495
  779MPD2     C11488   3.725   2.132  14.263 -0.1027 -0.2703  0.5211
  779MPD2    C111489   3.864   2.116  14.237  0.8190 -0.1950  0.6129
  779MPD2    C211490   3.946   2.229  14.223 -0.1500  0.3300 -0.0986
  779MPD2    C311491   3.896   2.354  14.234  0.1986 -0.4299 -0.0224
  779MPD2    C411492   3.760   2.359  14.266  0.7465  0.2277 -0.2129
  779MPD2    C511493   3.677   2.252  14.275  0.5340 -0.9505 -0.7960
  779MPD2     H11494   4.052   2.213  14.211 -0.8227 -2.8316 -1.9328
  779MPD2    H111495   3.714   2.454  14.291  1.6220  0.7250 -0.4831
  779MPD2    H211496   3.660   2.047  14.282  0.3384 -0.1797  2.3338
  779MPD2    H311497   3.570   2.268  14.275  0.4494 -1.5689  1.0621
  779MPD2     N11498   3.980   2.468  14.211  0.1167  0.3487 -0.2694
  779MPD2    H511499   4.076   2.452  14.181 -0.8070 -0.9930 -2.5477
  779MPD2    N111500   3.924   1.988  14.225 -0.0082  0.2564  0.1235
  779MPD2    H711501   4.024   1.993  14.209  0.4514 -1.2458  2.6686
  780MPD2     C11502   3.374   2.551   1.064  0.3642 -0.4088  0.7040
  780MPD2    C111503   3.329   2.455   0.976  0.7452  0.0845  0.2589
  780MPD2    C211504   3.343   2.472   0.837 -0.7422  0.1721  0.3260
  780MPD2    C311505   3.433   2.575   0.788 -0.3881 -0.2979  0.4182
  780MPD2    C411506   3.483   2.666   0.880  0.0373  0.1175 -0.9635
  780MPD2    C511507   3.445   2.655   1.011  0.5199  0.3980 -0.6435
  780MPD2     H11508   3.298   2.399   0.771  1.0727  0.4464 -1.2277
  780MPD2    H111509   3.543   2.751   0.850  0.9923 -0.9832 -2.1482
  780MPD2    H211510   3.345   2.558   1.168 -3.6201 -1.5931 -0.3296
  780MPD2    H311511   3.480   2.729   1.083  0.8588 -0.4944  0.1118
  780MPD2     N11512   3.453   2.584   0.640 -0.5294  0.0139  0.2777
  780MPD2    H511513   3.388   2.536   0.578  1.0629 -0.3516 -1.1232
  780MPD2    N111514   3.256   2.341   1.012  0.3472  0.2159  0.2380
  780MPD2    H711515   3.218   2.288   0.934  0.7893 -0.4134  0.4481
  781MPD2     C11516   0.694   3.277  11.943 -0.3124 -0.3251  0.1606
  781MPD2    C111517   0.702   3.416  11.965 -0.3985  0.1981  0.2895
  781MPD2    C211518   0.771   3.491  11.871  0.0700 -0.1016  0.1506
  781MPD2    C311519   0.814   3.435  11.752  0.1842  1.1234  0.0790
  781MPD2    C411520   0.791   3.302  11.728 -0.4569  0.0818  0.1806
  781MPD2    C511521   0.725   3.225  11.820 -0.3499  0.3945  0.4074
  781MPD2     H11522   0.783   3.595  11.896 -1.2040 -0.2271  1.2726
  781MPD2    H111523   0.824   3.255  11.637  1.5603  0.4851  0.7098
  781MPD2    H211524   0.644   3.203  12.004 -0.3511 -1.6467 -1.4596
  781MPD2    H311525   0.706   3.119  11.803 -0.7876  0.7510 -1.3001
  781MPD2     N11526   0.864   3.510  11.641  0.2801 -1.0550  0.0113
  781MPD2    H511527   0.881   3.452  11.559 -2.6145 -2.2010  0.2030
  781MPD2    N111528   0.653   3.480  12.083  0.0077 -0.5901  0.3275
  781MPD2    H711529   0.690   3.572  12.107 -2.4915  0.3485  0.5955
  782MPD2     C11530   4.069   4.706  10.666  0.8476  1.3317  0.1939
  782MPD2    C111531   3.967   4.654  10.744 -0.2287  0.7327 -1.0114
  782MPD2    C211532   3.914   4.722  10.853 -0.0634  0.0273  0.5342
  782MPD2    C311533   3.973   0.113  10.885 -0.6198  0.0795  0.0323
  782MPD2    C411534   4.085   0.154  10.811  0.1754  0.5247  0.2898
  782MPD2    C511535   4.133   0.088  10.703  0.7849  0.1070 -0.1202
  782MPD2     H11536   3.841   4.675  10.918  1.0386 -0.8465  1.1532
  782MPD2    H111537   4.137   0.248  10.827  0.9065  0.3853 -1.1854
  782MPD2    H211538   4.116   4.648  10.588 -0.3754 -0.3946  0.7095
  782MPD2    H311539   4.215   0.132  10.646  0.9851 -1.9329 -1.4198
  782MPD2     N11540   3.943   0.188  10.994  0.5319  0.6927  0.3089
  782MPD2    H511541   4.005   0.267  11.010  3.4318 -1.6247  0.5647
  782MPD2    N111542   3.932   4.520  10.716 -0.2925  0.0105 -0.1927
  782MPD2    H711543   3.965   4.489  10.626  1.3015 -0.5628  0.5783
  783MPD2     C11544   3.534   3.979  11.436  0.0383  0.3905  0.5168
  783MPD2    C111545   3.578   4.108  11.432 -0.6934 -0.3250 -0.1601
  783MPD2    C211546   3.639   4.150  11.314  0.3826 -0.1321  0.5175
  783MPD2    C311547   3.663   4.061  11.216  0.0417  1.0802  0.0575
  783MPD2    C411548   3.627   3.931  11.228  0.3270  0.0391  0.3055
  783MPD2    C511549   3.560   3.886  11.337  0.0659  0.7211  0.3576
  783MPD2     H11550   3.676   4.249  11.290  0.2330 -0.2987 -0.4003
  783MPD2    H111551   3.650   3.853  11.156 -1.2197  0.5641 -0.7523
  783MPD2    H211552   3.479   3.947  11.524  0.8710  0.6280  1.1295
  783MPD2    H311553   3.522   3.786  11.358  1.2009  0.4300  1.0055
  783MPD2     N11554   3.738   4.105  11.101 -0.0156 -0.0647  0.4918
  783MPD2    H511555   3.767   4.202  11.106 -0.1027 -0.0089 -0.1506
  783MPD2    N111556   3.569   4.191  11.551  0.6487  0.1502  0.0896
  783MPD2    H711557   3.522   4.141  11.626 -1.2090 -1.4027 -2.0908
  784MPD2     C11558   0.258   0.182   1.349 -0.2074  0.3845  0.5860
  784MPD2    C111559   0.338   0.292   1.329  0.4259  0.4666 -0.2546
  784MPD2    C211560   0.297   0.400   1.253  0.6068 -0.5303 -0.9765
  784MPD2    C311561   0.171   0.410   1.199  0.2747  0.0634  0.0762
  784MPD2    C411562   0.094   0.289   1.210 -0.2839 -0.9114 -0.8079
  784MPD2    C511563   0.133   0.181   1.284  0.5866 -0.0010  0.0526
  784MPD2     H11564   0.366   0.480   1.230  0.8012 -0.6316 -0.7489
  784MPD2    H111565   4.725   0.275   1.164 -0.2958 -4.0654  0.1845
  784MPD2    H211566   0.288   0.105   1.418  1.0823 -0.4345 -0.8768
  784MPD2    H311567   0.064   0.098   1.282  0.0224  0.5171 -2.3532
  784MPD2     N11568   0.137   0.524   1.129 -0.8503 -0.1833 -0.5221
  784MPD2    H511569   0.187   0.612   1.138  1.3677 -1.5296  0.4335
  784MPD2    N111570   0.468   0.307   1.389 -0.9187 -0.8140  0.4581
  784MPD2    H711571   0.516   0.396   1.386 -1.5547 -0.4817  0.1065
  785MPD2     C11572   2.153   4.404   8.864 -0.0242  0.9289  0.5827
  785MPD2    C111573   2.262   4.337   8.815  0.2124 -0.2480  0.3901
  785MPD2    C211574   2.251   4.209   8.763  0.0006  0.2290  0.1752
  785MPD2    C311575   2.130   4.148   8.757 -0.4174  0.0072  0.0782
  785MPD2    C411576   2.018   4.219   8.795 -0.0103  0.2626  0.4899
  785MPD2    C511577   2.031   4.344   8.845  0.4334  0.5717 -0.5741
  785MPD2     H11578   2.337   4.150   8.732 -0.4765 -0.3444 -0.0546
  785MPD2    H111579   1.917   4.181   8.782 -0.3849  1.0000  1.2352
  785MPD2    H211580   2.154   4.506   8.902  1.3433  0.8538  0.7548
  785MPD2    H311581   1.939   4.394   8.875  0.8308  0.1100  1.4340
  785MPD2     N11582   2.130   4.017   8.699  0.4437  0.1070  0.1866
  785MPD2    H511583   2.217   3.983   8.660 -0.5077 -0.3285 -1.5928
  785MPD2    N111584   2.389   4.391   8.816 -0.4301  0.3096 -0.5191
  785MPD2    H711585   2.468   4.341   8.777  0.0020  1.6717 -1.4037
  786MPD2     C11586   4.672   1.807  14.469 -0.4827  0.1623 -0.1368
  786MPD2    C111587   4.701   1.708  14.560  0.4169  0.6260 -0.3326
  786MPD2    C211588   0.041   1.735  14.677 -0.9094 -0.1365  0.7244
  786MPD2    C311589   0.085   1.867  14.705 -0.3061  0.2307 -0.1101
  786MPD2    C411590   0.057   1.964  14.618 -0.1908  0.2676 -0.8484
  786MPD2    C511591   4.717   1.933  14.505  0.6714 -0.7578 -1.0293
  786MPD2     H11592   0.049   1.649  14.743 -3.1464  1.7781  3.4479
  786MPD2    H111593   0.083   2.068  14.633  0.9866 -0.1739  0.1153
  786MPD2    H211594   4.631   1.785  14.370  0.5498 -2.5227  0.0176
  786MPD2    H311595   4.706   2.011  14.430 -0.8634  0.2632  0.2550
  786MPD2     N11596   0.170   1.896  14.814  1.0268 -0.3101 -0.3179
  786MPD2    H511597   0.193   1.992  14.837  0.5448 -0.0719 -0.8653
  786MPD2    N111598   4.672   1.574  14.539 -0.1456 -0.4911 -0.3892
  786MPD2    H711599   4.722   1.513  14.604  2.0643  2.0056  0.2556
  787MPD2     C11600   0.238   1.103  14.786  0.1072 -0.0396  0.3990
  787MPD2    C111601   0.193   1.047  14.672 -0.1107  0.1134  0.2502
  787MPD2    C211602   0.256   0.928  14.637 -0.3503  0.1713  0.3259
  787MPD2    C311603   0.362   0.873  14.711 -0.0775  0.2687 -0.7210
  787MPD2    C411604   0.402   0.930  14.824  0.4245  0.1962  0.9698
  787MPD2    C511605   0.331   1.037  14.867 -0.8543 -0.3814 -0.0490
  787MPD2     H11606   0.226   0.868  14.551 -1.8891 -2.9982  3.0983
  787MPD2    H111607   0.487   0.897  14.883 -0.4120 -1.2970  1.3531
  787MPD2    H211608   0.180   1.187  14.824 -0.9126 -1.0102  1.0062
  787MPD2    H311609   0.370   1.078  14.959 -3.6794  3.1701 -0.4332
  787MPD2     N11610   0.410   0.750  14.663 -0.1152 -0.4787  0.8184
  787MPD2    H511611   0.385   0.733  14.566 -0.8532 -0.7006  1.0429
  787MPD2    N111612   0.102   1.124  14.592 -0.3209 -0.3262 -0.6039
  787MPD2    H711613   0.074   1.216  14.625 -0.5809 -0.4135 -0.5879
  788MPD2     C11614   1.858   4.307   0.699  0.5493 -0.2575 -1.3142
  788MPD2    C111615   1.742   4.242   0.664  0.4729  0.7553  0.1719
  788MPD2    C211616   1.656   4.292   0.567  0.2067  0.2205  0.3815
  788MPD2    C311617   1.697   4.414   0.503 -0.1173 -0.2048  0.0619
  788MPD2    C411618   1.820   4.477   0.535  0.0722 -0.5769 -0.2822
  788MPD2    C511619   1.894   4.425   0.637 -0.0723  0.4854 -0.3236
  788MPD2     H11620   1.560   4.246   0.548 -0.6540  2.1168  0.2162
  788MPD2    H111621   1.858   4.565   0.484  1.1104  0.0417  1.5722
  788MPD2    H211622   1.918   4.271   0.781  0.8103  1.7461 -0.6099
  788MPD2    H311623   1.985   4.471   0.675  0.2450  1.4152 -2.2214
  788MPD2     N11624   1.626   4.475   0.396  0.0917  0.2940  0.0639
  788MPD2    H511625   1.661   4.559   0.351 -0.7163  0.1013 -0.9253
  788MPD2    N111626   1.709   4.120   0.723  0.1807  0.0841  0.0777
  788MPD2    H711627   1.628   4.069   0.690 -2.1674  3.5947  0.4296
  789MPD2     C11628   1.769   4.234  16.167 -0.0987  0.2093  1.1124
  789MPD2    C111629   1.747   4.147  16.271 -0.0374  0.9853 -0.9087
  789MPD2    C211630   1.633   4.172  16.345 -0.4624 -0.0249 -0.2986
  789MPD2    C311631   1.537   4.269  16.316  0.1359 -0.9306 -0.0691
  789MPD2    C411632   1.560   4.346  16.204 -0.6866  0.0022  0.4384
  789MPD2    C511633   1.679   4.334  16.136 -0.2831 -0.9629  0.7865
  789MPD2     H11634   1.603   4.089  16.408 -0.2148  1.1238  1.3173
  789MPD2    H111635   1.491   4.422  16.168 -2.9259 -0.8865  2.8511
  789MPD2    H211636   1.865   4.233  16.116 -0.1235  2.0991  1.0210
  789MPD2    H311637   1.702   4.396  16.050 -1.8582  1.5290  2.1344
  789MPD2     N11638   1.413   4.276  16.372 -0.0123  0.8903  0.3294
  789MPD2    H511639   1.345   4.344  16.339  0.7200  1.2151 -0.5230
  789MPD2    N111640   1.839   4.041  16.305 -0.0397 -0.6726 -0.1750
  789MPD2    H711641   1.808   3.976  16.376 -0.3582 -1.8931 -1.4291
  790MPD2     C11642   3.167   0.994  13.490 -0.4455  0.2596 -0.0516
  790MPD2    C111643   3.229   0.899  13.405  0.0102 -0.5585 -0.2829
  790MPD2    C211644   3.231   0.928  13.272  0.6927 -0.1295  0.0279
  790MPD2    C311645   3.165   1.033  13.210  1.4385  0.4757  0.9155
  790MPD2    C411646   3.099   1.119  13.293 -0.0434  0.2361 -0.2661
  790MPD2    C511647   3.099   1.097  13.430 -0.2412 -0.2405  0.8185
  790MPD2     H11648   3.290   0.867  13.203 -1.2532 -0.1650 -1.6036
  790MPD2    H111649   3.039   1.201  13.256  0.0809  0.3353 -0.2471
  790MPD2    H211650   3.162   0.986  13.598  0.5456  3.8276  0.2428
  790MPD2    H311651   3.051   1.162  13.503 -1.2017  0.3514 -0.3166
  790MPD2     N11652   3.165   1.037  13.065 -0.0712 -0.0021 -0.1385
  790MPD2    H511653   3.208   0.959  13.017 -3.2687  0.0647 -3.0517
  790MPD2    N111654   3.287   0.781  13.451  0.9429  0.2225  0.9046
  790MPD2    H711655   3.304   0.772  13.551 -0.2124  0.6623  1.1507
  791MPD2     C11656   2.947   1.029  12.205  0.2384 -0.2595  0.4884
  791MPD2    C111657   2.895   0.987  12.321  1.2533 -0.0991  0.2137
  791MPD2    C211658   2.760   0.954  12.326 -0.5610  0.2753  0.4873
  791MPD2    C311659   2.676   0.968  12.218  0.3333 -0.1691 -0.2680
  791MPD2    C411660   2.727   1.009  12.101  0.0934  0.0955 -0.1398
  791MPD2    C511661   2.862   1.033  12.097  0.0572 -0.0154  0.6371
  791MPD2     H11662   2.725   0.904  12.415 -2.1675  1.4642  0.5211
  791MPD2    H111663   2.666   1.025  12.012  0.7074 -0.6380 -0.6919
  791MPD2    H211664   3.051   1.060  12.202  0.2676 -0.5242 -1.2281
  791MPD2    H311665   2.889   1.067  11.998 -0.3221 -2.2236 -0.2315
  791MPD2     N11666   2.543   0.921  12.227 -0.2109  0.4133  0.2491
  791MPD2    H511667   2.518   0.877  12.315  1.7538  2.2279  1.7147
  791MPD2    N111668   2.981   0.982  12.434  0.3216 -0.3015 -0.0023
  791MPD2    H711669   3.078   1.012  12.424  0.0021  1.0578  1.0424
  792MPD2     C11670   3.519   0.361  11.299  0.4607  0.3532  0.1608
  792MPD2    C111671   3.428   0.446  11.239  0.2712  0.3853  0.5007
  792MPD2    C211672   3.303   0.396  11.214  0.7118  0.4182  0.1704
  792MPD2    C311673   3.262   0.270  11.260 -0.0523  0.2223 -0.3869
  792MPD2    C411674   3.354   0.190  11.323 -0.3393  0.3594  0.1991
  792MPD2    C511675   3.482   0.232  11.337  0.2137 -0.0014  0.1440
  792MPD2     H11676   3.231   0.459  11.161  0.5023 -0.5822 -0.7266
  792MPD2    H111677   3.319   0.091  11.350  0.4253 -0.0619 -0.3423
  792MPD2    H211678   3.621   0.390  11.322  0.4095 -0.2854  1.2169
  792MPD2    H311679   3.550   0.167  11.389  2.1955  0.3965 -1.9366
  792MPD2     N11680   3.134   0.212  11.230  0.9827 -0.1681 -0.7181
  792MPD2    H511681   3.111   0.124  11.275  0.1259  0.3307 -0.1786
  792MPD2    N111682   3.466   0.585  11.211  0.6100  0.2769  0.0111
  792MPD2    H711683   3.567   0.592  11.220  0.9458 -2.5216 -1.5289
  793MPD2     C11684   2.550   0.567  10.579 -0.0540 -0.4688 -0.3316
  793MPD2    C111685   2.683   0.561  10.616  0.1224 -0.3437 -0.5788
  793MPD2    C211686   2.709   0.506  10.747  0.1009  0.4217  0.1561
  793MPD2    C311687   2.619   0.466  10.834 -1.0083 -0.2923 -0.5055
  793MPD2    C411688   2.486   0.491  10.802  0.6350  0.2407  0.1547
  793MPD2    C511689   2.459   0.537  10.678 -0.0421 -0.2637  0.7698
  793MPD2     H11690   2.814   0.492  10.772 -0.0551  3.1182  2.3625
  793MPD2    H111691   2.411   0.459  10.874  1.5566 -2.4599 -0.0791
  793MPD2    H211692   2.512   0.622  10.494  0.3160 -0.1655 -0.2992
  793MPD2    H311693   2.352   0.540  10.661 -0.0351  0.7462  0.9030
  793MPD2     N11694   2.657   0.413  10.961 -0.6391 -0.0227  0.2146
  793MPD2    H511695   2.756   0.404  10.983 -0.1507 -1.1042 -2.4677
  793MPD2    N111696   2.787   0.602  10.531 -0.1015 -0.3977  0.1703
  793MPD2    H711697   2.880   0.615  10.570  0.7405 -3.3280 -0.8331
  794MPD2     C11698   2.660   0.640  17.070 -0.4001  0.1226  0.2663
  794MPD2    C111699   2.574   0.534  17.101 -0.4836  1.3735  0.4892
  794MPD2    C211700   2.478   0.510  17.007 -0.5799 -0.1493  0.0329
  794MPD2    C311701   2.461   0.581  16.887  0.3592  0.3378  0.6214
  794MPD2    C411702   2.546   0.694  16.868  0.2225 -0.3599  0.1168
  794MPD2    C511703   2.645   0.725  16.959 -0.6009  0.1820 -0.4397
  794MPD2     H11704   2.408   0.431  17.031 -0.6575  0.6085  2.2571
  794MPD2    H111705   2.535   0.760  16.783  0.4150 -1.0873 -0.4808
  794MPD2    H211706   2.730   0.674  17.145  0.6101  0.6976 -0.9219
  794MPD2    H311707   2.722   0.801  16.947 -1.1292  0.8504  0.4072
  794MPD2     N11708   2.376   0.548  16.783  0.4991  0.0082 -0.2544
  794MPD2    H511709   2.384   0.608  16.701 -1.8751 -1.1882 -1.3620
  794MPD2    N111710   2.575   0.461  17.225 -0.3538 -0.5899  0.2398
  794MPD2    H711711   2.504   0.394  17.251 -0.9051 -0.5888 -1.2833
  795MPD2     C11712   0.928   2.467  12.382  0.2097  0.0698 -0.0626
  795MPD2    C111713   0.863   2.365  12.452  0.3082  0.5947  0.4659
  795MPD2    C211714   0.910   2.332  12.578  0.0992  0.1481 -0.5070
  795MPD2    C311715   1.027   2.384  12.624 -0.0527  0.9466 -0.5811
  795MPD2    C411716   1.096   2.482  12.548  0.0725 -0.1991  0.5516
  795MPD2    C511717   1.045   2.528  12.428  0.2825  0.0982 -0.1120
  795MPD2     H11718   0.851   2.267  12.641  0.6047 -0.8656 -1.0777
  795MPD2    H111719   1.185   2.528  12.588  0.2648  0.2232 -0.3547
  795MPD2    H211720   0.882   2.512  12.295  0.6632 -1.5539 -1.1588
  795MPD2    H311721   1.085   2.607  12.367 -0.5278 -0.1570 -0.9724
  795MPD2     N11722   1.084   2.354  12.750 -0.0697 -0.2333 -0.4519
  795MPD2    H511723   1.178   2.387  12.766 -0.2504 -1.1883  2.6981
  795MPD2    N111724   0.740   2.324  12.411  0.2061 -0.2489 -0.1589
  795MPD2    H711725   0.672   2.287  12.478 -1.5591  1.5384 -0.9389
  796MPD2     C11726   4.602   4.408  16.097  0.7630 -0.0994  0.0522
  796MPD2    C111727   4.681   4.346  15.996 -0.4205 -0.0757  0.3527
  796MPD2    C211728   4.712   4.422  15.888  0.2928  0.4913 -0.6066
  796MPD2    C311729   4.673   4.548  15.872  0.0828  0.1108  0.2772
  796MPD2    C411730   4.602   4.610  15.971  0.5263  0.1499  0.5000
  796MPD2    C511731   4.561   4.538  16.077 -0.8233 -1.0995  0.3470
  796MPD2     H11732   0.048   4.379  15.811 -0.1909  1.4198 -1.5237
  796MPD2    H111733   4.561   4.710  15.970 -1.5464 -0.6811 -1.4661
  796MPD2    H211734   4.565   4.353  16.183 -0.5520 -2.7763 -2.2425
  796MPD2    H311735   4.496   4.588  16.148  1.8292 -1.2915  2.9218
  796MPD2     N11736   4.699   4.613  15.750 -0.0478  0.0990  0.3003
  796MPD2    H511737   0.013   4.552  15.679 -1.0439 -0.2469  0.0100
  796MPD2    N111738   0.008   4.219  16.026 -0.2386  0.1917 -0.3690
  796MPD2    H711739   4.725   4.179  16.119 -1.1246 -2.2268 -1.5272
  797MPD2     C11740   1.058   3.255  17.088  0.0238 -0.0750  0.0242
  797MPD2    C111741   1.019   3.388  17.066  0.1564  0.7231 -0.3619
  797MPD2    C211742   1.013   3.444  16.940 -0.3059 -0.1909  0.9532
  797MPD2    C311743   1.065   3.370  16.840 -0.5258 -0.1798 -0.0680
  797MPD2    C411744   1.115   3.242  16.859  0.4115  0.7437 -0.1674
  797MPD2    C511745   1.103   3.185  16.980  0.0135 -0.7602 -0.3826
  797MPD2     H11746   0.970   3.543  16.931 -1.6308 -0.8032  0.5632
  797MPD2    H111747   1.159   3.187  16.777  0.5008  0.9358 -0.2489
  797MPD2    H211748   1.058   3.208  17.186  1.3470 -2.1322 -0.9645
  797MPD2    H311749   1.146   3.086  16.987  1.1844 -0.2059  0.2233
  797MPD2     N11750   1.083   3.431  16.711  0.1891  0.7342  0.0406
  797MPD2    H511751   1.126   3.375  16.639  1.8283  4.4264 -1.8514
  797MPD2    N111752   0.986   3.483  17.168 -0.0008 -0.1918  0.1796
  797MPD2    H711753   0.981   3.578  17.134 -1.0435  0.2835  1.6966
  798MPD2     C11754   1.399   4.065  16.908  0.0414  0.5130 -0.6215
  798MPD2    C111755   1.351   3.938  16.872 -0.5818 -0.3773  0.0038
  798MPD2    C211756   1.285   3.874  16.977  0.5276  0.4084  0.0215
  798MPD2    C311757   1.262   3.927  17.100  0.3086  0.0690  0.0621
  798MPD2    C411758   1.314   4.051  17.132  0.1941 -0.1361  0.1817
  798MPD2    C511759   1.381   4.115  17.036 -0.2333 -0.0681 -0.1092
  798MPD2     H11760   1.242   3.775  16.967 -0.7035  0.8761  0.7571
  798MPD2    H111761   1.321   4.098  17.229  0.0624  2.2572 -0.9714
  798MPD2    H211762   1.443   4.125  16.829  0.4530  0.8167 -0.1618
  798MPD2    H311763   1.435   4.205  17.061  2.6198 -1.6039 -0.7101
  798MPD2     N11764   1.179   3.862  17.190 -0.2838 -0.4625  0.5430
  798MPD2    H511765   1.160   3.767  17.160 -1.4216  0.1658 -0.7384
  798MPD2    N111766   1.370   3.879  16.742 -0.1428 -0.0174 -0.1304
  798MPD2    H711767   1.391   3.941  16.665  1.0728  0.3687  0.5177
  799MPD2     C11768   0.028   0.422  14.593 -0.2511  0.9471  0.0754
  799MPD2    C111769   4.683   0.350  14.504  0.2034  0.1411 -0.0681
  799MPD2    C211770   4.613   0.410  14.405 -0.0298  0.2081  0.1063
  799MPD2    C311771   4.606   0.545  14.400  0.0646  0.1158  0.0413
  799MPD2    C411772   4.687   0.621  14.491 -0.1079  0.2084  0.2741
  799MPD2    C511773   0.028   0.558  14.590 -0.1484 -0.3419  0.4718
  799MPD2     H11774   4.534   0.356  14.353  0.6594  0.4203 -1.1613
  799MPD2    H111775   4.692   0.729  14.492  0.4908  0.1832  0.0750
  799MPD2    H211776   0.081   0.388  14.682  1.0949 -0.4711 -1.2774
  799MPD2    H311777   0.083   0.615  14.664 -0.7425  3.3947 -1.9154
  799MPD2     N11778   4.538   0.615  14.300  0.2960 -0.0403  0.1290
  799MPD2    H511779   4.565   0.713  14.301  1.2088 -0.2806 -0.2830
  799MPD2    N111780   4.675   0.208  14.517 -0.5313 -0.0626  0.0371
  799MPD2    H711781   4.603   0.164  14.460 -1.6373  4.6959 -2.1910
  800MPD2     C11782   0.559   1.505  14.187 -0.0058  0.1702  0.3985
  800MPD2    C111783   0.697   1.517  14.173 -0.0168 -0.0316  0.1882
  800MPD2    C211784   0.750   1.483  14.049 -0.1090  0.1160 -0.4205
  800MPD2    C311785   0.666   1.428  13.948  0.2225 -0.3270  0.3190
  800MPD2    C411786   0.531   1.401  13.978 -0.0670 -0.3899  0.0453
  800MPD2    C511787   0.486   1.438  14.097 -1.1304  0.3843 -0.0860
  800MPD2     H11788   0.857   1.478  14.035  0.0882 -1.8323  1.8899
  800MPD2    H111789   0.464   1.354  13.907 -0.5382 -1.2248  1.0463
  800MPD2    H211790   0.521   1.548  14.279 -0.1133 -1.6016  1.1747
  800MPD2    H311791   0.378   1.430  14.109 -1.1992 -1.0168 -1.5737
  800MPD2     N11792   0.720   1.400  13.822  0.0499 -0.3388 -0.1982
  800MPD2    H511793   0.814   1.432  13.802 -0.1749 -0.2092 -1.0343
  800MPD2    N111794   0.761   1.588  14.276  0.5438  0.4764 -0.6296
  800MPD2    H711795   0.702   1.610  14.356  2.6012  0.5650  0.8998
  801MPD2     C11796   0.498   2.170  14.522  0.2041 -1.4373 -0.1055
  801MPD2    C111797   0.542   2.088  14.417 -0.6188 -0.3564  0.5683
  801MPD2    C211798   0.461   2.078  14.306  0.8605 -0.0404 -0.9423
  801MPD2    C311799   0.340   2.138  14.293  1.2208  0.4810  0.0267
  801MPD2    C411800   0.304   2.225  14.388 -0.1470 -0.1846  0.1065
  801MPD2    C511801   0.371   2.230  14.501 -0.6161  0.5404 -0.1786
  801MPD2     H11802   0.494   2.015  14.223  0.8344 -0.0151 -0.9716
  801MPD2    H111803   0.205   2.270  14.388 -0.6925 -1.3598 -0.4157
  801MPD2    H211804   0.555   2.186  14.612  0.1381  0.9393 -0.4949
  801MPD2    H311805   0.335   2.299  14.577  0.7428  1.6061 -0.4931
  801MPD2     N11806   0.256   2.105  14.180  0.1942 -0.2114  0.2992
  801MPD2    H511807   0.297   2.036  14.118  0.2278  1.4847 -1.5545
  801MPD2    N111808   0.661   2.012  14.417  0.4613 -0.2065 -0.1160
  801MPD2    H711809   0.665   1.952  14.335  1.2481 -0.8182  0.3761
  802MPD2     C11810   0.065   2.813  17.597  0.3730 -0.3637 -0.6921
  802MPD2    C111811   4.670   2.788  17.657  0.7398 -0.2155  0.2427
  802MPD2    C211812   4.600   2.673  17.617  0.0876 -1.3054 -0.1201
  802MPD2    C311813   4.642   2.589  17.518 -0.4682  0.2512  0.3624
  802MPD2    C411814   0.041   2.616  17.460 -0.1241  0.3165 -0.0222
  802MPD2    C511815   0.110   2.726  17.503  0.5839 -0.6344  0.2138
  802MPD2     H11816   4.505   2.659  17.667  1.1889  0.2002  2.3570
  802MPD2    H111817   0.091   2.548  17.392 -1.6971 -0.3539 -0.5228
  802MPD2    H211818   0.121   2.906  17.603  0.7699 -0.6814  0.5734
  802MPD2    H311819   0.208   2.747  17.461  1.0172 -4.6285 -0.8085
  802MPD2     N11820   4.565   2.473  17.483  0.2305  0.8057 -0.3204
  802MPD2    H511821   4.477   2.462  17.532  1.8143 -1.0359  2.0888
  802MPD2    N111822   4.614   2.874   0.038  0.3461 -0.0800 -0.6171
  802MPD2    H711823   4.527   2.845   0.081  0.1848 -1.6072 -1.9648
  803MPD2     C11824   1.341   0.817  11.533  0.8748 -0.0560 -0.0090
  803MPD2    C111825   1.426   0.822  11.638  0.0307 -0.3559 -0.0981
  803MPD2    C211826   1.387   0.777  11.762 -0.1156 -0.8761  0.6076
  803MPD2    C311827   1.265   0.716  11.773  0.0313 -0.5182 -0.0862
  803MPD2    C411828   1.184   0.704  11.665  0.0413  0.1470  0.0515
  803MPD2    C511829   1.224   0.754  11.542 -0.0509  0.2479  0.0085
  803MPD2     H11830   1.461   0.774  11.841 -0.1675 -3.1361  0.5466
  803MPD2    H111831   1.085   0.663  11.682  0.6009 -0.6035  1.4713
  803MPD2    H211832   1.372   0.863  11.440 -2.1437  2.8503  0.4190
  803MPD2    H311833   1.167   0.749  11.450 -0.0267 -1.1644  0.0776
  803MPD2     N11834   1.220   0.674  11.899  0.2902  0.1168 -0.6342
  803MPD2    H511835   1.128   0.631  11.903 -1.2863  3.2527 -3.1093
  803MPD2    N111836   1.554   0.883  11.631 -0.0719 -0.8234  0.3851
  803MPD2    H711837   1.590   0.910  11.722  0.3583 -0.3748  0.0791
  804MPD2     C11838   0.706   2.330  16.990  0.9066 -0.0689  0.0065
  804MPD2    C111839   0.711   2.272  17.118  0.2882 -0.6548 -0.1819
  804MPD2    C211840   0.799   2.321  17.213  0.3549 -0.0871  0.1497
  804MPD2    C311841   0.873   2.436  17.186 -0.4308  0.1674 -0.0637
  804MPD2    C411842   0.857   2.497  17.064 -0.0083 -0.2754  0.1091
  804MPD2    C511843   0.769   2.451  16.978  0.0523 -0.9919 -0.0018
  804MPD2     H11844   0.815   2.271  17.307  1.0425 -0.2811 -0.0696
  804MPD2    H111845   0.915   2.586  17.043 -0.4737  0.1275  0.5496
  804MPD2    H211846   0.650   2.305  16.901  1.2608  0.1648 -0.2822
  804MPD2    H311847   0.755   2.501  16.882  0.1256  1.2562  1.1534
  804MPD2     N11848   0.951   2.496  17.290 -0.6299 -0.6447 -0.2002
  804MPD2    H511849   0.939   2.457  17.383  0.5056 -2.2455 -0.7400
  804MPD2    N111850   0.637   2.161  17.158  0.1999 -0.5013 -0.0730
  804MPD2    H711851   0.643   2.129  17.254  2.1892  2.2523  0.7100
  805MPD2     C11852   4.406   0.965  15.303  0.1220 -0.1783 -0.1359
  805MPD2    C111853   4.498   0.887  15.224 -0.0810  0.2474 -0.5369
  805MPD2    C211854   4.632   0.908  15.268 -0.3462  0.1768  0.3248
  805MPD2    C311855   4.673   0.974  15.388  0.7911 -0.2236 -0.3449
  805MPD2    C411856   4.571   1.022  15.472  0.2333  0.7523  0.2385
  805MPD2    C511857   4.442   1.013  15.434  0.0474  0.3297 -0.5753
  805MPD2     H11858   4.715   0.870  15.209 -0.2001  1.2001 -0.1208
  805MPD2    H111859   4.588   1.075  15.565 -1.7163  1.4555  0.1817
  805MPD2    H211860   4.300   0.971  15.286  0.1122 -0.3453 -0.1337
  805MPD2    H311861   4.364   1.033  15.507  0.3609  0.8577 -0.3848
  805MPD2     N11862   0.082   0.978  15.429  0.0516 -0.2824  0.0952
  805MPD2    H511863   0.150   0.919  15.381 -0.0372  1.4403 -2.1160
  805MPD2    N111864   4.471   0.831  15.095 -0.2553  0.2794 -0.4496
  805MPD2    H711865   4.552   0.796  15.046 -0.6385  0.5387 -1.2617
  806MPD2     C11866   0.482   0.792   0.616 -0.1377 -0.4771 -0.6300
  806MPD2    C111867   0.428   0.671   0.580 -0.3690 -0.1494  0.5200
  806MPD2    C211868   0.433   0.630   0.443 -0.6554  0.1937  0.5683
  806MPD2    C311869   0.490   0.716   0.352  0.3808 -0.4368  0.0731
  806MPD2    C411870   0.544   0.835   0.387 -0.5811  0.4143  0.3452
  806MPD2    C511871   0.541   0.871   0.517 -0.1688  0.1887  0.7535
  806MPD2     H11872   0.378   0.545   0.402  2.9588 -1.4267 -0.9680
  806MPD2    H111873   0.576   0.907   0.312  2.6062 -2.0232 -0.6393
  806MPD2    H211874   0.489   0.839   0.714 -0.5918 -1.3250 -0.1903
  806MPD2    H311875   0.574   0.971   0.545 -1.5113  0.8830 -0.1473
  806MPD2     N11876   0.495   0.658   0.221  0.0604 -0.0855  0.0278
  806MPD2    H511877   0.469   0.560   0.212 -1.6972  0.0550  3.3442
  806MPD2    N111878   0.371   0.590   0.685  1.2657  0.4387  0.2558
  806MPD2    H711879   0.367   0.623   0.781  1.0488  0.9263  0.0814
  807MPD2     C11880   4.694   4.568   0.891  0.4400  0.0710  0.1080
  807MPD2    C111881   0.066   4.608   0.990 -0.0264 -0.8241  0.0479
  807MPD2    C211882   0.094   4.535   1.103 -0.1867 -0.8003 -0.2691
  807MPD2    C311883   0.029   4.415   1.116  0.0784 -0.3631  0.5729
  807MPD2    C411884   4.667   4.372   1.024  0.0648 -0.3037 -0.1321
  807MPD2    C511885   4.634   4.444   0.915 -0.0453 -0.1392 -0.5535
  807MPD2     H11886   0.172   4.563   1.173 -0.4950  0.5119 -0.4488
  807MPD2    H111887   4.628   4.271   1.028  0.5796 -0.4305  1.8893
  807MPD2    H211888   4.674   4.616   0.797  0.2931  0.3043  0.2592
  807MPD2    H311889   4.579   4.392   0.837  1.1901  0.1650 -1.6302
  807MPD2     N11890   0.072   4.339   1.223 -0.8979 -0.0956 -0.1353
  807MPD2    H511891   0.137   4.381   1.289  0.3370 -0.2511 -1.2593
  807MPD2    N111892   0.143   4.721   0.980  0.1414 -0.4998  0.2012
  807MPD2    H711893   0.217   0.002   1.049  0.2717  0.7830 -0.0824
  808MPD2     C11894   1.071   0.614   9.608  0.3187 -0.1724 -0.2494
  808MPD2    C111895   1.014   0.708   9.694 -0.0340 -0.6260 -0.2778
  808MPD2    C211896   1.075   0.827   9.714  1.2287  0.1521 -0.1520
  808MPD2    C311897   1.207   0.850   9.671 -0.1521 -0.7126  0.1686
  808MPD2    C411898   1.262   0.759   9.580  0.1925  0.5224 -0.3115
  808MPD2    C511899   1.200   0.641   9.558  0.3765  0.3649 -0.3047
  808MPD2     H11900   1.032   0.903   9.778  2.5020 -0.0636  0.9600
  808MPD2    H111901   1.355   0.776   9.526 -1.0695  0.4087 -2.5195
  808MPD2    H211902   1.020   0.523   9.579  0.5043 -0.0248 -1.0525
  808MPD2    H311903   1.244   0.570   9.488  0.3543  0.5388 -0.4954
  808MPD2     N11904   1.277   0.972   9.682 -0.3128  0.2210 -0.5787
  808MPD2    H511905   1.359   0.985   9.624  1.6934 -0.6882  2.0708
  808MPD2    N111906   0.891   0.688   9.751 -0.2251  0.3309 -0.0336
  808MPD2    H711907   0.852   0.760   9.812  0.2117  0.7854 -0.2958
  809MPD2     C11908   2.053   1.082   9.369  1.0700 -0.1881  0.2792
  809MPD2    C111909   2.053   1.198   9.440 -0.0525 -0.8230 -0.2252
  809MPD2    C211910   1.934   1.223   9.507  0.4360 -0.3489 -0.7356
  809MPD2    C311911   1.819   1.149   9.497  0.1007  0.1165 -0.6831
  809MPD2    C411912   1.824   1.038   9.420  0.0538  0.0128 -0.3385
  809MPD2    C511913   1.949   1.000   9.361 -0.6744 -0.2045  0.1098
  809MPD2     H11914   1.939   1.312   9.570  1.7865 -0.8557 -0.1328
  809MPD2    H111915   1.741   0.969   9.409  0.5726 -0.8747  1.3983
  809MPD2    H211916   2.141   1.049   9.314  0.3877  0.7447 -1.3893
  809MPD2    H311917   1.942   0.911   9.299  2.1816  0.5053 -1.1887
  809MPD2     N11918   1.701   1.182   9.564  0.4989  0.3128  0.1799
  809MPD2    H511919   1.632   1.109   9.554 -0.3360  0.7569  2.6099
  809MPD2    N111920   2.155   1.289   9.463  0.3472 -0.6904  0.0698
  809MPD2    H711921   2.142   1.369   9.524  1.6167 -0.1733 -0.3322
  810MPD2     C11922   0.897   0.390  10.022 -0.2068 -0.4320  0.2876
  810MPD2    C111923   0.829   0.402  10.141 -0.1818 -0.4068  0.3630
  810MPD2    C211924   0.837   0.525  10.210  0.4944  0.0846 -0.3725
  810MPD2    C311925   0.928   0.621  10.170  0.6816 -0.8690  0.1656
  810MPD2    C411926   1.008   0.600  10.058  0.0563 -0.4961  0.6563
  810MPD2    C511927   0.992   0.481   9.987 -0.1745  0.3009  0.7052
  810MPD2     H11928   0.776   0.543  10.298 -0.9175  0.2355 -1.3776
  810MPD2    H111929   1.070   0.679  10.020 -0.9387  1.0225  2.1880
  810MPD2    H211930   0.884   0.315   9.945  2.1776  0.8779 -1.3973
  810MPD2    H311931   1.048   0.467   9.895 -3.5399 -1.2875 -1.0860
  810MPD2     N11932   0.922   0.754  10.210 -0.2284  0.1863  0.3144
  810MPD2    H511933   0.982   0.822  10.164  0.4460 -0.3814  0.3560
  810MPD2    N111934   0.729   0.305  10.175  1.4430 -0.0243 -0.5246
  810MPD2    H711935   0.709   0.237  10.102  0.5631 -1.2903  0.8939
  811MPD2     C11936   4.615   0.424  10.201 -0.0387 -0.0844 -0.6626
  811MPD2    C111937   0.019   0.471  10.211 -0.0846  0.2861 -0.1887
  811MPD2    C211938   0.052   0.600  10.170  0.2465 -0.9387  0.3271
  811MPD2    C311939   4.680   0.682  10.131 -0.6923 -0.5239 -0.3981
  811MPD2    C411940   4.546   0.642  10.125  0.5973  0.7494 -0.1309
  811MPD2    C511941   4.512   0.511  10.159 -0.7384 -0.1155 -0.4388
  811MPD2     H11942   0.155   0.634  10.164  0.4231 -1.9081 -1.8167
  811MPD2    H111943   4.462   0.704  10.095  0.4303  1.8448  2.5586
  811MPD2    H211944   4.587   0.323  10.227  1.3121 -0.0874  0.7563
  811MPD2    H311945   4.408   0.480  10.152 -1.0352  0.8389 -0.3209
  811MPD2     N11946   4.724   0.800  10.069  0.1389  0.4784 -0.5511
  811MPD2    H511947   0.097   0.810  10.072  0.0396  0.6028  2.2344
  811MPD2    N111948   0.110   0.369  10.242  0.4493  0.3938  0.0912
  811MPD2    H711949   0.083   0.272  10.246 -1.6016  0.8762 -1.8440
  812MPD2     C11950   4.525   1.110  11.988  0.1788 -0.2451  0.5906
  812MPD2    C111951   4.402   1.149  12.022  0.3335  0.4283  0.9251
  812MPD2    C211952   4.324   1.077  12.111 -0.1676  0.5110  0.2777
  812MPD2    C311953   4.375   0.967  12.177  0.5526  0.1106 -0.2727
  812MPD2    C411954   4.507   0.930  12.148 -0.0074  0.2917  0.2267
  812MPD2    C511955   4.579   0.997  12.046 -0.2343 -0.0914 -0.3203
  812MPD2     H11956   4.220   1.103  12.127  0.2746  2.4089  0.0337
  812MPD2    H111957   4.556   0.843  12.191 -0.5470  0.4306  1.1174
  812MPD2    H211958   4.572   1.166  11.909  1.4063 -0.2229  1.3360
  812MPD2    H311959   4.678   0.961  12.021  0.2528  1.1421 -0.1558
  812MPD2     N11960   4.289   0.893  12.260  0.3027  0.8100 -0.5846
  812MPD2    H511961   4.191   0.922  12.265 -0.4618 -1.7521 -0.5907
  812MPD2    N111962   4.357   1.271  11.960  0.3590 -0.0785 -0.8517
  812MPD2    H711963   4.437   1.314  11.917  0.6597  0.2761  0.0637
  813MPD2     C11964   2.675   2.353  12.353  0.1233 -0.2362 -0.0137
  813MPD2    C111965   2.726   2.481  12.352 -0.1059  0.5210  0.5947
  813MPD2    C211966   2.719   2.562  12.462 -0.0309  0.0690  0.5296
  813MPD2    C311967   2.689   2.510  12.587  0.2794  0.8023 -0.3643
  813MPD2    C411968   2.638   2.378  12.589 -0.3169 -0.4101  0.4308
  813MPD2    C511969   2.626   2.299  12.470  0.4355 -0.2645 -0.3749
  813MPD2     H11970   2.759   2.661  12.445 -1.2348  0.6857  1.2520
  813MPD2    H111971   2.614   2.324  12.679 -1.4375  1.1245  1.0681
  813MPD2    H211972   2.685   2.295  12.262 -0.3727  0.5351 -0.5526
  813MPD2    H311973   2.589   2.198  12.471  0.6253 -0.3469 -1.1910
  813MPD2     N11974   2.705   2.591  12.710  0.1125 -0.3010  0.3030
  813MPD2    H511975   2.754   2.679  12.705 -2.8084  1.2013 -2.3174
  813MPD2    N111976   2.779   2.512  12.230 -0.1499 -0.4599  0.5393
  813MPD2    H711977   2.776   2.441  12.159  0.2051 -0.1829  0.2446
  814MPD2     C11978   3.670   3.606  12.438 -0.7574  0.4490  0.1152
  814MPD2    C111979   3.624   3.714  12.371 -0.2132 -0.0093 -0.4024
  814MPD2    C211980   3.657   3.845  12.412 -0.2656 -0.0156  0.0265
  814MPD2    C311981   3.739   3.877  12.514 -0.3903 -0.6517 -0.4600
  814MPD2    C411982   3.785   3.764  12.569 -0.7490 -0.7474 -0.1200
  814MPD2    C511983   3.757   3.636  12.535 -0.5170  0.5433  0.0579
  814MPD2     H11984   3.621   3.921  12.344 -2.2099  0.0346  1.1239
  814MPD2    H111985   3.859   3.772  12.648  1.5298 -1.6976 -2.1735
  814MPD2    H211986   3.668   3.502  12.409  1.6515  0.4970 -0.2288
  814MPD2    H311987   3.811   3.550  12.574 -1.6804  0.6663  1.9588
  814MPD2     N11988   3.779   4.006  12.549  0.2145  0.5968 -0.2698
  814MPD2    H511989   3.851   4.013  12.620  0.0612 -0.2415 -0.0319
  814MPD2    N111990   3.571   3.706  12.240 -0.2089  0.0522 -0.9450
  814MPD2    H711991   3.585   3.786  12.179  1.3197 -0.5678 -1.4150
  815MPD2     C11992   4.220   2.620  11.288  0.3847  0.7961  0.0861
  815MPD2    C111993   4.195   2.496  11.341  0.2436 -0.1786 -0.0290
  815MPD2    C211994   4.088   2.479  11.425 -0.3134  0.0369 -0.5551
  815MPD2    C311995   3.997   2.577  11.462 -0.4984 -0.2249  0.5498
  815MPD2    C411996   4.030   2.700  11.420 -0.1661 -0.1820  0.6172
  815MPD2    C511997   4.135   2.722  11.336 -0.0459  0.4659 -0.2683
  815MPD2     H11998   4.064   2.378  11.455  2.0195  0.0645  1.3383
  815MPD2    H111999   3.973   2.788  11.446 -1.1823 -0.4915 -0.5889
  815MPD2    H212000   4.306   2.642  11.226 -0.6301  1.4576 -1.0719
  815MPD2    H312001   4.151   2.825  11.304 -3.1472  0.7980 -0.7359
  815MPD2     N12002   3.879   2.540  11.525  0.5004 -0.2324 -0.4857
  815MPD2    H512003   3.869   2.444  11.556  2.0511 -0.1248  0.3297
  815MPD2    N112004   4.278   2.390  11.296 -0.0258 -0.0944 -0.6679
  815MPD2    H712005   4.342   2.405  11.218  3.2072 -0.4473  1.8832
  816MPD2     C12006   3.366   1.559  17.037  0.0673 -0.0815 -0.4846
  816MPD2    C112007   3.443   1.673  17.053  0.6118  0.1418 -0.6527
  816MPD2    C212008   3.567   1.677  16.993  0.0659 -0.3029 -0.9877
  816MPD2    C312009   3.618   1.573  16.925  0.3049 -0.2440 -0.0464
  816MPD2    C412010   3.551   1.454  16.923 -0.0933 -0.2857 -0.7969
  816MPD2    C512011   3.426   1.448  16.975  0.1578  0.5270 -0.5027
  816MPD2     H12012   3.617   1.773  16.993  0.0489 -0.2740  3.1313
  816MPD2    H112013   3.581   1.362  16.873 -1.3578 -0.7105 -0.7689
  816MPD2    H212014   3.266   1.553  17.078  0.1777  1.2199 -0.0195
  816MPD2    H312015   3.376   1.352  16.964  0.2651 -0.0699  3.8766
  816MPD2     N12016   3.741   1.594  16.856 -0.1196  0.1874 -0.0614
  816MPD2    H512017   3.788   1.683  16.868  1.5523 -0.5664 -1.0510
  816MPD2    N112018   3.379   1.793  17.110 -0.2362  0.0462  0.0106
  816MPD2    H712019   3.280   1.783  17.129 -0.4148  0.2347 -0.8167
  817MPD2     C12020   3.941   2.969   9.482  0.2312  0.3557  0.4044
  817MPD2    C112021   3.812   2.948   9.426  0.0119 -0.3804  0.7221
  817MPD2    C212022   3.723   3.048   9.415 -0.2279 -0.2056 -0.0277
  817MPD2    C312023   3.767   3.181   9.432  0.4170 -0.4092  0.4197
  817MPD2    C412024   3.899   3.203   9.486 -0.1493  0.1717 -0.2587
  817MPD2    C512025   3.984   3.099   9.505 -0.0730  0.8898 -0.1161
  817MPD2     H12026   3.619   3.036   9.385 -0.1985 -0.8134  0.1140
  817MPD2    H112027   3.945   3.298   9.511  2.5011 -1.1414 -0.2086
  817MPD2    H212028   4.013   2.890   9.495  0.0157  0.3945  1.8145
  817MPD2    H312029   4.087   3.114   9.534  0.5549  1.5322 -2.6357
  817MPD2     N12030   3.681   3.289   9.404 -0.3785  0.1504  0.2571
  817MPD2    H512031   3.589   3.258   9.373 -0.2205 -1.3285  1.2814
  817MPD2    N112032   3.786   2.811   9.410 -0.2367  0.0037  0.4110
  817MPD2    H712033   3.866   2.754   9.433 -0.5661 -0.5029  0.2914
  818MPD2     C12034   2.912   3.496  10.433 -0.7331  0.6645  0.2762
  818MPD2    C112035   2.778   3.487  10.425 -0.1821  0.0066  0.5237
  818MPD2    C212036   2.717   3.405  10.335 -0.2343  0.7969  0.3762
  818MPD2    C312037   2.792   3.330  10.255  0.4371 -0.2560 -0.1710
  818MPD2    C412038   2.929   3.330  10.260 -0.0633 -0.0568  0.1923
  818MPD2    C512039   2.987   3.419  10.350 -0.1165  0.5267  0.2702
  818MPD2     H12040   2.610   3.392  10.343  0.3829 -4.0635  0.9519
  818MPD2    H112041   2.982   3.263  10.194 -0.3291  0.0262 -0.1074
  818MPD2    H212042   2.971   3.566  10.491  0.0282 -0.7469  1.1924
  818MPD2    H312043   3.094   3.427  10.364  0.0740 -1.1963 -0.1634
  818MPD2     N12044   2.736   3.233  10.168 -0.2605  0.3867 -0.5142
  818MPD2    H512045   2.793   3.178  10.105 -0.3340 -1.1585  0.7705
  818MPD2    N112046   2.699   3.551  10.519 -0.2375 -0.3703 -0.6754
  818MPD2    H712047   2.599   3.534  10.513 -0.2929  0.7654 -2.9063
  819MPD2     C12048   0.339   0.356  15.257 -0.0721 -0.4593  0.3885
  819MPD2    C112049   0.336   0.229  15.302  0.2104  0.3744 -0.7534
  819MPD2    C212050   0.426   0.189  15.409 -0.7419 -0.0408  0.5099
  819MPD2    C312051   0.517   0.280  15.462 -0.0931  0.4870 -0.4673
  819MPD2    C412052   0.518   0.406  15.416 -0.5110 -0.2897 -0.7842
  819MPD2    C512053   0.427   0.440  15.314 -0.0556 -0.2231  0.1454
  819MPD2     H12054   0.436   0.089  15.450  0.1991  0.7057  2.0491
  819MPD2    H112055   0.583   0.483  15.456 -1.7937 -0.2281  1.1679
  819MPD2    H212056   0.277   0.395  15.177  1.1806 -0.6745 -0.6940
  819MPD2    H312057   0.438   0.533  15.259 -1.1248 -0.2713 -0.1547
  819MPD2     N12058   0.598   0.241  15.568  0.2034 -0.0108  0.1832
  819MPD2    H512059   0.611   0.143  15.590  3.8532  0.2082 -0.9144
  819MPD2    N112060   0.246   0.140  15.233 -0.2404  0.0502 -0.3325
  819MPD2    H712061   0.204   0.174  15.147 -0.9994  1.3268  0.5503
  820MPD2     C12062   4.279   0.167  14.623 -0.6152 -0.6210  0.1862
  820MPD2    C112063   4.346   0.248  14.717 -0.0772  0.2075 -0.3579
  820MPD2    C212064   4.396   0.192  14.834  0.4546  0.5941  0.4748
  820MPD2    C312065   4.386   0.055  14.856  0.3501  0.5612  0.1029
  820MPD2    C412066   4.320   4.702  14.763  0.0711  0.1912  0.6792
  820MPD2    C512067   4.263   0.034  14.655  0.2178 -0.1214 -0.4896
  820MPD2     H12068   4.441   0.256  14.909 -0.4763 -0.7996  2.2190
  820MPD2    H112069   4.322   4.594  14.777  3.1358  0.3921  1.6832
  820MPD2    H212070   4.226   0.212  14.540 -2.9316 -2.1213  0.8757
  820MPD2    H312071   4.218   4.700  14.578 -1.3430  1.0900 -0.5634
  820MPD2     N12072   4.446   4.710  14.960 -0.4079  0.1432 -0.3209
  820MPD2    H512073   4.441   4.611  14.941  1.3197 -0.1772  0.8654
  820MPD2    N112074   4.366   0.390  14.685 -0.1095 -0.6712  0.1374
  820MPD2    H712075   4.315   0.427  14.606  0.9550  0.3984 -0.0393
  821MPD2     C12076   0.680   1.504  12.972 -0.2414 -0.0531 -0.1395
  821MPD2    C112077   0.791   1.445  13.017 -0.1245  0.5980  0.8465
  821MPD2    C212078   0.905   1.442  12.939  0.3176 -0.0822 -0.5021
  821MPD2    C312079   0.911   1.508  12.818 -0.3193  0.1075  1.1320
  821MPD2    C412080   0.789   1.568  12.769 -0.7683  0.4577  0.3131
  821MPD2    C512081   0.678   1.568  12.855 -0.0138  0.1912  0.1189
  821MPD2     H12082   0.991   1.391  12.980  0.1154 -1.2681 -1.5603
  821MPD2    H112083   0.792   1.623  12.676 -0.7289 -0.4120 -0.2025
  821MPD2    H212084   0.582   1.488  13.016 -0.4419 -0.1975 -0.6431
  821MPD2    H312085   0.582   1.596  12.813 -1.4963 -0.7432  2.8948
  821MPD2     N12086   1.027   1.512  12.733  0.1302 -0.4537 -0.3928
  821MPD2    H512087   1.030   1.580  12.657 -1.3500 -0.0285 -0.0750
  821MPD2    N112088   0.800   1.374  13.137 -0.0835 -0.0526 -0.2445
  821MPD2    H712089   0.887   1.325  13.155  0.6464  0.1119 -3.3101
  822MPD2     C12090   1.385   1.514  15.762 -0.1719  0.5931  0.6569
  822MPD2    C112091   1.344   1.478  15.883  0.4486  0.1144 -0.4905
  822MPD2    C212092   1.274   1.561  15.966 -0.1320 -0.6276  0.8091
  822MPD2    C312093   1.240   1.691  15.928 -0.7259 -0.1789  0.2982
  822MPD2    C412094   1.273   1.721  15.799  0.5350  0.3212  0.9863
  822MPD2    C512095   1.344   1.639  15.719  0.3273  0.0192 -1.0457
  822MPD2     H12096   1.255   1.540  16.071  2.3652 -3.6626  0.6429
  822MPD2    H112097   1.234   1.812  15.754  0.0124 -0.7993 -0.8042
  822MPD2    H212098   1.453   1.456  15.700  0.1071  1.5650  0.0385
  822MPD2    H312099   1.374   1.669  15.620  2.9978  0.4646 -0.0851
  822MPD2     N12100   1.184   1.781  16.023 -0.2466 -0.0250 -0.3272
  822MPD2    H512101   1.167   1.751  16.118 -0.8814  4.9607  1.0934
  822MPD2    N112102   1.374   1.352  15.947  0.0955 -0.4080 -0.7563
  822MPD2    H712103   1.343   1.333  16.042 -1.9245  0.1881 -1.3029
  823MPD2     C12104   0.860   1.966  16.775 -0.7273 -0.6686 -1.0252
  823MPD2    C112105   0.925   1.887  16.685  0.3278 -1.0960  0.0444
  823MPD2    C212106   0.948   1.756  16.709 -0.1168 -0.0309 -0.8588
  823MPD2    C312107   0.919   1.698  16.831 -0.8044  0.1368  0.2234
  823MPD2    C412108   0.845   1.780  16.912 -0.1088  0.8138  0.0607
  823MPD2    C512109   0.829   1.912  16.895  0.7255 -0.7129 -0.5608
  823MPD2     H12110   1.011   1.704  16.638  0.9564 -3.2829  2.4701
  823MPD2    H112111   0.813   1.738  17.006  2.4635  2.2847  1.5806
  823MPD2    H212112   0.829   2.067  16.750  2.9801  0.9439  0.8062
  823MPD2    H312113   0.785   1.978  16.969  3.1114 -0.5489  0.7163
  823MPD2     N12114   0.958   1.565  16.863  0.3052 -0.1612 -0.0411
  823MPD2    H512115   0.930   1.537  16.956  0.0439  1.2190  0.2976
  823MPD2    N112116   0.972   1.950  16.569 -0.0647  0.3513  0.0417
  823MPD2    H712117   0.973   2.052  16.572  0.8966  0.3702 -0.9417
  824MPD2     C12118   1.434   0.551  15.782 -0.1415  0.1472 -0.1622
  824MPD2    C112119   1.540   0.638  15.788 -0.0849  0.3829  0.4055
  824MPD2    C212120   1.662   0.596  15.726  0.1669 -0.6336 -0.2480
  824MPD2    C312121   1.679   0.477  15.661  0.1387  0.4298 -0.3878
  824MPD2    C412122   1.569   0.390  15.664 -0.3457  0.0795  0.1787
  824MPD2    C512123   1.451   0.430  15.719  0.4584  0.9493  0.0045
  824MPD2     H12124   1.744   0.667  15.734 -0.4551 -0.0556  1.0052
  824MPD2    H112125   1.572   0.294  15.614  0.6594 -0.3144  0.9847
  824MPD2    H212126   1.337   0.579  15.821 -0.2995 -1.8948  0.9219
  824MPD2    H312127   1.368   0.360  15.719 -0.6257  2.2410  0.9301
  824MPD2     N12128   1.806   0.438  15.625  0.4776  0.4718  0.4115
  824MPD2    H512129   1.882   0.505  15.632  1.9390 -0.9942 -1.5030
  824MPD2    N112130   1.528   0.760  15.855 -0.4362  0.0173  0.0740
  824MPD2    H712131   1.610   0.820  15.860 -0.5402  0.1029  0.7187
  825MPD2     C12132   2.574   0.445  15.201 -0.6316 -0.4510  0.2024
  825MPD2    C112133   2.480   0.514  15.274  0.6409 -0.0315  0.0946
  825MPD2    C212134   2.477   0.653  15.267  0.5487  0.3973  0.6015
  825MPD2    C312135   2.565   0.723  15.187  0.4233  0.2863  0.0894
  825MPD2    C412136   2.657   0.655  15.118 -0.3424  0.0931  0.0751
  825MPD2    C512137   2.663   0.519  15.123 -0.6143 -0.1235  0.0177
  825MPD2     H12138   2.406   0.710  15.325  0.3951 -0.4763  1.2746
  825MPD2    H112139   2.732   0.703  15.056 -1.9315  1.3648 -0.8341
  825MPD2    H212140   2.574   0.337  15.199 -0.5484 -0.4791  1.3430
  825MPD2    H312141   2.736   0.467  15.063  1.2260  0.5789  1.6275
  825MPD2     N12142   2.584   0.864  15.185  0.1142 -0.1869 -0.1524
  825MPD2    H512143   2.646   0.905  15.116 -0.1991 -1.4920 -1.2070
  825MPD2    N112144   2.381   0.432  15.342 -0.4277 -0.4183  0.7128
  825MPD2    H712145   2.398   0.332  15.339 -0.6289 -0.5410  3.6435
  826MPD2     C12146   2.153   0.786  13.676  0.5284 -0.5768 -0.0342
  826MPD2    C112147   2.080   0.779  13.560 -0.2919  0.0168 -0.2483
  826MPD2    C212148   1.950   0.822  13.547  0.3118 -0.7839 -0.6922
  826MPD2    C312149   1.895   0.885  13.659  0.4948  0.0643  0.2478
  826MPD2    C412150   1.969   0.889  13.777 -0.3247 -0.5424  0.0563
  826MPD2    C512151   2.094   0.832  13.786 -0.0707 -0.0662 -0.2265
  826MPD2     H12152   1.897   0.825  13.453  0.0206 -1.2459 -0.5429
  826MPD2    H112153   1.935   0.941  13.865  0.2252 -1.0397  0.5571
  826MPD2    H212154   2.251   0.741  13.689  1.1574  0.8701  0.1584
  826MPD2    H312155   2.149   0.845  13.878 -1.6494 -1.0154  0.8601
  826MPD2     N12156   1.766   0.940  13.658 -0.1359  0.5944 -1.2369
  826MPD2    H512157   1.733   0.970  13.749 -1.4179 -0.8087 -1.2586
  826MPD2    N112158   2.142   0.717  13.451  0.6191 -0.0988 -0.6899
  826MPD2    H712159   2.235   0.681  13.473  0.7543 -0.4091 -1.7649
  827MPD2     C12160   2.865   1.397   9.792 -0.0875 -0.5594  0.0208
  827MPD2    C112161   2.804   1.348   9.904 -0.0389 -0.9373  0.4353
  827MPD2    C212162   2.703   1.254   9.890 -0.1405  0.2316 -0.3367
  827MPD2    C312163   2.665   1.210   9.766  0.1570  0.5049  0.1712
  827MPD2    C412164   2.736   1.261   9.655 -0.5255  0.6520  0.9126
  827MPD2    C512165   2.838   1.348   9.671  0.3111 -0.1291 -0.3774
  827MPD2     H12166   2.652   1.206   9.973 -0.7461  1.9874  0.3182
  827MPD2    H112167   2.711   1.236   9.553  0.8222  0.2736  0.6736
  827MPD2    H212168   2.947   1.468   9.803 -0.6229 -0.3487  2.5579
  827MPD2    H312169   2.886   1.389   9.583  2.2185 -1.8984 -0.1517
  827MPD2     N12170   2.557   1.119   9.752  0.1381 -0.1756 -0.2466
  827MPD2    H512171   2.494   1.106   9.830 -0.2500  0.4996 -0.4438
  827MPD2    N112172   2.860   1.388  10.029 -1.6914  0.0329  0.4652
  827MPD2    H712173   2.935   1.456  10.018 -3.1231  1.6656  0.7970
  828MPD2     C12174   1.535   2.051  11.917  0.3332 -0.5032  0.4197
  828MPD2    C112175   1.468   1.951  11.851  0.0488 -0.1364 -0.7173
  828MPD2    C212176   1.544   1.867  11.768  0.2089  0.4536  0.2974
  828MPD2    C312177   1.679   1.882  11.744  0.0533 -0.5254  0.0161
  828MPD2    C412178   1.750   1.983  11.817 -0.3659 -0.1914  0.4118
  828MPD2    C512179   1.673   2.065  11.901  0.0730  0.0701 -0.1213
  828MPD2     H12180   1.489   1.789  11.717  1.8091  0.2179 -1.0558
  828MPD2    H112181   1.858   1.994  11.815 -0.2998 -0.9972 -0.5609
  828MPD2    H212182   1.476   2.118  11.979  3.8052  2.8878  0.0620
  828MPD2    H312183   1.727   2.146  11.948 -1.6736  1.8690 -1.2496
  828MPD2     N12184   1.758   1.794  11.667  0.7337  0.2635 -0.1132
  828MPD2    H512185   1.858   1.808  11.681  1.0655 -2.3809  0.1794
  828MPD2    N112186   1.330   1.946  11.852  0.0876 -0.7859 -0.4742
  828MPD2    H712187   1.291   1.897  11.772 -1.3548  0.4526 -0.5394
  829MPD2     C12188   0.840   1.494  11.293 -0.1645  0.5360  0.0455
  829MPD2    C112189   0.751   1.568  11.365  0.0928 -0.3353 -0.0336
  829MPD2    C212190   0.796   1.654  11.455 -0.5763 -0.2228 -0.7241
  829MPD2    C312191   0.933   1.677  11.485  0.0729  0.0230  0.1810
  829MPD2    C412192   1.019   1.602  11.411 -0.0017  0.4407  0.0100
  829MPD2    C512193   0.967   1.515  11.322 -0.0863  0.3898 -0.4266
  829MPD2     H12194   0.726   1.692  11.528 -0.5754 -1.7441  0.0679
  829MPD2    H112195   1.123   1.597  11.440 -0.0170  0.0216 -0.0078
  829MPD2    H212196   0.809   1.417  11.224 -1.9711 -0.1001  1.5681
  829MPD2    H312197   1.033   1.451  11.264 -1.6257 -1.2138 -0.3980
  829MPD2     N12198   0.972   1.763  11.588  0.2978 -0.4707  0.8848
  829MPD2    H512199   1.067   1.755  11.625  0.8638  0.1031 -0.4282
  829MPD2    N112200   0.614   1.546  11.346 -0.1944  0.1340  0.3465
  829MPD2    H712201   0.588   1.472  11.283  1.5559 -1.1935  1.1715
  830MPD2     C12202   1.342   4.628  15.539  0.6211  1.1428  1.2652
  830MPD2    C112203   1.319   0.034  15.553 -0.0256  0.3147 -0.8859
  830MPD2    C212204   1.392   0.125  15.482  0.0188  0.7705 -0.1910
  830MPD2    C312205   1.477   0.082  15.387  0.1068 -0.6400  0.4510
  830MPD2    C412206   1.501   4.672  15.371  0.6996  0.1034 -0.1894
  830MPD2    C512207   1.431   4.573  15.443 -0.5246 -0.0343  0.0718
  830MPD2     H12208   1.375   0.232  15.487  0.7216  0.9740 -2.2734
  830MPD2    H112209   1.575   4.645  15.298 -0.9539 -1.4666 -1.2751
  830MPD2    H212210   1.286   4.562  15.604  0.0810 -1.2531 -1.6688
  830MPD2    H312211   1.446   4.466  15.442 -2.1226 -0.2697  2.0390
  830MPD2     N12212   1.526   0.187  15.312  0.2163 -0.1907  0.3193
  830MPD2    H512213   1.504   0.284  15.335 -0.3392 -0.1123 -0.5328
  830MPD2    N112214   1.208   0.071  15.637 -0.3010  0.0673 -0.0039
  830MPD2    H712215   1.151   4.726  15.678  1.5093 -0.7383  1.1217
  831MPD2     C12216   1.478   1.783  16.348 -0.1211 -0.0200  0.1419
  831MPD2    C112217   1.485   1.662  16.278  0.0283 -0.3611 -0.1403
  831MPD2    C212218   1.399   1.557  16.303 -0.2216  0.1930 -0.1717
  831MPD2    C312219   1.291   1.586  16.387  0.3060 -0.4218 -0.1481
  831MPD2    C412220   1.284   1.703  16.458  0.4733 -1.2012  0.7722
  831MPD2    C512221   1.376   1.802  16.440 -0.1344  0.3463  0.2763
  831MPD2     H12222   1.407   1.472  16.236 -0.8652  1.2020 -1.5376
  831MPD2    H112223   1.209   1.710  16.537  2.0324 -1.1353  2.2541
  831MPD2    H212224   1.555   1.858  16.333 -0.5589  0.8230  2.2051
  831MPD2    H312225   1.371   1.892  16.501 -0.0183  1.3324 -1.1751
  831MPD2     N12226   1.176   1.503  16.383 -0.0191 -0.3221  0.3846
  831MPD2    H512227   1.104   1.537  16.446 -1.1961 -0.5136 -0.8849
  831MPD2    N112228   1.578   1.664  16.165  0.4212  0.0749 -0.0808
  831MPD2    H712229   1.617   1.754  16.136  0.2658  0.3620  0.5976
  832MPD2     C12230   4.519   2.512  17.042  0.1197  0.5739 -0.5874
  832MPD2    C112231   4.507   2.645  17.041 -0.1824 -0.8079 -0.2250
  832MPD2    C212232   4.388   2.708  17.013 -1.0128 -0.5025 -0.1955
  832MPD2    C312233   4.282   2.636  16.955 -0.0798 -0.0449  0.0417
  832MPD2    C412234   4.297   2.499  16.950  0.0607 -0.5596  0.4334
  832MPD2    C512235   4.416   2.442  16.997  0.7241 -0.7625 -0.3606
  832MPD2     H12236   4.380   2.816  17.016  0.1221 -0.4163 -0.4979
  832MPD2    H112237   4.211   2.438  16.925 -0.6755  0.5319  0.2697
  832MPD2    H212238   4.608   2.467  17.085 -1.2099  2.2410  3.8615
  832MPD2    H312239   4.417   2.333  17.001  0.1166 -0.7090  0.8715
  832MPD2     N12240   4.165   2.693  16.898  0.4513  0.2475  0.9703
  832MPD2    H512241   4.094   2.626  16.871 -0.8062  1.2800  1.7114
  832MPD2    N112242   4.613   2.714  17.101  0.0914  0.0501  0.1402
  832MPD2    H712243   4.681   2.660  17.154 -0.6074 -2.2288 -1.2536
  833MPD2     C12244   1.482   4.412  12.966  0.5546 -0.0308  0.0515
  833MPD2    C112245   1.552   4.528  12.941  1.1945 -0.8365  1.2830
  833MPD2    C212246   1.685   4.524  12.925 -0.6079  0.1887 -0.9302
  833MPD2    C312247   1.755   4.401  12.927 -0.0444  0.1697 -0.3661
  833MPD2    C412248   1.688   4.285  12.944 -0.6970 -0.0812  0.0710
  833MPD2    C512249   1.549   4.289  12.965  0.0416  0.5143 -0.5661
  833MPD2     H12250   1.741   4.613  12.897  0.3823 -0.2843 -0.4663
  833MPD2    H112251   1.736   4.189  12.933 -0.2572  0.1878 -0.3519
  833MPD2    H212252   1.374   4.409  12.962  0.5066 -0.1414  1.6599
  833MPD2    H312253   1.493   4.196  12.972 -1.6415  1.5464 -0.4570
  833MPD2     N12254   1.887   4.389  12.875 -0.1165  0.5885 -0.1464
  833MPD2    H512255   1.936   4.300  12.865 -0.3020  0.3557  0.9734
  833MPD2    N112256   1.476   4.646  12.940  0.5461 -0.5497 -0.5820
  833MPD2    H712257   1.376   4.646  12.959  0.3477 -1.5026 -1.6177
  834MPD2     C12258   2.170   3.994  12.064 -0.3754  1.3196  0.4344
  834MPD2    C112259   2.162   4.121  12.025  0.1146  0.4177 -0.2010
  834MPD2    C212260   2.178   4.223  12.116  0.2737  0.0393  0.6427
  834MPD2    C312261   2.206   4.196  12.253  0.7553 -1.0185 -0.2048
  834MPD2    C412262   2.213   4.063  12.293  0.2387  0.4487  0.2392
  834MPD2    C512263   2.186   3.960  12.199  0.3366  0.2637 -0.6209
  834MPD2     H12264   2.185   4.325  12.080 -0.7929 -0.1140  0.0121
  834MPD2    H112265   2.225   4.032  12.396  0.4486  3.7738  1.1970
  834MPD2    H212266   2.164   3.910  11.995  1.0338 -0.6645  2.7489
  834MPD2    H312267   2.191   3.858  12.235  2.8421  0.8018  0.5781
  834MPD2     N12268   2.191   4.295  12.353  0.6005  0.6239  0.4097
  834MPD2    H512269   2.217   4.390  12.327  0.3815  0.5943  0.0897
  834MPD2    N112270   2.134   4.146  11.887  0.0223 -0.5096  0.3288
  834MPD2    H712271   2.121   4.059  11.835 -0.3216 -2.0309  2.9597
  835MPD2     C12272   2.185   1.519  11.133 -0.4775 -0.3047  0.2252
  835MPD2    C112273   2.136   1.647  11.126 -0.1259 -0.1107 -0.4668
  835MPD2    C212274   2.195   1.751  11.191 -0.4050  0.1669 -0.5261
  835MPD2    C312275   2.306   1.737  11.270  0.1006  0.5598 -0.0028
  835MPD2    C412276   2.357   1.608  11.278 -0.0956  0.1439 -0.7143
  835MPD2    C512277   2.298   1.503  11.213 -0.6505 -0.3540 -0.0333
  835MPD2     H12278   2.138   1.843  11.189 -1.7137 -0.5893  1.7754
  835MPD2    H112279   2.452   1.593  11.328 -0.7479 -0.2413  0.4106
  835MPD2    H212280   2.123   1.437  11.099  1.7120 -1.2373 -1.5451
  835MPD2    H312281   2.339   1.407  11.240 -2.6206 -1.4056 -0.7918
  835MPD2     N12282   2.367   1.842  11.339 -0.0482 -0.0361  0.4825
  835MPD2    H512283   2.459   1.832  11.382 -0.4819 -2.4613  0.8189
  835MPD2    N112284   2.025   1.678  11.051 -0.6675 -0.5709 -0.3660
  835MPD2    H712285   1.986   1.771  11.064  0.8666  0.1134 -0.6585
  836MPD2     C12286   2.438   2.476  11.944  0.4158 -0.3124 -0.4025
  836MPD2    C112287   2.332   2.452  11.856  0.1123  0.0070  0.0114
  836MPD2    C212288   2.197   2.451  11.891 -0.1729 -0.1372  0.2240
  836MPD2    C312289   2.172   2.476  12.025 -0.3408 -0.3859  0.4319
  836MPD2    C412290   2.271   2.503  12.112 -0.4198 -0.2244 -0.2838
  836MPD2    C512291   2.404   2.497  12.076 -0.9414 -0.1111 -0.1261
  836MPD2     H12292   2.112   2.423  11.830  2.1628  0.5122 -3.3016
  836MPD2    H112293   2.249   2.512  12.217  1.1781  2.2955 -0.1625
  836MPD2    H212294   2.543   2.462  11.920  0.9698  1.1015  1.2826
  836MPD2    H312295   2.488   2.506  12.144 -0.0971  0.3514 -1.2451
  836MPD2     N12296   2.049   2.461  12.089 -0.5483  0.0085  0.1989
  836MPD2    H512297   2.056   2.500  12.182  0.4099  3.3341 -1.2779
  836MPD2    N112298   2.376   2.414  11.724  0.2925 -0.0584  0.3320
  836MPD2    H712299   2.476   2.396  11.718 -0.0184 -1.0572 -1.7869
  837MPD2     C12300   0.371   1.110   9.457  0.3552 -0.9261 -0.0942
  837MPD2    C112301   0.396   1.163   9.584  0.2055  0.2065  0.2541
  837MPD2    C212302   0.497   1.254   9.594 -0.2421 -0.5116  0.1790
  837MPD2    C312303   0.561   1.306   9.486 -0.7376  0.4367  0.9025
  837MPD2    C412304   0.533   1.260   9.358  0.1765 -0.2471 -0.4289
  837MPD2    C512305   0.443   1.161   9.348 -0.0006 -0.0879  0.4091
  837MPD2     H12306   0.531   1.279   9.694 -0.1966 -0.7789  0.2316
  837MPD2    H112307   0.575   1.288   9.262 -1.8227 -0.3043 -1.3221
  837MPD2    H212308   0.286   1.046   9.437 -0.2329  0.0097 -0.6314
  837MPD2    H312309   0.406   1.128   9.252  0.1899  0.6112  0.0903
  837MPD2     N12310   0.630   1.422   9.516  0.1665 -0.2650  0.3059
  837MPD2    H512311   0.619   1.455   9.611 -0.7765  1.9859 -0.5908
  837MPD2    N112312   0.334   1.127   9.703 -0.1130 -0.1400 -0.5015
  837MPD2    H712313   0.363   1.178   9.786  0.4202  0.1481 -0.8695
  838MPD2     C12314   3.225   0.068  12.337 -0.6212  0.2610 -0.3192
  838MPD2    C112315   3.226   4.681  12.256  0.2822 -0.0751 -0.1872
  838MPD2    C212316   3.102   4.642  12.200  0.7419  0.0259 -0.4351
  838MPD2    C312317   2.988   4.725  12.210  0.2982 -0.8050 -0.2887
  838MPD2    C412318   3.005   0.110  12.294  0.0417 -0.0181  0.3050
  838MPD2    C512319   3.116   0.136  12.363  0.2204 -0.9919  0.3262
  838MPD2     H12320   3.092   4.546  12.150 -1.2434 -1.4004  2.6999
  838MPD2    H112321   2.927   0.185  12.301  2.3350  2.4136 -0.0588
  838MPD2    H212322   3.309   0.075  12.405  1.4128  0.1532 -2.8319
  838MPD2    H312323   3.135   0.223  12.424  2.1546 -1.0157 -0.2407
  838MPD2     N12324   2.873   4.691  12.140 -0.1183 -0.2365  0.0861
  838MPD2    H512325   2.874   4.601  12.094  0.3124 -1.7647  3.0388
  838MPD2    N112326   3.339   4.607  12.251 -0.0829  0.7239 -0.6164
  838MPD2    H712327   3.331   4.516  12.205 -1.4464  1.4642 -1.8431
  839MPD2     C12328   3.216   3.837  12.229 -0.1055 -0.0471 -0.5125
  839MPD2    C112329   3.222   3.889  12.103 -1.2397  0.3813  0.5434
  839MPD2    C212330   3.316   3.988  12.083  0.2757 -0.0597  0.1384
  839MPD2    C312331   3.378   4.043  12.191 -0.3902 -0.4991  0.2021
  839MPD2    C412332   3.360   3.996  12.319 -0.0884 -0.3644 -0.3037
  839MPD2    C512333   3.290   3.884  12.335  0.0842 -0.4297  0.6874
  839MPD2     H12334   3.333   4.020  11.981  0.3834 -2.5114 -0.5909
  839MPD2    H112335   3.419   4.035  12.401 -1.3701  1.3673 -0.2016
  839MPD2    H212336   3.153   3.752  12.251  0.3694 -0.1191  0.5818
  839MPD2    H312337   3.281   3.831  12.429  1.9082  0.4946  1.3791
  839MPD2     N12338   3.475   4.146  12.184 -0.1060 -0.2470 -0.1542
  839MPD2    H512339   3.507   4.180  12.274  1.3334  0.8531 -1.0816
  839MPD2    N112340   3.147   3.841  11.994 -0.4312  0.8230  0.8800
  839MPD2    H712341   3.167   3.882  11.903  0.4826 -0.9553  0.2789
  840MPD2     C12342   3.457   1.502  10.080 -0.6734 -0.0653 -0.3647
  840MPD2    C112343   3.386   1.550  10.187  0.2985 -0.2238 -0.5749
  840MPD2    C212344   3.429   1.664  10.253 -0.4409  0.4698 -0.9843
  840MPD2    C312345   3.551   1.721  10.227 -0.7207  0.2551  0.3190
  840MPD2    C412346   3.626   1.666  10.118 -0.2010  0.3301  0.8492
  840MPD2    C512347   3.579   1.561  10.041  0.3370  0.5119  0.7830
  840MPD2     H12348   3.365   1.726  10.315 -2.0354 -4.2996  2.1235
  840MPD2    H112349   3.725   1.702  10.094 -0.4847  1.4490  1.3311
  840MPD2    H212350   3.427   1.406  10.039 -0.3893 -0.4814  0.4105
  840MPD2    H312351   3.636   1.517   9.961 -0.7789 -0.2759  0.4278
  840MPD2     N12352   3.604   1.831  10.298 -0.2139 -0.2115  0.2807
  840MPD2    H512353   3.684   1.876  10.254 -2.6097  1.1934 -2.5258
  840MPD2    N112354   3.266   1.481  10.231  0.4889  0.5739  0.0676
  840MPD2    H712355   3.241   1.390  10.195 -1.6581  0.6594  1.3364
  841MPD2     C12356   2.944   2.069  14.167  0.0935 -0.9034  0.4604
  841MPD2    C112357   2.999   2.002  14.268  0.4774 -0.4879  0.4082
  841MPD2    C212358   3.079   2.056  14.366  0.3840  0.1540 -0.5240
  841MPD2    C312359   3.106   2.194  14.361 -0.3468  0.5519 -0.0680
  841MPD2    C412360   3.055   2.266  14.253  0.2719  0.4208 -0.4312
  841MPD2    C512361   2.977   2.200  14.163  0.0146 -0.3640  0.2799
  841MPD2     H12362   3.120   1.993  14.444  0.0753  1.6254  0.8359
  841MPD2    H112363   3.069   2.374  14.246 -2.5831  1.1047  4.2584
  841MPD2    H212364   2.877   2.029  14.092 -0.2185  0.1323  0.1893
  841MPD2    H312365   2.932   2.249  14.078  1.4383 -0.5144 -0.5509
  841MPD2     N12366   3.209   2.238  14.445 -0.0608 -0.4756  0.1403
  841MPD2    H512367   3.244   2.159  14.499 -1.0596 -0.7661  0.3676
  841MPD2    N112368   2.977   1.860  14.273  0.7573 -0.3540 -0.6000
  841MPD2    H712369   3.007   1.804  14.352  1.0656  0.7510  0.0601
  842MPD2     C12370   3.977   3.247  16.863  0.0395  0.0310  0.0840
  842MPD2    C112371   3.844   3.208  16.846 -0.3892  0.2884  0.2942
  842MPD2    C212372   3.771   3.172  16.958  0.0141 -0.2796 -0.2683
  842MPD2    C312373   3.821   3.174  17.084  0.1268  0.8863  0.0302
  842MPD2    C412374   3.957   3.190  17.099 -0.0660  0.1789 -0.2833
  842MPD2    C512375   4.033   3.227  16.989  0.3150 -0.4867 -0.2440
  842MPD2     H12376   3.665   3.162  16.939 -0.2151  0.1022  0.8223
  842MPD2    H112377   4.015   3.192  17.190 -0.6355  0.3809  0.0707
  842MPD2    H212378   4.036   3.278  16.777 -2.6467  1.4458 -1.2779
  842MPD2    H312379   4.140   3.236  17.002  0.1886 -0.5017  0.8133
  842MPD2     N12380   3.748   3.149  17.197  0.6290  0.4196 -0.4287
  842MPD2    H512381   3.809   3.156  17.278  2.0966 -0.5857 -1.4411
  842MPD2    N112382   3.776   3.219  16.721 -0.1149 -0.4862  0.0286
  842MPD2    H712383   3.830   3.257  16.644 -0.6906 -0.2386 -0.2569
  843MPD2     C12384   0.532   3.152   0.571 -0.3532 -0.6868  0.5675
  843MPD2    C112385   0.651   3.078   0.543  0.0182  0.2514  0.0309
  843MPD2    C212386   0.767   3.154   0.519  0.0378  0.3881  0.2663
  843MPD2    C312387   0.758   3.291   0.491  0.1526  0.6954  0.3704
  843MPD2    C412388   0.634   3.354   0.502 -0.1964  0.1669 -0.6472
  843MPD2    C512389   0.524   3.282   0.549  0.3171 -0.9163 -0.4498
  843MPD2     H12390   0.854   3.095   0.490 -0.1520  0.3183 -0.1630
  843MPD2    H112391   0.630   3.462   0.486  2.0657  0.3678  0.1025
  843MPD2    H212392   0.445   3.101   0.612 -1.5462  0.3233 -0.7111
  843MPD2    H312393   0.437   3.346   0.548  0.2061 -1.0382  3.0396
  843MPD2     N12394   0.862   3.372   0.439 -0.1919 -0.0028 -0.4238
  843MPD2    H512395   0.840   3.462   0.398 -3.5933 -1.9259 -2.9082
  843MPD2    N112396   0.645   2.936   0.553 -0.1134 -0.1203  0.6543
  843MPD2    H712397   0.556   2.893   0.578 -0.2407 -0.7590 -0.9449
  844MPD2     C12398   4.003   2.623  16.146  0.0749  0.0176 -0.3541
  844MPD2    C112399   4.040   2.496  16.200  0.6056 -0.1756  0.0953
  844MPD2    C212400   4.102   2.488  16.322  0.1642 -0.7870 -0.7868
  844MPD2    C312401   4.130   2.604  16.389 -0.3681  0.1691  0.5612
  844MPD2    C412402   4.083   2.726  16.347  0.6124 -0.5833  0.1688
  844MPD2    C512403   4.024   2.736  16.224 -0.0924 -0.7570 -0.1166
  844MPD2     H12404   4.122   2.392  16.368 -0.9622 -0.2639  0.7640
  844MPD2    H112405   4.099   2.817  16.404  2.1827 -0.3508 -0.6295
  844MPD2    H212406   3.945   2.642  16.056 -1.2560 -3.0562 -0.1501
  844MPD2    H312407   3.994   2.834  16.189  2.5496 -0.0372 -0.3911
  844MPD2     N12408   4.220   2.586  16.494 -0.0161 -0.2332  0.6276
  844MPD2    H512409   4.230   2.491  16.528  0.0560 -1.1164 -1.8039
  844MPD2    N112410   4.016   2.370  16.125  0.4882 -0.5519 -0.0033
  844MPD2    H712411   4.026   2.279  16.169  2.2435  0.0814  0.9156
  845MPD2     C12412   0.275   3.198  16.809  0.4338 -0.1530 -0.5196
  845MPD2    C112413   0.148   3.213  16.862  0.5408 -0.1766 -0.2750
  845MPD2    C212414   0.065   3.099  16.844 -0.6252  0.2795  0.0033
  845MPD2    C312415   0.104   2.985  16.782 -0.5300  0.8311  0.7009
  845MPD2    C412416   0.239   2.970  16.746  0.6803 -0.0404  0.3814
  845MPD2    C512417   0.321   3.079  16.750 -0.1196  0.5148 -0.2710
  845MPD2     H12418   4.688   3.100  16.869 -1.0544 -2.0339 -1.6564
  845MPD2    H112419   0.275   2.880  16.697 -0.3151 -0.7952  1.0328
  845MPD2    H212420   0.350   3.275  16.799 -0.6449  1.2810  2.3321
  845MPD2    H312421   0.422   3.077  16.712  0.9258  1.6676  2.4667
  845MPD2     N12422   0.014   2.878  16.767  0.7206 -0.2001 -0.4346
  845MPD2    H512423   4.647   2.893  16.798  1.2964  1.7725  0.3277
  845MPD2    N112424   0.113   3.330  16.935 -0.2240 -0.5087  0.3343
  845MPD2    H712425   0.184   3.402  16.934 -0.1207 -0.5817  3.5271
  846MPD2     C12426   1.106   3.838  13.520  0.2721 -0.2984 -0.1379
  846MPD2    C112427   0.987   3.917  13.521  0.0277 -0.4072  0.6293
  846MPD2    C212428   0.931   3.932  13.645 -0.1178 -0.3135  0.0982
  846MPD2    C312429   0.967   3.857  13.755  0.0602  0.7406  0.1408
  846MPD2    C412430   1.086   3.786  13.748 -0.6558 -0.5432 -0.6084
  846MPD2    C512431   1.148   3.779  13.629  0.3227 -0.3118 -0.5988
  846MPD2     H12432   0.845   3.996  13.632 -0.3662 -0.9998 -1.7163
  846MPD2    H112433   1.125   3.721  13.825 -0.4320  1.8421  1.2989
  846MPD2    H212434   1.172   3.825  13.435 -0.7352  2.1137 -1.2932
  846MPD2    H312435   1.241   3.723  13.630  0.4317 -0.0712  1.0786
  846MPD2     N12436   0.878   3.863  13.872 -0.1079  0.5477 -0.4191
  846MPD2    H512437   0.797   3.923  13.866  0.7839  1.9072  1.0436
  846MPD2    N112438   0.934   3.993  13.412  0.8356  0.7155 -0.2141
  846MPD2    H712439   0.850   4.047  13.431 -0.3588 -1.1950 -0.0124
  847MPD2     C12440   1.288   4.592  14.137  0.4025  0.3300 -0.6170
  847MPD2    C112441   1.347   4.681  14.232 -0.2953 -0.0499  0.5409
  847MPD2    C212442   1.377   4.633  14.360 -0.0917 -0.4448  0.7729
  847MPD2    C312443   1.343   4.507  14.400 -0.1197  0.3257  0.1401
  847MPD2    C412444   1.272   4.423  14.312  0.7605 -0.3165  0.7173
  847MPD2    C512445   1.248   4.466  14.182 -0.0046 -0.7352  0.1776
  847MPD2     H12446   1.411   4.701  14.437 -2.4122 -0.8625  2.1636
  847MPD2    H112447   1.239   4.322  14.332 -0.9547  0.1973  0.4602
  847MPD2    H212448   1.267   4.619  14.034  1.6065 -0.0311 -0.9570
  847MPD2    H312449   1.191   4.410  14.109  0.1879 -0.3029 -0.3013
  847MPD2     N12450   1.387   4.470  14.524 -0.3448  0.1492  0.0017
  847MPD2    H512451   1.449   4.536  14.570 -0.1437  0.7388 -1.1296
  847MPD2    N112452   1.391   0.083  14.206 -0.7512 -0.5841 -0.3760
  847MPD2    H712453   1.432   0.132  14.285 -0.1024  1.2051 -1.8416
  848MPD2     C12454   3.876   3.103  16.222 -0.4569  0.1563  0.3189
  848MPD2    C112455   3.981   3.119  16.309 -0.7080  0.3344  0.1550
  848MPD2    C212456   4.064   3.226  16.273 -0.4000  0.3257 -0.2187
  848MPD2    C312457   4.060   3.287  16.151  0.0731  0.0798 -0.3430
  848MPD2    C412458   3.950   3.265  16.067 -0.5854 -0.1693  0.1553
  848MPD2    C512459   3.856   3.174  16.108  0.8796  0.2676 -0.0192
  848MPD2     H12460   4.140   3.246  16.348  1.5847  0.4635 -2.2456
  848MPD2    H112461   3.936   3.316  15.973 -0.4916 -0.4054  0.0119
  848MPD2    H212462   3.797   3.030  16.234 -1.5742  1.1820 -0.7815
  848MPD2    H312463   3.768   3.160  16.047 -0.0351 -0.3828  1.4572
  848MPD2     N12464   4.148   3.384  16.098 -0.0519  0.0306 -0.1298
  848MPD2    H512465   4.125   3.422  16.007 -0.4030  3.1244  1.2463
  848MPD2    N112466   3.994   3.046  16.429 -0.7704 -0.3079  0.2591
  848MPD2    H712467   4.083   3.051  16.478  0.7088  0.6647 -2.4727
  849MPD2     C12468   3.016   2.348  13.518  0.9097 -0.4835  0.2191
  849MPD2    C112469   3.144   2.311  13.535  0.4718  0.6487  0.6123
  849MPD2    C212470   3.201   2.327  13.665 -0.0596 -0.4286 -0.0018
  849MPD2    C312471   3.133   2.382  13.776 -0.3259 -0.2666  0.1467
  849MPD2    C412472   3.004   2.412  13.749  0.8110 -0.3723  0.3779
  849MPD2    C512473   2.944   2.396  13.629 -0.6496 -0.1411 -0.0618
  849MPD2     H12474   3.306   2.306  13.679  0.4999  1.3977 -1.3931
  849MPD2    H112475   2.952   2.461  13.831  1.2661  1.8686 -0.6674
  849MPD2    H212476   2.959   2.335  13.426  1.9300  0.8995 -0.5944
  849MPD2    H312477   2.841   2.421  13.606 -0.7741  0.5674  1.2228
  849MPD2     N12478   3.207   2.420  13.892  0.2831 -0.9765  0.4143
  849MPD2    H512479   3.298   2.377  13.898  0.7186 -0.1302 -0.1922
  849MPD2    N112480   3.234   2.269  13.435 -0.3502  0.1034 -0.0898
  849MPD2    H712481   3.329   2.242  13.457 -0.6025 -0.0686  0.7711
  850MPD2     C12482   1.111   1.291  14.917 -0.3639 -0.0306  0.2191
  850MPD2    C112483   1.212   1.317  15.015  0.2286 -0.0984  0.1136
  850MPD2    C212484   1.332   1.263  14.990 -0.2429 -0.2868  0.0934
  850MPD2    C312485   1.365   1.185  14.879 -0.1026  0.1791 -0.4830
  850MPD2    C412486   1.270   1.170  14.784 -0.4842  0.0835 -0.9223
  850MPD2    C512487   1.146   1.221  14.810  0.4368  0.4578 -0.4977
  850MPD2     H12488   1.419   1.281  15.052  0.5773 -0.7560 -0.9183
  850MPD2    H112489   1.284   1.095  14.707  5.2767 -0.1302  0.2897
  850MPD2    H212490   1.014   1.340  14.923  0.1452  0.9664  0.2419
  850MPD2    H312491   1.068   1.213  14.735  1.8302  2.1245 -2.1183
  850MPD2     N12492   1.484   1.119  14.864  0.6570 -0.4966 -0.3752
  850MPD2    H512493   1.512   1.083  14.773  0.4727 -1.3647 -0.0941
  850MPD2    N112494   1.181   1.404  15.125  0.8329  0.0829  0.4032
  850MPD2    H712495   1.084   1.416  15.150  0.3608 -2.2506 -0.3331
  851MPD2     C12496   1.679   1.041  15.600 -0.1353  0.5020  0.7557
  851MPD2    C112497   1.561   1.030  15.542  0.3945 -0.5099  0.1746
  851MPD2    C212498   1.543   0.926  15.449  0.3139  0.3901 -0.0905
  851MPD2    C312499   1.651   0.843  15.415 -0.1673  0.1701  0.1632
  851MPD2    C412500   1.775   0.857  15.475  0.3648 -0.1039 -0.1344
  851MPD2    C512501   1.785   0.955  15.572  0.0210 -0.0260  0.5320
  851MPD2     H12502   1.449   0.901  15.401 -0.0162  1.9043 -0.2323
  851MPD2    H112503   1.861   0.794  15.455  1.0904  0.1617  2.1828
  851MPD2    H212504   1.688   1.107  15.686  0.7046 -1.2510  2.0277
  851MPD2    H312505   1.874   0.956  15.633  1.1112 -1.0480 -1.0547
  851MPD2     N12506   1.615   0.742  15.322 -0.0810 -0.2191  0.1451
  851MPD2    H512507   1.520   0.743  15.287  0.7516  0.1371 -2.0577
  851MPD2    N112508   1.461   1.131  15.569  0.0346 -0.5396 -0.1765
  851MPD2    H712509   1.495   1.192  15.642 -2.2666  0.2338  0.2573
  852MPD2     C12510   2.260   3.330   9.027  0.2618  0.0172  0.0189
  852MPD2    C112511   2.324   3.452   9.001  0.5655  0.2416  0.4332
  852MPD2    C212512   2.435   3.487   9.072 -0.1427  0.8197  0.1782
  852MPD2    C312513   2.493   3.406   9.160 -0.8431 -0.7634 -0.1149
  852MPD2    C412514   2.434   3.280   9.180  0.5771 -1.3771 -0.0893
  852MPD2    C512515   2.321   3.247   9.119 -0.1890 -0.5802 -0.6436
  852MPD2     H12516   2.487   3.580   9.050 -2.1583  1.3204 -2.4907
  852MPD2    H112517   2.477   3.210   9.251  0.0364 -0.9537  0.6665
  852MPD2    H212518   2.164   3.306   8.983  0.6377 -0.1983 -0.6784
  852MPD2    H312519   2.271   3.153   9.142  0.5591 -1.0986 -1.1085
  852MPD2     N12520   2.611   3.445   9.217  0.4631  0.1962 -0.9236
  852MPD2    H512521   2.648   3.533   9.180 -1.5730  1.9207  1.1120
  852MPD2    N112522   2.270   3.548   8.915 -0.3759  0.0949 -0.1531
  852MPD2    H712523   2.323   3.633   8.901  0.1803 -0.0219  1.2476
  853MPD2     C12524   2.943   3.139  11.969 -0.0277  0.2472 -0.2488
  853MPD2    C112525   2.807   3.131  11.942  0.0391  0.1477 -0.2093
  853MPD2    C212526   2.764   3.056  11.834 -0.1484  0.5933  0.7659
  853MPD2    C312527   2.857   3.009  11.743  0.1960 -0.2394 -0.3606
  853MPD2    C412528   2.993   3.015  11.770  0.5692  0.4085 -0.3648
  853MPD2    C512529   3.035   3.077  11.893  0.2567  0.3817  0.3851
  853MPD2     H12530   2.659   3.052  11.809  0.6263 -1.8125 -2.0063
  853MPD2    H112531   3.060   2.982  11.692  1.2702  1.8851 -0.3804
  853MPD2    H212532   2.989   3.188  12.054  0.1292 -1.1617  0.4815
  853MPD2    H312533   3.139   3.094  11.920  0.7392  0.2294 -1.3455
  853MPD2     N12534   2.826   2.960  11.615 -0.0009  0.3980 -0.5360
  853MPD2    H512535   2.905   2.940  11.554  1.3472  0.4754  1.2055
  853MPD2    N112536   2.728   3.208  12.023  0.0468  0.2054 -0.0313
  853MPD2    H712537   2.774   3.272  12.087  0.8688  0.9459 -1.3618
  854MPD2     C12538   3.871   3.450  12.947 -0.3868 -0.1143  0.7039
  854MPD2    C112539   3.985   3.454  12.876  0.4764 -0.0709 -0.1483
  854MPD2    C212540   4.052   3.337  12.849 -0.3829  0.0402  0.3628
  854MPD2    C312541   4.013   3.217  12.895  0.2573 -0.2033  1.0363
  854MPD2    C412542   3.902   3.214  12.969  0.0081  0.1540 -0.5022
  854MPD2    C512543   3.824   3.328  12.989 -0.1557  0.5333 -0.2118
  854MPD2     H12544   4.130   3.343  12.775  1.6230 -0.1481  2.4702
  854MPD2    H112545   3.851   3.129  13.013  3.8160 -1.5013  0.7442
  854MPD2    H212546   3.814   3.532  12.989 -1.7085  0.2399 -1.7520
  854MPD2    H312547   3.736   3.320  13.051  1.0286 -1.3372  1.2167
  854MPD2     N12548   4.087   3.105  12.876 -0.3113 -0.1235 -0.0021
  854MPD2    H512549   4.063   3.027  12.936 -1.3080 -0.4119 -0.7648
  854MPD2    N112550   4.039   3.578  12.833  0.2592  0.2630  0.5309
  854MPD2    H712551   3.976   3.658  12.831 -1.7464 -1.3792 -1.6686
  855MPD2     C12552   4.520   2.891  13.588  0.1429 -0.0291  0.6980
  855MPD2    C112553   4.561   2.793  13.503  0.1893  0.5591  0.5089
  855MPD2    C212554   4.502   2.786  13.377 -0.1297 -0.4544  0.0903
  855MPD2    C312555   4.415   2.882  13.328  0.2904  0.6419 -0.1669
  855MPD2    C412556   4.390   2.989  13.409  0.0389  0.4705 -0.5214
  855MPD2    C512557   4.436   2.992  13.543 -0.5418  0.4491  0.1414
  855MPD2     H12558   4.536   2.707  13.310  0.3934  1.2407 -1.6576
  855MPD2    H112559   4.327   3.069  13.371  1.2808  2.2792  1.2069
  855MPD2    H212560   4.554   2.904  13.690  0.3728  0.9180  0.5024
  855MPD2    H312561   4.408   3.072  13.611  0.6053 -1.1392  2.4994
  855MPD2     N12562   4.347   2.879  13.202 -0.0845 -0.1169 -0.1003
  855MPD2    H512563   4.303   2.966  13.177  0.9022  0.9523  1.9090
  855MPD2    N112564   4.643   2.685  13.537 -0.4142  0.0682  0.0583
  855MPD2    H712565   4.663   2.612  13.469  1.2534 -0.5807  1.2594
  856MPD2     C12566   2.055   3.978  13.996  0.4224  0.5733  0.6263
  856MPD2    C112567   2.068   4.108  14.050 -0.0763  1.1842 -0.1492
  856MPD2    C212568   1.965   4.195  14.038 -0.5325  0.0346  0.0056
  856MPD2    C312569   1.846   4.156  13.987 -0.1048  0.2386 -1.0252
  856MPD2    C412570   1.826   4.030  13.944 -0.0603  0.0529 -0.0563
  856MPD2    C512571   1.933   3.942  13.944  0.1325 -0.5542  0.7789
  856MPD2     H12572   1.989   4.298  14.064  0.9973 -1.1487  3.3051
  856MPD2    H112573   1.730   3.985  13.920  0.1106  0.0025 -0.6477
  856MPD2    H212574   2.126   3.895  13.991  0.8760  0.8352  2.6221
  856MPD2    H312575   1.923   3.844  13.898 -2.3728 -0.6751  1.5944
  856MPD2     N12576   1.751   4.253  13.981  0.0089 -1.1836  0.2067
  856MPD2    H512577   1.776   4.322  14.051 -1.4194  0.2471 -0.7266
  856MPD2    N112578   2.194   4.159  14.086  0.1750  0.6283  0.0527
  856MPD2    H712579   2.199   4.254  14.121  0.1323  0.5483  0.2757
  857MPD2     C12580   3.776   1.551  12.351 -0.8206 -0.0434  0.3620
  857MPD2    C112581   3.916   1.553  12.351 -0.0954 -0.1356  0.6698
  857MPD2    C212582   3.974   1.675  12.317  0.1643 -0.1745  0.6317
  857MPD2    C312583   3.899   1.788  12.297  0.0102 -1.1277  0.1576
  857MPD2    C412584   3.764   1.777  12.294  1.2256 -0.1721 -0.3344
  857MPD2    C512585   3.704   1.657  12.318  0.1286  0.0779  0.2562
  857MPD2     H12586   4.078   1.675  12.287  0.1078  1.2870  0.4592
  857MPD2    H112587   3.713   1.869  12.269 -1.2773 -2.0248 -2.0728
  857MPD2    H212588   3.723   1.457  12.361  0.1029 -0.6855 -0.9026
  857MPD2    H312589   3.596   1.646  12.315  0.0884  0.6293 -0.2741
  857MPD2     N12590   3.969   1.916  12.284 -0.4814  0.1684  0.8409
  857MPD2    H512591   4.068   1.912  12.261 -1.5615  0.2057 -3.9937
  857MPD2    N112592   3.986   1.438  12.385 -0.5602  0.1070 -0.2781
  857MPD2    H712593   3.927   1.359  12.407  1.9110 -1.5608  0.4789
  858MPD2     C12594   4.447   0.521  16.918  0.0777 -0.3240  0.6410
  858MPD2    C112595   4.444   0.620  16.823 -0.3121 -0.3312  0.3306
  858MPD2    C212596   4.433   0.755  16.862 -0.1706  0.6333  0.1309
  858MPD2    C312597   4.424   0.789  17.000 -0.0022  0.1867  0.1811
  858MPD2    C412598   4.412   0.682  17.091 -0.1155 -0.1082 -0.1811
  858MPD2    C512599   4.433   0.555  17.051 -0.0769 -0.1792  0.1364
  858MPD2     H12600   4.451   0.833  16.788 -1.6623  1.3817  0.5594
  858MPD2    H112601   4.396   0.706  17.195 -1.2608 -5.6456  0.9530
  858MPD2    H212602   4.463   0.418  16.888  0.0807 -0.2879  0.5193
  858MPD2    H312603   4.425   0.477  17.127  0.0880  0.5458  0.8978
  858MPD2     N12604   4.417   0.923  17.053 -0.1531 -0.8089  0.2648
  858MPD2    H512605   4.412   0.934  17.153  0.2075 -0.9140  0.2915
  858MPD2    N112606   4.449   0.581  16.682  0.5387 -0.5797 -0.3395
  858MPD2    H712607   4.449   0.481  16.665  3.1173 -0.4588 -1.0413
  859MPD2     C12608   3.163   3.066  15.657  0.0395  0.0938  0.2603
  859MPD2    C112609   3.147   2.998  15.540  0.1537  0.0415  0.6992
  859MPD2    C212610   3.157   2.855  15.542 -0.9694  0.1247 -0.0963
  859MPD2    C312611   3.195   2.794  15.667  0.3102  0.1775  0.0395
  859MPD2    C412612   3.216   2.872  15.776 -0.1403 -0.2581  0.5922
  859MPD2    C512613   3.197   3.006  15.777  0.2197 -0.2453  0.2215
  859MPD2     H12614   3.155   2.797  15.450 -0.4845  3.4114 -2.1804
  859MPD2    H112615   3.242   2.826  15.870  1.6654  0.9977  0.6986
  859MPD2    H212616   3.162   3.174  15.665 -0.3119 -0.0514  1.9638
  859MPD2    H312617   3.220   3.066  15.863  1.3619 -1.6717  0.9167
  859MPD2     N12618   3.224   2.654  15.688 -1.2370 -0.6265  0.0918
  859MPD2    H512619   3.260   2.629  15.779 -0.0771  0.3114 -0.1119
  859MPD2    N112620   3.130   3.071  15.426 -0.3642 -0.3106  0.1446
  859MPD2    H712621   3.162   3.165  15.444 -1.1601  0.1258 -0.7197
  860MPD2     C12622   0.876   2.883  11.588  0.1773  0.3370  0.1004
  860MPD2    C112623   0.900   2.904  11.725  0.1679  0.3161  0.4944
  860MPD2    C212624   0.821   2.847  11.819 -0.6568 -0.1289  0.6463
  860MPD2    C312625   0.711   2.774  11.782 -0.4935 -0.3812  0.9949
  860MPD2    C412626   0.681   2.749  11.651  0.0178 -0.2980 -0.2995
  860MPD2    C512627   0.764   2.806  11.559 -0.0812 -0.9337 -0.4202
  860MPD2     H12628   0.833   2.879  11.922  1.0765  1.7943 -0.1481
  860MPD2    H112629   0.598   2.700  11.602 -1.2179 -0.5863  2.0912
  860MPD2    H212630   0.935   2.928  11.509  1.0182 -1.8689 -0.5416
  860MPD2    H312631   0.727   2.806  11.456  0.5575 -0.7142 -0.6497
  860MPD2     N12632   0.634   2.728  11.886  0.1587 -0.8118  0.4380
  860MPD2    H512633   0.652   2.774  11.974 -0.2036  0.4962 -0.1638
  860MPD2    N112634   0.999   2.994  11.770 -0.0068  0.1417 -1.0054
  860MPD2    H712635   1.019   2.988  11.869  2.6290  0.6053 -1.4922
  861MPD2     C12636   4.696   0.949  10.880 -0.1634  0.0838 -0.1309
  861MPD2    C112637   4.573   0.989  10.942 -0.5423  0.0384 -0.5198
  861MPD2    C212638   4.478   1.036  10.860  0.2846  0.7509 -0.1829
  861MPD2    C312639   4.504   1.061  10.725 -0.3911 -0.2610  0.0396
  861MPD2    C412640   4.629   1.033  10.676  0.1458  0.2665 -0.2748
  861MPD2    C512641   4.722   0.969  10.750 -0.1027  0.1241 -0.3045
  861MPD2     H12642   4.391   1.077  10.909  1.1367  1.0608  1.0615
  861MPD2    H112643   4.656   1.064  10.576 -1.9890  1.2969 -0.5074
  861MPD2    H212644   0.057   0.912  10.931  0.4778  0.9802 -0.5925
  861MPD2    H312645   0.090   0.958  10.700  0.7917  0.6198  1.2853
  861MPD2     N12646   4.405   1.136  10.640  0.3973 -0.1177  0.6877
  861MPD2    H512647   4.426   1.157  10.543  0.7289  0.3546  0.8588
  861MPD2    N112648   4.546   0.999  11.078  0.4565  0.7551 -0.0410
  861MPD2    H712649   4.470   1.052  11.119  0.3151 -1.6171  2.7283
  862MPD2     C12650   3.879   1.177  10.124 -0.5667 -0.0896 -0.0948
  862MPD2    C112651   3.991   1.202  10.206 -0.2952 -1.0088  0.2899
  862MPD2    C212652   4.007   1.108  10.307  0.8699 -0.3149 -0.4496
  862MPD2    C312653   3.929   0.996  10.324 -0.8163  0.5881 -0.6772
  862MPD2    C412654   3.814   0.986  10.251 -0.1677  0.1306 -0.0820
  862MPD2    C512655   3.788   1.077  10.156  0.1490 -0.4133 -0.5177
  862MPD2     H12656   4.094   1.116  10.371 -0.3700 -1.0573  1.3599
  862MPD2    H112657   3.750   0.900  10.265 -0.8400  0.7792  0.8170
  862MPD2    H212658   3.855   1.253  10.050 -1.3437 -2.8759 -2.6806
  862MPD2    H312659   3.694   1.062  10.104  0.9193  0.1433 -2.0898
  862MPD2     N12660   3.963   0.885  10.411  0.4013  0.4990  0.1595
  862MPD2    H512661   3.896   0.810  10.418 -0.0515  0.9541  0.6985
  862MPD2    N112662   4.081   1.311  10.177  0.5172 -0.3865  0.6090
  862MPD2    H712663   4.072   1.349  10.084  2.0833  0.2010  0.6975
  863MPD2     C12664   2.933   0.049  16.532 -0.7229  0.0267  0.0984
  863MPD2    C112665   2.831   0.001  16.602  0.3983  0.3787  0.5345
  863MPD2    C212666   2.846   4.682  16.734 -0.7416 -0.7544  0.3190
  863MPD2    C312667   2.968   4.697  16.802 -0.2246 -0.3673  0.1643
  863MPD2    C412668   3.066   0.034  16.728 -0.1907  0.1242  0.4533
  863MPD2    C512669   3.054   0.060  16.591 -0.4501 -0.4180  0.5386
  863MPD2     H12670   2.762   4.635  16.783 -1.0192  0.1037  0.6555
  863MPD2    H112671   3.164   0.049  16.771  0.5060  0.8635 -1.4089
  863MPD2    H212672   2.925   0.063  16.425 -2.1006  3.0028  0.5671
  863MPD2    H312673   3.143   0.089  16.536 -0.4556 -0.2774  0.6023
  863MPD2     N12674   2.998   4.666  16.941  0.3704 -0.0185  0.5708
  863MPD2    H512675   3.088   4.703  16.972  1.1489 -0.6926 -0.8761
  863MPD2    N112676   2.708   4.711  16.531 -0.1796  0.3179 -0.4966
  863MPD2    H712677   2.697   0.010  16.434 -0.5067 -1.4950 -0.9510
  864MPD2     C12678   3.317   0.421  17.163  0.0776 -0.4319 -0.3954
  864MPD2    C112679   3.239   0.525  17.122 -0.1615 -0.1122 -0.2636
  864MPD2    C212680   3.306   0.637  17.076  0.1056 -0.6746 -0.0054
  864MPD2    C312681   3.444   0.644  17.077  0.5594 -0.3387  0.1504
  864MPD2    C412682   3.519   0.532  17.108  0.5134 -0.9714  0.5262
  864MPD2    C512683   3.452   0.423  17.159  0.0701 -0.1217  0.4675
  864MPD2     H12684   3.252   0.729  17.058  2.7930  0.9298  0.2656
  864MPD2    H112685   3.627   0.527  17.101  0.7606 -0.0096  4.2283
  864MPD2    H212686   3.284   0.322  17.194 -0.4175  0.0675  0.6486
  864MPD2    H312687   3.510   0.337  17.191  0.2970 -1.4872 -3.6228
  864MPD2     N12688   3.522   0.751  17.023  0.0922 -0.7876  0.3441
  864MPD2    H512689   3.623   0.737  17.016  0.1268 -0.1465 -0.4791
  864MPD2    N112690   3.102   0.500  17.110 -0.3833  0.6713  0.6072
  864MPD2    H712691   3.077   0.402  17.111  0.2859  0.4950  0.2216
  865MPD2     C12692   3.472   1.280  16.159  0.7657  0.1723  0.3497
  865MPD2    C112693   3.445   1.167  16.231 -0.4822 -0.8203  0.7917
  865MPD2    C212694   3.454   1.159  16.369 -1.0539 -0.9622  0.5566
  865MPD2    C312695   3.506   1.272  16.438  0.5459  0.1771  0.1582
  865MPD2    C412696   3.533   1.389  16.359  0.3329 -0.2119 -0.1109
  865MPD2    C512697   3.513   1.396  16.226 -0.3134  0.4710  0.8375
  865MPD2     H12698   3.441   1.067  16.426  1.5346 -1.0892  0.9298
  865MPD2    H112699   3.574   1.477  16.406  0.6454  0.0378 -0.8489
  865MPD2    H212700   3.463   1.277  16.051 -0.4888  1.8075  0.4187
  865MPD2    H312701   3.535   1.488  16.173 -1.6048  0.6038  0.5300
  865MPD2     N12702   3.548   1.265  16.572  0.6224  0.6388  0.2576
  865MPD2    H512703   3.619   1.332  16.600  1.6791 -1.1735  1.9293
  865MPD2    N112704   3.412   1.051  16.148  0.2965  0.1762 -0.0196
  865MPD2    H712705   3.389   1.066  16.050 -0.2419 -2.6020 -0.3079
  866MPD2     C12706   0.491   0.967  10.981 -0.4214  0.3023  0.0763
  866MPD2    C112707   0.480   1.044  10.867  0.2785 -0.4485  0.3750
  866MPD2    C212708   0.369   1.125  10.854  0.0556  0.3005  0.5869
  866MPD2    C312709   0.267   1.116  10.949 -0.0666  0.7063  0.4082
  866MPD2    C412710   0.274   1.023  11.052  0.5605  0.4885  1.0050
  866MPD2    C512711   0.392   0.954  11.068 -0.7778  0.4641  0.3260
  866MPD2     H12712   0.369   1.192  10.769 -3.0564 -0.1795  0.1804
  866MPD2    H112713   0.196   1.005  11.125 -1.0391 -1.2375 -1.1143
  866MPD2    H212714   0.581   0.908  10.992 -0.5686  0.2780  1.1848
  866MPD2    H312715   0.403   0.881  11.147 -2.5842 -2.6329 -2.2393
  866MPD2     N12716   0.156   1.206  10.958  0.3227 -0.1217 -0.5082
  866MPD2    H512717   0.074   1.180  11.012  0.0288  1.7511 -0.0540
  866MPD2    N112718   0.589   1.035  10.780  0.7997  0.1281  0.2238
  866MPD2    H712719   0.650   0.955  10.795 -0.3962 -0.5944  1.2469
  867MPD2     C12720   2.177   0.795  16.067  0.0377 -0.6418  0.2512
  867MPD2    C112721   2.146   0.828  16.201 -0.6474  0.0915  0.1140
  867MPD2    C212722   2.140   0.957  16.238  0.2485 -0.5384  0.0131
  867MPD2    C312723   2.155   1.061  16.146  0.1761  0.3638  0.6917
  867MPD2    C412724   2.174   1.031  16.006 -0.3884  0.0700 -0.9428
  867MPD2    C512725   2.175   0.895  15.971  0.2855  0.0365 -0.5221
  867MPD2     H12726   2.123   0.984  16.342  0.6822 -0.1096 -0.0286
  867MPD2    H112727   2.165   1.094  15.918  0.0843  0.5356 -0.6562
  867MPD2    H212728   2.177   0.697  16.020  0.9692 -0.4168 -0.2176
  867MPD2    H312729   2.188   0.871  15.866 -1.1814  0.1597 -0.7280
  867MPD2     N12730   2.168   1.204  16.179  0.0434 -0.7628  0.4385
  867MPD2    H512731   2.196   1.253  16.094  1.8307 -0.9339  0.9149
  867MPD2    N112732   2.134   0.711  16.283  0.0320  0.7025 -0.2355
  867MPD2    H712733   2.131   0.620  16.238  0.5086 -0.0051  1.1715
  868MPD2     C12734   4.401   3.643  13.133  1.0457 -0.0773 -0.0407
  868MPD2    C112735   4.413   3.773  13.101 -0.3518 -1.3996  0.1390
  868MPD2    C212736   4.306   3.858  13.094  0.2388 -0.4911  0.2335
  868MPD2    C312737   4.173   3.815  13.129 -0.3026  0.9018 -0.5185
  868MPD2    C412738   4.157   3.682  13.165  0.0758 -0.3054  0.0933
  868MPD2    C512739   4.276   3.596  13.163  0.1603 -0.2229  0.4527
  868MPD2     H12740   4.314   3.965  13.075 -0.0617 -0.6330 -0.6911
  868MPD2    H112741   4.065   3.633  13.195  0.3506 -0.9891 -0.1831
  868MPD2    H212742   4.480   3.569  13.136 -0.7064 -1.8665  2.3219
  868MPD2    H312743   4.259   3.492  13.188 -2.3523 -0.4029 -2.1353
  868MPD2     N12744   4.068   3.915  13.134 -0.5802  0.6881 -0.7034
  868MPD2    H512745   4.099   4.012  13.137 -2.0398  1.1488 -0.4618
  868MPD2    N112746   4.545   3.816  13.070  0.3237 -0.6159 -0.1745
  868MPD2    H712747   4.614   3.742  13.072  0.1480 -0.7474  0.7437
  869MPD2     C12748   0.352   2.379   2.227  0.2371  0.5930 -0.0638
  869MPD2    C112749   0.248   2.467   2.204  0.2924  0.6645  0.8424
  869MPD2    C212750   0.210   2.498   2.071  0.0137 -0.0974  0.0177
  869MPD2    C312751   0.281   2.448   1.965 -0.3464 -0.1193  0.0022
  869MPD2    C412752   0.380   2.356   1.990  0.6729  0.3952  0.4278
  869MPD2    C512753   0.406   2.318   2.121  0.3866 -0.0765 -0.5203
  869MPD2     H12754   0.128   2.566   2.054 -0.9405 -1.6202 -1.3936
  869MPD2    H112755   0.409   2.296   1.904  1.4010 -0.3769  1.2180
  869MPD2    H212756   0.378   2.341   2.325 -0.5510  1.4933  0.4910
  869MPD2    H312757   0.464   2.228   2.133 -0.6717 -0.7818 -0.6392
  869MPD2     N12758   0.258   2.504   1.834  0.5848 -0.5332 -0.4149
  869MPD2    H512759   0.324   2.472   1.764 -0.4428  1.4135 -2.2916
  869MPD2    N112760   0.171   2.509   2.311 -0.2327  0.2026  0.3805
  869MPD2    H712761   0.081   2.550   2.289 -0.0410  0.6940  0.5198
  870MPD2     C12762   4.402   1.374   1.670 -0.0437  0.1836  0.5622
  870MPD2    C112763   4.522   1.451   1.670 -0.2128 -0.0459  0.1984
  870MPD2    C212764   4.512   1.579   1.626  0.7609  0.1464 -0.3728
  870MPD2    C312765   4.388   1.647   1.603  0.6297  0.3425  0.0953
  870MPD2    C412766   4.268   1.571   1.618 -0.1344  0.1675  0.8062
  870MPD2    C512767   4.282   1.442   1.654  0.1382 -0.3074  0.5449
  870MPD2     H12768   4.602   1.629   1.593  0.2285  1.3889  0.0634
  870MPD2    H112769   4.173   1.619   1.599  0.3295 -0.8040 -3.8577
  870MPD2    H212770   4.393   1.273   1.709  0.1760  0.9234  2.5207
  870MPD2    H312771   4.183   1.399   1.659 -0.6907  1.6912  0.9842
  870MPD2     N12772   4.393   1.774   1.539  0.7042  0.4158 -0.6189
  870MPD2    H512773   4.484   1.816   1.527  0.2272  1.4918 -0.5101
  870MPD2    N112774   4.636   1.380   1.707 -0.2258 -0.1410 -0.4281
  870MPD2    H712775   4.625   1.286   1.744  0.8955 -0.7895 -1.7683
  871MPD2     C12776   1.124   0.982  16.349 -0.1034  0.0970 -0.5362
  871MPD2    C112777   1.070   0.938  16.465  0.6786  0.1108 -0.1332
  871MPD2    C212778   1.014   0.807  16.479 -0.1533 -0.7251 -0.4311
  871MPD2    C312779   0.997   0.731  16.365  0.5205 -1.0980 -0.1288
  871MPD2    C412780   1.041   0.780  16.241  0.2316 -0.2524 -0.2117
  871MPD2    C512781   1.106   0.905  16.232  0.1605 -0.0962  0.9716
  871MPD2     H12782   0.972   0.770  16.572 -1.8176  1.4221 -0.3292
  871MPD2    H112783   1.037   0.718  16.152 -0.1549  0.4833 -0.7003
  871MPD2    H212784   1.170   1.080  16.340 -0.9311  0.3810 -1.7188
  871MPD2    H312785   1.160   0.937  16.144  1.0776  1.6470  2.1834
  871MPD2     N12786   0.944   0.598  16.375  0.0347 -0.0989 -0.2891
  871MPD2    H512787   0.912   0.573  16.468 -0.8269 -2.5632 -1.2442
  871MPD2    N112788   1.100   1.023  16.578  0.0368  0.0134  0.3651
  871MPD2    H712789   1.146   1.113  16.566 -0.1134  0.3412  2.3055
  872MPD2     C12790   1.743   3.508  13.354  0.5228 -0.1307  0.5607
  872MPD2    C112791   1.829   3.469  13.456  0.1514 -0.0796  0.0236
  872MPD2    C212792   1.770   3.411  13.568  0.0299  0.2066  0.6716
  872MPD2    C312793   1.634   3.405  13.575  0.0397  0.5526 -0.2921
  872MPD2    C412794   1.547   3.456  13.475  0.7310  1.2102  0.3481
  872MPD2    C512795   1.605   3.508  13.368 -0.1701 -0.4661 -0.7155
  872MPD2     H12796   1.836   3.387  13.650  0.4258 -0.3073  0.1950
  872MPD2    H112797   1.442   3.473  13.498 -0.0599 -4.3788  0.8714
  872MPD2    H212798   1.791   3.545  13.264  0.2675 -1.1750  0.0049
  872MPD2    H312799   1.551   3.554  13.287 -1.3085 -1.3487 -0.4469
  872MPD2     N12800   1.567   3.355  13.689  0.0997  0.4060 -0.0383
  872MPD2    H512801   1.465   3.361  13.689  0.0417 -0.5574 -1.6255
  872MPD2    N112802   1.970   3.485  13.463  0.0436 -0.0837  0.0373
  872MPD2    H712803   2.029   3.468  13.544  0.9347 -1.3182 -0.8662
  873MPD2     C12804   3.590   3.526   0.869  0.1359 -0.5920 -0.2266
  873MPD2    C112805   3.517   3.482   0.978  0.4874  1.1276 -0.6265
  873MPD2    C212806   3.447   3.367   0.973 -0.5838  1.1129 -0.1836
  873MPD2    C312807   3.464   3.283   0.866 -0.6142 -0.0015  0.3720
  873MPD2    C412808   3.549   3.320   0.761 -0.1772 -0.5368  0.0844
  873MPD2    C512809   3.607   3.446   0.765 -0.1836 -0.6864  0.2310
  873MPD2     H12810   3.377   3.354   1.055  0.2968 -0.6860  0.2822
  873MPD2    H112811   3.559   3.262   0.671 -0.4602  1.0941 -1.0008
  873MPD2    H212812   3.648   3.617   0.873 -0.4671 -0.1118 -2.2821
  873MPD2    H312813   3.671   3.478   0.684  0.9946 -1.1257  0.9894
  873MPD2     N12814   3.399   3.153   0.858  0.3614  0.0640 -0.5376
  873MPD2    H512815   3.418   3.096   0.776  0.1864  0.5933 -0.9396
  873MPD2    N112816   3.510   3.574   1.087 -0.2185 -0.2849 -0.0646
  873MPD2    H712817   3.545   3.666   1.062 -0.1705  0.2689  2.0633
  874MPD2     C12818   3.593   3.765  16.109 -0.5482  0.4418  0.4164
  874MPD2    C112819   3.661   3.655  16.150  0.3103  0.1859 -0.0119
  874MPD2    C212820   3.792   3.632  16.104  0.0562 -0.1741 -0.2235
  874MPD2    C312821   3.854   3.728  16.024 -0.5123 -0.1699 -0.2955
  874MPD2    C412822   3.783   3.836  15.979 -0.1685 -0.1274  0.5105
  874MPD2    C512823   3.651   3.854  16.024  0.2307  0.6167 -0.7248
  874MPD2     H12824   3.844   3.540  16.126  1.4595  0.8853  0.8759
  874MPD2    H112825   3.828   3.909  15.913 -1.3962  1.0451  0.9699
  874MPD2    H212826   3.488   3.777  16.129 -0.0984  0.0886  2.9230
  874MPD2    H312827   3.588   3.928  15.976 -3.3010  0.4123  3.5815
  874MPD2     N12828   3.996   3.715  16.009  0.7355  0.3521  0.5967
  874MPD2    H512829   4.050   3.642  16.055 -1.7190 -1.3414  0.7871
  874MPD2    N112830   3.592   3.567  16.241 -0.6486 -0.1710 -0.4205
  874MPD2    H712831   3.495   3.583  16.266 -0.6386  0.5480 -0.8480
  875MPD2     C12832   4.264   1.532  14.704  0.9140 -0.1086 -0.2348
  875MPD2    C112833   4.263   1.652  14.633 -0.4469  0.2611 -0.0346
  875MPD2    C212834   4.332   1.767  14.695  0.0751  0.0247 -0.2415
  875MPD2    C312835   4.404   1.743  14.812  0.0778 -0.0737  0.2162
  875MPD2    C412836   4.404   1.621  14.870  0.6189 -0.0131  0.0154
  875MPD2    C512837   4.334   1.513  14.822 -0.2299 -0.0145 -0.2470
  875MPD2     H12838   4.342   1.863  14.646  2.4480  0.1899  0.5512
  875MPD2    H112839   4.469   1.605  14.955  0.3380  0.2852  0.2867
  875MPD2    H212840   4.228   1.440  14.661  1.3473 -0.4227  0.0771
  875MPD2    H312841   4.357   1.413  14.858 -1.2935  0.7736  2.6661
  875MPD2     N12842   4.476   1.841  14.889 -0.1471 -0.1370 -0.2763
  875MPD2    H512843   4.533   1.805  14.965  1.6652  1.7030 -0.7859
  875MPD2    N112844   4.211   1.657  14.500 -0.1978 -0.1758  0.0209
  875MPD2    H712845   4.215   1.748  14.456  1.1766 -0.1231  0.2469
  876MPD2     C12846   3.456   3.345  15.907  0.3395  0.2405 -0.4698
  876MPD2    C112847   3.512   3.278  15.799  0.4467 -0.4131 -0.7416
  876MPD2    C212848   3.551   3.149  15.814  0.0333 -0.7141 -0.0522
  876MPD2    C312849   3.535   3.089  15.941 -0.6550  0.1608 -0.1307
  876MPD2    C412850   3.468   3.153  16.045 -0.0471 -1.0955 -0.8148
  876MPD2    C512851   3.428   3.285  16.028 -0.2569  0.1066  0.4421
  876MPD2     H12852   3.602   3.098  15.733 -1.8502  1.0587 -2.3374
  876MPD2    H112853   3.459   3.119  16.148  1.4810 -3.3323 -1.4253
  876MPD2    H212854   3.417   3.446  15.894 -2.6445 -1.0635 -1.5405
  876MPD2    H312855   3.380   3.344  16.105 -1.9552 -1.6955  0.7885
  876MPD2     N12856   3.590   2.957  15.960  0.2061  0.9258 -0.0696
  876MPD2    H512857   3.639   2.925  15.877 -0.1027 -0.2675  0.2090
  876MPD2    N112858   3.540   3.359  15.683 -0.0571 -0.0095 -0.3926
  876MPD2    H712859   3.513   3.457  15.687  1.1256  0.2196  1.9092
  877MPD2     C12860   3.148   3.601  15.061 -0.3311  0.2289 -0.3959
  877MPD2    C112861   3.278   3.587  15.017 -0.3067 -0.3186  0.4014
  877MPD2    C212862   3.305   3.572  14.889 -0.4960  0.1564  0.0328
  877MPD2    C312863   3.211   3.571  14.791  0.4231  0.0406 -0.1920
  877MPD2    C412864   3.081   3.572  14.830  0.0753 -0.3663 -0.6859
  877MPD2    C512865   3.050   3.572  14.967  0.1072 -0.0638  0.2486
  877MPD2     H12866   3.411   3.555  14.873 -0.1713  2.5879 -0.4563
  877MPD2    H112867   3.003   3.578  14.755 -1.0236  1.1481  0.5689
  877MPD2    H212868   3.123   3.618  15.165 -1.0955 -1.6023 -0.2780
  877MPD2    H312869   2.948   3.583  15.002  0.5370  0.0688  1.4335
  877MPD2     N12870   3.235   3.570  14.650 -0.1527  0.3244 -0.7325
  877MPD2    H512871   3.161   3.549  14.584  1.8263 -0.9262 -2.5619
  877MPD2    N112872   3.387   3.585  15.111  0.5210  0.0235  0.0172
  877MPD2    H712873   3.477   3.575  15.067 -0.1454 -0.0242 -1.3295
  878MPD2     C12874   3.522   2.777  12.664 -0.3027 -0.0242 -0.1471
  878MPD2    C112875   3.419   2.682  12.658  0.3898 -0.2773  0.0516
  878MPD2    C212876   3.405   2.583  12.751 -1.0060 -0.0153 -0.6303
  878MPD2    C312877   3.497   2.580  12.854 -0.4787 -0.0684  0.3491
  878MPD2    C412878   3.602   2.674  12.861  0.4001 -0.9934 -0.4230
  878MPD2    C512879   3.613   2.767  12.763 -0.0620 -1.0618 -0.0636
  878MPD2     H12880   3.330   2.506  12.735 -2.0352  0.4820  1.6245
  878MPD2    H112881   3.673   2.676  12.943 -2.4151  0.2143  1.9770
  878MPD2    H212882   3.534   2.856  12.591  0.6081  0.9643  1.0645
  878MPD2    H312883   3.696   2.837  12.762  0.0650 -1.1811  1.6769
  878MPD2     N12884   3.478   2.474  12.948  0.1664 -0.7166  0.3827
  878MPD2    H512885   3.396   2.415  12.952  0.7951 -1.7363 -1.5554
  878MPD2    N112886   3.330   2.712  12.555  0.4841 -0.0884 -0.6645
  878MPD2    H712887   3.346   2.794  12.497 -0.9507  0.3670 -0.4298
  879MPD2     C12888   3.972   0.057  17.070 -0.7204 -0.0920  0.2676
  879MPD2    C112889   3.952   4.681  17.158 -0.2177 -0.2624 -0.5527
  879MPD2    C212890   3.914   4.564  17.102  0.1032  0.1443  0.4682
  879MPD2    C312891   3.903   4.541  16.959 -0.9906 -0.7744  0.6579
  879MPD2    C412892   3.940   4.647  16.877  0.1181 -0.7468  0.0143
  879MPD2    C512893   3.978   0.033  16.937  0.1755  0.3052  0.1426
  879MPD2     H12894   3.888   4.482  17.168 -3.5544  0.5937 -0.3894
  879MPD2    H112895   3.934   4.631  16.769  1.4177  0.1188 -0.1798
  879MPD2    H212896   3.987   0.161  17.098  1.1781 -0.9430  2.4277
  879MPD2    H312897   3.997   0.112  16.866 -0.9470 -0.6055 -1.1837
  879MPD2     N12898   3.867   4.422  16.896 -0.5657  0.1576 -0.9102
  879MPD2    H512899   3.862   4.429  16.795  1.4121  0.6148 -0.9752
  879MPD2    N112900   3.931   4.698  17.294 -0.1927  0.2738  0.1923
  879MPD2    H712901   3.891   4.616  17.340  2.2583 -1.2022 -0.3640
  880MPD2     C12902   0.193   1.169   0.316 -0.5775 -0.1367  0.3069
  880MPD2    C112903   0.099   1.224   0.400 -0.6601 -0.4197 -0.2937
  880MPD2    C212904   0.028   1.141   0.486  0.2774 -0.0134  0.5626
  880MPD2    C312905   0.044   1.005   0.488  0.2964  0.6369 -0.4975
  880MPD2    C412906   0.131   0.952   0.402  0.4571 -0.0344 -0.5170
  880MPD2    C512907   0.206   1.032   0.323  0.2318 -0.0667  0.0020
  880MPD2     H12908   4.693   1.176   0.567 -1.6055 -1.4606 -0.2697
  880MPD2    H112909   0.146   0.845   0.391  1.0785 -0.0022  0.0477
  880MPD2    H212910   0.257   1.233   0.255 -0.6504 -0.7327 -0.3935
  880MPD2    H312911   0.275   0.984   0.256  1.0884 -1.3997  1.8257
  880MPD2     N12912   4.714   0.940   0.606  0.5122 -0.7384 -0.0562
  880MPD2    H512913   4.641   0.996   0.649  0.1343 -0.7995 -0.6207
  880MPD2    N112914   0.085   1.366   0.399  0.0001  0.6658  0.5546
  880MPD2    H712915   0.141   1.423   0.337 -0.0057  1.0129  0.8655
  881MPD2     C12916   0.176   2.210  17.612 -0.1737  0.0728  0.0058
  881MPD2    C112917   0.224   2.084  17.593 -0.0965  0.4368 -0.5242
  881MPD2    C212918   0.194   1.991  17.698 -0.0414  0.8435  0.3816
  881MPD2    C312919   0.151   2.037   0.114  0.5794 -0.1439  0.7064
  881MPD2    C412920   0.099   2.160   0.118 -0.6569 -0.2496  0.4079
  881MPD2    C512921   0.107   2.249   0.011 -0.1270 -0.4144  0.4684
  881MPD2     H12922   0.215   1.885  17.687 -1.2188  0.7344 -0.9167
  881MPD2    H112923   0.045   2.201   0.204  0.7457  3.6383 -0.5610
  881MPD2    H212924   0.180   2.277  17.527  1.6998 -2.5428 -1.9409
  881MPD2    H312925   0.065   2.347   0.029  0.5990  0.1754 -1.1115
  881MPD2     N12926   0.135   1.956   0.224  0.2056  0.2879  0.1790
  881MPD2    H512927   0.091   2.011   0.297 -0.2271  0.7359 -0.4207
  881MPD2    N112928   0.267   2.048  17.464 -0.3236  0.2080 -0.1577
  881MPD2    H712929   0.273   2.118  17.392 -4.2434 -0.0586 -0.7631
  882MPD2     C12930   3.158   3.122  14.033  0.2020  0.0926  0.1657
  882MPD2    C112931   3.102   3.237  14.081 -0.1996  0.6220 -0.0991
  882MPD2    C212932   2.971   3.262  14.047  0.1938 -0.1838 -0.2035
  882MPD2    C312933   2.883   3.168  13.990 -0.3380  0.8344  0.2362
  882MPD2    C412934   2.940   3.045  13.957  0.3050  0.9776  0.0905
  882MPD2    C512935   3.074   3.031  13.975 -0.4962  1.0674 -0.1294
  882MPD2     H12936   2.931   3.360  14.070 -1.0008 -1.0031  1.2086
  882MPD2    H112937   2.880   2.968  13.910  0.8379 -0.8391  2.3844
  882MPD2    H212938   3.263   3.097  14.043  0.3303  0.9021  0.8922
  882MPD2    H312939   3.111   2.930  13.957 -2.4049  0.1687  1.0290
  882MPD2     N12940   2.743   3.194  13.981  0.4088 -0.6026 -0.1205
  882MPD2    H512941   2.691   3.108  13.966 -4.4821  1.8039  3.1221
  882MPD2    N112942   3.185   3.333  14.148  0.5531 -0.3559  0.2088
  882MPD2    H712943   3.284   3.311  14.149  0.7286  0.4322  0.8204
  883MPD2     C12944   0.396   3.474  16.064 -0.1128  0.1075  0.5148
  883MPD2    C112945   0.456   3.396  15.973  0.6628  0.6994  0.6698
  883MPD2    C212946   0.586   3.358  15.999  0.6858  0.6947  0.2639
  883MPD2    C312947   0.648   3.396  16.117 -0.1026  0.1068 -0.3855
  883MPD2    C412948   0.580   3.470  16.209 -0.2203 -0.0121  0.0058
  883MPD2    C512949   0.449   3.500  16.184  0.0862  0.4339  0.1468
  883MPD2     H12950   0.640   3.291  15.932 -0.1522 -0.5901  0.8836
  883MPD2    H112951   0.622   3.493  16.307  0.2719 -0.6107 -0.0647
  883MPD2    H212952   0.296   3.516  16.056 -0.8219 -1.5569  0.6683
  883MPD2    H312953   0.388   3.555  16.256  0.5108 -2.7827  2.9469
  883MPD2     N12954   0.782   3.366  16.134 -0.0870  0.3397  0.3284
  883MPD2    H512955   0.821   3.300  16.067 -0.0980  0.4764  0.1869
  883MPD2    N112956   0.391   3.361  15.853  0.6728 -0.2780  0.0778
  883MPD2    H712957   0.447   3.309  15.787 -1.4434  0.6943 -2.5151
  884MPD2     C12958   2.664   4.163  15.259  0.5990 -0.2462  0.4815
  884MPD2    C112959   2.606   4.278  15.208 -0.1484 -0.5174  0.6663
  884MPD2    C212960   2.472   4.301  15.240  0.2528 -0.5351  0.5382
  884MPD2    C312961   2.402   4.222  15.322 -0.4359 -0.0450  0.2393
  884MPD2    C412962   2.463   4.109  15.375  0.2014 -0.4110 -0.6996
  884MPD2    C512963   2.592   4.089  15.355 -0.3567 -1.1218 -0.7024
  884MPD2     H12964   2.421   4.383  15.190  0.8196 -1.8236 -2.1416
  884MPD2    H112965   2.409   4.038  15.438 -1.1823  1.7828  0.5722
  884MPD2    H212966   2.764   4.134  15.229 -1.3351 -3.2066 -3.1040
  884MPD2    H312967   2.631   3.995  15.390 -0.4838 -1.4113 -1.3311
  884MPD2     N12968   2.265   4.246  15.344 -0.6830 -0.4736  0.0042
  884MPD2    H512969   2.220   4.328  15.304 -2.0674 -0.3693  1.8151
  884MPD2    N112970   2.676   4.369  15.119  0.2374  0.0877  0.1730
  884MPD2    H712971   2.621   4.441  15.073 -0.7115 -0.8787 -0.2048
  885MPD2     C12972   0.436   4.702   0.168 -0.5860 -0.2027 -0.1935
  885MPD2    C112973   0.499   4.593   0.109 -0.0687  1.2221  0.5880
  885MPD2    C212974   0.482   4.561  17.691 -0.3390  0.9536 -1.0576
  885MPD2    C312975   0.405   4.643  17.609  0.4388 -0.1306  0.3392
  885MPD2    C412976   0.347   0.027  17.668 -0.5356  0.8232 -1.1327
  885MPD2    C512977   0.361   0.056   0.094 -0.4049 -0.0468  0.2275
  885MPD2     H12978   0.525   4.472  17.647 -0.9219 -0.5175  1.3707
  885MPD2    H112979   0.307   0.099  17.598  0.5160  1.2379 -1.3108
  885MPD2    H212980   0.448   0.006   0.271  2.5784 -2.2343  0.0481
  885MPD2    H312981   0.330   0.150   0.137  1.4510 -0.3768  2.3192
  885MPD2     N12982   0.382   4.591  17.479  0.1386 -0.5866 -0.6806
  885MPD2    H512983   0.430   4.504  17.457 -1.6767 -1.9761  0.8701
  885MPD2    N112984   0.581   4.517   0.202 -0.1952  0.4490 -0.3405
  885MPD2    H712985   0.584   4.546   0.300  3.4783 -2.0769  0.2701
  886MPD2     C12986   2.297   2.839  15.690  0.1303 -0.5416 -0.5806
  886MPD2    C112987   2.309   2.817  15.561  0.2343 -0.0564 -0.2587
  886MPD2    C212988   2.278   2.915  15.470 -0.2847 -0.1782  0.3351
  886MPD2    C312989   2.242   3.038  15.512  0.0740  0.8755  0.6283
  886MPD2    C412990   2.234   3.061  15.646 -0.0111 -0.4191 -0.4500
  886MPD2    C512991   2.264   2.962  15.736 -0.1481 -0.0554  0.6067
  886MPD2     H12992   2.310   2.905  15.367 -1.6896  1.5211 -0.2610
  886MPD2    H112993   2.186   3.149  15.687 -0.2037 -1.3564  1.3516
  886MPD2    H212994   2.287   2.756  15.759 -2.2200 -0.1919 -0.5048
  886MPD2    H312995   2.226   2.976  15.836  1.1326 -2.6540  1.4410
  886MPD2     N12996   2.226   3.141  15.423 -0.2199 -0.4029 -0.2007
  886MPD2    H512997   2.212   3.236  15.458 -1.6746 -0.1406 -1.5052
  886MPD2    N112998   2.333   2.691  15.501 -0.7256 -0.7237  0.3825
  886MPD2    H712999   2.326   2.696  15.400  0.6453 -1.2882  0.2509
  887MPD2     C13000   2.588   2.850  15.111  0.7386  0.9085 -1.0149
  887MPD2    C113001   2.575   2.795  15.241 -0.0377  0.1221  1.0838
  887MPD2    C213002   2.586   2.867  15.355 -0.0930  0.4539 -0.0523
  887MPD2    C313003   2.610   3.003  15.339  0.1970 -0.2895 -0.1901
  887MPD2    C413004   2.616   3.066  15.216  0.4976 -0.5201 -0.8368
  887MPD2    C513005   2.608   2.990  15.103  0.0544  0.4884  0.2773
  887MPD2     H13006   2.568   2.820  15.451  2.0547  1.3724  0.8118
  887MPD2    H113007   2.636   3.171  15.198  0.7820 -0.2370  1.1058
  887MPD2    H213008   2.572   2.801  15.016 -2.3998 -0.4874  0.2449
  887MPD2    H313009   2.614   3.040  15.007 -0.9320  2.8703  1.4485
  887MPD2     N13010   2.628   3.076  15.459  0.0230  0.2695 -0.3366
  887MPD2    H513011   2.614   3.032  15.550  3.8528  3.3196  1.7333
  887MPD2    N113012   2.545   2.652  15.263 -0.0056  0.2714 -0.0956
  887MPD2    H713013   2.528   2.619  15.358 -0.3343 -0.5749 -0.4462
  888MPD2     C13014   4.604   3.027  14.918 -0.6110 -0.3304  0.5693
  888MPD2    C113015   4.545   3.084  15.025 -0.1744 -0.0659  0.2286
  888MPD2    C213016   4.582   3.209  15.057  0.0304  0.7024  0.8003
  888MPD2    C313017   4.675   3.280  14.983 -0.0377  0.4123  0.4109
  888MPD2    C413018   0.013   3.217  14.879  0.7859 -0.6366  0.9223
  888MPD2    C513019   4.708   3.092  14.852  0.4067  0.2496 -0.1315
  888MPD2     H13020   4.535   3.253  15.145  1.4157  0.7058  1.5473
  888MPD2    H113021   0.082   3.250  14.802 -1.8020  1.6289 -0.4414
  888MPD2    H213022   4.606   2.921  14.897 -0.5640 -0.2394  0.1035
  888MPD2    H313023   0.028   3.048  14.765 -2.2883 -0.7858 -1.0631
  888MPD2     N13024   4.697   3.416  15.016  0.4158  0.3550  0.0239
  888MPD2    H513025   4.640   3.458  15.089 -0.0065  0.8316 -0.5778
  888MPD2    N113026   4.438   3.023  15.094 -0.5923  0.0531  0.4295
  888MPD2    H713027   4.399   3.068  15.176 -3.8637 -1.8203 -0.1291
  889MPD2     C13028   3.975   2.712  12.624  0.3325 -0.6084 -0.1448
  889MPD2    C113029   3.950   2.593  12.691 -0.0280 -0.0849  0.0058
  889MPD2    C213030   3.951   2.594  12.830 -0.2281  0.3179  0.1691
  889MPD2    C313031   3.942   2.713  12.902 -0.1255  0.0608  0.5365
  889MPD2    C413032   3.940   2.831  12.824  0.3171 -0.0582  0.0459
  889MPD2    C513033   3.956   2.829  12.690  0.1262 -0.1709 -0.3419
  889MPD2     H13034   3.941   2.496  12.876 -1.0192  1.2566  2.0007
  889MPD2    H113035   3.920   2.927  12.871 -1.3218  0.5025 -1.7804
  889MPD2    H213036   3.960   2.716  12.516 -0.6329  3.3380  0.1309
  889MPD2    H313037   3.948   2.915  12.625 -2.4878  0.9175  1.4071
  889MPD2     N13038   3.932   2.704  13.046  0.0352  0.3521  0.0726
  889MPD2    H513039   3.912   2.614  13.088 -0.4310  0.6658  0.5184
  889MPD2    N113040   3.983   2.469  12.625  0.1414  0.4419  0.1688
  889MPD2    H713041   4.001   2.389  12.685 -3.4828 -0.0262  0.6425
  890MPD2     C13042   3.244   4.280  14.806  0.4891 -0.5765 -0.5675
  890MPD2    C113043   3.348   4.344  14.870 -0.3766  0.1272  0.4128
  890MPD2    C213044   3.394   4.294  14.990 -0.0736 -0.0413 -0.3056
  890MPD2    C313045   3.330   4.193  15.052 -0.5507 -0.5371  0.7029
  890MPD2    C413046   3.221   4.132  14.989  0.1289  0.4855 -0.0449
  890MPD2    C513047   3.173   4.186  14.873  0.0315  0.0373  0.1804
  890MPD2     H13048   3.483   4.334  15.037 -0.5808  0.2926  0.3707
  890MPD2    H113049   3.157   4.057  15.035 -0.6376  0.6920 -0.7772
  890MPD2    H213050   3.208   4.319  14.712 -0.1193  1.7236  0.6102
  890MPD2    H313051   3.081   4.151  14.830 -0.0941 -1.7395  1.8848
  890MPD2     N13052   3.381   4.146  15.176 -0.0202  0.0080  0.0570
  890MPD2    H513053   3.464   4.195  15.208  1.7740 -2.3783 -0.9493
  890MPD2    N113054   3.408   4.461  14.815 -0.5202  0.5998 -0.1065
  890MPD2    H713055   3.385   4.493  14.721  0.2940 -0.3171 -0.6316
  891MPD2     C13056   1.566   2.211  16.725 -0.2172 -0.7782 -0.3263
  891MPD2    C113057   1.537   2.324  16.799 -0.2144  0.2886 -0.7903
  891MPD2    C213058   1.640   2.390  16.862 -0.5074 -0.5599  0.4504
  891MPD2    C313059   1.768   2.339  16.862 -0.4377  0.2563  0.4988
  891MPD2    C413060   1.799   2.221  16.794 -0.7210  0.3411 -0.2105
  891MPD2    C513061   1.695   2.165  16.729  0.4956 -0.5718 -0.3337
  891MPD2     H13062   1.622   2.483  16.913  1.1034  1.0212 -1.8715
  891MPD2    H113063   1.899   2.178  16.796 -0.2265  1.4727 -0.7503
  891MPD2    H213064   1.481   2.172  16.669 -0.9777 -0.9594  0.9418
  891MPD2    H313065   1.722   2.070  16.685 -0.1581 -1.1766  0.5744
  891MPD2     N13066   1.870   2.416  16.925 -0.3940  0.1734  0.5541
  891MPD2    H513067   1.842   2.484  16.995 -0.0144  1.0640 -0.1586
  891MPD2    N113068   1.404   2.372  16.786 -0.0967  0.2336  0.1939
  891MPD2    H713069   1.334   2.310  16.747  0.4704 -1.5878  2.0737
  892MPD2     C13070   2.441   3.660  14.714  0.5367  0.8074  0.1923
  892MPD2    C113071   2.325   3.650  14.643 -0.3071  0.2955  0.8135
  892MPD2    C213072   2.322   3.591  14.522 -0.0397  0.3984  0.2109
  892MPD2    C313073   2.437   3.543  14.470  0.2292 -0.0749 -0.9436
  892MPD2    C413074   2.559   3.572  14.533  0.7945 -0.3117 -0.0110
  892MPD2    C513075   2.554   3.624  14.662 -0.1194 -0.2830 -0.3225
  892MPD2     H13076   2.232   3.561  14.471 -0.3102  1.7595 -0.1254
  892MPD2    H113077   2.646   3.523  14.490  1.5015 -0.6995  1.8678
  892MPD2    H213078   2.447   3.703  14.813 -2.1194 -0.8335  1.0729
  892MPD2    H313079   2.646   3.617  14.719  0.8937  0.5358 -1.8512
  892MPD2     N13080   2.438   3.461  14.356 -0.1541  0.4971  0.2305
  892MPD2    H513081   2.525   3.420  14.324  0.7944  1.3715  1.6962
  892MPD2    N113082   2.204   3.702  14.690  0.1277 -0.4725  0.5559
  892MPD2    H713083   2.129   3.692  14.621 -0.1601  3.6346  0.2831
  893MPD2     C13084   4.595   1.512   2.042 -0.0824  0.2237 -0.4915
  893MPD2    C113085   4.654   1.633   2.013 -0.5211  0.4653  0.3459
  893MPD2    C213086   0.064   1.645   2.038  0.2020  0.1583 -0.5396
  893MPD2    C313087   0.139   1.535   2.085 -0.3311  0.1911  0.3052
  893MPD2    C413088   0.071   1.413   2.103  0.0023 -0.2222  0.7084
  893MPD2    C513089   4.669   1.408   2.082  0.9848  0.2734  0.1343
  893MPD2     H13090   0.127   1.729   2.012 -0.8277  0.3791 -2.3288
  893MPD2    H113091   0.114   1.319   2.136 -1.4997 -0.3706  2.2649
  893MPD2    H213092   4.489   1.494   2.025  0.0538  0.4527 -1.5642
  893MPD2    H313093   4.614   1.317   2.100  0.8997  0.5136  1.0524
  893MPD2     N13094   0.283   1.539   2.103 -0.7171 -0.0280 -0.2109
  893MPD2    H513095   0.325   1.450   2.129 -1.3018 -0.0937  0.5063
  893MPD2    N113096   4.580   1.738   1.962 -0.2022  0.0498 -0.2749
  893MPD2    H713097   4.481   1.726   1.943 -0.1912 -2.0418  0.9158
  894MPD2     C13098   2.036   0.208   0.450  0.4594  0.5212 -0.4935
  894MPD2    C113099   2.049   0.239   0.580  0.4419 -0.0697  0.7240
  894MPD2    C213100   2.135   0.345   0.609 -0.1647  0.2270  0.0189
  894MPD2    C313101   2.208   0.411   0.511  0.3586  0.7199 -0.9208
  894MPD2    C413102   2.183   0.387   0.381 -0.4382  0.1458 -0.0732
  894MPD2    C513103   2.106   0.274   0.353  0.4558 -0.2927 -0.1737
  894MPD2     H13104   2.163   0.374   0.709 -1.3085 -0.3382  0.5093
  894MPD2    H113105   2.229   0.424   0.290  0.7405 -0.6197  0.2171
  894MPD2    H213106   1.990   0.117   0.416  3.4445 -1.8218  1.6965
  894MPD2    H313107   2.103   0.241   0.250  0.2716 -1.0709  0.0820
  894MPD2     N13108   2.305   0.509   0.553 -0.1314  0.5283  0.1461
  894MPD2    H513109   2.318   0.515   0.653 -1.8489  2.5292  0.2392
  894MPD2    N113110   1.988   0.174   0.686 -0.2778  0.7362 -0.7176
  894MPD2    H713111   2.003   0.205   0.781  0.8397 -0.5857 -0.4553
  895MPD2     C13112   1.060   2.502  13.899  0.5886 -0.0243 -0.8064
  895MPD2    C113113   1.023   2.612  13.836 -0.0397  0.7281  0.4746
  895MPD2    C213114   1.091   2.726  13.836  0.5747  0.2721  0.1917
  895MPD2    C313115   1.208   2.748  13.904 -0.6586  0.0894 -0.3662
  895MPD2    C413116   1.255   2.635  13.970  0.4931 -0.2399 -0.8935
  895MPD2    C513117   1.178   2.518  13.972 -0.6829  0.1009 -0.1176
  895MPD2     H13118   1.053   2.800  13.766 -0.1185  0.3930  0.6999
  895MPD2    H113119   1.355   2.631  14.012  0.1233  0.2923  0.0344
  895MPD2    H213120   1.015   2.406  13.880  0.5306  0.3109 -2.3479
  895MPD2    H313121   1.233   2.432  14.008 -0.7866 -0.0979 -0.4409
  895MPD2     N13122   1.286   2.868  13.892 -1.0381 -0.1989 -0.5291
  895MPD2    H513123   1.375   2.869  13.941 -1.5571  1.3852  0.3736
  895MPD2    N113124   0.909   2.614  13.753 -0.6530 -0.2794  0.1296
  895MPD2    H713125   0.895   2.702  13.704  0.5617 -1.6296 -2.6217
  896MPD2     C13126   3.889   1.071   1.389 -1.2526  0.5123 -0.4103
  896MPD2    C113127   3.878   0.942   1.334  0.3150  0.7109  0.9425
  896MPD2    C213128   3.744   0.896   1.317  0.5228 -0.2398  0.6581
  896MPD2    C313129   3.633   0.970   1.360 -0.4785  0.2219 -0.0550
  896MPD2    C413130   3.651   1.093   1.425  0.0937 -0.6154  0.2607
  896MPD2    C513131   3.776   1.143   1.433 -0.0134  0.4230 -0.8044
  896MPD2     H13132   3.711   0.816   1.251 -0.0280 -0.8715  1.7043
  896MPD2    H113133   3.566   1.150   1.459  1.1768  1.5857 -0.7645
  896MPD2    H213134   3.991   1.102   1.404 -1.3061  0.2779  0.4785
  896MPD2    H313135   3.786   1.240   1.481  0.3810  1.0614 -2.1949
  896MPD2     N13136   3.500   0.916   1.345 -0.0875  0.0358 -0.2152
  896MPD2    H513137   3.499   0.833   1.286 -1.2329  0.4440 -0.7689
  896MPD2    N113138   3.997   0.872   1.294  0.1693  0.0324 -0.3512
  896MPD2    H713139   4.086   0.914   1.318 -0.0637  0.5731 -0.4233
  897MPD2     C13140   0.358   1.726  10.316 -0.5564  0.1552  0.3852
  897MPD2    C113141   0.358   1.856  10.261 -0.0420 -0.5273  0.3759
  897MPD2    C213142   0.256   1.944  10.292  0.4983 -0.1781  0.1498
  897MPD2    C313143   0.163   1.911  10.380 -0.1568  0.0844  0.5727
  897MPD2    C413144   0.155   1.780  10.421 -0.9088  0.8455  0.6404
  897MPD2    C513145   0.248   1.688  10.394  0.0500 -0.9750 -0.3827
  897MPD2     H13146   0.259   2.041  10.243 -1.6052 -0.3130 -0.2077
  897MPD2    H113147   0.065   1.746  10.472 -0.7432  3.7736  2.8698
  897MPD2    H213148   0.434   1.650  10.309 -1.1222 -0.2298 -1.6000
  897MPD2    H313149   0.239   1.586  10.430  0.4981 -0.4384  1.2498
  897MPD2     N13150   0.075   2.000  10.437 -0.0056  0.0524 -0.2585
  897MPD2    H513151   0.018   1.967  10.514 -0.4906  2.1733  0.2731
  897MPD2    N113152   0.459   1.903  10.175  0.4026 -0.1944  0.5522
  897MPD2    H713153   0.455   1.992  10.127  0.2823  1.0233  2.8340
  898MPD2     C13154   1.920   3.197   0.072  0.6755 -0.0334 -0.9243
  898MPD2    C113155   2.039   3.260   0.051 -0.1284  0.4864 -0.0353
  898MPD2    C213156   2.045   3.340  17.649  0.5530 -0.3394 -0.1634
  898MPD2    C313157   1.931   3.369  17.568  0.1658  0.2062 -0.2772
  898MPD2    C413158   1.817   3.294  17.592 -0.5021  0.1599 -0.0016
  898MPD2    C513159   1.815   3.209  17.698 -0.3457 -0.2966 -0.0948
  898MPD2     H13160   2.135   3.389  17.614  0.1838  2.1263  2.3563
  898MPD2    H113161   1.726   3.312  17.536  0.1756 -0.9634 -1.4657
  898MPD2    H213162   1.902   3.125   0.151  1.6549  2.0609  1.2376
  898MPD2    H313163   1.724   3.151  17.707 -0.1247 -0.4470  1.2239
  898MPD2     N13164   1.944   3.455  17.454  0.3580 -0.1966 -0.7234
  898MPD2    H513165   2.039   3.484  17.432  0.8924 -0.7960  0.7530
  898MPD2    N113166   2.155   3.243   0.133 -0.6158 -0.0658 -0.6998
  898MPD2    H713167   2.229   3.309   0.112 -0.8789  0.2904 -0.5101
  899MPD2     C13168   2.816   4.056  17.400  0.3734 -0.7543 -0.4370
  899MPD2    C113169   2.779   4.169  17.467 -0.8502 -0.1357  0.2644
  899MPD2    C213170   2.680   4.169  17.560 -0.0795  0.2680 -0.4812
  899MPD2    C313171   2.627   4.046  17.599  0.1234 -0.0646  0.9856
  899MPD2    C413172   2.672   3.928  17.537 -0.4028 -0.1021  0.0765
  899MPD2    C513173   2.770   3.932  17.442 -0.2543  0.0907  0.9454
  899MPD2     H13174   2.659   4.262  17.612  1.1634  1.1210 -1.5132
  899MPD2    H113175   2.636   3.828  17.558  0.8843 -0.5255  0.2339
  899MPD2    H213176   2.895   4.055  17.327  0.9600 -2.7689  0.2368
  899MPD2    H313177   2.806   3.837  17.403 -3.1427 -1.9790  3.2833
  899MPD2     N13178   2.540   4.039  17.711  0.4383 -0.5955 -0.3117
  899MPD2    H513179   2.524   3.948   0.041  0.0149 -0.9152 -1.1810
  899MPD2    N113180   2.835   4.285  17.405 -0.4369  0.6778  0.1851
  899MPD2    H713181   2.901   4.282  17.329  0.5308  2.1533  0.9595
  900MPD2     C13182   3.004   0.578  12.413 -0.1761  0.1706 -0.0159
  900MPD2    C113183   2.907   0.479  12.410  0.0097  0.2058 -0.0260
  900MPD2    C213184   2.838   0.449  12.296  0.3694 -0.3932 -0.0983
  900MPD2    C313185   2.846   0.537  12.191  0.4647 -0.1868  0.4249
  900MPD2    C413186   2.927   0.650  12.200  0.5499 -0.0919 -0.8044
  900MPD2    C513187   3.011   0.662  12.312  0.6574 -0.5588 -0.2735
  900MPD2     H13188   2.776   0.361  12.286  1.4813 -1.3305  1.5000
  900MPD2    H113189   2.936   0.722  12.119 -0.5229  0.8637 -0.0575
  900MPD2    H213190   3.086   0.585  12.484  1.2645 -2.8569 -1.3868
  900MPD2    H313191   3.090   0.736  12.318 -0.5121  0.5317  1.5774
  900MPD2     N13192   2.736   0.530  12.098  0.0747  0.2510  0.3963
  900MPD2    H513193   2.660   0.467  12.124 -0.2539  0.2082 -0.6647
  900MPD2    N113194   2.895   0.394  12.520 -0.0232 -0.0990  0.0702
  900MPD2    H713195   2.964   0.419  12.591  1.0067 -3.3552  0.2270
  901MPD2     C13196   2.413   4.176  12.719  0.2361 -0.2929  0.2965
  901MPD2    C113197   2.530   4.173  12.650 -0.4505 -0.4137 -0.3214
  901MPD2    C213198   2.601   4.290  12.645  0.0326 -0.2351  0.7366
  901MPD2    C313199   2.566   4.403  12.716 -0.2523  0.1388  0.2517
  901MPD2    C413200   2.446   4.402  12.789  0.2700 -0.7192 -1.0235
  901MPD2    C513201   2.373   4.289  12.789  0.1364  0.4352 -0.5235
  901MPD2     H13202   2.699   4.291  12.598 -0.0881  1.7394  0.5243
  901MPD2    H113203   2.407   4.488  12.843 -1.2290  0.1209 -3.4288
  901MPD2    H213204   2.353   4.086  12.725 -0.4103  0.1111 -0.1009
  901MPD2    H313205   2.277   4.280  12.838  1.3115 -1.1207  1.5285
  901MPD2     N13206   2.645   4.516  12.705  0.4604  0.1041  0.1619
  901MPD2    H513207   2.733   4.492  12.659 -0.3994 -3.4714  0.4242
  901MPD2    N113208   2.579   4.049  12.602  0.1530  0.4824 -0.3660
  901MPD2    H713209   2.516   3.970  12.602  0.2429  0.4109 -0.5864
  902MPD2     C13210   1.744   3.032  12.888  0.4799  0.4495 -0.7076
  902MPD2    C113211   1.819   3.144  12.849  0.0925 -0.1265 -0.1088
  902MPD2    C213212   1.884   3.146  12.725  1.0742  0.4301  0.0269
  902MPD2    C313213   1.860   3.037  12.638 -0.1338 -0.3160  0.3620
  902MPD2    C413214   1.771   2.940  12.669 -0.8474  0.0580 -0.4766
  902MPD2    C513215   1.712   2.935  12.790 -0.6024  0.5340 -0.3470
  902MPD2     H13216   1.939   3.231  12.685  0.5218  2.3237  3.3185
  902MPD2    H113217   1.740   2.866  12.597  0.9065 -1.1624  0.0153
  902MPD2    H213218   1.698   3.028  12.986 -3.3730 -2.8572 -2.6519
  902MPD2    H313219   1.640   2.856  12.811 -1.3580  1.1685 -0.5829
  902MPD2     N13220   1.920   3.031  12.508  0.4119  0.0293  0.5034
  902MPD2    H513221   1.893   2.950  12.453 -1.1894 -0.5061  2.0664
  902MPD2    N113222   1.827   3.260  12.933  0.3733  0.8796 -0.1589
  902MPD2    H713223   1.765   3.267  13.012 -0.4085  1.0591 -0.7947
  903MPD2     C13224   1.919   3.362  11.795 -0.7003 -0.1535  0.4363
  903MPD2    C113225   1.874   3.318  11.916 -0.0932  0.8360  0.8514
  903MPD2    C213226   1.730   3.311  11.932 -0.0302 -0.0119  0.7916
  903MPD2    C313227   1.644   3.365  11.842 -0.1569  0.2848  0.2275
  903MPD2    C413228   1.696   3.417  11.720  0.4954 -0.3710  0.1852
  903MPD2    C513229   1.833   3.412  11.697  0.4132 -0.1066 -0.5296
  903MPD2     H13230   1.682   3.276  12.023  1.6469 -0.0236  1.6596
  903MPD2    H113231   1.636   3.467  11.644 -2.6859  0.7194  3.4440
  903MPD2    H213232   2.025   3.370  11.774 -0.4945 -2.9093  0.4027
  903MPD2    H313233   1.881   3.460  11.613 -0.4703 -0.7169 -1.3879
  903MPD2     N13234   1.501   3.363  11.871  0.4915  0.2860  0.0796
  903MPD2    H513235   1.471   3.327  11.961  0.5209  0.3640  0.1203
  903MPD2    N113236   1.959   3.267  12.021  0.3102 -0.4969  0.2357
  903MPD2    H713237   1.907   3.249  12.106 -2.2746 -1.9926 -1.6615
  904MPD2     C13238   1.811   2.131  13.519  0.5321  0.1329  0.0050
  904MPD2    C113239   1.754   2.179  13.634  0.2767  0.4395  0.2995
  904MPD2    C213240   1.828   2.236  13.739  0.7870  0.4207  0.1467
  904MPD2    C313241   1.960   2.251  13.721 -0.6602  0.8668 -0.0603
  904MPD2    C413242   2.020   2.212  13.602 -0.1889 -0.1144  0.3144
  904MPD2    C513243   1.941   2.166  13.497 -0.0728 -0.8622 -0.5497
  904MPD2     H13244   1.781   2.258  13.834  1.8798  0.5739  0.6475
  904MPD2    H113245   2.126   2.211  13.581 -0.1391  0.6226  0.5385
  904MPD2    H213246   1.754   2.085  13.439  1.5307  2.0746 -1.8155
  904MPD2    H313247   1.999   2.134  13.411  1.9190 -0.2224  0.5478
  904MPD2     N13248   2.037   2.313  13.822  0.0021  0.7764  0.0511
  904MPD2    H513249   1.991   2.324  13.911  1.2194 -0.1603  0.7929
  904MPD2    N113250   1.614   2.157  13.652  0.2522 -0.0814 -0.3424
  904MPD2    H713251   1.581   2.188  13.743  1.4221 -1.3910  0.5376
  905MPD2     C13252   1.023   2.592  13.293  0.2372  0.1120 -0.3569
  905MPD2    C113253   1.092   2.576  13.408 -0.1819 -0.2731 -0.3540
  905MPD2    C213254   1.143   2.686  13.476 -0.1867 -0.6600 -0.5334
  905MPD2    C313255   1.118   2.816  13.420  0.1638 -0.0185 -0.4646
  905MPD2    C413256   1.039   2.824  13.311 -0.1563  0.8402 -0.6043
  905MPD2    C513257   0.995   2.718  13.245 -0.5790  0.1608 -0.0590
  905MPD2     H13258   1.200   2.681  13.569 -1.8210  1.4982  0.5889
  905MPD2    H113259   1.013   2.922  13.271 -0.6392 -0.0212 -2.4118
  905MPD2    H213260   0.989   2.505  13.238 -0.6839  2.8115 -4.0286
  905MPD2    H313261   0.936   2.731  13.155 -0.6124  1.5469  0.1649
  905MPD2     N13262   1.169   2.929  13.482  0.4502 -0.0630  0.7828
  905MPD2    H513263   1.213   2.932  13.573 -0.3586  1.5594  1.1274
  905MPD2    N113264   1.100   2.438  13.445  0.5060  0.1831 -0.2044
  905MPD2    H713265   1.062   2.366  13.384 -0.1760 -0.8289  1.3949
  906MPD2     C13266   3.786   2.224  11.011  0.4790  0.7540  0.9760
  906MPD2    C113267   3.724   2.120  10.941 -0.0730 -0.0129 -0.2406
  906MPD2    C213268   3.667   2.020  11.014  0.3057  0.6887  0.5733
  906MPD2    C313269   3.656   2.032  11.153 -0.1385  1.0915  0.3798
  906MPD2    C413270   3.725   2.130  11.219 -0.6897 -0.2760  0.5866
  906MPD2    C513271   3.801   2.217  11.151  0.0539 -0.2347  0.1464
  906MPD2     H13272   3.623   1.942  10.953  2.3422 -0.2047  0.2569
  906MPD2    H113273   3.730   2.142  11.327  0.6883  1.2429  0.3545
  906MPD2    H213274   3.840   2.299  10.955 -1.8396 -0.0874 -2.3607
  906MPD2    H313275   3.858   2.294  11.202  0.1785  1.8317 -3.1079
  906MPD2     N13276   3.563   1.949  11.231  0.2256  0.3984 -0.0751
  906MPD2    H513277   3.550   1.954  11.331  1.1724 -1.0846  0.1253
  906MPD2    N113278   3.718   2.111  10.801 -0.4910 -0.4462 -0.7910
  906MPD2    H713279   3.696   2.021  10.758 -4.4073  0.3971 -0.5630
  907MPD2     C13280   2.515   1.609  15.617  0.4722 -0.6855  0.4388
  907MPD2    C113281   2.579   1.488  15.613 -0.2548 -0.4160 -0.0989
  907MPD2    C213282   2.676   1.461  15.708  0.7848  0.1661 -0.3220
  907MPD2    C313283   2.705   1.546  15.812 -0.0574  0.0140 -0.1404
  907MPD2    C413284   2.639   1.660  15.824  0.5811 -0.0796 -0.5589
  907MPD2    C513285   2.541   1.690  15.729 -0.4074  0.2337 -0.6971
  907MPD2     H13286   2.716   1.361  15.714 -0.4615 -0.4706 -2.7882
  907MPD2    H113287   2.652   1.728  15.907  2.4814  1.3829 -2.0561
  907MPD2    H213288   2.437   1.644  15.550  1.8481  1.9029  0.1539
  907MPD2    H313289   2.487   1.782  15.745  1.0669  0.7694  1.2462
  907MPD2     N13290   2.788   1.491  15.914 -0.3807  0.5458 -0.7821
  907MPD2    H513291   2.823   1.396  15.911 -2.3230 -0.2062  0.3720
  907MPD2    N113292   2.549   1.389  15.517 -0.1083  0.3474 -0.4853
  907MPD2    H713293   2.589   1.297  15.535 -0.3148 -0.0280 -1.9081
  908MPD2     C13294   1.081   1.523   9.476  0.0518 -0.6442  0.1183
  908MPD2    C113295   1.019   1.461   9.587  0.3613  0.1741 -0.1210
  908MPD2    C213296   0.972   1.540   9.692  0.3842  0.6036  0.0297
  908MPD2    C313297   0.978   1.677   9.685 -0.1176 -0.3607 -0.5493
  908MPD2    C413298   1.040   1.741   9.578  0.6720  0.3681  0.6114
  908MPD2    C513299   1.094   1.659   9.479  0.8402  0.4079  0.4314
  908MPD2     H13300   0.922   1.491   9.775  0.9694 -0.0956 -0.0338
  908MPD2    H113301   1.068   1.846   9.579  2.0608 -0.0033  0.9424
  908MPD2    H213302   1.112   1.463   9.392  0.5685 -0.2482  0.0222
  908MPD2    H313303   1.155   1.694   9.396 -0.3802  0.4570 -0.4419
  908MPD2     N13304   0.927   1.745   9.796  0.1122  0.6160 -0.7329
  908MPD2    H513305   0.917   1.690   9.881  1.7811  1.2620 -0.1177
  908MPD2    N113306   0.997   1.320   9.572 -0.5322 -0.2614 -0.7302
  908MPD2    H713307   1.050   1.277   9.497 -0.8138 -0.9144 -0.5579
  909MPD2     C13308   0.675   4.481  11.738 -0.5367  0.4188 -0.5986
  909MPD2    C113309   0.744   4.589  11.684  0.4362 -0.0852  0.8025
  909MPD2    C213310   0.736   4.709  11.745 -0.4040 -0.5666  0.2564
  909MPD2    C313311   0.655   4.726  11.857  0.1223  0.3830 -0.1738
  909MPD2    C413312   0.592   4.612  11.912  1.0275  0.3354 -0.4430
  909MPD2    C513313   0.601   4.491  11.847 -0.7769 -0.2182 -0.2594
  909MPD2     H13314   0.783   0.067  11.697  0.0172 -1.2607 -0.5839
  909MPD2    H113315   0.531   4.615  12.002 -0.2149 -1.7065 -1.2179
  909MPD2    H213316   0.678   4.383  11.691  0.1975  0.1166  0.0902
  909MPD2    H313317   0.549   4.409  11.895 -0.6006 -1.1142 -1.6048
  909MPD2     N13318   0.638   0.130  11.908 -0.2607 -0.6631  0.1209
  909MPD2    H513319   0.689   0.199  11.854  3.7410 -1.9184  2.2184
  909MPD2    N113320   0.822   4.581  11.564 -0.0364 -0.4620 -0.1040
  909MPD2    H713321   0.868   4.666  11.533 -1.9873  1.1552  1.4189
  910MPD2     C13322   2.024   2.269  16.222 -0.3732 -0.0966  0.3395
  910MPD2    C113323   2.093   2.204  16.124 -0.0065 -0.0521 -0.8499
  910MPD2    C213324   2.037   2.189  15.993 -0.0245 -0.0899  0.1802
  910MPD2    C313325   1.914   2.248  15.968 -0.1201  0.2358  0.3817
  910MPD2    C413326   1.850   2.318  16.066  0.1053  0.9565  0.0480
  910MPD2    C513327   1.899   2.322  16.198  0.6584  0.4053 -0.8871
  910MPD2     H13328   2.083   2.116  15.927 -3.2367 -0.5103 -1.5538
  910MPD2    H113329   1.753   2.364  16.052 -0.5469 -0.6950 -0.9073
  910MPD2    H213330   2.068   2.281  16.320  0.7565  0.8832 -0.2813
  910MPD2    H313331   1.847   2.374  16.278 -1.8639 -0.0550 -2.2209
  910MPD2     N13332   1.846   2.240  15.847 -0.7219 -0.3125 -0.9373
  910MPD2    H513333   1.750   2.271  15.840 -0.0366  1.4541 -2.3686
  910MPD2    N113334   2.215   2.132  16.160  0.0033 -0.8439  0.2457
  910MPD2    H713335   2.268   2.086  16.086  1.1252  0.9408 -0.0540
  911MPD2     C13336   4.566   2.551  16.303  0.5139  0.1058 -0.0825
  911MPD2    C113337   4.632   2.673  16.295 -0.3640 -0.3239  0.0963
  911MPD2    C213338   4.565   2.786  16.251  0.0230 -0.1812 -0.2265
  911MPD2    C313339   4.444   2.768  16.184 -0.0469  0.4705  0.0149
  911MPD2    C413340   4.385   2.646  16.187  0.7191 -0.0723  0.5046
  911MPD2    C513341   4.445   2.535  16.235  0.7318  0.0561  0.5614
  911MPD2     H13342   4.617   2.881  16.243 -0.8447  0.5150  2.5758
  911MPD2    H113343   4.293   2.634  16.130  1.9127  1.3531 -1.7345
  911MPD2    H213344   4.616   2.468  16.351  1.2630 -0.0633 -1.1484
  911MPD2    H313345   4.395   2.439  16.235 -0.1198  0.5066 -1.0597
  911MPD2     N13346   4.375   2.878  16.119  0.1742  0.4399  0.0409
  911MPD2    H513347   4.298   2.860  16.055 -1.7079  1.8227  1.9324
  911MPD2    N113348   0.045   2.666  16.322 -0.0763 -0.5069 -0.8956
  911MPD2    H713349   0.082   2.573  16.335 -1.0717 -0.8052 -0.2220
  912MPD2     C13350   3.955   2.817  15.486 -0.1393 -0.0506 -0.1086
  912MPD2    C113351   4.009   2.801  15.609 -0.1113  0.6419 -0.7413
  912MPD2    C213352   4.024   2.669  15.657 -0.1163  0.4353  0.5068
  912MPD2    C313353   3.998   2.557  15.580 -0.1489  0.9459  0.1588
  912MPD2    C413354   3.959   2.580  15.448  0.0262  0.1530 -0.6748
  912MPD2    C513355   3.927   2.705  15.402  0.0819  0.5287 -0.2153
  912MPD2     H13356   4.073   2.652  15.752  2.0524  0.6371 -0.5876
  912MPD2    H113357   3.951   2.497  15.379  0.8340  1.0956 -1.9164
  912MPD2    H213358   3.943   2.916  15.442  1.5821  0.5411  0.7625
  912MPD2    H313359   3.892   2.715  15.300  1.0059  2.0786 -0.3785
  912MPD2     N13360   4.015   2.433  15.642 -0.4150 -0.2284  0.0929
  912MPD2    H513361   4.037   2.436  15.741  2.5721 -0.6752 -0.5578
  912MPD2    N113362   4.058   2.918  15.674 -0.6746 -0.0955 -0.1300
  912MPD2    H713363   4.069   3.000  15.615 -1.3927  0.0704 -0.0362
  913MPD2     C13364   4.684   3.541  10.219 -0.2103  0.3870 -0.3195
  913MPD2    C113365   0.050   3.582  10.308 -0.7037  0.2634 -0.3156
  913MPD2    C213366   0.076   3.718  10.320  0.2290  0.4492 -0.0131
  913MPD2    C313367   0.008   3.811  10.237  0.4385  0.2448  0.5226
  913MPD2    C413368   4.637   3.763  10.154 -0.2601  0.0516  0.1264
  913MPD2    C513369   4.604   3.631  10.149  0.0999  0.2664 -0.4207
  913MPD2     H13370   0.159   3.748  10.384  1.1165  0.5874 -1.2239
  913MPD2    H113371   4.575   3.822  10.086 -0.4894 -1.0417 -0.6138
  913MPD2    H213372   4.660   3.435  10.223  3.4048 -0.4409  0.3595
  913MPD2    H313373   4.515   3.592  10.101  0.1997  0.8637 -1.0871
  913MPD2     N13374   0.023   3.952  10.251 -0.4136  0.4727  0.4822
  913MPD2    H513375   4.694   4.009  10.189  0.7546  1.8088  0.6460
  913MPD2    N113376   0.113   3.478  10.377 -0.3217 -0.0107  0.4130
  913MPD2    H713377   0.125   3.388  10.331  2.1979  1.5573 -2.0473
  914MPD2     C13378   2.423   4.074  11.793 -0.3459 -0.3756  0.4976
  914MPD2    C113379   2.472   4.155  11.889 -0.0484 -0.5305 -0.6104
  914MPD2    C213380   2.520   4.091  12.007  0.6130  0.7107 -0.2765
  914MPD2    C313381   2.506   3.955  12.018  0.1731  0.0120 -0.7105
  914MPD2    C413382   2.440   3.877  11.922  0.1639 -0.2381  0.2223
  914MPD2    C513383   2.407   3.943  11.807 -0.0346  0.1177 -0.0282
  914MPD2     H13384   2.589   4.138  12.076 -0.6421 -1.2088  2.2462
  914MPD2    H113385   2.418   3.772  11.938 -1.9536 -0.1055 -1.9013
  914MPD2    H213386   2.379   4.113  11.703 -0.9038  1.9839  1.8164
  914MPD2    H313387   2.364   3.883  11.728  0.3112 -0.9513  0.5958
  914MPD2     N13388   2.560   3.908  12.144  0.3335  0.0797 -0.1407
  914MPD2    H513389   2.568   3.975  12.221  3.2082 -1.0241  0.5241
  914MPD2    N113390   2.490   4.293  11.867 -0.1367 -0.3006  0.7755
  914MPD2    H713391   2.470   4.312  11.770  0.4291  0.7778  0.8751
  915MPD2     C13392   0.893   4.381  15.350 -0.5887 -0.2246 -0.0924
  915MPD2    C113393   0.790   4.286  15.373  0.3577  0.2061 -0.6182
  915MPD2    C213394   0.689   4.321  15.462  0.1386  0.3649 -0.6631
  915MPD2    C313395   0.685   4.442  15.533  0.3531  0.3428 -0.0593
  915MPD2    C413396   0.796   4.524  15.515  0.4688 -0.7511 -0.4382
  915MPD2    C513397   0.899   4.494  15.426 -0.5057  0.4147 -0.8745
  915MPD2     H13398   0.607   4.251  15.478  1.4956 -1.1896 -0.5266
  915MPD2    H113399   0.805   4.625  15.554 -0.2781 -1.8294  2.5827
  915MPD2    H213400   0.964   4.377  15.269 -0.6261 -0.9035 -0.0923
  915MPD2    H313401   0.975   4.570  15.414 -0.0480  0.4580  2.4993
  915MPD2     N13402   0.573   4.469  15.616 -0.2132 -0.1539 -0.1687
  915MPD2    H513403   0.502   4.399  15.634 -0.7682  0.1464 -1.1927
  915MPD2    N113404   0.781   4.171  15.284 -0.1169  0.6550 -0.8617
  915MPD2    H713405   0.858   4.160  15.219 -0.7652 -0.7322 -1.3875
  916MPD2     C13406   3.521   2.651  15.531 -0.5639 -0.4620  0.1823
  916MPD2    C113407   3.602   2.560  15.596 -0.3919 -0.2442 -0.0591
  916MPD2    C213408   3.657   2.454  15.527 -0.1529 -0.4509 -0.0493
  916MPD2    C313409   3.641   2.443  15.390 -0.9863  1.0039  0.0712
  916MPD2    C413410   3.553   2.524  15.323  0.2628  0.1732  0.2585
  916MPD2    C513411   3.490   2.621  15.399 -0.1422 -0.2282 -0.4463
  916MPD2     H13412   3.711   2.374  15.575  2.1041  0.9342 -0.2848
  916MPD2    H113413   3.535   2.528  15.217 -0.3276 -1.6493  0.3035
  916MPD2    H213414   3.478   2.739  15.577  2.0842 -0.8426  3.4034
  916MPD2    H313415   3.422   2.688  15.348 -1.1271 -0.0584  1.0945
  916MPD2     N13416   3.713   2.340  15.328 -0.5271 -0.8814 -0.4255
  916MPD2    H513417   3.767   2.289  15.397 -3.0808 -2.1654  0.6363
  916MPD2    N113418   3.631   2.594  15.730 -0.3885  0.6141 -0.0201
  916MPD2    H713419   3.583   2.675  15.768  2.0051  2.3572 -0.7391
  917MPD2     C13420   4.400   4.491  11.400 -0.3637 -0.2235 -0.0899
  917MPD2    C113421   4.426   4.542  11.530 -0.1140 -0.4310 -0.1227
  917MPD2    C213422   4.536   4.628  11.546  0.5296  0.5131 -0.2299
  917MPD2    C313423   4.598   4.682  11.434 -0.2846  0.3017  0.6298
  917MPD2    C413424   4.558   4.649  11.305 -0.2297 -0.7998  0.5607
  917MPD2    C513425   4.468   4.551  11.295 -0.5200 -0.2044  0.4759
  917MPD2     H13426   4.576   4.641  11.646 -1.5637  1.1562  0.5148
  917MPD2    H113427   4.613   4.687  11.220 -0.9690 -0.6013  0.1727
  917MPD2    H213428   4.322   4.418  11.381  0.2687 -1.0940  0.6169
  917MPD2    H313429   4.449   4.517  11.194  1.1143  0.3684 -0.0277
  917MPD2     N13430   4.696   0.055  11.452 -0.7162  0.2761  0.1573
  917MPD2    H513431   0.028   0.079  11.373  0.3421  0.1554  0.9266
  917MPD2    N113432   4.337   4.514  11.637  0.1674 -0.1907 -0.4584
  917MPD2    H713433   4.257   4.456  11.612 -0.1607 -0.3089  0.8777
  918MPD2     C13434   4.260   0.159  12.554 -0.4037 -0.7138 -0.2403
  918MPD2    C113435   4.362   0.141  12.471  0.0261 -0.0107  0.2449
  918MPD2    C213436   4.345   0.054  12.370 -0.8745  0.2434  0.5387
  918MPD2    C313437   4.225   4.721  12.339  0.1778 -0.1577  0.3210
  918MPD2    C413438   4.119   0.028  12.425 -0.3346  0.2253 -0.5308
  918MPD2    C513439   4.138   0.104  12.532  0.1755  0.0945 -0.4605
  918MPD2     H13440   4.430   0.012  12.317 -1.8329  1.9166 -2.2872
  918MPD2    H113441   4.021   4.719  12.400 -0.1228  0.2499 -1.3845
  918MPD2    H213442   4.264   0.230  12.636 -3.0456  0.2561 -0.9499
  918MPD2    H313443   4.055   0.116  12.600 -0.3227  0.8157 -1.2077
  918MPD2     N13444   4.225   4.636  12.227 -0.4001  0.3479 -0.2281
  918MPD2    H513445   4.316   4.622  12.186  1.5896  0.9512  3.9248
  918MPD2    N113446   4.490   0.192  12.498  0.0790  0.1694  0.0029
  918MPD2    H713447   4.551   0.178  12.418  0.1305  2.4648 -0.3638
  919MPD2     C13448   0.399   3.279  11.767  0.0880  0.0940  0.2958
  919MPD2    C113449   0.322   3.206  11.678  0.1267  0.4825 -0.1537
  919MPD2    C213450   0.287   3.262  11.552 -0.3879 -0.3308 -0.0456
  919MPD2    C313451   0.334   3.386  11.521  0.0788  0.3682 -0.2781
  919MPD2    C413452   0.422   3.448  11.603  0.5961  0.4387 -0.2651
  919MPD2    C513453   0.451   3.399  11.731 -0.0282 -0.3683  0.1912
  919MPD2     H13454   0.222   3.207  11.485  0.8068 -2.2927  0.4179
  919MPD2    H113455   0.457   3.541  11.560  0.3787 -0.1269 -1.6497
  919MPD2    H213456   0.435   3.243  11.863  0.9795  0.2165  0.0010
  919MPD2    H313457   0.494   3.471  11.800 -1.4710  0.5564  0.1462
  919MPD2     N13458   0.295   3.457  11.406 -0.1581  0.0912 -0.3436
  919MPD2    H513459   0.314   3.556  11.410  0.5579 -0.0798  0.4195
  919MPD2    N113460   0.258   3.083  11.714  0.0899  0.3113  0.7279
  919MPD2    H713461   0.238   3.014  11.643  0.9156  0.5228  0.2930
  920MPD2     C13462   0.310   4.303  10.858 -0.1367  0.6182  0.0653
  920MPD2    C113463   0.202   4.229  10.814  0.0306 -0.5406 -0.1330
  920MPD2    C213464   0.182   4.099  10.847  0.0469  0.3255  0.1908
  920MPD2    C313465   0.259   4.035  10.938  0.5508 -0.3286  0.1009
  920MPD2    C413466   0.362   4.114  10.993 -0.1039 -0.0227  0.3124
  920MPD2    C513467   0.381   4.243  10.957  0.1450 -1.2193  0.4025
  920MPD2     H13468   0.092   4.044  10.821 -0.3128 -0.2467  2.6656
  920MPD2    H113469   0.429   4.065  11.063  0.3806  0.8412  0.4578
  920MPD2    H213470   0.332   4.402  10.818  1.3143  0.5938  0.8006
  920MPD2    H313471   0.471   4.295  10.989 -0.4459 -0.5101  0.9208
  920MPD2     N13472   0.233   3.900  10.977 -0.1379 -0.3416 -0.4422
  920MPD2    H513473   0.187   3.845  10.906 -1.3515 -1.4658  1.2050
  920MPD2    N113474   0.105   4.278  10.738  0.3728 -0.1921  0.1505
  920MPD2    H713475   0.026   4.219  10.713 -0.0567  0.7216 -0.6094
  921MPD2     C13476   0.891   3.130  16.625 -0.2417 -0.0506 -0.5003
  921MPD2    C113477   0.895   3.000  16.678  0.4871  0.3075 -0.6921
  921MPD2    C213478   0.774   2.929  16.667  1.0156 -0.1277  0.0955
  921MPD2    C313479   0.661   2.983  16.605 -0.2928  0.2794  0.6174
  921MPD2    C413480   0.663   3.115  16.558 -0.0238  0.9022 -0.6983
  921MPD2    C513481   0.779   3.188  16.567 -0.7723 -0.0195  0.1516
  921MPD2     H13482   0.757   2.834  16.715 -2.1233  0.7170  0.6725
  921MPD2    H113483   0.579   3.167  16.515 -1.4530  1.1658  2.4037
  921MPD2    H213484   0.987   3.180  16.624  0.3699 -1.2170 -0.1732
  921MPD2    H313485   0.786   3.284  16.518 -0.6539 -0.4716 -0.7266
  921MPD2     N13486   0.552   2.905  16.571  0.1049  0.0993 -0.6755
  921MPD2    H513487   0.481   2.954  16.517 -0.0654  3.7675  2.8471
  921MPD2    N113488   1.010   2.939  16.728 -0.0222 -0.2992 -0.3329
  921MPD2    H713489   1.101   2.976  16.703  0.0930  0.7043  1.6450
  922MPD2     C13490   1.497   0.226  16.712 -0.5177  0.3001  0.2847
  922MPD2    C113491   1.548   0.311  16.814 -0.6502 -0.0613 -0.1782
  922MPD2    C213492   1.490   0.305  16.943 -0.7007  0.2895  0.5232
  922MPD2    C313493   1.380   0.231  16.962  0.3101 -1.0030 -0.0123
  922MPD2    C413494   1.336   0.142  16.863 -0.5997 -0.3916 -0.4202
  922MPD2    C513495   1.399   0.135  16.742 -0.0349  0.1658  0.5062
  922MPD2     H13496   1.530   0.368  17.022  0.1586  0.5074 -0.0840
  922MPD2    H113497   1.248   0.079  16.867 -2.1300  1.7533  0.0418
  922MPD2    H213498   1.548   0.227  16.616  0.5573 -0.3748  0.8409
  922MPD2    H313499   1.361   0.073  16.661  1.8434 -2.0137  1.3179
  922MPD2     N13500   1.304   0.263  17.077 -0.1544 -0.5511 -0.4349
  922MPD2    H513501   1.349   0.337  17.131 -0.3144 -1.5452  1.0530
  922MPD2    N113502   1.635   0.417  16.790  0.8338  0.1398 -0.1973
  922MPD2    H713503   1.662   0.473  16.870 -1.5108  0.3303  0.4507
  923MPD2     C13504   3.129   1.718   9.028 -0.3320 -0.1296  0.6451
  923MPD2    C113505   3.124   1.817   9.123  0.2893 -0.6007  0.1426
  923MPD2    C213506   3.221   1.807   9.223  0.3074  0.0334 -0.5402
  923MPD2    C313507   3.305   1.696   9.244  0.0185  0.2683 -0.6337
  923MPD2    C413508   3.285   1.591   9.159  0.1212 -0.3731  0.4747
  923MPD2    C513509   3.203   1.609   9.047 -0.5432 -0.3401  0.3359
  923MPD2     H13510   3.234   1.887   9.295  0.2232  0.2551 -0.7670
  923MPD2    H113511   3.354   1.508   9.167  2.1413  1.4499  1.9796
  923MPD2    H213512   3.069   1.724   8.938  0.5043 -0.2577  0.0766
  923MPD2    H313513   3.193   1.527   8.977 -0.5535  0.6661 -0.8387
  923MPD2     N13514   3.405   1.697   9.342 -0.1637 -0.4084  0.2992
  923MPD2    H513515   3.471   1.621   9.329 -0.9441 -1.4224  2.3410
  923MPD2    N113516   3.031   1.915   9.107 -0.0759 -0.6450  0.4715
  923MPD2    H713517   2.970   1.913   9.026 -0.2575  1.1672  0.5414
  924MPD2     C13518   3.038   0.815  15.808 -0.4041  0.8581 -0.0601
  924MPD2    C113519   2.982   0.838  15.934 -0.5548 -0.1211  0.2490
  924MPD2    C213520   3.018   0.959  15.993  0.9862 -0.8437  0.4964
  924MPD2    C313521   3.110   1.047  15.930  0.2657  0.4096  0.6894
  924MPD2    C413522   3.165   1.016  15.806  0.2637 -0.1740  0.5022
  924MPD2    C513523   3.129   0.901  15.751 -0.0366 -0.1469 -0.3670
  924MPD2     H13524   2.989   0.998  16.089 -0.2486  1.0754 -0.6633
  924MPD2    H113525   3.238   1.075  15.751 -1.4046 -0.0472 -1.5575
  924MPD2    H213526   3.017   0.726  15.749 -0.4436 -0.3646  1.7806
  924MPD2    H313527   3.151   0.892  15.646  0.4424 -0.6248 -0.2245
  924MPD2     N13528   3.145   1.169  15.986 -0.1476 -0.3907  0.1445
  924MPD2    H513529   3.174   1.239  15.918  1.0034 -0.4229  0.6059
  924MPD2    N113530   2.874   0.758  15.991 -0.2945 -0.3373 -0.2898
  924MPD2    H713531   2.825   0.689  15.934  1.2711 -4.0027  2.7463
  925MPD2     C13532   1.675   3.179  14.567  0.1541  0.4119  0.0355
  925MPD2    C113533   1.545   3.180  14.526 -0.7394  0.0312 -0.5408
  925MPD2    C213534   1.439   3.164  14.616  0.8332  0.8879 -0.1348
  925MPD2    C313535   1.478   3.126  14.751  0.6274  0.4378 -0.4017
  925MPD2    C413536   1.606   3.109  14.782  0.6474 -0.6876 -0.2516
  925MPD2    C513537   1.704   3.139  14.691 -0.4153 -0.5215 -0.2359
  925MPD2     H13538   1.332   3.164  14.596  0.6958 -1.6417  0.5848
  925MPD2    H113539   1.651   3.093  14.879 -0.3739 -0.9764  0.1673
  925MPD2    H213540   1.762   3.219  14.518  0.6738 -0.1550  0.4967
  925MPD2    H313541   1.809   3.138  14.719 -0.5674  0.1652  0.3622
  925MPD2     N13542   1.387   3.089  14.857 -0.2619  0.0378  0.1868
  925MPD2    H513543   1.424   3.045  14.940  1.2340 -1.2958 -1.1743
  925MPD2    N113544   1.506   3.197  14.389  0.6655 -0.6058  0.2697
  925MPD2    H713545   1.408   3.213  14.372  0.8152 -2.8733 -2.5866
  926MPD2     C13546   1.250   1.896  12.781 -0.0431  0.1344  0.2366
  926MPD2    C113547   1.128   1.933  12.732  0.7338  0.0513  0.8257
  926MPD2    C213548   1.133   2.014  12.618 -0.1172  0.2298 -0.0961
  926MPD2    C313549   1.249   2.054  12.560  0.0641 -0.1734 -0.0456
  926MPD2    C413550   1.372   2.015  12.605 -0.1022  0.1409 -0.2840
  926MPD2    C513551   1.369   1.930  12.717 -0.1661 -0.4020  0.1537
  926MPD2     H13552   1.042   2.047  12.567 -0.1199  0.9751  0.3899
  926MPD2    H113553   1.470   2.025  12.559  0.6702 -0.3503  1.2629
  926MPD2    H213554   1.255   1.863  12.884 -0.7564  1.1412  0.6013
  926MPD2    H313555   1.465   1.897  12.755 -0.3591  0.3460  1.2981
  926MPD2     N13556   1.269   2.131  12.440  0.3539 -0.1897  0.8749
  926MPD2    H513557   1.366   2.151  12.417 -0.0648  0.6328 -0.1401
  926MPD2    N113558   1.003   1.897  12.797  0.2847 -0.3627 -0.3094
  926MPD2    H713559   0.921   1.944  12.761  2.7500  3.8067 -0.5220
  927MPD2     C13560   0.564   3.817   0.062  0.3108  0.1049  0.3156
  927MPD2    C113561   0.457   3.886   0.011 -0.0090  0.5565 -0.2272
  927MPD2    C213562   0.450   3.895  17.582 -0.4758 -0.4912  0.4695
  927MPD2    C313563   0.551   3.854  17.498  0.9169 -0.0887 -0.3898
  927MPD2    C413564   0.662   3.801  17.554 -0.1552 -0.5190 -1.0352
  927MPD2    C513565   0.673   3.783  17.690  0.1628  0.2756  0.3000
  927MPD2     H13566   0.373   3.955  17.533  0.2256 -0.2628 -0.3644
  927MPD2    H113567   0.738   3.758  17.489  0.5847  0.7007 -0.9852
  927MPD2    H213568   0.568   3.802   0.169 -0.3142  0.0340  0.3286
  927MPD2    H313569   0.761   3.737   0.020 -1.8423 -4.2314 -0.4092
  927MPD2     N13570   0.539   3.887  17.361  0.0105  1.0069  0.1194
  927MPD2    H513571   0.453   3.931  17.333 -1.4277 -0.5433  2.0876
  927MPD2    N113572   0.355   3.931   0.098 -0.1873 -0.3524  0.3674
  927MPD2    H713573   0.374   3.914   0.196 -1.4927 -0.9836  0.5191
  928MPD2     C13574   2.348   2.971   1.175 -0.0628  0.3938  0.6886
  928MPD2    C113575   2.305   2.964   1.042 -0.7900  0.0221  0.7952
  928MPD2    C213576   2.400   2.977   0.942  0.0862  0.4380 -0.3701
  928MPD2    C313577   2.526   3.001   0.969 -0.1422 -0.4131 -0.5847
  928MPD2    C413578   2.567   3.024   1.098 -0.5401  0.0411  0.2312
  928MPD2    C513579   2.483   3.001   1.200 -0.5807 -0.3166 -0.1673
  928MPD2     H13580   2.368   2.979   0.838 -1.4515 -3.5930  0.0052
  928MPD2    H113581   2.668   3.038   1.135 -0.3378  0.2272 -0.3924
  928MPD2    H213582   2.285   2.958   1.262  0.0325  1.8547  0.9887
  928MPD2    H313583   2.516   3.000   1.303 -0.6276 -1.5654 -0.1577
  928MPD2     N13584   2.629   3.008   0.875  0.0660  0.3304  0.6962
  928MPD2    H513585   2.718   3.044   0.906 -0.3145 -0.2198  2.4100
  928MPD2    N113586   2.173   2.941   1.002 -0.2820  0.3769 -0.4540
  928MPD2    H713587   2.151   2.953   0.904  4.1514 -2.2126 -1.7492
  929MPD2     C13588   3.073   2.477  10.236 -0.1921 -0.0819  0.5673
  929MPD2    C113589   2.944   2.444  10.234  0.0616 -0.5997  0.0787
  929MPD2    C213590   2.854   2.547  10.197 -0.2160  0.4504  0.2954
  929MPD2    C313591   2.894   2.681  10.170 -0.2495  0.2615 -0.7266
  929MPD2    C413592   3.028   2.711  10.189  0.1424 -0.2189 -0.0055
  929MPD2    C513593   3.111   2.608  10.217  0.7966  0.1812 -0.5177
  929MPD2     H13594   2.747   2.541  10.215 -0.6455 -0.3143 -2.4827
  929MPD2    H113595   3.068   2.809  10.164  1.7048 -0.8003  0.2237
  929MPD2    H213596   3.152   2.403  10.243  1.5892  1.8290  0.6349
  929MPD2    H313597   3.214   2.627  10.190  0.0536  0.6598 -3.0710
  929MPD2     N13598   2.806   2.781  10.112  0.0429  0.1241  0.1836
  929MPD2    H513599   2.844   2.874  10.094  1.9451 -0.3388  1.8758
  929MPD2    N113600   2.906   2.319  10.286 -0.4746 -0.1381  0.5490
  929MPD2    H713601   2.984   2.272  10.329 -1.7368 -0.3606  2.5982
  930MPD2     C13602   0.024   0.120  14.159  1.3239 -0.4195  0.3756
  930MPD2    C113603   4.678   0.174  14.061 -0.2456 -0.4834 -0.2293
  930MPD2    C213604   4.588   0.090  14.002  0.5781 -0.0208  0.0939
  930MPD2    C313605   4.576   4.688  14.030  0.3004 -0.3109 -0.4188
  930MPD2    C413606   4.661   4.632  14.122  0.6658 -0.3171  0.2788
  930MPD2    C513607   0.016   4.715  14.192  1.2002  0.4893  0.0923
  930MPD2     H13608   4.532   0.130  13.918  1.0897  1.5575  0.5079
  930MPD2    H113609   4.656   4.530  14.158  2.3596 -0.2512  0.6800
  930MPD2    H213610   0.089   0.183  14.219  2.4125 -0.8349 -0.3687
  930MPD2    H313611   0.083   4.684  14.271  0.5062 -0.3855  0.3388
  930MPD2     N13612   4.487   4.603  13.971 -0.7854  0.2539  0.1701
  930MPD2    H513613   4.498   4.503  13.987  0.9796  0.1661 -1.5944
  930MPD2    N113614   4.697   0.311  14.036 -0.3885  0.3146  0.1798
  930MPD2    H713615   0.038   0.365  14.089  0.0019  0.2049 -0.2132
  931MPD2     C13616   0.275   3.666   0.629 -0.1707  0.2308  0.0071
  931MPD2    C113617   0.174   3.763   0.645 -0.1684  0.1827  0.9268
  931MPD2    C213618   0.100   3.773   0.767  0.2971 -0.2188 -0.3933
  931MPD2    C313619   0.130   3.689   0.873 -0.2303  0.9035  0.1397
  931MPD2    C413620   0.231   3.599   0.853  0.2702  0.1781  0.1319
  931MPD2    C513621   0.300   3.581   0.736 -0.6908  0.6327  0.4211
  931MPD2     H13622   0.039   3.861   0.781  0.9691  0.4237 -1.4862
  931MPD2    H113623   0.248   3.522   0.928 -0.4848  1.4532  1.6011
  931MPD2    H213624   0.341   3.656   0.543 -2.3060 -0.9157 -1.5181
  931MPD2    H313625   0.376   3.503   0.730 -2.6382 -1.1682 -0.6482
  931MPD2     N13626   0.063   3.688   0.994  0.0834  0.5865  0.2663
  931MPD2    H513627   0.093   3.614   1.057  0.8566  0.4649 -0.2545
  931MPD2    N113628   0.155   3.848   0.533  0.2883 -0.5955  0.9260
  931MPD2    H713629   0.208   3.828   0.448 -1.2126 -0.4195 -0.0490
  932MPD2     C13630   1.584   3.902  11.515 -0.4271 -0.7739 -0.5307
  932MPD2    C113631   1.722   3.884  11.494 -0.6456 -0.3611 -0.8341
  932MPD2    C213632   1.766   3.770  11.425  0.4151 -0.1155 -1.1410
  932MPD2    C313633   1.678   3.664  11.405 -0.4323  0.1623  0.1655
  932MPD2    C413634   1.545   3.675  11.439 -0.2164 -0.2147  0.2314
  932MPD2    C513635   1.503   3.793  11.488  0.2381 -0.7342  0.0492
  932MPD2     H13636   1.869   3.769  11.393  0.0352  1.0129 -2.4032
  932MPD2    H113637   1.469   3.606  11.404  0.9554 -1.1050 -0.5365
  932MPD2    H213638   1.529   3.981  11.564 -0.6861 -1.0198 -0.4263
  932MPD2    H313639   1.397   3.791  11.508 -0.0461 -0.5707 -1.4392
  932MPD2     N13640   1.720   3.540  11.356 -0.0800 -0.0009  0.5033
  932MPD2    H513641   1.651   3.467  11.340 -0.1171  1.1615 -4.6108
  932MPD2    N113642   1.807   3.994  11.529 -0.8388 -0.6702 -0.1165
  932MPD2    H713643   1.902   3.973  11.498 -0.5109  1.0898 -0.2875
  933MPD2     C13644   1.243   3.043   0.943 -0.0870 -0.7138 -0.0789
  933MPD2    C113645   1.358   3.091   0.985  0.8952  0.3494  0.1843
  933MPD2    C213646   1.360   3.229   1.016 -0.7331 -0.0590 -0.1265
  933MPD2    C313647   1.245   3.305   1.017 -0.7876 -0.2632 -0.9929
  933MPD2    C413648   1.123   3.250   0.987  0.3297 -0.7244  0.1628
  933MPD2    C513649   1.126   3.118   0.953  0.2748 -0.1420 -0.3395
  933MPD2     H13650   1.453   3.279   1.039 -0.1745 -1.0752 -0.1552
  933MPD2    H113651   1.033   3.309   0.979  1.0117  0.5854  1.9236
  933MPD2    H213652   1.229   2.938   0.920 -2.3855 -0.5228  0.4361
  933MPD2    H313653   1.031   3.069   0.937  0.7773 -0.9586 -0.8635
  933MPD2     N13654   1.262   3.443   1.041 -0.2877  0.0830  0.4600
  933MPD2    H513655   1.359   3.472   1.046 -0.3398  0.4159 -0.4779
  933MPD2    N113656   1.470   3.005   0.985 -0.1215  0.3391  0.0717
  933MPD2    H713657   1.459   2.912   0.948 -0.2406 -0.6803  2.6678
  934MPD2     C13658   3.493   0.803   1.717 -0.1814 -0.3232 -0.1317
  934MPD2    C113659   3.570   0.715   1.632  0.1784 -0.1403  0.3104
  934MPD2    C213660   3.498   0.621   1.562 -0.7492  0.1290 -0.4498
  934MPD2    C313661   3.362   0.600   1.577  0.6780  0.1800 -0.6880
  934MPD2    C413662   3.294   0.684   1.665  0.1530 -0.3512  0.0408
  934MPD2    C513663   3.360   0.781   1.732  0.2292 -0.4231 -0.0448
  934MPD2     H13664   3.551   0.561   1.490  1.9882 -0.4404  2.0413
  934MPD2    H113665   3.187   0.675   1.679  0.2445 -1.5078 -0.0404
  934MPD2    H213666   3.530   0.871   1.793 -1.7029  1.3382 -0.8694
  934MPD2    H313667   3.298   0.830   1.806  1.3148  0.9006 -0.0008
  934MPD2     N13668   3.287   0.498   1.504  0.1548 -0.6459 -0.0306
  934MPD2    H513669   3.192   0.473   1.532  1.0608 -1.6956  2.0921
  934MPD2    N113670   3.712   0.727   1.620 -0.9310 -0.1591 -0.2291
  934MPD2    H713671   3.756   0.661   1.557  1.7980  0.1800  1.2817
  935MPD2     C13672   3.442   4.291   1.229  0.0120 -0.5926 -0.3176
  935MPD2    C113673   3.357   4.339   1.130 -0.4242  0.5031 -0.2437
  935MPD2    C213674   3.306   4.469   1.135 -0.4475 -0.1663  0.1971
  935MPD2    C313675   3.346   4.546   1.239  0.1581 -0.2767 -0.4033
  935MPD2    C413676   3.441   4.508   1.324 -0.2466 -0.0506  0.0575
  935MPD2    C513677   3.487   4.379   1.320  0.0771 -0.5258  0.3223
  935MPD2     H13678   3.233   4.504   1.063 -1.2623  0.7134  1.4462
  935MPD2    H113679   3.486   4.575   1.397 -0.0273 -0.0979 -0.0348
  935MPD2    H213680   3.476   4.189   1.212  1.4912 -0.2078  0.3199
  935MPD2    H313681   3.569   4.349   1.384  1.9366  2.4859 -0.6345
  935MPD2     N13682   3.296   4.675   1.260 -0.0148 -0.9265 -0.1328
  935MPD2    H513683   3.341   4.720   1.339  0.2315  1.1286 -1.4446
  935MPD2    N113684   3.310   4.256   1.026 -0.2897  0.2164  0.3444
  935MPD2    H713685   3.230   4.293   0.977 -0.5395 -0.5807  0.1500
  936MPD2     C13686   2.776   1.306  12.491 -0.1339  0.1891  0.3700
  936MPD2    C113687   2.667   1.381  12.446  0.5876 -0.4182  0.0886
  936MPD2    C213688   2.666   1.438  12.317  0.1301  0.0814  0.1485
  936MPD2    C313689   2.772   1.420  12.233 -0.8885  0.9798 -1.1221
  936MPD2    C413690   2.885   1.344  12.280  0.5667  0.2554  0.2018
  936MPD2    C513691   2.888   1.299  12.414 -1.0704  0.4026 -0.3090
  936MPD2     H13692   2.582   1.499  12.285  1.3313  1.3989 -0.4754
  936MPD2    H113693   2.975   1.333  12.222  0.3437 -0.4477 -0.0079
  936MPD2    H213694   2.796   1.272  12.592 -1.4735  1.5486  1.0995
  936MPD2    H313695   2.978   1.248  12.448 -0.1898  0.5511 -2.3999
  936MPD2     N13696   2.757   1.467  12.108  0.3827  0.1548 -1.1974
  936MPD2    H513697   2.680   1.532  12.094  1.4159  1.4273 -0.9756
  936MPD2    N113698   2.562   1.418  12.536  0.0457 -0.5950  0.2474
  936MPD2    H713699   2.495   1.483  12.496 -1.1477 -1.6840  0.4417
  937MPD2     C13700   0.200   2.481  11.363 -0.5392  0.1952 -0.3206
  937MPD2    C113701   0.209   2.614  11.375  0.2377 -0.0658 -0.1230
  937MPD2    C213702   0.277   2.684  11.271  0.5267 -0.9695 -0.0025
  937MPD2    C313703   0.331   2.615  11.161  0.3514 -1.5103  0.3332
  937MPD2    C413704   0.300   2.482  11.144 -0.8944  0.1194 -0.2453
  937MPD2    C513705   0.233   2.421  11.246 -0.1794  0.7674  0.3137
  937MPD2     H13706   0.289   2.790  11.292 -2.4092 -0.7358  0.4943
  937MPD2    H113707   0.337   2.427  11.058  0.5806  0.1277  0.3744
  937MPD2    H213708   0.157   2.427  11.447  3.4411 -0.9854  0.9551
  937MPD2    H313709   0.222   2.313  11.243 -0.9994  0.8317  0.9452
  937MPD2     N13710   0.418   2.681  11.066  0.6479 -0.3636  0.1648
  937MPD2    H513711   0.426   2.781  11.081  3.4736 -0.3753 -1.4564
  937MPD2    N113712   0.188   2.674  11.502 -0.1711  0.1462 -0.2524
  937MPD2    H713713   0.201   2.774  11.507  1.1721  0.0144 -1.3950
  938MPD2     C13714   2.334   4.700   0.404  0.5526 -0.9993 -0.1158
  938MPD2    C113715   2.401   0.043   0.501 -0.3246 -0.6121  0.3639
  938MPD2    C213716   2.386   0.007   0.640 -0.0992  0.9404  0.1314
  938MPD2    C313717   2.307   4.629   0.681  0.0358 -0.2922 -0.1242
  938MPD2    C413718   2.243   4.556   0.578  0.2192 -0.7784 -0.2033
  938MPD2    C513719   2.258   4.596   0.447  0.3311 -0.3836 -0.5480
  938MPD2     H13720   2.441   0.059   0.718 -0.8212  3.7615 -1.2482
  938MPD2    H113721   2.193   4.462   0.602  1.8225 -1.6331 -0.2036
  938MPD2    H213722   2.344   4.725   0.299  2.0712 -0.6059  0.1230
  938MPD2    H313723   2.202   4.544   0.370  0.0693 -1.1524  0.1626
  938MPD2     N13724   2.275   4.593   0.813  0.0301 -0.1528  0.2288
  938MPD2    H513725   2.215   4.511   0.815 -0.4763  0.1884 -0.9893
  938MPD2    N113726   2.480   0.152   0.466  0.5488 -0.3100 -0.1319
  938MPD2    H713727   2.540   0.189   0.539  2.4640  0.3798 -2.0517
  939MPD2     C13728   4.136   1.019   1.027 -0.3187 -0.4340 -0.4691
  939MPD2    C113729   4.025   0.976   0.953  0.7079  0.3836  0.0597
  939MPD2    C213730   4.052   0.907   0.829  0.1451 -0.1583 -0.3453
  939MPD2    C313731   4.184   0.888   0.782 -0.2133 -0.1066 -0.3388
  939MPD2    C413732   4.291   0.929   0.879 -0.1277 -0.2974 -0.1220
  939MPD2    C513733   4.267   0.988   0.995 -0.3731 -0.3982  0.4912
  939MPD2     H13734   3.970   0.881   0.763  0.7171 -0.2868 -1.0080
  939MPD2    H113735   4.397   0.918   0.857  0.3363  1.8620  1.0662
  939MPD2    H213736   4.116   1.063   1.123 -2.7860  0.6470 -1.4881
  939MPD2    H313737   4.351   1.005   1.062  1.5301 -0.0921 -1.9695
  939MPD2     N13738   4.206   0.841   0.655 -0.3093 -0.0543  0.2375
  939MPD2    H513739   4.127   0.834   0.592  0.2437  0.6768 -0.5448
  939MPD2    N113740   3.897   1.002   1.002 -0.6555 -0.3364 -0.1370
  939MPD2    H713741   3.901   1.067   1.079  0.5338  0.6261 -1.0180
  940MPD2     C13742   2.630   1.526  13.136 -0.4380  0.3912  0.1797
  940MPD2    C113743   2.734   1.453  13.089 -0.6714 -0.0310  0.0192
  940MPD2    C213744   2.808   1.506  12.983 -0.3174  0.3003 -0.1527
  940MPD2    C313745   2.764   1.611  12.910  0.5875  0.1950 -0.5415
  940MPD2    C413746   2.660   1.683  12.959  0.0370 -0.7059  0.0594
  940MPD2    C513747   2.589   1.639  13.068 -0.1380  0.5965  0.3724
  940MPD2     H13748   2.883   1.442  12.939 -0.0017  0.2888  0.4142
  940MPD2    H113749   2.623   1.776  12.916  0.4900 -1.9809 -3.0513
  940MPD2    H213750   2.573   1.486  13.219 -0.4891 -1.4245 -0.7320
  940MPD2    H313751   2.497   1.692  13.091 -0.6994  0.3433 -1.2692
  940MPD2     N13752   2.826   1.656  12.787  0.2313  0.0752 -0.6099
  940MPD2    H513753   2.789   1.746  12.759  1.2859  1.0670  1.1257
  940MPD2    N113754   2.775   1.328  13.148 -0.0915 -0.0215 -0.2648
  940MPD2    H713755   2.847   1.278  13.096 -0.2872  0.3464 -0.8958
  941MPD2     C13756   2.893   0.027   9.052 -0.3815  0.1716  0.2518
  941MPD2    C113757   2.843   0.076   9.171 -0.2705  0.0311 -0.2206
  941MPD2    C213758   2.872   0.010   9.285  0.3669 -0.1126 -0.1595
  941MPD2    C313759   2.952   4.624   9.284 -0.4836 -0.6339  0.2929
  941MPD2    C413760   3.006   4.579   9.168  0.3454 -0.5039 -0.0705
  941MPD2    C513761   2.971   4.642   9.051  0.1942 -0.6458  0.2859
  941MPD2     H13762   2.829   0.039   9.381  2.9426 -0.4800  1.0919
  941MPD2    H113763   3.053   4.482   9.165  0.7537 -0.3753  1.9057
  941MPD2    H213764   2.883   0.073   8.954 -0.6730  1.7046  0.9900
  941MPD2    H313765   2.998   4.611   8.951 -1.6349 -2.4839  0.3483
  941MPD2     N13766   2.968   4.538   9.395  0.2163  0.6018  0.3520
  941MPD2    H513767   3.028   4.456   9.387 -0.1414  0.5432 -1.8507
  941MPD2    N113768   2.762   0.190   9.176 -0.5688 -0.3717  0.3744
  941MPD2    H713769   2.716   0.209   9.264  0.3193  0.5691  0.6325
  942MPD2     C13770   1.754   2.084   9.182  0.0610  0.1866  0.1070
  942MPD2    C113771   1.811   2.076   9.310  0.8305  0.1594  0.3674
  942MPD2    C213772   1.947   2.041   9.321 -0.7014 -0.0467 -0.3075
  942MPD2    C313773   2.022   2.015   9.213 -0.3110 -0.2312 -0.3293
  942MPD2    C413774   1.964   2.024   9.088 -0.8652 -0.5446  0.3298
  942MPD2    C513775   1.837   2.064   9.074  0.3805  0.4585 -0.1311
  942MPD2     H13776   1.982   2.052   9.422 -1.3918 -0.4319 -0.0244
  942MPD2    H113777   2.036   2.016   9.007 -1.7670 -1.0128 -0.4139
  942MPD2    H213778   1.648   2.102   9.171  0.0550 -1.7506 -2.9350
  942MPD2    H313779   1.795   2.067   8.974 -1.1886  0.4629  0.5252
  942MPD2     N13780   2.154   1.976   9.221  0.3972  0.5706 -0.2474
  942MPD2    H513781   2.198   1.957   9.131  0.4884  0.4182 -0.1701
  942MPD2    N113782   1.734   2.096   9.433  0.0987  0.2651  0.1592
  942MPD2    H713783   1.762   2.063   9.525 -1.2170  0.2669  0.5547
  943MPD2     C13784   1.213   0.231   9.570  0.5209  0.1605 -0.3506
  943MPD2    C113785   1.108   0.159   9.622 -0.1444  0.0377  0.0631
  943MPD2    C213786   1.010   0.112   9.530  0.1745 -0.2024  0.1588
  943MPD2    C313787   1.031   0.129   9.393 -0.6511 -0.0627 -0.8845
  943MPD2    C413788   1.131   0.202   9.342  0.1468  0.0151  0.2155
  943MPD2    C513789   1.218   0.249   9.434  0.2300 -0.2231  0.3484
  943MPD2     H13790   0.919   0.066   9.567 -1.3074  1.1041 -1.8721
  943MPD2    H113791   1.143   0.220   9.236  1.7784  0.4543  0.4767
  943MPD2    H213792   1.292   0.266   9.636 -0.9688  1.3042  0.8369
  943MPD2    H313793   1.302   0.301   9.389  0.1436 -0.1031  0.3251
  943MPD2     N13794   0.947   0.065   9.300 -0.3026 -0.0942 -0.2760
  943MPD2    H513795   0.965   0.084   9.202 -0.3915  0.2580 -0.2266
  943MPD2    N113796   1.099   0.143   9.761 -0.4089  0.2444  0.3071
  943MPD2    H713797   1.167   0.197   9.814  0.5667 -0.1106 -0.5845
  944MPD2     C13798   0.478   4.072  11.354  0.1365 -1.1149 -0.0798
  944MPD2    C113799   0.550   4.158  11.278 -0.8950 -0.8838  0.1982
  944MPD2    C213800   0.532   4.292  11.301 -0.2810  0.0559 -0.4982
  944MPD2    C313801   0.453   4.342  11.404 -0.3726  0.4547  0.3079
  944MPD2    C413802   0.387   4.248  11.481 -0.3960 -0.8677 -0.7736
  944MPD2    C513803   0.398   4.119  11.447  0.0320 -0.1703  0.2572
  944MPD2     H13804   0.577   4.364  11.233 -0.1723  1.5854  1.1729
  944MPD2    H113805   0.320   4.275  11.562  1.7952 -0.1291  0.7973
  944MPD2    H213806   0.492   3.965  11.342 -2.6456 -1.4080 -0.6395
  944MPD2    H313807   0.346   4.048  11.511  0.3024 -0.0202  0.6442
  944MPD2     N13808   0.451   4.483  11.426  0.3631  0.0956 -0.1586
  944MPD2    H513809   0.494   4.545  11.358 -0.2185  1.1708  0.4402
  944MPD2    N113810   0.637   4.105  11.174  1.1711  0.5902  0.1943
  944MPD2    H713811   0.650   4.005  11.177 -0.6294  0.3530 -0.2209
    1TCq1    O113812   3.156   4.727  14.668  0.3457  0.2022  0.0904
    1TCq1    C113813   3.209   4.667  14.563 -0.2525 -0.0747  0.5738
    1TCq1    O213814   3.260   4.552  14.560  0.0311 -0.0852 -0.1828
    1TCq1    C213815   3.227   0.046  14.470 -0.2757 -0.1278  0.1258
    1TCq1    C313816   3.210   0.020  14.338 -0.3926  0.3402 -0.4023
    1TCq1    C413817   3.222   0.119  14.245  0.8524  0.5327  0.0935
    1TCq1    C513818   3.251   0.246  14.288 -0.6543 -0.1198  0.7041
    1TCq1    C613819   3.284   0.269  14.420 -0.0010 -0.4642 -0.0602
    1TCq1    C713820   3.263   0.173  14.516 -0.3593 -0.5914 -0.4118
    1TCq1    C813821   3.379   0.381  14.456 -0.1314 -0.1648  0.2230
    1TCq1    O413822   3.427   0.378  14.570 -0.1877 -0.2717 -0.2397
    1TCq1    C913823   3.185   0.095  14.106 -0.1450  0.5448 -0.0413
    1TCq1    O513824   3.142   0.193  14.041  0.2427 -0.9609 -0.1066
    1TCq1    O613825   3.190   4.705  14.068  0.1667  0.4423 -0.5253
    1TCq1    H113826   3.121   0.089  14.649  2.1975  0.5443 -1.6716
    1TCq1    H213827   3.174   4.651  14.306  1.1928 -0.7856  1.2578
    1TCq1    H313828   3.243   0.328  14.216 -1.2801  0.0207  0.9285
    1TCq1    H413829   3.284   0.194  14.620 -1.1441  0.8931 -0.5484
    2MPD2     C13830   3.673   0.796  14.359 -0.0081 -0.1649 -0.1419
    2MPD2    C113831   3.612   0.761  14.243  0.2444  0.0649  0.3207
    2MPD2    C213832   3.522   0.655  14.244  0.3988  0.2205 -0.7546
    2MPD2    C313833   3.495   0.586  14.361 -0.1784  0.0438 -0.8416
    2MPD2    C413834   3.565   0.618  14.474  0.4525  0.6585 -0.6765
    2MPD2    C513835   3.655   0.720  14.475 -0.1900  0.3850 -0.3410
    2MPD2     H13836   3.477   0.633  14.147 -0.0748  0.7151 -0.6507
    2MPD2    H113837   3.556   0.562  14.566  0.4496  1.0579 -0.4302
    2MPD2    H213838   3.739   0.882  14.360 -0.9432  0.5214  2.5545
    2MPD2    H313839   3.711   0.740  14.566  3.7616 -1.3728 -2.3576
    2MPD2     N13840   3.405   0.475  14.356  0.7311 -0.2886  0.2801
    2MPD2    H513841   3.371   0.460  14.262 -1.1016  0.1817  0.8758
    2MPD2    N113842   3.620   0.861  14.139  0.8863  0.6439  0.2111
    2MPD2    H713843   3.674   0.943  14.163  0.8092 -0.1628  3.0370
    3TMC2    C113844   3.578   0.953  13.931 -0.3907  0.2999 -0.1121
    3TMC2    C213845   3.558   1.077  13.991 -0.2892  0.5165 -0.5900
    3TMC2    C313846   3.585   1.187  13.914  0.2326  0.2560 -0.3614
    3TMC2    C413847   3.593   0.945  13.793  0.1512  0.7295 -0.0702
    3TMC2    C513848   3.627   1.055  13.728  0.5646 -0.1553  0.6755
    3TMC2    C613849   3.620   1.187  13.780 -0.9358 -0.3663 -0.0066
    3TMC2     C13850   3.577   0.840  14.014  0.3953 -0.6404 -0.0724
    3TMC2     O13851   3.531   0.742  13.962  0.0863 -0.2346 -0.2380
    3TMC2     H13852   3.523   1.093  14.092 -0.0101  0.9402 -0.5615
    3TMC2    H113853   3.603   0.850  13.742 -0.0154  0.1478  0.9754
    3TMC2    H213854   3.656   1.275  13.728  0.0299 -1.5789 -1.3786
    3TMC2    C713855   3.631   1.037  13.581 -0.5021 -0.0558  0.1433
    3TMC2    C813856   3.580   1.319  13.975  0.9327  0.5729 -0.0830
    3TMC2    O113857   3.707   0.956  13.529  0.5372  0.2787  0.0626
    3TMC2    O213858   3.568   1.417  13.904 -0.2487 -0.5360  0.3324
    3TMC2    O513859   3.645   1.315  14.095 -0.8133 -0.6944 -0.0360
    3TMC2    H513860   3.688   1.228  14.113 -0.1205 -0.5475 -0.9765
    4MPD2     C13861   2.596   2.151  13.373  0.5414  0.3077  0.1733
    4MPD2    C113862   2.586   2.118  13.238  0.0358 -0.2320 -0.1968
    4MPD2    C213863   2.660   2.013  13.186 -0.0917  0.2907  0.1607
    4MPD2    C313864   2.738   1.932  13.260 -0.2795  1.0556 -0.1909
    4MPD2    C413865   2.756   1.965  13.388  0.3121  0.2100 -0.3630
    4MPD2    C513866   2.690   2.072  13.444  0.2335 -0.3112 -0.6172
    4MPD2     H13867   2.668   2.003  13.078  1.5670 -0.3427  0.3372
    4MPD2    H113868   2.826   1.917  13.455  3.5151 -0.1094 -3.9888
    4MPD2    H213869   2.539   2.223  13.429 -3.6927 -4.4094  1.9388
    4MPD2    H313870   2.700   2.100  13.548 -0.6621  0.7002 -0.8061
    4MPD2     N13871   2.812   1.822  13.199  0.4374  0.4018 -0.3151
    4MPD2    H513872   2.821   1.828  13.098 -3.1603  2.9469 -0.4940
    4MPD2    N113873   2.493   2.198  13.165 -0.2601 -0.3061 -0.4926
    4MPD2    H713874   2.436   2.265  13.216 -1.2616 -0.1236 -1.8618
    5TCq2    C113875   2.896   1.737  13.263 -0.2699 -0.4047 -0.0196
    5TCq2    O213876   2.906   1.719  13.382 -0.4189  0.3735 -0.3448
    5TCq2    C213877   2.990   1.675  13.176  0.1783  0.3336  0.6137
    5TCq2    C313878   3.021   1.738  13.054 -0.3830 -0.0684 -0.5417
    5TCq2    C413879   3.132   1.691  12.986  0.4324  0.7288  0.1403
    5TCq2    C513880   3.195   1.575  13.022  0.2743 -0.1122  0.1473
    5TCq2    C613881   3.165   1.514  13.140  0.0539  0.1463  0.5396
    5TCq2    C713882   3.072   1.572  13.221 -0.2636  0.4943  0.0994
    5TCq2    C813883   3.261   1.446  13.220 -0.0661  0.3041  0.3811
    5TCq2    O413884   3.251   1.474  13.338 -0.1510  0.1566  0.0181
    5TCq2    C913885   3.172   1.759  12.865  0.0943  0.0621 -0.6681
    5TCq2    O513886   3.242   1.695  12.778 -0.0869  0.3018 -0.6254
    5TCq2    O613887   3.127   1.880  12.851 -0.2426 -0.2506  0.1593
    5TCq2    H213888   2.963   1.818  13.010 -1.2241 -1.5534 -2.1838
    5TCq2    H313889   3.269   1.549  12.947  1.9245 -1.4082  2.2502
    5TCq2    H413890   3.033   1.527  13.312 -2.5033 -0.5361 -1.3679
    6MPD1     C13891   1.759   3.768  12.588 -0.1728  0.6048 -0.3942
    6MPD1    C113892   1.882   3.827  12.630  0.2795  0.3788 -0.1960
    6MPD1    C213893   1.995   3.750  12.648 -0.7946 -0.4162 -0.2950
    6MPD1    C313894   1.990   3.621  12.598  0.6768 -0.6257  0.5128
    6MPD1    C413895   1.873   3.573  12.545  0.2071  0.3747  0.0609
    6MPD1    C513896   1.760   3.638  12.547  0.5549 -0.2431  0.5328
    6MPD1     H13897   2.087   3.791  12.690 -0.5953 -0.2926 -0.8612
    6MPD1    H113898   1.872   3.469  12.512 -4.0806 -0.3582  2.4814
    6MPD1    H213899   1.668   3.827  12.593  0.9567  2.2717  0.6904
    6MPD1    H313900   1.669   3.587  12.520 -0.0488  0.6918  0.7946
    6MPD1     N13901   2.089   3.523  12.605 -0.1338 -0.1243  0.0815
    6MPD1    H513902   2.085   3.436  12.553 -0.7637 -0.5977  0.9012
    6MPD1    N113903   1.883   3.958  12.696 -0.0841  0.3842  0.2136
    6MPD1    H613904   1.831   4.026  12.642 -2.5735 -0.7406  1.1750
    6MPD1    H713905   1.974   4.000  12.714  0.4919 -0.5928 -0.4064
    7MPD2     C13906   2.526   3.041  13.174  0.4346  0.4095  0.1726
    7MPD2    C113907   2.440   3.014  13.071  0.4492  0.0507  0.1811
    7MPD2    C213908   2.370   2.898  13.067 -0.2570 -0.7449 -0.2160
    7MPD2    C313909   2.395   2.800  13.160 -0.2156 -0.1053  0.3140
    7MPD2    C413910   2.489   2.830  13.262 -0.0472 -0.0702 -0.1267
    7MPD2    C513911   2.554   2.951  13.269 -0.6161 -0.1461 -0.0424
    7MPD2     H13912   2.304   2.895  12.981  1.7611  0.6844 -1.7994
    7MPD2    H113913   2.516   2.755  13.336 -1.3085  1.2579  1.6793
    7MPD2    H213914   2.584   3.132  13.180  0.8414  0.0160  1.9994
    7MPD2    H313915   2.623   2.976  13.349 -0.7269 -0.1627  0.0592
    7MPD2     N13916   2.346   2.673  13.145 -0.0503  0.4343  0.4573
    7MPD2    H513917   2.366   2.599  13.211 -1.2086  0.1146  0.4633
    7MPD2    N113918   2.410   3.104  12.961  0.7289 -0.1874  0.0937
    7MPD2    H713919   2.341   3.071  12.894  0.2856  0.8871  0.0346
    8TMC3    C113920   2.262   2.482  13.027  0.3093  0.4915  0.0986
    8TMC3    C213921   2.386   2.412  13.037 -0.6881 -0.4754 -0.3980
    8TMC3    C313922   2.404   2.292  12.968  0.3258 -0.1790 -0.3453
    8TMC3    C413923   2.185   2.448  12.920 -0.0205  1.2494  0.6115
    8TMC3    C513924   2.212   2.345  12.836 -0.0396 -0.0495 -0.1576
    8TMC3    C613925   2.313   2.258  12.871  0.4560 -0.4705 -0.0526
    8TMC3     C13926   2.270   2.627  13.036  0.3480  0.0642 -0.5398
    8TMC3     O13927   2.215   2.692  12.947 -0.9613  0.6470 -0.2908
    8TMC3     H13928   2.466   2.443  13.103 -1.8797 -0.2816  0.9485
    8TMC3    H113929   2.095   2.502  12.894 -0.8725  0.4239  1.8318
    8TMC3    H213930   2.333   2.170  12.811 -0.0994 -3.4868  4.1602
    8TMC3    C713931   2.242   2.395  12.702 -0.2272 -0.0783 -0.5421
    8TMC3    C813932   2.482   2.183  13.027 -0.6006 -0.9944 -0.0597
    8TMC3    O113933   2.287   2.311  12.622 -0.7519 -0.5139 -0.4713
    8TMC3    O213934   2.503   2.086  12.957  0.3440  0.2400 -0.2686
    9TMC3    C113935   2.281   3.414  12.688  0.1019  0.0704  0.3009
    9TMC3    C213936   2.289   3.339  12.576  0.0802  1.0577  0.0253
    9TMC3    C313937   2.357   3.216  12.593 -0.4946 -0.2227  0.4316
    9TMC3    C413938   2.352   3.397  12.805 -0.1119 -0.2824 -0.3512
    9TMC3    C513939   2.416   3.278  12.807 -0.0590  0.4898  0.3987
    9TMC3    C613940   2.415   3.181  12.711  0.1317  0.7999 -0.0528
    9TMC3     C13941   2.187   3.526  12.696  0.1639 -0.0140  0.0468
    9TMC3     O13942   2.218   3.617  12.773  0.7970  0.5382  0.0204
    9TMC3     H13943   2.239   3.367  12.484  0.2863 -0.0442 -0.4217
    9TMC3    H113944   2.363   3.472  12.883  0.1321  2.6071 -3.1908
    9TMC3    H213945   2.478   3.093  12.713 -2.6765 -1.2302 -0.3026
    9TMC3    C713946   2.458   3.228  12.937  0.1885 -0.6775  0.0281
    9TMC3    C813947   2.337   3.102  12.507 -0.0901  0.4442 -0.2893
    9TMC3    O113948   2.504   3.314  13.012  0.0058  0.0421  0.2977
    9TMC3    O213949   2.370   3.112  12.392 -0.3471 -0.1285  0.0850
   10MPD2     C13950   2.349   2.582  12.485  0.3180 -0.6319 -0.1546
   10MPD2    C113951   2.286   2.622  12.604  0.5332  0.1370  0.0981
   10MPD2    C213952   2.278   2.757  12.624  0.1621 -0.7278 -0.5651
   10MPD2    C313953   2.318   2.850  12.536  0.3987  0.1112 -1.4175
   10MPD2    C413954   2.376   2.817  12.417  0.3097 -0.3554  0.1603
   10MPD2    C513955   2.390   2.679  12.393 -0.1409 -0.6731  0.0918
   10MPD2     H13956   2.230   2.793  12.714  2.3540 -0.4714  0.5007
   10MPD2    H113957   2.401   2.887  12.338 -0.5223 -0.8422 -0.5403
   10MPD2    H213958   2.362   2.480  12.450 -0.1993 -1.5372  2.2467
   10MPD2    H313959   2.435   2.652  12.298  1.9349 -1.9733  1.4548
   10MPD2     N13960   2.298   2.988  12.575  0.4321  0.2189  0.6208
   10MPD2    H513961   2.274   3.002  12.672 -0.1941 -0.7012  0.6007
   10MPD2    N113962   2.240   2.532  12.701  0.2439 -0.1696 -0.3740
   10MPD2    H713963   2.191   2.568  12.782 -0.0749  1.1603 -1.1515
   11MPD2     C13964   3.593   1.059  13.298 -0.0773  0.3980 -1.0905
   11MPD2    C113965   3.524   1.140  13.386  0.5082  0.0909 -0.3147
   11MPD2    C213966   3.444   1.243  13.334 -0.6274  0.0823  0.5733
   11MPD2    C313967   3.432   1.264  13.201 -0.0642 -0.1798 -0.6705
   11MPD2    C413968   3.503   1.181  13.113 -0.2684  0.5654 -0.5773
   11MPD2    C513969   3.587   1.076  13.162  0.1146  0.1969  0.4221
   11MPD2     H13970   3.388   1.298  13.408 -1.6000 -2.6656  1.8787
   11MPD2    H113971   3.512   1.193  13.005 -1.1722  4.9919 -0.1624
   11MPD2    H213972   3.647   0.973  13.334 -2.9732  0.4882  3.3910
   11MPD2    H313973   3.645   1.020  13.089 -0.1117  0.2047  0.2342
   11MPD2     N13974   3.345   1.363  13.148 -0.5154 -0.5581 -0.3058
   11MPD2    H513975   3.333   1.360  13.048 -0.6614 -0.8072 -0.2801
   11MPD2    N113976   3.537   1.125  13.527 -0.0148  0.4273  0.2740
   11MPD2    H713977   3.476   1.181  13.586 -0.2471  1.0509 -0.5420
    1MPD1     C13978   1.299   3.210  17.452 -0.1507 -0.0170  0.3134
    1MPD1    C113979   1.403   3.285  17.406 -0.1697  0.6386  0.1227
    1MPD1    C213980   1.467   3.247  17.284  0.1681  0.1100  0.4630
    1MPD1    C313981   1.434   3.130  17.213  0.2381  0.3283  0.4039
    1MPD1    C413982   1.322   3.061  17.263  0.4021 -0.7443 -0.5737
    1MPD1    C513983   1.261   3.098  17.383  0.5314  0.9248  0.7942
    1MPD1     H13984   1.553   3.299  17.244 -0.2649  0.9161  0.5581
    1MPD1    H113985   1.298   2.962  17.227 -4.2177 -0.7388  2.4132
    1MPD1    H213986   1.265   3.233  17.553 -0.3108 -1.1353  0.5093
    1MPD1    H313987   1.180   3.030  17.406  0.7227 -0.1072 -1.5800
    1MPD1     N13988   1.485   3.085  17.090  0.5533  0.6768  0.4629
    1MPD1    H513989   1.445   2.995  17.064  1.0737  0.7112 -0.4288
    1MPD1    N113990   1.430   3.405  17.463 -0.5798  0.4824 -0.8198
    1MPD1    H613991   1.521   3.447  17.445 -0.2425  0.6620  1.3184
    1MPD1    H713992   1.418   3.397  17.564 -2.0063 -1.1747 -1.1206
    2MPD1     C13993   2.227   3.048  16.277  0.2724 -0.3122 -0.0056
    2MPD1    C113994   2.120   2.966  16.245 -0.4013  0.2219 -0.3857
    2MPD1    C213995   2.003   2.970  16.323  0.2138  0.3095 -0.7932
    2MPD1    C313996   1.997   3.057  16.430 -0.2540  0.3454  0.0859
    2MPD1    C413997   2.104   3.137  16.457 -0.1287  0.1256  0.1463
    2MPD1    C513998   2.215   3.132  16.380 -0.1748 -0.2970  1.1590
    2MPD1     H13999   1.924   2.899  16.301  0.1842  0.7505 -2.0645
    2MPD1    H114000   2.099   3.218  16.529  1.1948 -0.4987  0.9393
    2MPD1    H214001   2.318   3.052  16.217 -1.4133  0.4342 -2.5362
    2MPD1    H314002   2.306   3.184  16.406 -0.4114  0.2305  0.9185
    2MPD1     N14003   1.875   3.058  16.507  0.1218  0.6044 -0.6165
    2MPD1    H514004   1.797   3.009  16.467 -1.1431  2.5578 -0.5542
    2MPD1    N114005   2.149   2.875  16.139  0.1307  0.1079 -0.2048
    2MPD1    H614006   2.218   2.906  16.072 -0.5531  1.8964 -0.1056
    2MPD1    H714007   2.067   2.854  16.082 -0.1280 -2.8612  1.2615
    3TMC3    C114008   1.733   3.110  16.688  0.1464 -0.0150 -0.4973
    3TMC3    C214009   1.633   3.045  16.621  0.0111  0.6131 -0.8398
    3TMC3    C314010   1.519   3.008  16.690 -1.0552 -0.3328  0.0970
    3TMC3    C414011   1.721   3.136  16.822  0.0984 -0.6155  0.2840
    3TMC3    C514012   1.617   3.092  16.892 -0.7200 -0.2947 -0.0083
    3TMC3    C614013   1.510   3.023  16.828  0.1179 -1.3782  0.3684
    3TMC3     C14014   1.865   3.126  16.628  0.4173 -0.3286  0.3257
    3TMC3     O14015   1.950   3.174  16.703  0.2882 -0.1570  0.3371
    3TMC3     H14016   1.634   3.014  16.517 -0.2531  0.3311 -0.7560
    3TMC3    H114017   1.807   3.177  16.873 -0.0896  1.3158 -0.9612
    3TMC3    H214018   1.416   3.002  16.878 -0.5334 -1.2614 -0.7825
    3TMC3    C714019   1.580   3.152  17.019  0.2778 -0.1344 -0.0994
    3TMC3    C814020   1.390   2.980  16.628 -0.3084 -0.3724  0.2932
    3TMC3    O114021   1.663   3.233  17.061  0.0589 -0.7195 -0.5604
    3TMC3    O214022   1.290   2.986  16.699 -0.1154 -0.4553  0.5788
    4MPD1     C14023   1.095   2.899  16.218 -0.2873 -0.5182  0.3628
    4MPD1    C114024   1.215   2.842  16.190  0.0365  0.3465 -0.3516
    4MPD1    C214025   1.311   2.855  16.290  0.0074  0.0797 -0.5244
    4MPD1    C314026   1.293   2.926  16.408  0.4820  0.3400  0.3600
    4MPD1    C414027   1.171   2.988  16.427 -0.5304 -0.5796 -0.1497
    4MPD1    C514028   1.073   2.970  16.336 -0.2846 -0.5826  0.2691
    4MPD1     H14029   1.397   2.790  16.277  1.0107  1.5324 -1.2262
    4MPD1    H114030   1.159   3.048  16.517 -1.3617 -0.2765 -0.4602
    4MPD1    H214031   1.009   2.879  16.155 -1.0421  2.3736  0.4865
    4MPD1    H314032   0.972   3.007  16.351 -0.5403 -0.7332 -1.1244
    4MPD1     N14033   1.403   2.927  16.503  0.0947 -0.0904 -0.2553
    4MPD1    H514034   1.489   2.890  16.464  0.1146 -2.0731  1.7021
    4MPD1    N114035   1.216   2.742  16.096  0.4544  0.2376  0.6176
    4MPD1    H614036   1.145   2.744  16.024 -0.8758 -0.5408  1.9077
    4MPD1    H714037   1.309   2.722  16.060 -0.9635 -0.5074 -2.5533
    1TCq1    O114038   2.076   2.900  11.218 -0.1387  0.1338 -0.4847
    1TCq1    C114039   2.209   2.904  11.190  0.5229 -0.5758  0.2220
    1TCq1    O214040   2.286   2.990  11.232  0.1577  0.3601  0.3981
    1TCq1    C214041   2.243   2.760  11.167 -0.5237  0.3879 -1.1196
    1TCq1    C314042   2.151   2.676  11.111  0.0744  0.4193  0.4644
    1TCq1    C414043   2.183   2.542  11.121  0.0851 -0.5563  0.6646
    1TCq1    C514044   2.307   2.501  11.165 -0.2434 -0.4305 -0.2759
    1TCq1    C614045   2.392   2.594  11.235  0.2056  0.3676  0.0561
    1TCq1    C714046   2.362   2.726  11.235  0.0589 -0.0616 -0.3098
    1TCq1    C814047   2.511   2.549  11.306  0.0941 -0.1722 -0.2103
    1TCq1    O414048   2.582   2.465  11.255  0.4480  0.0121 -0.3484
    1TCq1    C914049   2.107   2.445  11.045  0.0803 -0.0165  0.1329
    1TCq1    O514050   2.111   2.323  11.078  0.1366 -0.3080 -0.2604
    1TCq1    O614051   2.038   2.484  10.947  0.2282  0.4094  0.2720
    1TCq1    H114052   2.033   2.816  11.190  1.9362 -2.1665  3.0971
    1TCq1    H214053   2.071   2.716  11.050 -0.8993 -1.2262  0.6533
    1TCq1    H314054   2.345   2.400  11.154 -2.3173 -1.0874 -1.4778
    1TCq1    H414055   2.431   2.797  11.278  1.4711 -1.3452 -0.4660
    2MPD1     C14056   2.841   2.591  11.693 -0.0812 -0.1961  0.4650
    2MPD1    C114057   2.721   2.639  11.742 -0.1218 -0.0631  0.0516
    2MPD1    C214058   2.624   2.648  11.649  0.7142  0.2494 -0.2126
    2MPD1    C314059   2.627   2.586  11.521  0.6636 -0.0223 -0.0679
    2MPD1    C414060   2.752   2.524  11.485 -0.0517 -0.4327  0.3066
    2MPD1    C514061   2.853   2.550  11.570  0.0240  0.4487 -0.2855
    2MPD1     H14062   2.527   2.692  11.669 -0.3100 -1.3789 -1.6322
    2MPD1    H114063   2.766   2.478  11.388  0.4345  2.5459 -1.0229
    2MPD1    H214064   2.929   2.586  11.757  2.3100  4.8005 -2.4531
    2MPD1    H314065   2.949   2.509  11.543 -0.1276  0.0568 -0.2269
    2MPD1     N14066   2.521   2.604  11.429  0.1600 -0.6808  0.3030
    2MPD1    H514067   2.448   2.669  11.453 -0.7169 -1.1634 -1.0925
    2MPD1    N114068   2.710   2.701  11.861  0.4925 -0.0630 -0.0218
    2MPD1    H614069   2.615   2.698  11.896  1.2217 -0.5739  1.9254
    2MPD1    H714070   2.787   2.686  11.926  0.9481 -3.3170 -1.3153
    1TCq1    O114071   1.114   0.735   1.109 -0.3148 -0.1124  0.2269
    1TCq1    C114072   0.987   0.763   1.067 -0.7545  0.1533 -0.6796
    1TCq1    O214073   0.893   0.689   1.059 -0.5524  0.0675  0.2472
    1TCq1    C214074   0.975   0.901   1.050 -0.9340  0.3704  0.0758
    1TCq1    C314075   1.086   0.971   1.005  0.0522  0.4560 -0.3473
    1TCq1    C414076   1.072   1.109   1.003 -0.0482  0.4428  0.5341
    1TCq1    C514077   0.959   1.178   1.043  0.0502  0.0816  0.0307
    1TCq1    C614078   0.854   1.100   1.086 -0.2049 -0.0374 -0.5224
    1TCq1    C714079   0.863   0.964   1.097  0.4125  0.4355  0.2442
    1TCq1    C814080   0.717   1.162   1.098  0.8996  0.0203 -0.2738
    1TCq1    O414081   0.631   1.093   1.149 -0.1339 -0.3465  0.3258
    1TCq1    C914082   1.168   1.189   0.934  0.3803  0.3405  0.9445
    1TCq1    O514083   1.160   1.316   0.946 -0.2530 -0.0341 -0.6023
    1TCq1    O614084   1.241   1.127   0.852  0.0170  0.1608  0.2643
    1TCq1    H114085   1.160   0.820   1.124  0.6066 -0.9587  2.3077
    1TCq1    H214086   1.158   0.925   0.938  0.4525 -0.7912  0.9342
    1TCq1    H314087   0.953   1.286   1.048 -3.9620 -0.0896 -0.5865
    1TCq1    H414088   0.797   0.894   1.147  1.7518 -0.7673  0.3287
    2MPD1     C14089   0.352   1.509   0.988  0.2923 -0.0634 -0.4706
    2MPD1    C114090   0.471   1.555   0.931  0.1080 -0.2639 -0.1268
    2MPD1    C214091   0.588   1.474   0.940 -0.5911  0.8560 -0.1565
    2MPD1    C314092   0.581   1.351   1.012  0.2815  0.0948  0.0511
    2MPD1    C414093   0.466   1.320   1.083 -0.1981 -0.8030  0.0042
    2MPD1    C514094   0.357   1.403   1.071 -0.9749 -0.1618 -0.4508
    2MPD1     H14095   0.682   1.509   0.899  0.2917 -0.7131  0.5472
    2MPD1    H114096   0.451   1.241   1.155 -0.0280 -3.4083 -2.8381
    2MPD1    H214097   0.257   1.560   0.976  0.3784  0.3140  0.3895
    2MPD1    H314098   0.271   1.377   1.132  0.1651  0.6941  1.5313
    2MPD1     N14099   0.705   1.282   1.033  0.0924 -0.2822 -0.1886
    2MPD1    H514100   0.788   1.318   0.987 -0.6174  0.9249 -0.5266
    2MPD1    N114101   0.467   1.676   0.862  0.0555  0.0520 -0.0933
    2MPD1    H614102   0.381   1.724   0.887 -0.3003 -0.6914  0.1127
    2MPD1    H714103   0.552   1.721   0.896 -0.4585  0.6894  0.3575
    1MPD1     C14104   3.889   2.096  11.993  0.3095 -0.5054  0.1143
    1MPD1    C114105   4.009   2.120  11.938  0.5746  0.1200 -0.1257
    1MPD1    C214106   4.044   2.252  11.917  0.1197 -0.4204 -1.1378
    1MPD1    C314107   3.951   2.354  11.924  0.1196  0.4270  0.0190
    1MPD1    C414108   3.829   2.321  11.977  0.8499 -1.2454  0.2838
    1MPD1    C514109   3.800   2.192  12.013 -0.3214  0.0267  0.7810
    1MPD1     H14110   4.144   2.278  11.884  0.2700  1.0898  0.5364
    1MPD1    H114111   3.759   2.394  12.017  1.7802 -0.8735  1.2276
    1MPD1    H214112   3.851   1.999  12.021 -1.9161 -0.0142 -1.1761
    1MPD1    H314113   3.702   2.170  12.053  0.1585 -5.0726 -0.8380
    1MPD1     N14114   3.987   2.485  11.874  0.0621  0.1960 -0.3510
    1MPD1    H514115   4.080   2.481  11.835 -0.4005  1.0366 -1.5343
    1MPD1    N114116   4.107   2.016  11.930  0.7092  0.0146 -0.0054
    1MPD1    H614117   4.179   2.036  11.861  0.0933  0.2725 -0.5721
    1MPD1    H714118   4.057   1.932  11.902  1.7282 -0.6467  0.1888
    2MPD1     C14119   3.281   3.271  10.988 -0.1618 -0.3064  0.4210
    2MPD1    C114120   3.241   3.143  10.963 -0.3237  0.6202 -0.4242
    2MPD1    C214121   3.323   3.069  10.882  0.1297  0.2752  0.2476
    2MPD1    C314122   3.439   3.109  10.817 -0.2528 -0.1901 -0.3787
    2MPD1    C414123   3.479   3.241  10.847 -0.1158  0.9821 -0.2223
    2MPD1    C514124   3.401   3.317  10.936  0.3246  0.4690  0.0367
    2MPD1     H14125   3.295   2.965  10.867  2.6204 -0.1201 -1.7058
    2MPD1    H114126   3.565   3.283  10.795  0.2826 -0.8682 -1.0474
    2MPD1    H214127   3.224   3.335  11.054 -0.0498 -0.0751  0.2909
    2MPD1    H314128   3.446   3.408  10.973 -2.5383  1.5744  0.7645
    2MPD1     N14129   3.518   3.022  10.743  0.2313  0.5097  0.4797
    2MPD1    H514130   3.608   3.061  10.715 -0.5682  1.0057 -1.3712
    2MPD1    N114131   3.133   3.089  11.038 -0.5385  0.4374  0.0488
    2MPD1    H614132   3.079   3.013  10.998  0.5214  0.4071 -1.2970
    2MPD1    H714133   3.073   3.167  11.064 -0.9262 -0.1707  0.9892
    3MPD1     C14134   3.287   2.159  10.249  0.3624 -0.0412 -0.2823
    3MPD1    C114135   3.299   2.175  10.385 -0.0727  0.0342  0.4503
    3MPD1    C214136   3.368   2.282  10.442  0.0412  0.2756  0.4916
    3MPD1    C314137   3.432   2.377  10.364 -0.1016 -0.1405  0.5313
    3MPD1    C414138   3.429   2.359  10.222 -0.0689 -0.9521 -1.0645
    3MPD1    C514139   3.363   2.249  10.172  0.2647  0.2965  0.2738
    3MPD1     H14140   3.382   2.282  10.550  0.0204 -0.8224  0.4963
    3MPD1    H114141   3.475   2.431  10.156 -1.2110  1.6458  0.9985
    3MPD1    H214142   3.230   2.083  10.197 -2.0600  0.9119  0.9672
    3MPD1    H314143   3.343   2.247  10.066 -1.3405 -2.2653  0.6416
    3MPD1     N14144   3.505   2.476  10.435  0.2540 -0.0821  0.0697
    3MPD1    H514145   3.487   2.471  10.535 -1.2844 -0.4464 -0.2303
    3MPD1    N114146   3.210   2.104  10.464  0.0806  0.1915 -0.5733
    3MPD1    H614147   3.192   2.010  10.430  0.3289 -0.5689  1.3615
    3MPD1    H714148   3.240   2.087  10.560  0.2382  2.1944 -0.2826
    4MPD2     C14149   3.853   3.194  11.470  0.8145 -0.1053  0.0380
    4MPD2    C114150   3.971   3.144  11.520 -1.1128  0.1270  0.0480
    4MPD2    C214151   4.085   3.168  11.443  0.2145  0.9529  0.1229
    4MPD2    C314152   4.076   3.228  11.321 -0.6844  0.4778 -0.6566
    4MPD2    C414153   3.960   3.268  11.266 -0.6007  0.1138  0.1093
    4MPD2    C514154   3.847   3.256  11.348 -0.1045  0.2594 -0.0888
    4MPD2     H14155   4.184   3.140  11.478 -0.9647  1.0707  3.5383
    4MPD2    H114156   3.945   3.308  11.166  1.0179 -0.6120 -0.4377
    4MPD2    H214157   3.757   3.176  11.517  0.2620  2.1706 -0.1892
    4MPD2    H314158   3.749   3.276  11.306  0.1261  0.1187 -0.6924
    4MPD2     N14159   4.186   3.244  11.234 -0.4240 -0.3595 -0.0541
    4MPD2    H514160   4.159   3.276  11.142 -0.2910 -0.7769 -0.2388
    4MPD2    N114161   3.988   3.077  11.641  0.4610  0.0837  0.3040
    4MPD2    H714162   4.085   3.048  11.652  0.3292 -0.9683 -1.3752
    5TMC3    C114163   3.952   2.950  11.825  0.2715 -0.0180  1.2460
    5TMC3    C214164   3.888   2.832  11.828  0.9933 -0.2363  0.0870
    5TMC3    C314165   3.970   2.720  11.834  0.2116 -0.0277 -0.2468
    5TMC3    C414166   4.086   2.966  11.829  0.3916  0.4221  0.1560
    5TMC3    C514167   4.160   2.850  11.822  0.0844 -0.1847 -0.1169
    5TMC3    C614168   4.106   2.726  11.828  0.9145 -0.6621  0.1328
    5TMC3     C14169   3.890   3.040  11.728 -0.1618  0.3402 -0.6543
    5TMC3     O14170   3.769   3.041  11.716 -0.0982 -0.4812 -0.2293
    5TMC3     H14171   3.781   2.831  11.840  0.9790  0.8070  0.0019
    5TMC3    H114172   4.134   3.063  11.835  1.2854 -0.1569  2.6051
    5TMC3    H214173   4.176   2.645  11.844  1.1244 -0.5461 -0.1998
    5TMC3    C714174   4.261   2.877  11.723 -0.2496 -0.3291 -0.1215
    5TMC3    C814175   3.907   2.596  11.879  0.4584  0.0059 -0.0327
    5TMC3    O114176   4.257   2.983  11.664  0.1053 -0.3630  0.0770
    5TMC3    O214177   3.790   2.602  11.922 -0.0238  0.5318 -0.5058
    6TMC3    C114178   3.578   2.814  10.650 -0.0898 -0.1448 -0.1040
    6TMC3    C214179   3.539   2.708  10.572 -0.0721 -0.2215 -0.1061
    6TMC3    C314180   3.625   2.667  10.471  0.9602 -0.2686  0.1945
    6TMC3    C414181   3.702   2.872  10.624 -0.2132  0.2999 -0.0713
    6TMC3    C514182   3.786   2.828  10.531 -0.4537  0.5069 -0.0755
    6TMC3    C614183   3.735   2.736  10.446 -0.4286  0.7537 -0.6983
    6TMC3     C14184   3.472   2.896  10.707  0.2719 -0.4760  0.5476
    6TMC3     O14185   3.357   2.858  10.698 -0.4518  0.2408 -0.5875
    6TMC3     H14186   3.437   2.675  10.584 -0.3879  0.2979 -1.4047
    6TMC3    H114187   3.738   2.933  10.706  0.0194 -1.6259  1.2547
    6TMC3    H214188   3.803   2.701  10.368  1.9862 -1.2527  2.3069
    6TMC3    C714189   3.926   2.872  10.531 -0.7692 -0.1900 -0.8964
    6TMC3    C814190   3.586   2.564  10.375  0.0735 -0.1782  0.4139
    6TMC3    O114191   3.940   2.992  10.573 -0.0584  0.5200  0.2344
    6TMC3    O214192   3.659   2.549  10.277  0.6116  0.2012 -0.2166
    7MPD2     C14193   4.571   2.694  11.353  0.1798  0.1137 -0.2353
    7MPD2    C114194   4.523   2.822  11.381  1.0008  1.4363 -0.1882
    7MPD2    C214195   4.449   2.850  11.492 -0.7690 -0.0119  0.5349
    7MPD2    C314196   4.421   2.748  11.575 -0.9135 -0.2094  0.2146
    7MPD2    C414197   4.477   2.620  11.549 -0.1824  0.4617  0.1141
    7MPD2    C514198   4.547   2.598  11.435 -0.4257 -0.2723  0.2512
    7MPD2     H14199   4.410   2.950  11.506 -2.2081 -0.2941 -1.4530
    7MPD2    H114200   4.443   2.528  11.595 -0.6655  1.1526  1.1284
    7MPD2    H214201   4.631   2.667  11.267  1.5097  1.4036  0.2966
    7MPD2    H314202   4.579   2.497  11.413  3.2601  0.7511  0.9049
    7MPD2     N14203   4.330   2.762  11.692  0.4838 -0.1886 -0.0792
    7MPD2    H514204   4.316   2.675  11.743 -0.0838 -1.6501 -2.7153
    7MPD2    N114205   4.557   2.934  11.306  0.5067 -0.0683  0.0825
    7MPD2    H714206   4.507   3.021  11.325  0.7695 -0.0540  0.6907
    8TMC3    C114207   4.590   3.062  11.103  0.7841 -0.7481 -0.1799
    8TMC3    C214208   4.532   3.038  10.976 -0.5189  0.0935  0.8524
    8TMC3    C314209   4.426   3.100  10.937 -0.1024  0.0326  0.1510
    8TMC3    C414210   4.531   3.153  11.187  0.0665  0.3095 -0.5019
    8TMC3    C514211   4.415   3.207  11.150  0.9633 -0.1415  0.2396
    8TMC3    C614212   4.368   3.185  11.026  0.0962 -1.1308 -0.2214
    8TMC3     C14213   4.616   2.934  11.179  0.3300 -0.1356  0.1976
    8TMC3     O14214   4.673   2.843  11.126  0.3139  0.4274  0.3836
    8TMC3     H14215   4.573   2.955  10.920 -0.9758  0.6950 -0.3653
    8TMC3    H114216   4.583   3.195  11.272 -0.1932  0.2923 -0.3363
    8TMC3    H214217   4.270   3.227  11.008  0.4613 -0.6857 -1.1575
    8TMC3    C714218   4.320   3.210  11.260  0.5531 -0.2406 -0.8902
    8TMC3    C814219   4.339   3.057  10.822  0.1776 -0.1877  0.1029
    8TMC3    O114220   4.370   3.171  11.365 -0.4623  0.0151 -0.1473
    8TMC3    O214221   4.235   3.115  10.794  0.1546  0.3682  0.5288
    9MPD2     C14222   4.411   2.747  10.629 -0.1131 -0.3227  0.4955
    9MPD2    C114223   4.335   2.856  10.661  0.1634  0.2622  0.1495
    9MPD2    C214224   4.213   2.880  10.606  0.0423 -1.4525  0.2634
    9MPD2    C314225   4.158   2.774  10.530 -1.0210 -0.1804 -0.0601
    9MPD2    C414226   4.235   2.663  10.490 -0.6795 -0.3569 -0.1501
    9MPD2    C514227   4.360   2.657  10.546 -0.2896 -0.5663  1.4892
    9MPD2     H14228   4.152   2.965  10.637  0.4932  0.0455 -2.9660
    9MPD2    H114229   4.188   2.575  10.448 -2.2491 -0.6964  2.2987
    9MPD2    H214230   4.509   2.720  10.667 -0.6211  2.1171  3.5428
    9MPD2    H314231   4.411   2.561  10.542  1.8088  0.6127  0.0804
    9MPD2     N14232   4.014   2.775  10.498 -0.5259 -0.1763  0.2375
    9MPD2    H514233   3.977   2.694  10.450 -2.6950  0.3625  0.9885
    9MPD2    N114234   4.396   2.948  10.754  0.3575  0.3330  0.0476
    9MPD2    H714235   4.490   2.916  10.772  0.6702  0.0377 -2.1397
    1MPD1     C14236   4.510   2.166  16.174  0.0615  0.0165  0.2737
    1MPD1    C114237   4.399   2.123  16.104 -0.1330 -0.5013  0.7660
    1MPD1    C214238   4.282   2.100  16.168 -0.1448 -0.0981  0.9392
    1MPD1    C314239   4.268   2.111  16.309 -0.0207  0.4641  0.9469
    1MPD1    C414240   4.386   2.134  16.375  0.1801  0.1997 -0.5590
    1MPD1    C514241   4.495   2.170  16.307 -0.6898  0.4281 -0.0147
    1MPD1     H14242   4.201   2.066  16.105  1.2884  0.0045 -0.9399
    1MPD1    H114243   4.406   2.129  16.482  1.8631  2.5478 -0.7495
    1MPD1    H214244   4.594   2.201  16.115 -0.5127 -1.4394 -1.4104
    1MPD1    H314245   4.581   2.203  16.365  3.9162 -3.0872 -4.7369
    1MPD1     N14246   4.155   2.077  16.378  0.3318 -0.1829 -0.4735
    1MPD1    H514247   4.147   2.078  16.479 -0.4348 -0.3344 -0.5300
    1MPD1    N114248   4.401   2.150  15.964  0.0904 -0.3708 -0.2592
    1MPD1    H614249   4.493   2.142  15.922  0.3824  1.5363 -0.0082
    1MPD1    H714250   4.340   2.081  15.921  0.7580 -1.1962  0.1229
    2MPD1     C14251   3.289   1.765  16.038  0.3337 -0.6623  0.3279
    2MPD1    C114252   3.403   1.812  15.984 -0.8600 -0.0844 -0.2828
    2MPD1    C214253   3.495   1.853  16.083 -0.5063 -0.3655  0.2735
    2MPD1    C314254   3.481   1.831  16.221  0.1484  0.0473  0.5247
    2MPD1    C414255   3.372   1.761  16.267  0.3657 -0.7559  0.2662
    2MPD1    C514256   3.285   1.728  16.167 -0.2910 -0.3790  0.1292
    2MPD1     H14257   3.591   1.889  16.046  0.4817 -2.8798  0.4207
    2MPD1    H114258   3.350   1.726  16.367 -1.4899 -0.5481 -0.0592
    2MPD1    H214259   3.207   1.736  15.973  1.5833  0.9920 -1.9641
    2MPD1    H314260   3.197   1.675  16.202 -0.3329 -0.0027  0.5856
    2MPD1     N14261   3.586   1.876  16.301  0.1496  0.6512 -0.1180
    2MPD1    H514262   3.654   1.941  16.262  1.6142 -0.1701  1.0933
    2MPD1    N114263   3.403   1.853  15.843  0.4355 -1.0717  0.4570
    2MPD1    H614264   3.497   1.839  15.806  1.2980 -1.2043  2.6661
    2MPD1    H714265   3.341   1.788  15.796  0.1888  0.6157 -1.5382
    3TCq2    C114266   3.597   1.863  16.435 -0.0344 -0.2380 -0.1709
    3TCq2    O214267   3.526   1.804  16.517 -0.0517 -0.0403 -0.4899
    3TCq2    C214268   3.725   1.915  16.480 -1.0032 -0.1146 -0.1089
    3TCq2    C314269   3.752   1.895  16.610 -0.5542  0.2149 -0.4598
    3TCq2    C414270   3.878   1.932  16.654  0.5804  0.0046  0.4445
    3TCq2    C514271   3.980   1.977  16.566  0.4038 -0.3107 -0.3096
    3TCq2    C614272   3.948   1.997  16.431  0.4129 -0.7885  0.0209
    3TCq2    C714273   3.825   1.958  16.392 -0.5742  0.8514  0.0987
    3TCq2    C814274   4.040   2.037  16.322 -0.5989 -0.2181 -0.2618
    3TCq2    O414275   4.004   2.039  16.205 -0.4382 -0.1529  0.0145
    3TCq2    C914276   3.908   1.903  16.791  0.0004 -0.5817 -0.6244
    3TCq2    O514277   3.820   1.844  16.851  0.0353 -0.1773 -0.4259
    3TCq2    O614278   4.015   1.952  16.836 -0.3289  0.2577 -0.4607
    3TCq2    H214279   3.681   1.856  16.682  1.9303  0.5984  2.2028
    3TCq2    H314280   4.075   2.006  16.611 -0.8271 -0.9096  2.6662
    3TCq2    H414281   3.813   1.993  16.290 -0.8039  0.6977  0.0740
    1TCq1    O114282   1.461   0.967  12.260 -0.4536  0.4896 -0.5821
    1TCq1    C114283   1.593   0.964  12.279  0.3263  0.8246  0.0796
    1TCq1    O214284   1.681   0.942  12.196 -0.3720 -0.1312 -0.1384
    1TCq1    C214285   1.629   0.983  12.418  0.1704  0.3441  0.2327
    1TCq1    C314286   1.543   0.954  12.523 -0.3537 -0.1189 -0.4180
    1TCq1    C414287   1.595   0.951  12.647 -0.3344 -0.0805  0.4754
    1TCq1    C514288   1.722   0.974  12.678  0.1279  0.2793  0.5662
    1TCq1    C614289   1.806   1.001  12.580 -0.1928  0.1742 -0.0022
    1TCq1    C714290   1.762   1.001  12.449 -0.1425 -0.1343  0.5636
    1TCq1    C814291   1.950   1.000  12.612  0.7507  0.1835  0.4088
    1TCq1    O414292   2.022   0.977  12.517  0.1450 -0.3257  0.5902
    1TCq1    C914293   1.513   0.913  12.762  0.4465  0.3360  0.1330
    1TCq1    O514294   1.568   0.872  12.867 -0.2537 -0.0334 -0.7844
    1TCq1    O614295   1.395   0.950  12.759 -0.3754  0.4460  0.0638
    1TCq1    H114296   1.411   1.020  12.325  1.5294 -0.0653  1.3801
    1TCq1    H214297   1.436   0.947  12.507 -0.0550  1.8810 -3.3503
    1TCq1    H314298   1.749   0.990  12.782  0.6505  0.9869  0.3188
    1TCq1    H414299   1.830   1.031  12.370  1.1565 -2.0946  0.9387
    2MPD2     C14300   2.211   0.942  12.734  0.5979 -0.4255 -0.3639
    2MPD2    C114301   2.100   0.993  12.803  0.0622 -0.0308 -0.4438
    2MPD2    C214302   2.108   1.026  12.937 -0.0921  0.2032 -0.2402
    2MPD2    C314303   2.229   1.013  13.005  0.0859  0.3777  0.2051
    2MPD2    C414304   2.340   0.971  12.937 -0.2352 -0.1018 -0.1295
    2MPD2    C514305   2.325   0.939  12.805  0.3757 -0.0749 -0.5368
    2MPD2     H14306   2.018   1.062  12.985 -0.5495 -0.1965 -0.8030
    2MPD2    H114307   2.434   0.988  12.987  1.5154 -1.7325 -2.9056
    2MPD2    H214308   2.213   0.920  12.627  0.5009 -0.2237 -0.4070
    2MPD2    H314309   2.412   0.894  12.757  0.4639 -0.5140  0.0239
    2MPD2     N14310   2.236   1.044  13.144  0.2393  0.0764 -0.1643
    2MPD2    H514311   2.151   1.076  13.190 -1.2692 -1.1254 -2.1008
    2MPD2    N114312   1.977   1.022  12.743  0.0905 -0.0559 -0.3139
    2MPD2    H714313   1.899   1.042  12.806 -0.3559 -2.5683 -0.0677
    3TCq1    O114314   2.035   1.299  13.636 -0.2487  0.0102  0.6412
    3TCq1    C114315   2.037   1.242  13.516  0.6832 -0.6304  0.2373
    3TCq1    O214316   1.935   1.231  13.450 -0.1494 -0.4599 -0.1067
    3TCq1    C214317   2.160   1.155  13.511  0.1793 -0.3892 -0.5458
    3TCq1    C314318   2.230   1.109  13.620  0.3339  0.7691  0.1915
    3TCq1    C414319   2.336   1.031  13.589  0.0478 -0.2613  0.3581
    3TCq1    C514320   2.376   1.003  13.457 -0.2950 -0.4886 -0.0793
    3TCq1    C614321   2.306   1.061  13.355 -0.0477 -0.0711 -0.2617
    3TCq1    C714322   2.196   1.140  13.379  0.3000 -0.4738  0.1226
    3TCq1    C814323   2.349   1.026  13.221  0.3514  0.4736  0.2975
    3TCq1    O414324   2.462   0.980  13.200  0.1562  0.2981 -0.3442
    3TCq1    C914325   2.423   0.984  13.694  0.8144  0.2079  0.2181
    3TCq1    O514326   2.515   0.901  13.661 -0.0939  0.2170 -0.4553
    3TCq1    O614327   2.387   1.003  13.811 -0.2906  0.3963  0.4817
    3TCq1    H114328   2.124   1.327  13.668 -1.0258  3.4464 -0.1952
    3TCq1    H214329   2.202   1.135  13.722  1.2088  1.2886  0.2988
    3TCq1    H314330   2.459   0.938  13.433 -0.8352 -1.1342 -0.1661
    3TCq1    H414331   2.138   1.193  13.304  1.3822 -1.6153 -1.5205
    1MPD2     C14332   1.654   2.145  15.055 -0.8347 -0.6819 -0.1520
    1MPD2    C114333   1.532   2.084  15.048 -0.4622  0.2600 -0.5450
    1MPD2    C214334   1.534   1.948  15.013 -0.2201 -0.6469 -0.1057
    1MPD2    C314335   1.652   1.882  14.991 -0.3036 -0.1020 -0.0368
    1MPD2    C414336   1.773   1.951  14.999  0.3303 -0.3919 -0.0592
    1MPD2    C514337   1.776   2.080  15.032  0.1501  0.3259  0.0460
    1MPD2     H14338   1.445   1.886  15.016 -0.0484 -0.9021 -0.2187
    1MPD2    H114339   1.869   1.904  14.984 -0.0577 -0.4587 -2.2955
    1MPD2    H214340   1.671   2.252  15.054 -0.5228 -0.7370 -0.6738
    1MPD2    H314341   1.870   2.134  15.027 -0.0481  0.5873 -0.8421
    1MPD2     N14342   1.652   1.749  14.941  0.1486 -0.7758  0.2206
    1MPD2    H514343   1.557   1.719  14.920 -0.0917  0.7919 -0.9697
    1MPD2    N114344   1.417   2.163  15.057  0.0239  0.3445 -0.7052
    1MPD2    H714345   1.425   2.262  15.077 -0.2618  0.2525 -0.1348
    2TMC3    C114346   1.181   2.215  15.038 -0.0140 -0.4117  0.1101
    2TMC3    C214347   1.065   2.143  15.047  0.8382 -0.3505 -0.2735
    2TMC3    C314348   0.958   2.167  14.960 -0.2543  0.4917  0.5661
    2TMC3    C414349   1.197   2.315  14.944 -1.1965  0.3756 -0.6059
    2TMC3    C514350   1.087   2.349  14.868 -0.0311  0.3808  0.1100
    2TMC3    C614351   0.978   2.273  14.870 -0.2742 -0.4555 -0.0328
    2TMC3     C14352   1.286   2.115  15.047  1.1454 -0.5393 -0.1409
    2TMC3     O14353   1.240   2.002  15.033 -0.3684 -0.4039  0.1035
    2TMC3     H14354   1.048   2.076  15.130 -1.8871  1.9316  1.0157
    2TMC3    H114355   1.297   2.355  14.936  0.0431 -3.0194 -2.5488
    2TMC3    H214356   0.904   2.292  14.794  0.4659  1.3641 -0.2872
    2TMC3    C714357   1.119   2.385  14.737  0.3671 -0.1604  0.5204
    2TMC3    C814358   0.895   2.049  14.913 -0.1054  0.4007  0.1944
    2TMC3    O114359   1.048   2.342  14.645 -0.1793  0.2243 -0.0042
    2TMC3    O214360   0.790   2.070  14.851  0.0916 -0.4068  0.1461
    3TCq1    O114361   1.971   3.134  14.233 -0.7207 -0.0554  0.2719
    3TCq1    C114362   2.037   3.065  14.330  0.3872  0.0760 -0.1777
    3TCq1    O214363   2.156   3.052  14.341 -0.0121  0.2501 -0.4615
    3TCq1    C214364   1.937   2.993  14.417  0.0412  0.0826  0.6255
    3TCq1    C314365   1.995   2.965  14.540  0.7051  0.0646 -0.1756
    3TCq1    C414366   1.935   2.863  14.608  0.1340  0.5749  0.0901
    3TCq1    C514367   1.817   2.813  14.563 -0.2062 -0.4448 -0.3008
    3TCq1    C614368   1.750   2.859  14.453  0.5376  0.7838 -0.2131
    3TCq1    C714369   1.817   2.942  14.365  0.2847  0.0268  0.4270
    3TCq1    C814370   1.629   2.804  14.405 -0.1996 -1.1513  0.1810
    3TCq1    O414371   1.601   2.831  14.290  0.2776 -0.6811 -0.2105
    3TCq1    C914372   1.999   2.810  14.722  0.1832 -0.7700  0.5992
    3TCq1    O514373   1.922   2.745  14.801 -0.1754 -0.6578  0.6592
    3TCq1    O614374   2.120   2.841  14.745  0.1638 -0.2356  0.1323
    3TCq1    H114375   1.881   3.155  14.266 -0.5391 -0.5539  1.0703
    3TCq1    H214376   2.093   2.998  14.572  1.1599  1.8665 -3.4071
    3TCq1    H314377   1.772   2.741  14.631  0.5763  0.0707  0.7645
    3TCq1    H414378   1.793   2.958  14.261  1.2291 -0.2572  0.1615
    4MPD2     C14379   1.347   2.683  14.386 -0.6905 -0.1557 -1.5297
    4MPD2    C114380   1.427   2.686  14.501 -0.1556 -0.1991  0.1301
    4MPD2    C214381   1.389   2.610  14.610 -0.2183  0.7129  0.1241
    4MPD2    C314382   1.270   2.530  14.606 -0.0745 -0.0949  0.0635
    4MPD2    C414383   1.188   2.539  14.491  0.6300 -0.8013 -0.1312
    4MPD2    C514384   1.231   2.612  14.384  0.2466  0.7632 -0.6334
    4MPD2     H14385   1.445   2.601  14.702  1.1247 -0.8197 -0.8589
    4MPD2    H114386   1.089   2.495  14.497 -0.1987  1.5171  3.1974
    4MPD2    H214387   1.373   2.727  14.291  0.1668  0.4642 -0.9962
    4MPD2    H314388   1.171   2.615  14.294  0.5171  1.6754 -0.7894
    4MPD2     N14389   1.231   2.466  14.727  0.0817 -0.9746  0.0975
    4MPD2    H514390   1.277   2.492  14.814  0.1856 -1.5381  0.2099
    4MPD2    N114391   1.556   2.748  14.506  0.5247  0.0330 -0.2359
    4MPD2    H714392   1.605   2.749  14.595  1.4461 -0.7748 -0.7369
    5TMC2    C114393   1.457   1.536  14.769 -0.3581 -0.5000 -1.0416
    5TMC2    C214394   1.481   1.535  14.638 -0.1975  0.1760  0.4425
    5TMC2    C314395   1.609   1.556  14.596  0.0783 -0.2317  0.0846
    5TMC2    C414396   1.558   1.551  14.856 -0.2747 -0.3051  0.0697
    5TMC2    C514397   1.684   1.569  14.814  0.0985 -0.1429 -0.3393
    5TMC2    C614398   1.718   1.571  14.678 -0.0509  0.3649 -0.3412
    5TMC2     C14399   1.334   1.605  14.810 -0.0401 -0.3643 -0.2015
    5TMC2     O14400   1.353   1.677  14.909 -0.0647 -0.2274  0.6605
    5TMC2     H14401   1.399   1.540  14.568 -1.4226 -1.1565  1.8143
    5TMC2    H114402   1.530   1.536  14.960 -0.7674 -0.4369 -0.0843
    5TMC2    H214403   1.823   1.587  14.653  0.2793 -1.9334 -0.4082
    5TMC2    C714404   1.754   1.682  14.879 -0.6037 -1.4032  0.5892
    5TMC2    C814405   1.638   1.607  14.468  1.0545  0.3547  0.4934
    5TMC2    O114406   1.870   1.718  14.849 -0.0937 -0.0869 -0.5860
    5TMC2    O214407   1.722   1.694  14.443  0.5891 -0.3159  0.3315
    5TMC2    O514408   1.627   1.496  14.389  0.2300  0.2062  0.4069
    5TMC2    H514409   1.571   1.429  14.433 -1.3432  1.5887  0.5143
    6MPD2     C14410   0.852   1.779  14.800 -0.5099  0.1928  0.6433
    6MPD2    C114411   0.969   1.818  14.861 -1.3846 -0.1147 -0.9053
    6MPD2    C214412   1.087   1.756  14.848  0.7688 -0.6374 -0.0959
    6MPD2    C314413   1.094   1.646  14.772  0.0770 -0.1189  0.2792
    6MPD2    C414414   0.976   1.597  14.723  0.6357  0.4526  0.1092
    6MPD2    C514415   0.855   1.657  14.737 -0.3059 -0.8471  0.0757
    6MPD2     H14416   1.174   1.809  14.886 -0.1711 -0.6626  2.0688
    6MPD2    H114417   0.982   1.516  14.651  1.3465 -0.1174  0.7988
    6MPD2    H214418   0.762   1.839  14.799 -0.9390 -0.4436  0.9623
    6MPD2    H314419   0.758   1.624  14.701 -0.5446 -0.7363  0.6130
    6MPD2     N14420   1.215   1.572  14.746 -0.2450  0.1918  0.2789
    6MPD2    H514421   1.218   1.494  14.681 -1.9419  1.2447 -1.0845
    6MPD2    N114422   0.981   1.944  14.923  0.5715 -0.5467 -0.4191
    6MPD2    H714423   1.072   1.957  14.964 -0.1002  1.3033  0.4837
  945NH4     N114424   3.086   1.451  14.847  0.5790  0.1200  0.2036
  945NH4     H214425   3.175   1.406  14.814  0.9446  1.5598 -0.7557
  945NH4     H314426   3.005   1.386  14.851  0.3284  0.5542  2.4254
  945NH4     H414427   3.072   1.527  14.778 -0.4120 -0.1243  0.1368
  945NH4     H514428   3.086   1.497  14.940 -1.1596  0.1336  0.1960
  946SOD     NA14429   3.118   1.741  17.702  0.2137  0.6464 -0.1318
  947SOD     NA14430   3.175   2.261  12.595 -0.1120  0.3216 -0.0189
  948SOD     NA14431   1.386   2.397   1.847  0.7916 -0.5324 -0.5857
  949SOD     NA14432   2.182   3.495  16.661 -0.4585 -0.6590  0.4760
  950SOD     NA14433   4.707   0.517   3.925  0.0006  0.3426 -0.5617
  951SOD     NA14434   1.916   2.257  10.977  0.0255 -0.0557 -0.2712
  952SOD     NA14435   2.097   1.570  10.100 -0.5845  0.0633 -0.4031
  953SOD     NA14436   2.687   0.831  11.455  0.0746  0.3707 -0.0358
  954SOD     NA14437   1.354   0.957  12.973  0.0240  0.5626 -0.0921
  955SOD     NA14438   2.346   3.282  10.337 -0.0837 -0.4949  0.1212
  956SOD     NA14439   2.850   3.587  14.160  0.4690  0.0128 -0.1660
  957SOD     NA14440   1.516   1.966   1.521 -0.0922 -0.3008 -0.0131
  958SOD     NA14441   4.051   4.577  13.236  0.3536  0.1796  0.3618
  959SOD     NA14442   4.237   4.207   1.043  0.0682  0.3895 -0.0584
  960SOD     NA14443   2.864   1.103  11.075 -0.3034  0.2459  0.2907
  961SOD     NA14444   1.539   4.250  10.475 -0.1609 -0.0223  0.1677
  962SOD     NA14445   1.761   3.643   1.853 -0.3983  0.0683  0.1541
  963SOD     NA14446   3.898   2.117  17.442 -0.0752  0.0323 -0.0462
  964SOD     NA14447   1.812   0.904  12.017  0.0489 -0.3731 -0.3305
  965SOD     NA14448   1.248   1.410  10.119 -0.1014 -0.5952 -0.0795
  966SOD     NA14449   0.675   3.231  10.152 -0.0565 -0.3831 -0.0092
  967SOD     NA14450   3.227   0.628  17.591  0.6183  0.8633 -0.1632
  968SOD     NA14451   1.270   3.094   9.807 -0.0309 -0.0471 -0.5004
  969SOD     NA14452   1.458   0.521  13.168 -0.0848  0.0074 -0.3077
  970SOD     NA14453   1.064   4.465  16.025  0.5738  0.0664  0.2647
  971SOD     NA14454   2.351   0.811  11.368  0.1013  0.1125 -0.1567
  972SOD     NA14455   3.616   1.590  13.531 -0.5487  0.1453  0.0958
  973SOD     NA14456   1.004   1.434   8.353  0.1091  0.4420  0.5040
  974SOD     NA14457   0.842   1.613  10.515 -0.5106  0.2479 -0.1156
  975SOD     NA14458   1.790   0.072   2.013 -0.1394  0.1111 -0.0725
  976SOD     NA14459   2.906   0.552  13.568  0.2744  0.0849  0.2366
  977SOD     NA14460   2.292   2.752  14.680 -0.3519 -0.3060 -0.2577
  978SOD     NA14461   2.153   0.584  11.436 -0.5918  0.2917  0.6762
  979SOD     NA14462   2.035   2.525  10.740 -0.7883  0.0113 -0.2206
  980SOD     NA14463   2.574   0.218  12.307 -0.3040  0.2953  0.1548
  981SOD     NA14464   3.021   4.433   7.729  0.4638 -0.1020 -0.3648
  982SOD     NA14465   1.248   4.160  11.208 -0.3075  0.2941  0.4330
  983SOD     NA14466   4.364   2.173   5.492  0.0137  0.2382 -0.6266
  984SOD     NA14467   2.482   3.933  17.170  0.5766 -0.3452 -0.0649
  985SOD     NA14468   3.694   4.355   0.724 -0.2707 -0.1765 -0.2274
  986SOD     NA14469   0.694   0.122  15.001  0.3143 -0.1727  0.1672
  987SOD     NA14470   1.641   3.463   9.730  0.3515  0.5200  0.1099
  988SOD     NA14471   4.021   2.191  14.748  0.1179  0.7231  0.2532
  989SOD     NA14472   0.959   2.177   0.347  0.4399  0.5536  0.2079
  990SOD     NA14473   1.988   0.580   8.822  0.4639 -0.0761  0.3501
  991SOD     NA14474   3.294   2.057  15.979 -0.0271 -0.4221  0.0407
  992SOD     NA14475   3.661   0.514  12.289  0.0786  0.0972 -0.4037
  993SOD     NA14476   2.633   0.728  13.753 -0.4064  0.3523 -0.2794
  994SOD     NA14477   4.213   1.929  16.910 -0.6562  0.1497 -0.3694
  995SOD     NA14478   2.500   0.516  10.182  0.0169 -0.1663  0.2378
  996SOD     NA14479   3.069   0.007  13.883  0.0758  0.6033  0.0150
  997SOD     NA14480   3.234   0.719   0.696 -0.2210  0.1111 -0.4064
  998SOD     NA14481   3.219   2.537   3.910 -0.5490  0.0936 -0.6650
  999SOD     NA14482   1.992   1.139  16.572 -0.4878 -0.1473  0.0795
 1000SOD     NA14483   0.402   0.650  10.400 -0.2823  0.0033  0.2764
 1001SOD     NA14484   3.629   4.443  14.337 -0.4735  0.4916 -0.1693
 1002SOD     NA14485   3.387   3.143  16.951  0.1011 -0.3525 -0.1645
 1003SOD     NA14486   0.839   3.924   3.551 -0.1225 -0.5207 -0.7129
 1004SOD     NA14487   2.599   1.447  13.990  0.2257 -0.2553 -0.3752
 1005SOD     NA14488   4.179   3.622  11.580  0.0746  0.0916 -0.2469
 1006SOD     NA14489   1.107   4.472   2.435 -0.4938  0.5070  0.0443
 1007SOD     NA14490   1.941   4.500  10.431 -0.3874  0.0064 -0.0898
 1008SOD     NA14491   1.036   4.122   9.680 -0.1911 -0.1113 -0.1158
 1009SOD     NA14492   3.328   1.703  10.620  0.0517  0.0684 -0.3622
 1010SOD     NA14493   0.223   3.294   2.399 -0.9237 -0.5029 -0.1304
 1011SOL     OW14494   4.151   0.123   6.116 -0.4104 -0.2378 -0.3674
 1011SOL    HW114495   4.190   0.129   6.028  1.2028  0.6509  0.4295
 1011SOL    HW214496   4.144   0.216   6.136 -2.0071 -0.0878 -1.5326
 1012SOL     OW14497   4.546   3.960   8.411 -0.1690  0.7273 -0.3408
 1012SOL    HW114498   4.627   3.922   8.377  0.7242  0.7258  1.8178
 1012SOL    HW214499   4.579   4.041   8.449 -1.4935  1.2332 -0.2659
 1013SOL     OW14500   2.920   0.711  11.713  0.6063 -0.6311 -0.6547
 1013SOL    HW114501   2.882   0.731  11.799 -1.2392 -0.8014 -1.4494
 1013SOL    HW214502   2.905   0.794  11.668  0.2629 -0.7122 -0.6842
 1014SOL     OW14503   1.527   1.325   1.361 -0.1404 -0.3677 -0.7534
 1014SOL    HW114504   1.478   1.320   1.443  0.9049 -1.2390 -0.1820
 1014SOL    HW214505   1.486   1.252   1.315 -1.3422 -0.7301  0.8729
 1015SOL     OW14506   1.710   0.788   0.568 -0.5732  0.7779  0.3879
 1015SOL    HW114507   1.620   0.797   0.537 -0.3314  3.5885  0.4404
 1015SOL    HW214508   1.734   0.705   0.528 -0.1139 -1.0558  4.5124
 1016SOL     OW14509   1.522   1.758   0.529 -0.3076  0.2058 -0.2442
 1016SOL    HW114510   1.496   1.707   0.452 -0.9302  1.2059 -0.7018
 1016SOL    HW214511   1.436   1.777   0.568  0.3801  0.7768  0.9833
 1017SOL     OW14512   2.940   3.678   7.185 -0.1288  0.4225 -0.1085
 1017SOL    HW114513   3.016   3.644   7.137 -1.2101 -0.9543 -0.8813
 1017SOL    HW214514   2.883   3.603   7.206 -0.3255  0.8141  0.7373
 1018SOL     OW14515   2.307   3.200   8.347 -0.0502  0.0525  0.2387
 1018SOL    HW114516   2.324   3.216   8.440 -0.5887  0.2522  0.3014
 1018SOL    HW214517   2.361   3.268   8.306  0.8265 -0.3311  0.7397
 1019SOL     OW14518   1.035   2.671  15.857 -0.5542 -0.5964 -0.2691
 1019SOL    HW114519   1.112   2.615  15.846 -2.5836 -2.9865 -2.1480
 1019SOL    HW214520   0.971   2.617  15.903 -0.8313 -0.0549 -0.0146
 1020SOL     OW14521   1.180   2.077   7.852  0.0276 -0.7288  0.0526
 1020SOL    HW114522   1.233   2.039   7.782 -0.8149  0.8289 -1.4457
 1020SOL    HW214523   1.152   2.161   7.813  0.6931 -0.8790 -0.7563
 1021SOL     OW14524   0.369   2.482   8.252  0.0918 -0.2085  0.8721
 1021SOL    HW114525   0.324   2.528   8.322 -0.5796 -0.9785  0.9405
 1021SOL    HW214526   0.396   2.405   8.302  1.4732  0.1809  0.7453
 1022SOL     OW14527   0.547   0.683   3.154  0.6177  0.5233  1.1126
 1022SOL    HW114528   0.517   0.744   3.221 -1.2727 -0.3984  1.1260
 1022SOL    HW214529   0.615   0.635   3.200 -0.8382 -2.0641  0.6008
 1023SOL     OW14530   1.892   2.535   2.460 -0.3780  0.4027  0.3334
 1023SOL    HW114531   1.928   2.495   2.540 -0.9214  3.0458  1.8922
 1023SOL    HW214532   1.861   2.459   2.411  1.1588  0.3588 -0.5656
 1024SOL     OW14533   0.134   3.341   9.231  0.0277  0.3963  0.1008
 1024SOL    HW114534   0.183   3.353   9.312  0.4937  0.1011 -0.1361
 1024SOL    HW214535   0.181   3.266   9.194 -1.0643  0.3557 -1.1880
 1025SOL     OW14536   0.986   2.657  12.898  0.0905  0.2164  0.0958
 1025SOL    HW114537   0.893   2.635  12.891  0.0732 -0.0815  1.1892
 1025SOL    HW214538   1.008   2.586  12.837 -0.3286  0.6258 -0.5281
 1026SOL     OW14539   2.626   3.615   7.384  0.1200 -0.8201 -0.9254
 1026SOL    HW114540   2.531   3.622   7.394 -0.1237 -3.7260 -1.3110
 1026SOL    HW214541   2.633   3.571   7.299  1.6066 -0.1896 -1.1269
 1027SOL     OW14542   3.020   2.784   5.788 -0.0263 -0.3925  0.4021
 1027SOL    HW114543   3.036   2.759   5.879 -0.5763 -1.5781  0.1690
 1027SOL    HW214544   2.952   2.723   5.759  0.3245 -0.8633  0.5828
 1028SOL     OW14545   1.579   2.382   2.134  0.1692  0.3916  0.5503
 1028SOL    HW114546   1.625   2.406   2.215  4.0977 -0.6423 -1.3669
 1028SOL    HW214547   1.620   2.441   2.070 -1.2404  1.9815  1.1126
 1029SOL     OW14548   3.757   4.237   8.192  0.1618 -0.7499  0.2810
 1029SOL    HW114549   3.668   4.267   8.205  0.2702 -0.6035  0.6716
 1029SOL    HW214550   3.761   4.193   8.277 -0.3942  1.0416  1.2167
 1030SOL     OW14551   1.662   2.076   5.914 -0.0037  0.1530  0.0194
 1030SOL    HW114552   1.651   2.097   5.821 -0.7632 -0.1690  0.0366
 1030SOL    HW214553   1.682   2.162   5.950  3.5292 -0.9636  0.6876
 1031SOL     OW14554   0.865   0.489   5.796 -0.1143 -0.2921 -0.1146
 1031SOL    HW114555   0.880   0.538   5.715 -1.8492 -0.6924 -0.6704
 1031SOL    HW214556   0.772   0.470   5.784 -0.5682  0.2325  2.6847
 1032SOL     OW14557   3.838   1.478   5.804 -0.2121  0.0662  0.1099
 1032SOL    HW114558   3.851   1.425   5.725  0.0095 -0.3212  0.4032
 1032SOL    HW214559   3.928   1.501   5.827  0.0720 -1.0381  0.1290
 1033SOL     OW14560   2.233   1.934   3.384 -0.4923  0.4007 -0.4663
 1033SOL    HW114561   2.203   1.849   3.417  1.5566 -0.4648 -0.8108
 1033SOL    HW214562   2.288   1.902   3.313 -1.6964  0.8833 -1.6197
 1034SOL     OW14563   2.942   3.497   4.779  0.1784  0.3381 -0.9193
 1034SOL    HW114564   2.989   3.543   4.710 -0.4338 -0.2294 -1.7172
 1034SOL    HW214565   2.897   3.430   4.728 -1.1136  1.1411 -0.8543
 1035SOL     OW14566   1.506   0.656  12.965  0.0000 -0.0593  0.0615
 1035SOL    HW114567   1.427   0.649  12.912  0.9402 -2.2286 -1.0415
 1035SOL    HW214568   1.544   0.740  12.937  2.4703 -1.6540 -1.4017
 1036SOL     OW14569   0.750   2.442   3.662  0.1082  0.4004  0.2789
 1036SOL    HW114570   0.689   2.397   3.720 -0.1159 -0.7326 -0.8177
 1036SOL    HW214571   0.783   2.367   3.611  1.1502  0.8268  0.3181
 1037SOL     OW14572   4.602   4.187   3.429  0.1154 -0.0710 -0.1643
 1037SOL    HW114573   4.548   4.146   3.496 -1.5664  1.0512 -0.8390
 1037SOL    HW214574   4.544   4.190   3.353  0.6142  0.5889 -0.5250
 1038SOL     OW14575   3.204   2.609  15.232 -0.1662  0.0253 -0.7501
 1038SOL    HW114576   3.184   2.627  15.324 -1.6358 -1.4550 -0.7799
 1038SOL    HW214577   3.224   2.516  15.247  1.2889 -0.1847 -3.9206
 1039SOL     OW14578   1.906   4.131   4.602  0.6244 -0.2740 -0.1702
 1039SOL    HW114579   1.991   4.128   4.645  1.3918  3.8820 -1.4175
 1039SOL    HW214580   1.861   4.060   4.648  0.4310  0.1438  0.2996
 1040SOL     OW14581   2.573   2.116   2.006 -0.3611 -0.4037  0.3492
 1040SOL    HW114582   2.518   2.183   2.047 -0.4318 -0.8617  1.0202
 1040SOL    HW214583   2.547   2.122   1.914  0.0206  0.8362  0.3206
 1041SOL     OW14584   3.604   1.639   6.308 -0.1122 -0.5177  0.2582
 1041SOL    HW114585   3.684   1.603   6.270 -0.1327  0.2424 -0.5106
 1041SOL    HW214586   3.575   1.696   6.236 -0.5142  0.7451  1.4231
 1042SOL     OW14587   0.247   0.987   2.092 -0.5538 -0.2926 -0.3693
 1042SOL    HW114588   0.214   0.928   2.159  1.8355 -0.4440  0.6827
 1042SOL    HW214589   0.331   0.941   2.078 -1.2668 -0.8668 -2.7889
 1043SOL     OW14590   3.342   0.325  16.337 -0.1335 -0.5455  0.0620
 1043SOL    HW114591   3.414   0.281  16.381  0.0085 -1.1885 -0.8042
 1043SOL    HW214592   3.271   0.261  16.341  0.9121 -1.7739 -0.7195
 1044SOL     OW14593   1.598   1.080   4.638  0.3068 -0.1568 -0.1204
 1044SOL    HW114594   1.682   1.036   4.627 -0.0740  0.3071 -4.7304
 1044SOL    HW214595   1.559   1.022   4.704 -0.1394  3.0997  2.4751
 1045SOL     OW14596   3.853   0.811   6.440 -0.0475 -0.3482 -0.0362
 1045SOL    HW114597   3.827   0.844   6.354 -0.1878 -1.7487 -0.5223
 1045SOL    HW214598   3.775   0.826   6.493 -0.6410 -0.2568 -0.9313
 1046SOL     OW14599   0.040   3.083   4.587  0.0485  0.9406  0.0178
 1046SOL    HW114600   0.054   3.027   4.663  1.0109  0.6551 -0.3606
 1046SOL    HW214601   0.004   3.161   4.628 -1.7251  0.1383 -0.0235
 1047SOL     OW14602   3.038   4.533  11.683 -0.8181 -0.9838 -0.2082
 1047SOL    HW114603   3.018   4.573  11.768 -2.8592 -2.1561 -0.1399
 1047SOL    HW214604   2.964   4.473  11.673  0.8098 -2.7533 -1.3632
 1048SOL     OW14605   4.720   2.055   9.796 -0.4551 -0.3949 -0.2352
 1048SOL    HW114606   0.038   2.139   9.791 -0.5447 -0.4172 -1.3611
 1048SOL    HW214607   4.704   2.061   9.890 -1.5188 -3.3162 -0.2151
 1049SOL     OW14608   2.636   1.035   9.248  0.1824  0.0066  0.0885
 1049SOL    HW114609   2.687   0.954   9.244 -0.9802 -0.5784 -2.6116
 1049SOL    HW214610   2.629   1.054   9.342  1.0411  2.7254 -0.3859
 1050SOL     OW14611   1.931   4.562  10.806  0.0547  0.5688  0.1875
 1050SOL    HW114612   2.015   4.547  10.764  0.1449  0.1284  0.5290
 1050SOL    HW214613   1.874   4.569  10.730  1.3322 -2.2614 -1.0165
 1051SOL     OW14614   4.347   3.262  13.003 -0.3754 -0.4036 -0.3030
 1051SOL    HW114615   4.297   3.342  12.986  0.2055  0.0488  0.1273
 1051SOL    HW214616   4.299   3.223  13.077 -2.2480  3.1698  0.3963
 1052SOL     OW14617   2.671   1.570   7.692  0.2725  0.4055  0.3606
 1052SOL    HW114618   2.752   1.530   7.725  1.3971  1.6218 -0.9221
 1052SOL    HW214619   2.635   1.503   7.634 -0.2981 -1.9343  3.4385
 1053SOL     OW14620   1.759   1.501   4.800  0.2801 -0.3702 -0.6031
 1053SOL    HW114621   1.807   1.434   4.751  0.4542 -0.6674 -0.0201
 1053SOL    HW214622   1.811   1.582   4.798 -0.2181 -0.0962 -2.7511
 1054SOL     OW14623   3.082   1.955  15.366  0.2949  0.0882 -0.5490
 1054SOL    HW114624   3.055   1.889  15.302 -0.3569 -0.9163  0.7708
 1054SOL    HW214625   3.053   2.030  15.313  2.0412  2.0116  1.2140
 1055SOL     OW14626   3.651   0.240   0.414 -0.1249 -0.2553  0.2633
 1055SOL    HW114627   3.737   0.238   0.372  0.3066  1.4980  1.0995
 1055SOL    HW214628   3.664   0.182   0.489  3.8843 -0.1937 -0.3877
 1056SOL     OW14629   2.848   1.241   9.321  0.4531 -0.0421  0.4456
 1056SOL    HW114630   2.793   1.301   9.270 -1.2288 -1.4532  0.6194
 1056SOL    HW214631   2.835   1.156   9.280  3.0888  0.0034 -0.4947
 1057SOL     OW14632   3.954   4.119  15.888 -0.1489  0.3225 -0.4922
 1057SOL    HW114633   3.975   4.136  15.980  0.1535 -2.0297 -0.1276
 1057SOL    HW214634   3.992   4.032  15.878 -0.4412  0.0501  0.7693
 1058SOL     OW14635   1.852   1.300   3.151 -0.3725  0.7670 -0.1331
 1058SOL    HW114636   1.926   1.358   3.168 -0.3946  0.7675 -0.0420
 1058SOL    HW214637   1.891   1.220   3.185  0.3544  0.9569 -0.5096
 1059SOL     OW14638   1.651   2.347   7.993 -0.5126  0.0349  0.2452
 1059SOL    HW114639   1.615   2.371   7.908 -0.0782  1.1373  0.3751
 1059SOL    HW214640   1.742   2.376   7.994  0.5073 -3.1251  0.8085
 1060SOL     OW14641   0.073   0.165   5.542  0.4215 -0.1547 -0.2644
 1060SOL    HW114642   0.093   0.075   5.516 -0.0124 -0.2022 -0.4278
 1060SOL    HW214643   0.055   0.155   5.636  2.3200  0.2773  0.1647
 1061SOL     OW14644   3.930   3.964   0.951  0.4340  0.0254 -0.0946
 1061SOL    HW114645   3.852   3.971   0.896 -0.3567  1.4054  1.1991
 1061SOL    HW214646   3.944   3.870   0.959  0.5408  0.1945  1.6038
 1062SOL     OW14647   0.336   3.063   7.242  0.9735 -0.6417 -0.0088
 1062SOL    HW114648   0.390   3.118   7.186  0.9081  0.2685  0.8120
 1062SOL    HW214649   0.274   3.123   7.283  0.8671 -1.1014  0.5064
 1063SOL     OW14650   3.692   2.956   2.845  0.6567 -0.4469  0.2051
 1063SOL    HW114651   3.757   3.013   2.804  2.4175 -2.2537  0.4947
 1063SOL    HW214652   3.654   2.918   2.766 -0.8907 -0.4329  0.9322
 1064SOL     OW14653   3.117   2.164   9.525  0.1247 -0.2030  0.6721
 1064SOL    HW114654   3.084   2.096   9.466  1.9896 -1.4285  1.0327
 1064SOL    HW214655   3.202   2.180   9.484  0.0624  0.7177  0.8920
 1065SOL     OW14656   0.781   3.460   6.062 -0.0954  0.3560  0.0691
 1065SOL    HW114657   0.799   3.389   6.124  3.4751  1.6087  0.4696
 1065SOL    HW214658   0.691   3.487   6.081 -0.4893 -1.2858  0.5028
 1066SOL     OW14659   4.192   1.979  14.116 -0.2183 -0.7578 -0.1129
 1066SOL    HW114660   4.265   1.945  14.168  2.3652  0.1518 -3.1330
 1066SOL    HW214661   4.228   1.982  14.027  0.8006  3.3675  0.4608
 1067SOL     OW14662   4.016   2.569   9.131  0.3803  0.2084 -0.2285
 1067SOL    HW114663   3.982   2.658   9.134 -0.6209 -0.2131  0.6643
 1067SOL    HW214664   4.087   2.576   9.067 -0.7852 -0.6177 -1.5936
 1068SOL     OW14665   0.338   1.665  14.622  0.1968  0.3742 -0.1244
 1068SOL    HW114666   0.276   1.686  14.693  0.5034  0.4839  0.1113
 1068SOL    HW214667   0.325   1.743  14.568 -0.6211 -0.5314 -1.2131
 1069SOL     OW14668   2.306   0.484   4.851 -0.6312  0.1010  0.2542
 1069SOL    HW114669   2.237   0.519   4.907  0.6398 -0.9307  2.4712
 1069SOL    HW214670   2.298   0.537   4.771 -0.8037 -0.6410 -0.2221
 1070SOL     OW14671   3.575   0.494   0.499  0.3147 -0.3908  0.5277
 1070SOL    HW114672   3.539   0.419   0.452 -0.0647  1.4444 -2.0945
 1070SOL    HW214673   3.599   0.463   0.586 -0.9483 -1.1777  0.5954
 1071SOL     OW14674   1.809   0.588   9.623 -1.1783 -1.1610 -0.1845
 1071SOL    HW114675   1.895   0.614   9.654 -1.6998 -2.2703  2.1522
 1071SOL    HW214676   1.780   0.550   9.706  0.8233 -2.4874 -0.0777
 1072SOL     OW14677   0.382   3.617   1.622  0.0974  0.3881 -0.2141
 1072SOL    HW114678   0.413   3.704   1.600  1.1325 -0.1323 -0.7667
 1072SOL    HW214679   0.318   3.643   1.689 -0.6845 -0.4951 -0.6143
 1073SOL     OW14680   3.565   2.575   5.881  0.0341 -0.0849  0.0165
 1073SOL    HW114681   3.606   2.514   5.820  0.3225  1.1903 -1.0519
 1073SOL    HW214682   3.488   2.601   5.831  1.1886  1.2938 -1.0589
 1074SOL     OW14683   0.435   3.420   8.568  0.5315  0.1529 -0.1322
 1074SOL    HW114684   0.407   3.330   8.586  0.7708 -0.5578 -3.4272
 1074SOL    HW214685   0.410   3.430   8.477 -0.9336  0.9910  0.3642
 1075SOL     OW14686   0.178   0.051   8.883  0.3882  0.7050 -0.3037
 1075SOL    HW114687   0.095   0.007   8.862  0.5119 -0.2711  1.1941
 1075SOL    HW214688   0.231   4.704   8.855  0.8166  1.0622 -0.4241
 1076SOL     OW14689   0.702   4.695   8.263  0.1715  0.4793  0.4488
 1076SOL    HW114690   0.661   4.692   8.176  1.9830 -0.5735 -0.3738
 1076SOL    HW214691   0.780   0.020   8.244 -1.2908  2.7470  0.6929
 1077SOL     OW14692   0.909   2.586   6.680  0.0443 -0.2512  0.1117
 1077SOL    HW114693   0.960   2.666   6.690  0.9767 -0.6754 -1.3822
 1077SOL    HW214694   0.979   2.529   6.651  2.3075  2.7522 -0.3064
 1078SOL     OW14695   0.064   0.528   0.393  0.8151 -0.1296 -0.8822
 1078SOL    HW114696   0.129   0.467   0.428 -0.3772 -0.0368  1.5142
 1078SOL    HW214697   0.082   0.611   0.438 -0.4560  0.0613 -0.7105
 1079SOL     OW14698   0.983   0.456   7.544  0.1229  0.6457 -0.1092
 1079SOL    HW114699   1.007   0.363   7.542 -3.0237 -0.1117 -2.3605
 1079SOL    HW214700   0.994   0.467   7.639 -0.7157 -0.4329  0.1096
 1080SOL     OW14701   4.309   3.620   5.401 -0.3810  0.2334  0.0680
 1080SOL    HW114702   4.276   3.708   5.421  0.0985  0.1788  1.0815
 1080SOL    HW214703   4.269   3.573   5.475  1.0994 -0.7405  0.2481
 1081SOL     OW14704   2.065   3.055   1.907  0.5228  0.1896  0.5582
 1081SOL    HW114705   2.005   3.098   1.968  3.3069  1.0690  2.6785
 1081SOL    HW214706   2.069   2.969   1.949 -0.8271  0.8782  2.0849
 1082SOL     OW14707   2.833   4.499  12.466 -0.7794 -0.4165  0.6191
 1082SOL    HW114708   2.883   4.418  12.456 -0.2613  0.1699 -1.5248
 1082SOL    HW214709   2.893   4.568  12.440 -1.2425 -0.3586 -0.2958
 1083SOL     OW14710   1.826   0.526   3.602  0.5361 -0.3177  0.1168
 1083SOL    HW114711   1.893   0.508   3.536  1.2383  1.7829  0.2560
 1083SOL    HW214712   1.760   0.558   3.541  1.0545  0.0934 -0.2212
 1084SOL     OW14713   3.957   1.021   5.241  0.5355 -0.1304  0.0238
 1084SOL    HW114714   3.930   1.075   5.167 -0.4307 -0.5793  0.0599
 1084SOL    HW214715   3.894   1.048   5.307 -0.2980 -0.3870 -0.6750
 1085SOL     OW14716   2.593   0.042  15.772 -0.2069  0.3202 -0.5338
 1085SOL    HW114717   2.607   0.129  15.734 -2.2057  0.5492 -0.7431
 1085SOL    HW214718   2.522   0.015  15.713 -1.3695  0.8274  0.6192
 1086SOL     OW14719   1.338   1.259   8.773 -0.1988  0.1759 -0.1035
 1086SOL    HW114720   1.402   1.196   8.739  0.4785  0.4196  0.7236
 1086SOL    HW214721   1.388   1.341   8.771  1.1558 -0.6364  0.4960
 1087SOL     OW14722   1.283   2.166   0.715  0.5067  0.1815 -0.4572
 1087SOL    HW114723   1.360   2.119   0.747 -1.3833 -1.6390  1.4404
 1087SOL    HW214724   1.242   2.184   0.800 -0.8813 -0.9980 -0.8819
 1088SOL     OW14725   3.052   2.504  17.240  0.1298  0.4375 -0.1986
 1088SOL    HW114726   3.095   2.575  17.194  2.1419  0.7644  2.2060
 1088SOL    HW214727   2.963   2.537  17.257  0.7742  1.7181  0.6398
 1089SOL     OW14728   3.714   2.615   7.548  0.7264  0.1076  0.5827
 1089SOL    HW114729   3.697   2.565   7.468  0.2283  3.4201 -1.3613
 1089SOL    HW214730   3.654   2.566   7.605  0.6623 -1.1155 -0.5073
 1090SOL     OW14731   1.840   0.588   8.649  0.1022 -0.1805  0.2541
 1090SOL    HW114732   1.772   0.654   8.636  0.9836  0.9344  1.3580
 1090SOL    HW214733   1.834   0.549   8.562  2.6818 -1.4366  0.6470
 1091SOL     OW14734   4.494   2.219   7.128  0.6173 -0.1509 -0.3013
 1091SOL    HW114735   4.507   2.147   7.190 -0.7901  1.1557  1.4906
 1091SOL    HW214736   4.523   2.289   7.186 -0.9693  0.4611 -0.2658
 1092SOL     OW14737   4.676   4.026   2.531  0.4178 -0.3884  0.1971
 1092SOL    HW114738   4.654   4.035   2.439  1.7386 -0.3717 -0.1168
 1092SOL    HW214739   4.636   3.941   2.550  0.6042 -0.3340  0.8365
 1093SOL     OW14740   1.159   0.961   4.800 -0.3568  0.0784  0.6318
 1093SOL    HW114741   1.177   0.959   4.894 -0.9256  1.3551  0.7660
 1093SOL    HW214742   1.105   0.882   4.790  0.6343 -0.6641  1.1989
 1094SOL     OW14743   2.190   1.394   8.789 -0.5746 -0.5372  0.4150
 1094SOL    HW114744   2.123   1.330   8.814  0.3372 -2.2361 -1.4459
 1094SOL    HW214745   2.268   1.365   8.836  1.0274  0.9257 -1.3799
 1095SOL     OW14746   3.393   4.718   2.438  0.0934  0.1980 -0.0724
 1095SOL    HW114747   3.401   0.031   2.351 -0.0474 -1.2973 -0.7869
 1095SOL    HW214748   3.474   0.028   2.472 -1.0277  0.9846  1.6919
 1096SOL     OW14749   0.870   3.317  15.773 -0.3438  0.6642 -0.5743
 1096SOL    HW114750   0.943   3.306  15.833 -1.0190  1.5353  0.4215
 1096SOL    HW214751   0.874   3.227  15.742  1.0891  0.9673 -1.2716
 1097SOL     OW14752   4.532   0.445   5.626  0.6190  0.2748  0.7672
 1097SOL    HW114753   4.566   0.438   5.537 -0.7331  0.8060  0.2073
 1097SOL    HW214754   4.448   0.402   5.607 -0.0510  0.9241  2.2417
 1098SOL     OW14755   2.799   3.357   6.602  0.0286  0.0882  0.6839
 1098SOL    HW114756   2.770   3.448   6.599  0.6064  0.2877  1.1770
 1098SOL    HW214757   2.877   3.357   6.547 -1.0045  2.3257 -0.7808
 1099SOL     OW14758   4.009   4.511   4.728 -0.5459  0.2511 -0.1033
 1099SOL    HW114759   4.048   4.567   4.660 -1.9340  0.2453 -0.8938
 1099SOL    HW214760   3.918   4.530   4.707 -0.4834 -1.0321 -1.5006
 1100SOL     OW14761   1.389   0.244   3.071  0.0839  0.6655  0.0246
 1100SOL    HW114762   1.438   0.162   3.060  0.4874  0.7829  0.9344
 1100SOL    HW214763   1.304   0.219   3.107 -0.8460  3.0484 -0.5141
 1101SOL     OW14764   3.624   2.426   2.097 -0.0283  0.2358  0.3864
 1101SOL    HW114765   3.646   2.480   2.173 -1.5465  1.3929  0.0051
 1101SOL    HW214766   3.711   2.386   2.087  0.3970  0.8391  1.7525
 1102SOL     OW14767   0.399   1.008   5.842  0.3199 -0.3171 -0.3619
 1102SOL    HW114768   0.417   1.101   5.832  0.1277 -0.2152  0.2538
 1102SOL    HW214769   0.305   1.003   5.861  0.2401  1.0161 -0.4065
 1103SOL     OW14770   2.331   4.557   3.336 -0.8414  0.0213 -0.1282
 1103SOL    HW114771   2.358   4.478   3.290  1.6473  0.0958  1.1865
 1103SOL    HW214772   2.406   4.616   3.323  1.8237 -3.4518 -0.3759
 1104SOL     OW14773   2.015   1.111   3.258 -0.6192 -0.3252 -0.3210
 1104SOL    HW114774   2.051   1.130   3.345 -1.0095 -1.7973  0.1618
 1104SOL    HW214775   2.096   1.085   3.214 -0.7752  0.1295 -0.8845
 1105SOL     OW14776   4.449   1.578   3.945 -0.2588  0.2183  0.2539
 1105SOL    HW114777   4.359   1.562   3.971  0.7272 -3.9640  0.9993
 1105SOL    HW214778   4.438   1.655   3.889 -0.1308  0.1822  0.1778
 1106SOL     OW14779   2.483   2.288   7.311  0.3858 -0.3744 -0.0646
 1106SOL    HW114780   2.407   2.270   7.256  0.2149 -1.3434  0.4861
 1106SOL    HW214781   2.539   2.342   7.255  0.3509 -0.4269 -0.1495
 1107SOL     OW14782   1.459   0.022   6.376 -0.8405  0.6710  0.5071
 1107SOL    HW114783   1.472   0.108   6.335  1.3313 -0.5452 -1.3908
 1107SOL    HW214784   1.547   4.727   6.406 -1.4479 -1.6530  0.5091
 1108SOL     OW14785   3.895   1.903   8.206 -0.4418 -0.1849  0.2384
 1108SOL    HW114786   3.965   1.936   8.262  0.4984  3.0411 -2.8121
 1108SOL    HW214787   3.941   1.865   8.131 -0.1027  2.0521 -0.6889
 1109SOL     OW14788   3.187   0.620   8.504 -0.3112 -0.3685  0.4586
 1109SOL    HW114789   3.212   0.690   8.444  0.2745  0.6461  1.8881
 1109SOL    HW214790   3.263   0.563   8.491 -1.2600 -1.4603 -0.2838
 1110SOL     OW14791   1.151   3.759   5.673  0.1410  0.4498 -0.1114
 1110SOL    HW114792   1.194   3.839   5.705  1.1819  0.3691 -1.3284
 1110SOL    HW214793   1.199   3.742   5.592 -0.3425  0.2757 -0.3594
 1111SOL     OW14794   0.398   4.663  13.247 -0.1910  0.5220 -0.0646
 1111SOL    HW114795   0.493   4.665  13.255 -0.1945  1.5088 -0.2114
 1111SOL    HW214796   0.381   4.719  13.323 -2.3174  1.3074 -1.1045
 1112SOL     OW14797   2.275   1.212  13.945 -0.0794  0.2864  0.0323
 1112SOL    HW114798   2.184   1.200  13.972  0.1506 -4.3954 -1.2695
 1112SOL    HW214799   2.299   1.131  13.901 -2.1641 -0.2495 -0.0949
 1113SOL     OW14800   0.946   3.728   1.914  0.7201  0.3347 -0.0193
 1113SOL    HW114801   0.914   3.717   2.003 -0.9444 -0.8111 -0.7690
 1113SOL    HW214802   1.026   3.779   1.927  0.6577 -0.0307  1.7624
 1114SOL     OW14803   2.264   1.707   8.123 -0.4192  0.1911  0.7102
 1114SOL    HW114804   2.331   1.641   8.138  2.3270  3.0774  1.0795
 1114SOL    HW214805   2.183   1.661   8.100  0.4182 -1.8382  1.9115
 1115SOL     OW14806   0.382   3.491   6.860 -0.0487 -0.2398  0.4723
 1115SOL    HW114807   0.459   3.543   6.884 -0.4918  0.9590 -0.7246
 1115SOL    HW214808   0.352   3.544   6.786 -1.3044 -0.0703  1.1095
 1116SOL     OW14809   1.652   0.306   2.450  0.1416  0.0369 -0.3277
 1116SOL    HW114810   1.610   0.234   2.402  3.1175 -1.4996 -0.6527
 1116SOL    HW214811   1.700   0.352   2.381  0.9501  0.3951  0.4743
 1117SOL     OW14812   4.285   0.530   8.208 -0.7814 -0.0904 -0.3091
 1117SOL    HW114813   4.321   0.443   8.226  1.9915  0.5372 -2.7887
 1117SOL    HW214814   4.364   0.577   8.181  0.2253 -1.9594 -0.5624
 1118SOL     OW14815   1.538   0.397  17.265 -0.1989 -0.0987 -0.3421
 1118SOL    HW114816   1.628   0.384  17.237  0.5602 -0.9286  2.5118
 1118SOL    HW214817   1.523   0.491  17.277  3.1808  0.1912  1.5718
 1119SOL     OW14818   2.076   1.526   9.650 -0.1035  0.0164 -0.1216
 1119SOL    HW114819   1.981   1.526   9.638 -0.0376 -0.5390 -0.5900
 1119SOL    HW214820   2.095   1.620   9.647 -0.1713  0.0772  1.1156
 1120SOL     OW14821   2.685   1.589  13.853  0.0937 -0.2369  1.1095
 1120SOL    HW114822   2.655   1.679  13.867  0.4967 -0.1213  1.2556
 1120SOL    HW214823   2.763   1.601  13.799 -0.6502  2.0046  0.5421
 1121SOL     OW14824   0.543   2.308  10.755  0.7055  0.8162 -0.6834
 1121SOL    HW114825   0.515   2.387  10.801  0.6761  0.0961  0.5621
 1121SOL    HW214826   0.632   2.326  10.725  0.3016  0.5290 -2.0210
 1122SOL     OW14827   0.493   3.330  17.359 -0.2892 -0.1168  0.2456
 1122SOL    HW114828   0.557   3.277  17.312 -0.0492  0.9084 -0.5791
 1122SOL    HW214829   0.413   3.286  17.331 -0.6247  1.2955 -1.0081
 1123SOL     OW14830   3.427   1.078   2.026 -0.2628 -0.3879 -0.0125
 1123SOL    HW114831   3.399   1.166   2.052 -2.1576 -0.7223 -1.0154
 1123SOL    HW214832   3.523   1.077   2.029 -0.2496  1.0606  0.1439
 1124SOL     OW14833   4.671   2.595   8.693 -0.5053  0.4375  0.3247
 1124SOL    HW114834   0.004   2.604   8.767  0.8004 -1.3961 -0.5391
 1124SOL    HW214835   4.705   2.515   8.655 -0.2197  0.0937  1.2858
 1125SOL     OW14836   4.724   2.105   5.253  0.3856  0.1744  0.1202
 1125SOL    HW114837   0.031   2.112   5.342 -1.1829  1.9208  0.5834
 1125SOL    HW214838   0.064   2.044   5.222  0.9754  0.4503  0.8408
 1126SOL     OW14839   3.405   3.368  16.870 -0.0194 -0.0990 -0.0704
 1126SOL    HW114840   3.492   3.410  16.876 -0.5994  0.9302  1.0974
 1126SOL    HW214841   3.363   3.432  16.813 -0.2785 -0.1629  0.0516
 1127SOL     OW14842   2.770   2.114   4.649 -0.1881 -0.0322  0.3612
 1127SOL    HW114843   2.796   2.201   4.621 -0.9898 -0.7414 -2.5899
 1127SOL    HW214844   2.850   2.068   4.622 -0.3469 -1.4541  2.2715
 1128SOL     OW14845   4.175   2.760   1.615  0.0096  0.4343 -0.2841
 1128SOL    HW114846   4.228   2.719   1.547 -0.6378 -2.6587  1.0640
 1128SOL    HW214847   4.093   2.786   1.573  1.2122  1.0034 -2.2858
 1129SOL     OW14848   1.281   1.020   3.785  0.2552  0.5046  0.4385
 1129SOL    HW114849   1.287   1.030   3.880  1.3043  1.7389  0.2424
 1129SOL    HW214850   1.198   1.061   3.765  0.4080  1.2691  1.3838
 1130SOL     OW14851   4.267   0.695   4.614 -0.0460 -0.2874 -0.2320
 1130SOL    HW114852   4.177   0.665   4.624  0.5384 -1.0145  2.7116
 1130SOL    HW214853   4.312   0.611   4.621  1.6877  0.6342 -0.2139
 1131SOL     OW14854   0.291   2.014  10.762 -0.3991 -0.2305  0.2272
 1131SOL    HW114855   0.375   1.967  10.757 -0.8420 -1.0170  0.3071
 1131SOL    HW214856   0.274   2.018  10.856  0.4563 -0.3084  0.3880
 1132SOL     OW14857   0.476   4.701   5.792 -0.5620  0.3237 -0.2905
 1132SOL    HW114858   0.519   0.058   5.802  0.7943 -0.1468 -2.0758
 1132SOL    HW214859   0.524   4.654   5.723  0.0063  1.3096 -0.5654
 1133SOL     OW14860   1.136   3.508   1.946  0.2546 -0.0410  0.1620
 1133SOL    HW114861   1.189   3.429   1.943 -1.8818 -1.4340 -0.6076
 1133SOL    HW214862   1.187   3.567   1.889  0.0984  1.0717  1.1670
 1134SOL     OW14863   2.172   3.675   9.166 -0.1129  0.0323  0.1191
 1134SOL    HW114864   2.176   3.608   9.234  0.0763  1.9581  2.0000
 1134SOL    HW214865   2.214   3.628   9.094  0.3178  1.9293 -0.8565
 1135SOL     OW14866   0.596   2.625  17.200  0.1212  0.4818  0.1302
 1135SOL    HW114867   0.684   2.624  17.238  0.4754  0.4892 -0.6856
 1135SOL    HW214868   0.612   2.625  17.106  0.5557  0.5041  0.2046
 1136SOL     OW14869   0.337   2.708  15.699  0.1465 -0.0411  0.0913
 1136SOL    HW114870   0.349   2.802  15.710 -0.1113 -0.0293  0.2725
 1136SOL    HW214871   0.312   2.705  15.606  0.9340 -1.6843 -0.0518
 1137SOL     OW14872   2.539   2.850   7.245  0.0084  0.0896  0.1380
 1137SOL    HW114873   2.569   2.774   7.295 -0.3464 -0.1532 -0.0193
 1137SOL    HW214874   2.452   2.857   7.285 -0.8878 -0.6829 -1.7087
 1138SOL     OW14875   1.850   4.046   4.347  0.1661  0.4172  0.2416
 1138SOL    HW114876   1.889   4.132   4.331  1.9619  0.0033  2.4749
 1138SOL    HW214877   1.850   4.047   4.442  0.0204  0.1817  0.2461
 1139SOL     OW14878   0.733   1.740   2.393  0.3724  0.5820 -0.1014
 1139SOL    HW114879   0.798   1.808   2.373  0.5131 -0.1141 -1.9955
 1139SOL    HW214880   0.784   1.660   2.384 -1.1140 -0.3620 -0.1898
 1140SOL     OW14881   4.414   3.335   6.983 -0.0777  0.1580  0.2761
 1140SOL    HW114882   4.495   3.374   6.950  0.0587  0.4207  0.9199
 1140SOL    HW214883   4.445   3.245   6.979 -0.0661  0.2503 -1.7674
 1141SOL     OW14884   1.283   3.750  13.216 -0.3966 -0.1846 -0.8901
 1141SOL    HW114885   1.233   3.829  13.195 -2.3791 -0.9991  0.8175
 1141SOL    HW214886   1.340   3.778  13.288 -1.3201  0.9016 -0.5768
 1142SOL     OW14887   0.206   1.876  11.829 -0.5604 -0.0902 -0.1318
 1142SOL    HW114888   0.284   1.827  11.853 -1.2224 -0.8787  0.4182
 1142SOL    HW214889   0.252   1.958  11.811 -1.4230  0.7253  1.4312
 1143SOL     OW14890   3.932   3.014  10.853 -0.0456  0.1151 -0.0210
 1143SOL    HW114891   3.930   2.918  10.848  0.8656  0.1143 -0.2982
 1143SOL    HW214892   4.025   3.029  10.868  0.1275 -0.9171 -0.0345
 1144SOL     OW14893   0.318   1.986   1.530  0.0771  0.4166  0.0706
 1144SOL    HW114894   0.408   1.986   1.564  0.0118  0.0170  0.2440
 1144SOL    HW214895   0.278   1.923   1.590 -0.8392  1.1821  0.2620
 1145SOL     OW14896   0.426   2.318   5.211  0.5041 -0.2401 -0.0385
 1145SOL    HW114897   0.412   2.236   5.260 -2.2057  1.7293  2.4710
 1145SOL    HW214898   0.352   2.318   5.151 -1.0309  1.0082  1.8792
 1146SOL     OW14899   2.003   3.608   1.881  0.2568 -0.3841  0.1341
 1146SOL    HW114900   2.063   3.572   1.946 -0.4577 -0.9358  0.4834
 1146SOL    HW214901   2.061   3.644   1.814 -2.0863  0.1716 -1.5888
 1147SOL     OW14902   3.109   2.046   2.412 -0.0396 -0.4558 -0.6530
 1147SOL    HW114903   3.198   2.072   2.388  0.0687 -1.6947 -1.6239
 1147SOL    HW214904   3.126   1.991   2.487  1.3542 -0.9850 -1.3602
 1148SOL     OW14905   2.199   0.353  13.576  0.1540 -0.4040  0.0833
 1148SOL    HW114906   2.132   0.328  13.639  0.9369 -1.1807  0.6031
 1148SOL    HW214907   2.278   0.364  13.630 -0.2705 -0.4469  0.7070
 1149SOL     OW14908   0.872   4.486   5.113 -0.1074  0.5065 -0.5006
 1149SOL    HW114909   0.855   4.393   5.127  1.0423  0.4904  0.8508
 1149SOL    HW214910   0.966   4.499   5.125  0.2335 -0.2137 -2.3821
 1150SOL     OW14911   0.873   1.746   7.602 -0.0960  0.1433 -0.1295
 1150SOL    HW114912   0.865   1.684   7.674  1.1972  1.1148  0.8397
 1150SOL    HW214913   0.916   1.814   7.654 -2.4154 -0.2386  2.2918
 1151SOL     OW14914   0.492   1.281   3.372  0.0296  0.2840 -0.1613
 1151SOL    HW114915   0.422   1.218   3.353  0.8860 -0.0180 -2.2953
 1151SOL    HW214916   0.485   1.348   3.304 -1.2502  1.5095  1.1684
 1152SOL     OW14917   1.250   1.702   0.647 -0.4043 -0.4994 -0.0451
 1152SOL    HW114918   1.270   1.641   0.575 -1.0174  1.8033 -2.1665
 1152SOL    HW214919   1.240   1.631   0.710  0.9814 -1.3273 -0.7252
 1153SOL     OW14920   1.364   1.337   2.127  0.1139 -0.0148 -0.2647
 1153SOL    HW114921   1.386   1.423   2.162 -1.0854  0.0581  0.3222
 1153SOL    HW214922   1.430   1.287   2.175  0.5103 -2.0955 -2.9958
 1154SOL     OW14923   0.085   2.967   0.793  0.8867 -0.5142  0.3633
 1154SOL    HW114924   0.099   2.941   0.885 -1.6978 -0.3407  0.8239
 1154SOL    HW214925   0.140   3.045   0.797  0.1955  0.0734 -2.1971
 1155SOL     OW14926   2.470   2.087   8.920 -0.2706  0.2012  0.4855
 1155SOL    HW114927   2.505   2.000   8.900  2.3518  0.9983  1.5592
 1155SOL    HW214928   2.393   2.063   8.972  0.7948 -1.3263  1.3632
 1156SOL     OW14929   2.549   1.817  11.651 -0.3992  0.1735 -0.2251
 1156SOL    HW114930   2.470   1.847  11.696 -0.5065  0.6035 -0.7044
 1156SOL    HW214931   2.548   1.725  11.678 -2.2753 -0.7057 -3.3886
 1157SOL     OW14932   3.894   1.250   0.261  0.4094 -0.3417  0.0121
 1157SOL    HW114933   3.826   1.186   0.281 -1.6815  2.2577  1.2018
 1157SOL    HW214934   3.877   1.254   0.166  2.3810  0.2746 -0.3090
 1158SOL     OW14935   3.926   0.909   3.398  0.0080  0.0664 -0.1805
 1158SOL    HW114936   4.011   0.883   3.364  0.3394  1.8673 -0.7331
 1158SOL    HW214937   3.924   0.866   3.484  0.0145 -0.9545 -0.6887
 1159SOL     OW14938   3.515   1.650   3.351  0.0792  0.7730  0.1551
 1159SOL    HW114939   3.513   1.681   3.261 -0.0081  0.3598  0.0157
 1159SOL    HW214940   3.592   1.697   3.384  0.1039  1.5714 -1.0183
 1160SOL     OW14941   1.429   1.382   6.020  0.2160 -0.7504 -0.2208
 1160SOL    HW114942   1.396   1.472   6.018 -0.4470 -1.0171 -1.2834
 1160SOL    HW214943   1.385   1.351   6.099  0.9827  0.2056  0.5810
 1161SOL     OW14944   0.032   4.675  12.283  0.0955  0.0884  0.0755
 1161SOL    HW114945   0.079   4.673  12.200  0.4151 -0.4881  0.2720
 1161SOL    HW214946   0.003   0.038  12.285  0.6916  0.2715  0.2085
 1162SOL     OW14947   2.855   1.564  15.000 -0.2634  0.4988  0.4989
 1162SOL    HW114948   2.790   1.558  14.930  0.3321 -0.1200  0.0012
 1162SOL    HW214949   2.857   1.656  15.028 -1.5122  1.0081 -1.1030
 1163SOL     OW14950   4.159   4.085  14.782 -0.7556  0.3975 -0.0761
 1163SOL    HW114951   4.197   4.078  14.870 -0.6987  0.0636 -0.1271
 1163SOL    HW214952   4.066   4.063  14.789 -0.2588 -2.3011 -1.9143
 1164SOL     OW14953   0.249   1.491   5.420  0.4752  0.8861  0.0479
 1164SOL    HW114954   0.172   1.479   5.476  1.1800 -0.6925  0.6861
 1164SOL    HW214955   0.242   1.410   5.370  0.6970  1.7254 -1.3202
 1165SOL     OW14956   3.647   1.011   9.118 -0.2238  0.2217 -0.1526
 1165SOL    HW114957   3.726   1.020   9.171  0.5988  0.7304 -1.4662
 1165SOL    HW214958   3.639   0.916   9.129 -0.7711  0.3710  0.8015
 1166SOL     OW14959   0.182   2.138   7.720  0.2552  0.2792 -1.0224
 1166SOL    HW114960   0.224   2.166   7.801 -0.8468  1.8856 -1.0054
 1166SOL    HW214961   0.199   2.044   7.721  2.0404  0.6416  1.0454
 1167SOL     OW14962   1.497   2.365  11.134 -0.0952 -0.1840 -0.6699
 1167SOL    HW114963   1.444   2.424  11.188  1.8925 -0.8771  2.0179
 1167SOL    HW214964   1.432   2.328  11.073 -1.0744  0.3430  0.0623
 1168SOL     OW14965   1.206   2.728   7.025 -0.0886  0.5559  0.4573
 1168SOL    HW114966   1.152   2.805   7.047  0.6777  1.0155  0.7424
 1168SOL    HW214967   1.159   2.653   7.059  1.6463 -1.5140 -1.7099
 1169SOL     OW14968   4.641   2.077  10.061 -0.0574  0.2884 -0.3906
 1169SOL    HW114969   4.587   2.005  10.093  2.0418 -0.8614  0.6031
 1169SOL    HW214970   4.712   2.081  10.125 -0.5582 -0.5000  0.2209
 1170SOL     OW14971   2.232   2.955   6.439  0.3410 -0.1550  0.6642
 1170SOL    HW114972   2.188   3.036   6.413 -0.5869 -0.9001 -0.0803
 1170SOL    HW214973   2.184   2.895   6.381  2.8096 -1.5809  0.0964
 1171SOL     OW14974   2.387   2.711  14.876 -0.7193 -0.3383 -0.1839
 1171SOL    HW114975   2.462   2.652  14.883 -0.1936  0.6803  2.7281
 1171SOL    HW214976   2.346   2.709  14.963 -1.2777 -0.6746 -0.4572
 1172SOL     OW14977   1.577   1.653  11.247 -0.2774  0.0098 -0.4352
 1172SOL    HW114978   1.513   1.595  11.287 -2.4075  1.7496 -1.3057
 1172SOL    HW214979   1.519   1.717  11.205 -0.2615 -0.7461 -1.5864
 1173SOL     OW14980   1.704   0.235   9.716  0.1933 -0.5572 -0.2633
 1173SOL    HW114981   1.785   0.196   9.685  1.5158  1.0228  1.2632
 1173SOL    HW214982   1.670   0.170   9.777  1.2614 -2.5583 -1.8076
 1174SOL     OW14983   1.857   0.478   5.673  0.3712  0.2691 -0.6150
 1174SOL    HW114984   1.767   0.502   5.695 -0.1232 -0.8833 -1.4068
 1174SOL    HW214985   1.878   0.397   5.719 -0.1551 -0.3448 -1.4631
 1175SOL     OW14986   0.776   3.407   6.769 -0.1328  0.2873 -0.1714
 1175SOL    HW114987   0.728   3.488   6.758 -1.3151 -0.0106  2.8285
 1175SOL    HW214988   0.812   3.425   6.856 -0.4354 -0.0041  0.0141
 1176SOL     OW14989   3.247   2.706   2.609 -1.1223  0.5664  0.2361
 1176SOL    HW114990   3.170   2.688   2.555 -2.4772  0.7537  2.1180
 1176SOL    HW214991   3.196   2.753   2.675 -1.5559 -0.1532  0.4180
 1177SOL     OW14992   0.192   2.890  12.282  0.0161 -0.0977  0.1862
 1177SOL    HW114993   0.261   2.955  12.289 -0.5754  0.8007 -2.3275
 1177SOL    HW214994   0.115   2.941  12.309  1.4831  1.8434  0.6451
 1178SOL     OW14995   2.944   0.300  14.402  0.0599 -0.2505 -0.0938
 1178SOL    HW114996   2.854   0.278  14.425  0.4898 -1.3195  0.5919
 1178SOL    HW214997   2.991   0.260  14.475 -0.0118 -0.9072 -0.4079
 1179SOL     OW14998   2.834   2.776   1.245  0.2151  0.7943 -0.0137
 1179SOL    HW114999   2.840   2.686   1.213  0.1643  0.3647  1.1874
 1179SOL    HW215000   2.902   2.825   1.199  0.4990  0.5167  0.1124
 1180SOL     OW15001   0.366   4.291   7.551  0.4771  0.1108  0.2818
 1180SOL    HW115002   0.313   4.218   7.585  0.9574  0.8985  2.7211
 1180SOL    HW215003   0.321   4.352   7.609 -0.4407 -0.2593 -0.0417
 1181SOL     OW15004   1.903   0.161  13.496 -0.7758  0.0741 -0.5674
 1181SOL    HW115005   1.852   0.087  13.528 -0.4785 -0.7284 -1.9377
 1181SOL    HW215006   1.982   0.166  13.549 -1.7733 -0.6529  0.9957
 1182SOL     OW15007   1.452   4.022   7.071 -0.0689  0.3006 -1.0327
 1182SOL    HW115008   1.476   4.048   7.160 -2.2090 -0.6425 -0.1749
 1182SOL    HW215009   1.538   4.025   7.029 -0.2783 -1.3396 -1.5636
 1183SOL     OW15010   0.241   0.490   3.548  0.3872  0.2371 -0.5040
 1183SOL    HW115011   0.206   0.410   3.509 -1.6617  1.0104 -0.2542
 1183SOL    HW215012   0.298   0.527   3.480 -0.8727  1.5132 -0.8666
 1184SOL     OW15013   3.797   3.692   7.233 -0.5712 -0.0969  0.1409
 1184SOL    HW115014   3.788   3.691   7.328  2.6462 -0.8290  0.4594
 1184SOL    HW215015   3.772   3.781   7.210  1.3137  0.3698 -0.1048
 1185SOL     OW15016   3.824   1.669   1.621 -0.5524 -1.0314 -0.2567
 1185SOL    HW115017   3.856   1.594   1.571  2.3152 -0.5888  0.8875
 1185SOL    HW215018   3.764   1.632   1.686 -1.0064 -0.5810 -0.4126
 1186SOL     OW15019   4.467   2.686   9.306  0.6888 -0.3053  0.1502
 1186SOL    HW115020   4.522   2.708   9.231 -2.8883 -2.1985 -3.0116
 1186SOL    HW215021   4.439   2.775   9.325  1.2627 -0.7369  2.9891
 1187SOL     OW15022   1.895   4.031   9.587  0.2998 -0.0953 -0.1898
 1187SOL    HW115023   1.814   4.043   9.537  0.6300 -2.5794 -1.3178
 1187SOL    HW215024   1.921   4.122   9.603 -0.4706 -0.4626  3.1716
 1188SOL     OW15025   0.440   1.770  10.854  0.1748 -0.3491  0.3306
 1188SOL    HW115026   0.419   1.688  10.898 -0.3245 -0.9712 -1.0789
 1188SOL    HW215027   0.418   1.838  10.918 -0.7777 -0.3579  0.0166
 1189SOL     OW15028   1.277   4.154   8.606  0.0150 -0.0245 -0.3545
 1189SOL    HW115029   1.235   4.240   8.598 -0.2854 -0.1453 -0.1150
 1189SOL    HW215030   1.314   4.129   8.522  1.8052  3.1034 -0.4754
 1190SOL     OW15031   0.488   2.740   3.013  0.0261 -0.0066  0.1061
 1190SOL    HW115032   0.552   2.779   2.954  0.9636 -1.4987  0.1217
 1190SOL    HW215033   0.434   2.696   2.948 -1.4576 -0.7944  1.8462
 1191SOL     OW15034   2.890   0.633   8.064  0.4251 -0.1426  1.2335
 1191SOL    HW115035   2.960   0.675   8.113  0.5281  0.2597  0.7285
 1191SOL    HW215036   2.833   0.707   8.043 -0.3723 -1.6058 -1.8443
 1192SOL     OW15037   1.739   4.551   3.153  0.0305  0.1194  0.2439
 1192SOL    HW115038   1.762   4.494   3.226 -2.8547 -4.5355 -2.5397
 1192SOL    HW215039   1.822   4.555   3.106 -0.8788 -0.3285 -1.3990
 1193SOL     OW15040   3.085   2.455   9.451 -0.3925  0.3515 -0.7785
 1193SOL    HW115041   3.097   2.368   9.490  2.1784 -0.0016 -2.3594
 1193SOL    HW215042   2.993   2.450   9.424  0.7046 -1.8467 -4.0232
 1194SOL     OW15043   0.588   3.930   7.157  0.1435 -0.1693 -0.1155
 1194SOL    HW115044   0.635   3.854   7.122  0.8055 -0.7987  2.1466
 1194SOL    HW215045   0.572   3.972   7.072 -0.8664  0.3536  0.3368
 1195SOL     OW15046   3.237   3.054   0.340  0.4193 -0.3885 -0.1177
 1195SOL    HW115047   3.237   2.982   0.402  1.3055  0.7861  1.2484
 1195SOL    HW215048   3.248   3.133   0.393 -1.7386 -2.5797  3.5601
 1196SOL     OW15049   4.608   0.335   3.996  0.4174  0.4850  0.5367
 1196SOL    HW115050   4.564   0.270   3.941 -2.7255  0.6565  2.8776
 1196SOL    HW215051   4.605   0.303   4.086  2.6807 -0.1170  0.3944
 1197SOL     OW15052   0.926   0.188  10.519 -0.0111  0.5364  0.2312
 1197SOL    HW115053   1.022   0.187  10.525  0.0031 -1.3996 -0.0590
 1197SOL    HW215054   0.910   0.271  10.474 -0.9872 -0.6727 -1.6736
 1198SOL     OW15055   0.897   4.459   6.338 -0.1372 -0.4197 -0.2682
 1198SOL    HW115056   0.962   4.498   6.280  1.2863  0.4676  1.9208
 1198SOL    HW215057   0.919   4.486   6.427 -0.9916  1.9650 -0.8021
 1199SOL     OW15058   1.544   1.646  15.304  0.8164  0.0343 -0.0089
 1199SOL    HW115059   1.475   1.710  15.283  0.3475  0.4422  2.7756
 1199SOL    HW215060   1.503   1.577  15.251  0.5192  0.7185 -0.6815
 1200SOL     OW15061   0.872   3.095   3.807 -0.2756 -0.1247  0.0670
 1200SOL    HW115062   0.903   3.025   3.865 -1.5672 -0.1395  0.7373
 1200SOL    HW215063   0.916   3.083   3.723 -1.0108  0.4711 -0.3995
 1201SOL     OW15064   0.150   4.665   9.245 -0.3360 -0.3012  0.2574
 1201SOL    HW115065   0.207   4.688   9.318 -1.0187  2.8027 -0.2040
 1201SOL    HW215066   0.216   4.640   9.180 -1.2260  0.4807 -0.9364
 1202SOL     OW15067   3.691   0.965   2.060 -0.0561 -0.1601  0.1433
 1202SOL    HW115068   3.692   0.900   1.990 -2.5656 -0.6357  0.5306
 1202SOL    HW215069   3.662   0.907   2.132  0.4425 -1.4053 -0.6597
 1203SOL     OW15070   1.868   3.096   3.968  0.1650  0.3595 -0.4319
 1203SOL    HW115071   1.867   3.071   3.876  1.0446 -0.6581 -0.1668
 1203SOL    HW215072   1.816   3.175   3.981 -1.4613 -0.2739 -2.9577
 1204SOL     OW15073   3.856   2.114   0.746  0.6537  0.1241  0.0957
 1204SOL    HW115074   3.784   2.172   0.768  1.2191  0.6924  0.4506
 1204SOL    HW215075   3.844   2.100   0.652 -0.5376  0.0982  0.2471
 1205SOL     OW15076   3.292   0.258  13.637 -0.2382  0.8912  0.1464
 1205SOL    HW115077   3.383   0.229  13.634 -0.7031 -0.8120  2.8091
 1205SOL    HW215078   3.282   0.336  13.690 -0.1455  1.9290 -1.3452
 1206SOL     OW15079   1.252   0.227   8.188  0.1550 -0.3828 -0.5032
 1206SOL    HW115080   1.204   0.226   8.105 -1.5635 -0.4946  0.4812
 1206SOL    HW215081   1.232   0.313   8.225  0.8991  0.5949 -2.3720
 1207SOL     OW15082   1.742   4.584   6.209  0.1526 -0.0986  0.4002
 1207SOL    HW115083   1.690   4.637   6.271 -0.0395  0.1180  0.0530
 1207SOL    HW215084   1.761   4.512   6.269 -0.7091 -0.2980  0.4347
 1208SOL     OW15085   1.899   0.908   1.983 -0.1423 -0.0035 -0.2325
 1208SOL    HW115086   1.827   0.942   1.929  1.7738  2.1656 -1.4331
 1208SOL    HW215087   1.943   0.988   2.010 -0.4094 -0.3430  1.2294
 1209SOL     OW15088   3.319   3.756   3.046 -0.0220 -0.2769  0.2317
 1209SOL    HW115089   3.363   3.839   3.066  1.9080 -2.4918  4.9803
 1209SOL    HW215090   3.379   3.731   2.976  0.1655  0.3888  0.1506
 1210SOL     OW15091   0.026   1.490   5.546  0.3123  0.2008 -0.6012
 1210SOL    HW115092   0.043   1.501   5.639  3.0713 -2.4217 -0.7878
 1210SOL    HW215093   4.697   1.565   5.528  1.2441  0.8307 -0.9160
 1211SOL     OW15094   2.636   1.751  14.829  0.2816  1.1282  0.0161
 1211SOL    HW115095   2.599   1.789  14.749 -1.3899  0.0739  0.3014
 1211SOL    HW215096   2.721   1.726  14.792 -1.5578 -2.0102 -2.1451
 1212SOL     OW15097   4.221   0.861   4.392 -0.0486  0.1703 -0.1833
 1212SOL    HW115098   4.237   0.820   4.477  0.4742  0.6839 -0.0389
 1212SOL    HW215099   4.306   0.902   4.377  0.0784 -0.4045 -1.0155
 1213SOL     OW15100   4.423   4.377  14.945  0.0787  0.0141 -0.1313
 1213SOL    HW115101   4.442   4.291  14.983 -1.8999 -0.3327  0.0749
 1213SOL    HW215102   4.354   4.346  14.887  0.4721 -0.1008 -0.5443
 1214SOL     OW15103   2.765   1.827   5.203  0.1905  0.0633  0.6668
 1214SOL    HW115104   2.690   1.788   5.249 -0.2550 -0.1855 -0.2649
 1214SOL    HW215105   2.730   1.861   5.120  0.0838 -0.2918  0.5648
 1215SOL     OW15106   1.169   3.268   8.695  0.3296  0.1145 -0.1974
 1215SOL    HW115107   1.127   3.313   8.622 -0.1323  0.2876  0.1786
 1215SOL    HW215108   1.255   3.253   8.656 -0.6004 -1.4919 -1.6199
 1216SOL     OW15109   4.358   2.997   5.236  0.3588 -0.3177 -0.2335
 1216SOL    HW115110   4.265   2.975   5.233  0.9169 -2.7554  0.5746
 1216SOL    HW215111   4.392   2.951   5.159  3.0172 -1.2229  1.4841
 1217SOL     OW15112   1.456   3.544   7.679  0.1131  0.2556 -0.2593
 1217SOL    HW115113   1.513   3.475   7.645 -0.7159 -0.1834 -0.7756
 1217SOL    HW215114   1.436   3.506   7.764  1.7450  2.2692  1.0108
 1218SOL     OW15115   0.802   3.279  15.398  0.3680  0.2572  0.1242
 1218SOL    HW115116   0.790   3.188  15.371 -0.2825  0.6032 -0.7684
 1218SOL    HW215117   0.707   3.293  15.407 -0.0733 -0.5032 -3.4070
 1219SOL     OW15118   4.658   0.318  17.189  0.4553 -0.7891  0.4364
 1219SOL    HW115119   0.023   0.332  17.204  0.3714 -0.1207  0.3163
 1219SOL    HW215120   4.651   0.340  17.096 -0.0353 -0.0491  0.6472
 1220SOL     OW15121   1.414   1.865   1.916 -0.0464  0.0407  0.3653
 1220SOL    HW115122   1.499   1.907   1.933 -0.8093  1.0818  1.6466
 1220SOL    HW215123   1.422   1.786   1.969 -0.9079  0.4571  1.1222
 1221SOL     OW15124   3.016   2.645  15.971 -0.2797  0.4317 -0.0813
 1221SOL    HW115125   3.059   2.610  16.049  0.4215  1.3454 -0.0595
 1221SOL    HW215126   2.952   2.703  16.012  0.2567  1.0634 -0.1272
 1222SOL     OW15127   0.901   2.851   8.468  1.0369 -0.1731 -0.0303
 1222SOL    HW115128   0.862   2.932   8.435  0.2028 -1.2319 -1.6729
 1222SOL    HW215129   0.833   2.787   8.449 -1.3111  1.5437  2.7424
 1223SOL     OW15130   0.135   4.060   7.287  0.0773  0.4001  0.1382
 1223SOL    HW115131   0.200   4.071   7.218 -1.0491 -0.1847 -1.0354
 1223SOL    HW215132   0.116   3.967   7.278  3.2861 -0.1510 -0.8599
 1224SOL     OW15133   2.334   0.656   6.633  0.3983  0.3147 -0.5891
 1224SOL    HW115134   2.340   0.595   6.706 -0.3974  0.9684  0.0229
 1224SOL    HW215135   2.309   0.743   6.664 -1.6374 -0.2516 -0.6550
 1225SOL     OW15136   1.890   0.061   9.795 -0.0156  0.1358 -0.6765
 1225SOL    HW115137   1.865   0.077   9.886 -0.0395  0.5196 -0.7492
 1225SOL    HW215138   1.971   0.012   9.809 -1.1954 -2.1147 -1.7763
 1226SOL     OW15139   0.929   1.489   3.913 -0.5138  0.3670  0.5310
 1226SOL    HW115140   0.853   1.460   3.863  0.8379 -0.2116 -1.1684
 1226SOL    HW215141   0.892   1.522   3.995 -3.2452  0.5487 -0.7638
 1227SOL     OW15142   1.236   3.316   4.814 -0.4481 -0.2265  0.5342
 1227SOL    HW115143   1.218   3.377   4.742  0.7860 -0.3223  0.1484
 1227SOL    HW215144   1.241   3.372   4.891 -0.1060  0.0376  0.3214
 1228SOL     OW15145   4.690   0.314   7.032  0.0691 -0.3034 -0.0044
 1228SOL    HW115146   4.651   0.254   6.969  2.1370  0.4826 -2.0094
 1228SOL    HW215147   0.033   0.268   7.077  0.3394 -0.9099 -1.0620
 1229SOL     OW15148   3.829   4.477   1.386  0.2873 -0.2115 -0.0898
 1229SOL    HW115149   3.924   4.492   1.386 -0.3312  3.7503 -0.7210
 1229SOL    HW215150   3.818   4.460   1.480 -1.4053  0.7160 -0.1318
 1230SOL     OW15151   0.193   1.639   3.259 -0.8823  0.1715 -0.1829
 1230SOL    HW115152   0.245   1.700   3.206  2.5845 -1.6213  1.1106
 1230SOL    HW215153   0.166   1.585   3.185  0.7931 -0.9348 -0.0168
 1231SOL     OW15154   1.259   0.484  13.066  0.1737 -0.0583  0.6314
 1231SOL    HW115155   1.244   0.501  12.973  1.4150 -0.0361  0.4335
 1231SOL    HW215156   1.171   0.474  13.102  1.3994 -1.7380  3.0639
 1232SOL     OW15157   3.508   1.808   6.097  0.2318 -0.7377 -0.4483
 1232SOL    HW115158   3.580   1.833   6.039  1.3623 -2.0366  0.3954
 1232SOL    HW215159   3.441   1.799   6.029  0.5682 -0.1014 -0.8646
 1233SOL     OW15160   1.411   3.163   9.648  0.2518 -0.5903 -0.2182
 1233SOL    HW115161   1.500   3.181   9.679 -0.2109  2.5949 -0.7458
 1233SOL    HW215162   1.456   3.099   9.593 -0.7004  1.0079 -2.8598
 1234SOL     OW15163   0.196   0.378   8.366 -0.5220  0.0647 -0.6942
 1234SOL    HW115164   0.103   0.398   8.354  0.0606  2.4060 -1.2539
 1234SOL    HW215165   0.203   0.390   8.461  2.5112  0.1601 -0.9400
 1235SOL     OW15166   0.411   1.162  15.993 -0.1484  0.3359 -0.3925
 1235SOL    HW115167   0.399   1.069  15.978 -0.0476 -0.0160  1.7178
 1235SOL    HW215168   0.359   1.168  16.073  1.5132 -0.7491  0.7659
 1236SOL     OW15169   1.361   2.426   0.676 -0.2078 -0.2626  0.1212
 1236SOL    HW115170   1.280   2.469   0.652  0.3462  1.1772  0.8415
 1236SOL    HW215171   1.353   2.334   0.651 -0.1136 -0.1039 -0.4961
 1237SOL     OW15172   0.774   3.192   2.420 -0.5715 -0.7073 -0.1867
 1237SOL    HW115173   0.695   3.144   2.395  0.1872 -0.2659 -3.4510
 1237SOL    HW215174   0.746   3.205   2.511 -1.0527 -1.0675 -0.2823
 1238SOL     OW15175   3.204   1.090   8.027  0.6565  0.1469 -0.1968
 1238SOL    HW115176   3.151   1.150   7.975  0.5005  1.3195  1.3196
 1238SOL    HW215177   3.181   1.117   8.115 -1.5268  1.5932 -1.2131
 1239SOL     OW15178   0.787   3.009   1.726  0.2217 -0.3867 -0.0560
 1239SOL    HW115179   0.790   3.099   1.693  1.3301 -0.5602 -0.4112
 1239SOL    HW215180   0.697   2.987   1.701  0.2915 -2.6663  1.7512
 1240SOL     OW15181   2.563   2.304  17.632 -0.1072  0.2456  0.0566
 1240SOL    HW115182   2.477   2.344  17.643 -1.5613 -3.5002  2.2758
 1240SOL    HW215183   2.601   2.354  17.560  1.5505 -0.9701  0.0905
 1241SOL     OW15184   0.126   0.803   4.392 -0.1218  0.2384 -0.0728
 1241SOL    HW115185   0.044   0.754   4.384 -0.0213 -0.1118  1.0599
 1241SOL    HW215186   0.136   0.806   4.487 -0.5060 -1.5609  0.0348
 1242SOL     OW15187   4.575   2.219   5.526 -0.1353 -0.4819 -0.0086
 1242SOL    HW115188   4.659   2.172   5.519  0.7853  0.9235  1.6227
 1242SOL    HW215189   4.605   2.290   5.583 -0.6631 -0.2002 -0.0837
 1243SOL     OW15190   2.135   4.658   9.827 -0.2003  0.3794  0.3693
 1243SOL    HW115191   2.224   4.693   9.839 -0.9231  1.6695  1.9465
 1243SOL    HW215192   2.115   4.618   9.912 -0.9892 -1.1102 -0.5353
 1244SOL     OW15193   3.760   0.277   2.916  0.2073 -0.5011 -0.1055
 1244SOL    HW115194   3.854   0.279   2.897  0.4603  0.3424  1.2433
 1244SOL    HW215195   3.721   0.322   2.841  1.8304 -0.3534 -0.8569
 1245SOL     OW15196   3.754   1.172   1.793 -0.1910  0.4875  0.0760
 1245SOL    HW115197   3.670   1.193   1.753 -0.1289  1.5960  0.5431
 1245SOL    HW215198   3.736   1.079   1.808 -1.9123  0.7421 -0.3679
 1246SOL     OW15199   0.512   3.007   8.078  0.2231 -0.2444 -0.1403
 1246SOL    HW115200   0.498   2.921   8.037 -3.9276  0.1568  0.3857
 1246SOL    HW215201   0.423   3.042   8.073 -0.4007 -1.6938  0.8515
 1247SOL     OW15202   0.325   1.295  16.989 -0.1474 -0.3281  0.2350
 1247SOL    HW115203   0.366   1.382  16.985  0.2116 -0.5262 -0.3697
 1247SOL    HW215204   0.329   1.266  16.898  1.5362  1.2000 -0.1682
 1248SOL     OW15205   1.698   4.196   8.064  0.2076 -0.4901 -0.3492
 1248SOL    HW115206   1.697   4.292   8.060 -1.6688 -0.4138  1.9988
 1248SOL    HW215207   1.790   4.177   8.045  0.0780 -0.8092 -0.6608
 1249SOL     OW15208   3.430   0.901   7.263  0.3098  0.1880  0.1956
 1249SOL    HW115209   3.403   0.945   7.344 -1.7136 -1.3428  0.3534
 1249SOL    HW215210   3.524   0.917   7.261  0.5198 -0.6865  2.2092
 1250SOL     OW15211   3.303   2.422   7.608  0.0721 -0.4136 -0.2918
 1250SOL    HW115212   3.363   2.397   7.538 -0.3807 -0.0364 -0.8223
 1250SOL    HW215213   3.286   2.513   7.584 -1.8935 -0.3522  1.2851
 1251SOL     OW15214   2.824   3.030   5.286 -0.0969  0.0964  0.4289
 1251SOL    HW115215   2.907   3.049   5.242 -0.6236  1.5489  0.0727
 1251SOL    HW215216   2.866   2.980   5.355 -0.4531  1.5565  1.6896
 1252SOL     OW15217   2.700   2.910  14.138  0.6364 -0.0608 -0.1912
 1252SOL    HW115218   2.778   2.862  14.166  1.7884  0.8878 -1.7645
 1252SOL    HW215219   2.659   2.839  14.087 -2.3171  1.1551  0.4778
 1253SOL     OW15220   1.683   0.991  17.601 -0.1329 -0.1582  0.3492
 1253SOL    HW115221   1.708   0.906  17.566  2.2956  1.2123 -1.2122
 1253SOL    HW215222   1.766   1.023  17.636 -0.0829 -1.7639  1.7312
 1254SOL     OW15223   1.567   0.517  16.143 -0.0569 -0.2517 -0.3174
 1254SOL    HW115224   1.526   0.529  16.228  0.8031  0.8835 -0.0702
 1254SOL    HW215225   1.494   0.538  16.085 -0.0605 -0.2409 -0.3088
 1255SOL     OW15226   1.784   0.419   8.405 -0.4213  0.1109  0.4113
 1255SOL    HW115227   1.723   0.383   8.341  1.6093 -1.8884 -0.4236
 1255SOL    HW215228   1.860   0.369   8.376 -0.3484  0.4200  0.0578
 1256SOL     OW15229   0.945   2.255  16.618  0.2431 -0.7609 -0.2800
 1256SOL    HW115230   1.005   2.298  16.557 -1.2547  1.3301 -0.2838
 1256SOL    HW215231   0.895   2.334  16.638  0.0550 -1.0933  0.5477
 1257SOL     OW15232   2.169   1.041  16.671  0.6114 -0.0920 -0.5123
 1257SOL    HW115233   2.235   1.029  16.739  2.3359 -1.5927 -2.4842
 1257SOL    HW215234   2.179   0.960  16.621  2.3104  0.7123 -1.4696
 1258SOL     OW15235   2.908   0.385   2.787  0.0452 -0.2449 -0.1344
 1258SOL    HW115236   2.922   0.480   2.777  1.0513 -0.2819  0.8131
 1258SOL    HW215237   2.827   0.390   2.838  0.9751  0.5446  1.2930
 1259SOL     OW15238   1.726   1.543   0.342  0.0501 -0.5375  0.0194
 1259SOL    HW115239   1.762   1.632   0.350  0.5463 -0.6614 -0.7756
 1259SOL    HW215240   1.782   1.520   0.267 -1.9822 -0.8857 -1.3833
 1260SOL     OW15241   0.153   0.691   8.342 -0.3515  0.3322 -0.0300
 1260SOL    HW115242   0.151   0.774   8.293  0.5606  1.4000  1.7282
 1260SOL    HW215243   0.116   0.708   8.428 -0.6368 -1.3430  0.1751
 1261SOL     OW15244   3.951   0.032   1.519 -0.1071  0.0594  0.4983
 1261SOL    HW115245   4.012   4.709   1.572  0.2905  0.7952  0.7432
 1261SOL    HW215246   3.980   0.123   1.527 -0.5275  0.2308  0.0915
 1262SOL     OW15247   0.416   1.798  11.988 -0.1749  0.2761  0.2084
 1262SOL    HW115248   0.361   1.817  12.064 -0.3840  0.2058  0.0734
 1262SOL    HW215249   0.489   1.855  12.014  0.8681 -1.0603  0.2059
 1263SOL     OW15250   3.780   1.134  15.866  0.4168 -0.2278 -0.1559
 1263SOL    HW115251   3.852   1.184  15.905 -0.0834  0.9906 -0.8079
 1263SOL    HW215252   3.797   1.055  15.918  1.4872 -0.2591 -0.5589
 1264SOL     OW15253   1.454   2.914   3.272  0.4383 -0.0247  0.5510
 1264SOL    HW115254   1.427   2.947   3.187  0.0820  0.1003  0.7131
 1264SOL    HW215255   1.441   2.819   3.273 -1.4116  0.2215 -1.1961
 1265SOL     OW15256   1.020   4.428  12.069  0.3420  0.1327 -0.5917
 1265SOL    HW115257   1.088   4.486  12.035 -0.2662  0.2326 -1.6458
 1265SOL    HW215258   0.977   4.404  11.987  0.9697  1.0064 -1.1681
 1266SOL     OW15259   3.589   2.767   3.770 -0.6935 -0.5258  0.1608
 1266SOL    HW115260   3.611   2.717   3.692  0.0978 -1.4641  0.9931
 1266SOL    HW215261   3.576   2.854   3.731  0.5909 -0.6937 -0.6456
 1267SOL     OW15262   0.377   0.386   3.316  0.5098 -0.3175  0.1066
 1267SOL    HW115263   0.466   0.410   3.341  0.7576 -2.8861  1.8023
 1267SOL    HW215264   0.394   0.297   3.284  2.0367  0.0317 -0.0348
 1268SOL     OW15265   0.340   0.187  16.462 -0.3732 -0.1494  0.4953
 1268SOL    HW115266   0.284   0.252  16.504  0.8193 -0.1363  2.0689
 1268SOL    HW215267   0.337   0.115  16.525  1.4870  0.3041  1.0898
 1269SOL     OW15268   2.200   4.221  16.783 -0.1650  0.1857 -0.0267
 1269SOL    HW115269   2.122   4.273  16.802  1.0060  1.3759  1.5457
 1269SOL    HW215270   2.265   4.287  16.761  0.6371 -0.5389  0.1694
 1270SOL     OW15271   1.458   3.654   3.745 -0.5177  0.3398  0.2646
 1270SOL    HW115272   1.433   3.579   3.799  0.6670  0.8222  1.4786
 1270SOL    HW215273   1.527   3.689   3.801 -0.0296  0.1380 -0.2207
 1271SOL     OW15274   3.449   1.247   8.162  0.0191  0.5518 -0.3856
 1271SOL    HW115275   3.512   1.257   8.090  2.0889 -1.5958  1.1544
 1271SOL    HW215276   3.502   1.294   8.226  0.6326  0.1715 -0.6076
 1272SOL     OW15277   3.733   3.896   7.764 -0.3919  0.0966 -0.4933
 1272SOL    HW115278   3.716   3.912   7.857  1.4940  0.3365 -0.1752
 1272SOL    HW215279   3.698   3.979   7.733 -2.6536 -1.5932 -2.4241
 1273SOL     OW15280   0.519   2.657   2.440  0.1682  0.0900 -0.0686
 1273SOL    HW115281   0.467   2.736   2.454 -1.4791 -1.0143  0.0377
 1273SOL    HW215282   0.459   2.587   2.465  0.0161  0.6074  1.0527
 1274SOL     OW15283   3.143   0.399   6.198 -0.2207  0.4384 -0.4484
 1274SOL    HW115284   3.111   0.336   6.133  1.5930 -2.3864  1.4120
 1274SOL    HW215285   3.193   0.339   6.253 -0.5044 -0.3217 -1.0168
 1275SOL     OW15286   2.168   3.042  12.829 -0.4683  0.3915 -0.5577
 1275SOL    HW115287   2.116   3.121  12.813 -1.4874  0.2775  2.2193
 1275SOL    HW215288   2.125   2.991  12.897 -0.1657  0.0810 -0.6021
 1276SOL     OW15289   3.623   0.973   2.897 -0.0369 -0.7957  0.0650
 1276SOL    HW115290   3.574   0.925   2.963 -0.6033  1.2176  1.0939
 1276SOL    HW215291   3.669   1.032   2.956  2.8460 -1.4530 -1.5331
 1277SOL     OW15292   3.119   3.193  13.391  0.0550  0.3676 -0.6568
 1277SOL    HW115293   3.156   3.106  13.405 -0.6775 -0.0940 -1.6368
 1277SOL    HW215294   3.126   3.214  13.485  1.1037 -1.7122 -0.2858
 1278SOL     OW15295   4.334   4.518   5.526  0.2744  0.3732 -0.4276
 1278SOL    HW115296   4.370   4.581   5.589 -0.8783  1.6769 -1.0771
 1278SOL    HW215297   4.256   4.482   5.569 -0.6262  2.5679 -0.2341
 1279SOL     OW15298   2.192   3.348  10.160 -0.4763 -0.2596  0.4631
 1279SOL    HW115299   2.128   3.299  10.109  0.3320  0.0038 -0.7848
 1279SOL    HW215300   2.177   3.438  10.132 -1.8751  0.4184  3.3246
 1280SOL     OW15301   1.863   1.310   2.537  0.0039 -0.1244 -0.3048
 1280SOL    HW115302   1.912   1.387   2.566 -0.0845 -0.8075  1.6624
 1280SOL    HW215303   1.783   1.297   2.587  0.7283 -0.5962  0.7493
 1281SOL     OW15304   4.715   2.147  12.151  0.1844 -0.6652 -0.5759
 1281SOL    HW115305   0.063   2.130  12.094  0.3973 -1.5066 -0.0513
 1281SOL    HW215306   4.669   2.065  12.133  1.2988 -1.1760 -1.1429
 1282SOL     OW15307   2.280   4.246   1.241 -1.1401 -0.0477 -0.4314
 1282SOL    HW115308   2.212   4.219   1.179 -0.9715 -0.7589 -0.3025
 1282SOL    HW215309   2.262   4.187   1.314  1.2693 -0.1566  0.0797
 1283SOL     OW15310   1.571   1.325  17.577  0.1330  0.1459  0.5376
 1283SOL    HW115311   1.646   1.294  17.526 -1.3678 -1.6239 -0.5446
 1283SOL    HW215312   1.506   1.264  17.542  0.3881 -0.6438  1.4288
 1284SOL     OW15313   0.437   3.036   3.171  0.0369  0.1311  0.0825
 1284SOL    HW115314   0.466   2.949   3.201  0.1847  0.2440  0.2661
 1284SOL    HW215315   0.418   3.082   3.252  0.3989  1.2646 -0.4759
 1285SOL     OW15316   2.899   2.932   6.743 -0.5526  0.3831  0.1151
 1285SOL    HW115317   2.810   2.966   6.748 -0.2663  1.1396  0.1065
 1285SOL    HW215318   2.946   3.011   6.717  1.2931 -0.3926  1.0392
 1286SOL     OW15319   1.519   4.297   0.870 -0.3766 -0.3746 -0.0763
 1286SOL    HW115320   1.599   4.278   0.820 -0.9964 -0.3080 -1.1075
 1286SOL    HW215321   1.511   4.392   0.861  1.2640 -0.2706 -0.6095
 1287SOL     OW15322   0.568   0.234   5.088  0.2455 -0.3805 -0.2134
 1287SOL    HW115323   0.509   0.303   5.057  0.5823 -0.3078 -0.6899
 1287SOL    HW215324   0.513   0.164   5.123 -0.5854 -0.0239 -0.7827
 1288SOL     OW15325   4.342   0.301   9.934  0.4382  0.2020  0.0463
 1288SOL    HW115326   4.356   0.275   9.843 -2.7961  0.8045 -0.6172
 1288SOL    HW215327   4.323   0.395   9.931  1.3772  0.4469  2.2840
 1289SOL     OW15328   2.121   0.373   3.884  0.0758  0.7615  0.8326
 1289SOL    HW115329   2.085   0.420   3.810  0.9649  0.6573  0.3304
 1289SOL    HW215330   2.051   0.391   3.948  0.4449  0.3606  1.3563
 1290SOL     OW15331   0.135   2.511   6.569 -0.0849  0.5071 -0.1245
 1290SOL    HW115332   0.054   2.562   6.571  0.4696  1.4100 -0.7732
 1290SOL    HW215333   0.129   2.476   6.658  1.1214  0.3646 -0.1021
 1291SOL     OW15334   2.557   2.176   6.989 -0.6968 -0.1952  0.1209
 1291SOL    HW115335   2.600   2.104   7.034  0.2802  0.0512 -0.4272
 1291SOL    HW215336   2.622   2.246   6.990 -0.2015 -0.6445 -1.1322
 1292SOL     OW15337   4.683   1.909  17.321  0.3259  0.6729  0.1689
 1292SOL    HW115338   4.699   1.912  17.415 -2.3479  2.3659  0.5694
 1292SOL    HW215339   4.661   1.816  17.309  0.4202  0.5425  1.0471
 1293SOL     OW15340   3.658   2.439   6.156  0.4327  0.0038 -0.1219
 1293SOL    HW115341   3.590   2.379   6.124  0.0079  1.5668 -2.1272
 1293SOL    HW215342   3.641   2.522   6.112 -2.6055 -1.1018 -1.0475
 1294SOL     OW15343   1.233   4.088   8.188 -0.0869  0.6040  0.8435
 1294SOL    HW115344   1.171   4.048   8.249 -0.3354 -1.7239 -0.9246
 1294SOL    HW215345   1.316   4.066   8.231  0.1492 -2.0241 -0.9136
 1295SOL     OW15346   1.151   3.256  10.162  0.3593 -0.4876  0.8020
 1295SOL    HW115347   1.125   3.279  10.251 -0.5190  3.3562 -0.4598
 1295SOL    HW215348   1.171   3.164  10.181 -1.1066 -0.8183  0.7288
 1296SOL     OW15349   3.041   3.776   3.537  0.2327  0.0844 -0.0211
 1296SOL    HW115350   2.988   3.843   3.493 -0.4789 -1.9612 -2.2364
 1296SOL    HW215351   3.088   3.738   3.463  0.0107 -2.6394  1.2519
 1297SOL     OW15352   0.488   2.147  13.772 -0.8422 -0.4084 -0.2238
 1297SOL    HW115353   0.429   2.076  13.745 -0.4669 -1.0325  0.5933
 1297SOL    HW215354   0.572   2.128  13.730  0.1498 -0.6117  1.8514
 1298SOL     OW15355   3.670   2.178   8.928 -0.1485  0.1331  1.2003
 1298SOL    HW115356   3.748   2.223   8.960  1.5330 -1.0775 -1.2278
 1298SOL    HW215357   3.607   2.243   8.960  0.4370  0.8619  0.8674
 1299SOL     OW15358   1.302   1.023   5.518 -0.2274 -0.5963  0.1238
 1299SOL    HW115359   1.356   1.059   5.589 -2.6543  2.6965  0.3130
 1299SOL    HW215360   1.232   1.089   5.516 -0.5021 -0.9472 -1.7818
 1300SOL     OW15361   1.715   0.794   4.374 -0.0824 -0.6588  0.1743
 1300SOL    HW115362   1.733   0.797   4.280 -0.7092 -2.9688 -0.0294
 1300SOL    HW215363   1.805   0.799   4.406  0.3361  0.6449 -1.2022
 1301SOL     OW15364   4.282   3.509  10.340  0.1273 -0.0994 -0.2934
 1301SOL    HW115365   4.292   3.414  10.342 -2.6424 -0.3709  1.0692
 1301SOL    HW215366   4.281   3.521  10.245  0.9608  0.9720 -0.1638
 1302SOL     OW15367   0.565   1.855   3.331 -0.1506  0.2652 -0.5740
 1302SOL    HW115368   0.503   1.839   3.259 -2.7381  1.7466  1.3364
 1302SOL    HW215369   0.625   1.784   3.310 -0.0172  0.9163 -2.3970
 1303SOL     OW15370   1.023   1.255   0.139  0.3250 -0.4425  0.1992
 1303SOL    HW115371   1.101   1.203   0.120 -1.1776 -2.1956 -1.1249
 1303SOL    HW215372   1.038   1.292   0.227  2.0885 -1.9451  0.5277
 1304SOL     OW15373   4.368   4.540   6.304  0.2277  0.2741  0.2783
 1304SOL    HW115374   4.329   4.502   6.225 -1.0904  1.6357  0.2676
 1304SOL    HW215375   4.460   4.532   6.278  0.2928  1.4160  0.1435
 1305SOL     OW15376   3.528   1.826  13.997  0.6987  0.3120  0.1415
 1305SOL    HW115377   3.507   1.919  13.988 -1.0490 -0.1561 -0.7080
 1305SOL    HW215378   3.601   1.827  14.059  0.8711 -2.2802 -0.0156
 1306SOL     OW15379   4.558   0.225  16.032 -0.4183 -0.2121  0.7790
 1306SOL    HW115380   4.465   0.203  16.025  0.0125 -2.3151  1.5145
 1306SOL    HW215381   4.602   0.187  15.956 -1.4393 -2.6212  1.3820
 1307SOL     OW15382   4.593   4.468   6.486 -0.5519  0.0789 -0.3202
 1307SOL    HW115383   4.593   4.479   6.581 -2.1399 -0.6565 -0.2379
 1307SOL    HW215384   4.501   4.447   6.472 -0.0486 -1.6342 -1.0416
 1308SOL     OW15385   3.040   4.199   2.992 -0.5101  0.4154  0.0070
 1308SOL    HW115386   3.120   4.150   2.975  0.0738  1.3879 -0.0477
 1308SOL    HW215387   2.981   4.150   2.935 -1.8287 -0.7436  2.3674
 1309SOL     OW15388   0.848   0.910   9.924  0.1777  0.1686  0.4166
 1309SOL    HW115389   0.843   1.005   9.934  1.3001  0.4486 -1.7043
 1309SOL    HW215390   0.766   0.886   9.967 -1.2129  1.2698 -1.6631
 1310SOL     OW15391   2.372   2.743   8.774  0.3484 -0.3136  0.3483
 1310SOL    HW115392   2.360   2.650   8.755  1.4454 -0.7997  2.0044
 1310SOL    HW215393   2.308   2.761   8.843  2.6244 -1.0724  2.6684
 1311SOL     OW15394   2.158   1.027   7.607  0.2018 -0.5190  0.1639
 1311SOL    HW115395   2.212   1.065   7.676 -1.3548  0.1044  1.0357
 1311SOL    HW215396   2.079   1.009   7.657  0.9611  1.4270  2.0609
 1312SOL     OW15397   1.917   4.256   3.960  0.1608 -0.0364 -0.1017
 1312SOL    HW115398   1.941   4.179   4.012 -2.1422 -1.3979 -1.0648
 1312SOL    HW215399   1.850   4.219   3.903 -0.7511  0.0772  0.9032
 1313SOL     OW15400   0.742   3.598   5.334 -0.1458  0.0484  0.2974
 1313SOL    HW115401   0.702   3.528   5.386  1.4452 -2.7034 -2.1790
 1313SOL    HW215402   0.829   3.595   5.372  0.4459  0.5003 -1.0439
 1314SOL     OW15403   1.773   0.752  17.448  0.4045 -0.0903 -0.2766
 1314SOL    HW115404   1.686   0.727  17.480  0.4343 -3.3660 -2.6702
 1314SOL    HW215405   1.827   0.679  17.478  1.1311 -0.0417 -1.4886
 1315SOL     OW15406   2.647   0.812   4.775  0.5263  0.1911 -0.4965
 1315SOL    HW115407   2.564   0.809   4.823  0.3167  1.1840 -0.8052
 1315SOL    HW215408   2.698   0.739   4.811  0.3416  0.7904  0.9533
 1316SOL     OW15409   1.805   0.066  13.822  0.3474 -0.3439  0.1582
 1316SOL    HW115410   1.900   0.070  13.809  0.7756 -0.6027  3.4408
 1316SOL    HW215411   1.786   4.704  13.797  2.0469 -0.5463 -0.4088
 1317SOL     OW15412   1.032   1.712   8.021  0.4710  0.4465 -0.0393
 1317SOL    HW115413   0.971   1.733   7.950 -2.0143 -1.9575  1.3973
 1317SOL    HW215414   1.046   1.795   8.066  1.1234 -0.5992  1.6853
 1318SOL     OW15415   4.192   3.832   3.641 -0.0599 -0.7046 -0.0244
 1318SOL    HW115416   4.222   3.834   3.732  1.7960  1.5325 -0.6765
 1318SOL    HW215417   4.128   3.761   3.650 -1.2392  0.3592 -0.0283
 1319SOL     OW15418   2.527   0.386   1.085 -0.2626 -0.6092  0.0547
 1319SOL    HW115419   2.547   0.472   1.047 -1.9306 -0.5552 -0.7076
 1319SOL    HW215420   2.615   0.358   1.109  0.7854  2.0693 -0.6576
 1320SOL     OW15421   2.453   0.741  10.197  0.4483  0.4112 -0.1102
 1320SOL    HW115422   2.453   0.768  10.289  0.7670 -1.3704  0.4240
 1320SOL    HW215423   2.373   0.779  10.162  1.0315  0.9016 -0.8973
 1321SOL     OW15424   1.614   1.085   3.725  0.2285 -0.5055 -0.4608
 1321SOL    HW115425   1.704   1.085   3.693  0.8131  0.4375  1.1524
 1321SOL    HW215426   1.625   1.017   3.791  0.5192  1.9090  1.9953
 1322SOL     OW15427   1.658   4.722  15.695 -0.1249 -0.8686  0.2587
 1322SOL    HW115428   1.579   4.720  15.641  0.0561 -0.5773 -0.0170
 1322SOL    HW215429   1.712   0.062  15.654 -2.7658  0.8030 -0.4667
 1323SOL     OW15430   0.176   4.605   4.641 -0.3549 -0.1670 -0.6462
 1323SOL    HW115431   0.185   4.643   4.553 -1.4174  2.2846  0.3030
 1323SOL    HW215432   0.164   4.684   4.693  1.0921 -0.4052  0.0446
 1324SOL     OW15433   0.393   3.160   0.024 -0.2104  0.4911  0.2867
 1324SOL    HW115434   0.469   3.114  17.698  0.8865  1.6574  1.1057
 1324SOL    HW215435   0.361   3.087   0.077 -0.0938  0.2024 -0.0404
 1325SOL     OW15436   0.305   1.520   3.483 -0.4361 -0.8769 -0.2238
 1325SOL    HW115437   0.285   1.544   3.393  1.3165  2.0682  0.1803
 1325SOL    HW215438   0.381   1.463   3.474  0.6948  0.5523  0.3025
 1326SOL     OW15439   2.921   3.854   9.837 -0.8648 -0.0099 -0.4388
 1326SOL    HW115440   2.951   3.775   9.882 -0.2386  0.0230 -0.7955
 1326SOL    HW215441   2.975   3.917   9.884 -0.8639 -1.1513  1.0657
 1327SOL     OW15442   4.491   3.701   7.575  0.0122 -0.2900 -0.2551
 1327SOL    HW115443   4.567   3.758   7.565  0.3090 -0.6878 -0.2741
 1327SOL    HW215444   4.535   3.616   7.570  1.3317  0.3961 -0.4580
 1328SOL     OW15445   0.831   2.245   3.479 -0.0382 -0.5383  0.1884
 1328SOL    HW115446   0.783   2.165   3.500  0.5868 -1.1459 -0.7060
 1328SOL    HW215447   0.847   2.228   3.386  1.4142  0.1284  0.3234
 1329SOL     OW15448   1.458   1.853   2.783  0.1546  0.0397 -0.5992
 1329SOL    HW115449   1.463   1.767   2.824  0.6237  0.7178  0.7640
 1329SOL    HW215450   1.551   1.876   2.781 -0.0786  0.8913 -1.5064
 1330SOL     OW15451   1.506   3.250   4.384  0.5012 -0.0571  0.6553
 1330SOL    HW115452   1.529   3.264   4.293 -0.1438 -0.9250  0.3566
 1330SOL    HW215453   1.411   3.244   4.381  0.4273  1.3272  0.4679
 1331SOL     OW15454   0.533   2.895   9.357  0.0010  0.0979  0.0693
 1331SOL    HW115455   0.560   2.877   9.447  1.4930 -0.6694 -0.5411
 1331SOL    HW215456   0.555   2.987   9.343 -1.0151  0.9483  4.2042
 1332SOL     OW15457   3.786   3.220  10.970 -0.5253 -0.2586  0.1363
 1332SOL    HW115458   3.802   3.139  10.922  2.0150 -0.1686  0.8341
 1332SOL    HW215459   3.727   3.186  11.037 -0.4236 -2.0987 -0.7058
 1333SOL     OW15460   2.143   0.562   5.855 -0.3257  0.5868  0.0499
 1333SOL    HW115461   2.076   0.620   5.892  0.2269  2.3604 -1.7625
 1333SOL    HW215462   2.149   0.580   5.761 -2.4361 -1.2205 -0.4346
 1334SOL     OW15463   3.625   2.929   6.790  0.4824 -0.2515 -0.2301
 1334SOL    HW115464   3.547   2.876   6.773 -1.2718  1.6592  1.7982
 1334SOL    HW215465   3.660   2.923   6.702  1.2925 -0.2245  0.0895
 1335SOL     OW15466   3.458   3.736  13.117  0.4982 -0.3938 -0.6503
 1335SOL    HW115467   3.513   3.734  13.039  1.0334  1.1147 -0.3075
 1335SOL    HW215468   3.373   3.731  13.074  0.7847  0.4069 -1.2953
 1336SOL     OW15469   1.830   2.495   7.664 -0.2379 -0.9114 -0.5455
 1336SOL    HW115470   1.774   2.570   7.643 -2.3147 -2.6809 -1.2963
 1336SOL    HW215471   1.858   2.522   7.752  1.1246 -0.9995 -0.9518
 1337SOL     OW15472   4.321   1.280   1.963  0.2055  0.2457 -0.1650
 1337SOL    HW115473   4.387   1.274   1.895  0.4809  0.8439  0.0508
 1337SOL    HW215474   4.281   1.198   1.935  0.3427 -0.2938  1.2049
 1338SOL     OW15475   2.719   1.286   3.804 -0.4799 -0.6329 -0.2868
 1338SOL    HW115476   2.713   1.205   3.854  0.4192  0.1241  1.0260
 1338SOL    HW215477   2.811   1.275   3.777 -0.0852  0.2439  0.7181
 1339SOL     OW15478   1.608   3.755  14.135  0.2441  0.5325  0.4103
 1339SOL    HW115479   1.629   3.722  14.222 -2.4504 -2.3346 -0.0109
 1339SOL    HW215480   1.520   3.791  14.148  0.0713  0.7540 -1.3675
 1340SOL     OW15481   1.095   4.250   3.927  0.0567  0.2926 -0.8963
 1340SOL    HW115482   1.076   4.306   4.002 -3.0699 -0.1182 -1.3841
 1340SOL    HW215483   1.027   4.183   3.937 -1.0965  1.5450 -0.3783
 1341SOL     OW15484   0.361   3.220   8.300 -0.0960  0.2602 -0.0369
 1341SOL    HW115485   0.287   3.277   8.318 -0.5259 -0.3498  0.1476
 1341SOL    HW215486   0.376   3.175   8.383 -3.3176 -0.1996  0.2757
 1342SOL     OW15487   2.194   0.641   4.026 -0.2408 -0.4656 -0.1958
 1342SOL    HW115488   2.132   0.568   4.023  1.6941 -2.0974 -0.3695
 1342SOL    HW215489   2.143   0.713   4.064 -1.5676 -0.5888 -1.7480
 1343SOL     OW15490   0.297   1.577   7.744 -0.2726  0.0294  0.1790
 1343SOL    HW115491   0.296   1.673   7.748 -1.8848  0.0370 -0.5481
 1343SOL    HW215492   0.390   1.563   7.724 -0.8820 -1.2279 -1.7527
 1344SOL     OW15493   4.499   2.292   0.038  0.1527  0.7201 -0.0474
 1344SOL    HW115494   4.526   2.202   0.023 -0.8153 -0.0221  2.7521
 1344SOL    HW215495   4.410   2.271   0.066  0.3272  1.1447  0.8206
 1345SOL     OW15496   4.514   2.908   3.224  0.1620 -0.1665  0.2212
 1345SOL    HW115497   4.493   2.994   3.262  1.6152 -0.0163  0.6720
 1345SOL    HW215498   4.460   2.850   3.278  1.0644  0.4020  1.7386
 1346SOL     OW15499   2.801   3.368   8.460  0.4278  0.3573 -0.0445
 1346SOL    HW115500   2.856   3.316   8.518 -0.3162  0.4269  0.7142
 1346SOL    HW215501   2.859   3.443   8.449  1.5795 -0.7172 -1.3260
 1347SOL     OW15502   3.331   1.445   1.335  0.2890  0.8632  0.1281
 1347SOL    HW115503   3.404   1.506   1.344  1.6838 -0.7371 -0.4724
 1347SOL    HW215504   3.341   1.423   1.243  2.9517 -2.1258  1.1480
 1348SOL     OW15505   3.161   4.039   6.160 -0.2966  0.2664 -0.3019
 1348SOL    HW115506   3.220   4.074   6.093  2.2544 -2.2957  0.6195
 1348SOL    HW215507   3.184   4.084   6.241  0.9495 -4.0902  1.7772
 1349SOL     OW15508   3.487   3.034   1.241 -0.1591  0.3608  0.3884
 1349SOL    HW115509   3.531   3.110   1.203  0.7689 -1.5914 -2.4069
 1349SOL    HW215510   3.410   3.084   1.268 -0.0215  0.6309  0.2746
 1350SOL     OW15511   4.051   2.909   7.987  0.5086  0.2572  0.3728
 1350SOL    HW115512   3.987   2.975   7.960 -1.1968 -1.3389  0.4907
 1350SOL    HW215513   4.128   2.939   7.938  0.6630  0.1934  0.5740
 1351SOL     OW15514   1.722   0.789   7.659 -0.2142  0.3868  0.2724
 1351SOL    HW115515   1.783   0.720   7.681 -0.8169 -0.6360 -1.2364
 1351SOL    HW215516   1.687   0.740   7.584 -1.6348 -0.7791  1.6953
 1352SOL     OW15517   4.226   3.037   4.341 -0.3389 -0.1489 -0.1740
 1352SOL    HW115518   4.292   2.990   4.392  0.9620  0.5629 -1.1702
 1352SOL    HW215519   4.221   3.122   4.384 -1.5322  0.2359 -1.0898
 1353SOL     OW15520   3.326   3.269   3.722 -0.1669  0.1212 -0.0486
 1353SOL    HW115521   3.300   3.305   3.807 -1.3885 -2.8780  0.8415
 1353SOL    HW215522   3.367   3.183   3.731  1.1110  0.8512  0.9756
 1354SOL     OW15523   2.423   2.273   0.295  0.2662 -0.5560 -0.3782
 1354SOL    HW115524   2.374   2.294   0.374 -1.5975  0.6846 -1.8767
 1354SOL    HW215525   2.488   2.342   0.310 -0.0702 -0.8370  2.3275
 1355SOL     OW15526   3.790   1.658   2.436  0.3612 -0.8828  0.0231
 1355SOL    HW115527   3.822   1.572   2.407  0.2998 -0.8485 -0.1467
 1355SOL    HW215528   3.875   1.702   2.442 -0.2564  0.3649 -0.3828
 1356SOL     OW15529   0.200   3.375   2.011  0.4863  0.2584 -0.0392
 1356SOL    HW115530   0.134   3.306   2.012  0.3120  0.4043 -1.3831
 1356SOL    HW215531   0.269   3.334   2.062  0.4528  1.5191  1.0160
 1357SOL     OW15532   1.377   3.318   6.690 -0.3744  0.0837 -0.1342
 1357SOL    HW115533   1.298   3.371   6.703 -0.2238 -0.0734  1.4633
 1357SOL    HW215534   1.390   3.320   6.595  3.5131 -1.0244  0.3613
 1358SOL     OW15535   0.998   3.130  10.516  0.4408 -0.3014 -0.1211
 1358SOL    HW115536   1.093   3.131  10.518  0.4333 -1.2103  1.1157
 1358SOL    HW215537   0.995   3.055  10.576  1.3149  0.4656  0.8844
 1359SOL     OW15538   0.973   4.258  14.775 -0.0406  0.0688  0.4275
 1359SOL    HW115539   0.887   4.216  14.776  0.4238 -0.8751  0.5424
 1359SOL    HW215540   1.035   4.190  14.748 -1.4834 -1.2349  0.4561
 1360SOL     OW15541   2.130   1.369   3.783 -0.3329 -0.0219 -0.3260
 1360SOL    HW115542   2.169   1.288   3.815 -0.8576  0.4634  1.5053
 1360SOL    HW215543   2.040   1.349   3.809  0.1760 -1.3135  0.4158
 1361SOL     OW15544   2.032   4.107   7.179 -0.2620 -0.0938 -0.4844
 1361SOL    HW115545   1.971   4.130   7.249 -0.4637 -1.4168 -0.2140
 1361SOL    HW215546   2.045   4.014   7.200  1.7420  0.2436 -0.1993
 1362SOL     OW15547   2.884   0.487   3.249 -1.0163  0.5329  0.0525
 1362SOL    HW115548   2.931   0.556   3.203 -1.1243  1.3433  1.1598
 1362SOL    HW215549   2.902   0.404   3.204 -1.1014  0.0502  0.8953
 1363SOL     OW15550   4.180   2.792   3.378 -0.1356  0.2404 -0.0515
 1363SOL    HW115551   4.137   2.877   3.374 -0.8222 -0.1827 -1.6458
 1363SOL    HW215552   4.109   2.751   3.429 -1.6887  1.5460 -1.1602
 1364SOL     OW15553   1.284   1.509   5.476 -0.3387 -0.4294 -0.3579
 1364SOL    HW115554   1.286   1.419   5.444  1.9908 -1.1947  1.9391
 1364SOL    HW215555   1.375   1.526   5.501 -0.5468  1.9112 -1.2140
 1365SOL     OW15556   1.066   4.406   1.827 -0.8325 -0.2456 -0.7701
 1365SOL    HW115557   1.160   4.420   1.833 -0.2211 -3.8810 -1.9196
 1365SOL    HW215558   1.039   4.486   1.872 -2.7280 -1.5053  0.3481
 1366SOL     OW15559   4.508   3.472  16.647  0.2769 -0.5866 -0.5518
 1366SOL    HW115560   4.565   3.492  16.573  0.9144  0.5752  0.2427
 1366SOL    HW215561   4.538   3.382  16.658 -0.2597 -0.6194  0.6290
 1367SOL     OW15562   4.273   1.573   4.515  0.0984 -0.3366 -0.3919
 1367SOL    HW115563   4.281   1.607   4.426 -1.7557  0.1555 -0.3661
 1367SOL    HW215564   4.208   1.631   4.555  0.6600  0.3029 -0.3976
 1368SOL     OW15565   2.844   3.991   4.989  0.3148  0.2251 -0.3791
 1368SOL    HW115566   2.902   4.039   4.929  1.0530 -0.2313 -0.0318
 1368SOL    HW215567   2.878   3.903   4.971 -0.6544 -0.4315  0.9546
 1369SOL     OW15568   4.415   3.870   0.827  0.0589 -0.1547  0.1913
 1369SOL    HW115569   4.504   3.860   0.860  1.2030 -0.7764 -3.0754
 1369SOL    HW215570   4.390   3.781   0.800 -1.8106  0.6114 -0.6394
 1370SOL     OW15571   3.449   4.115   2.289 -1.1057 -0.2842 -0.8914
 1370SOL    HW115572   3.478   4.153   2.206  0.4986 -0.8823 -0.6136
 1370SOL    HW215573   3.489   4.028   2.283  0.4261  0.3208  0.7605
 1371SOL     OW15574   0.630   1.895   7.164  0.5383  0.1859 -0.2996
 1371SOL    HW115575   0.682   1.936   7.096 -0.5516  2.8354  0.4707
 1371SOL    HW215576   0.688   1.906   7.240  0.2503  2.0701 -0.3511
 1372SOL     OW15577   1.521   2.936   7.578 -0.0528  0.0116  0.2818
 1372SOL    HW115578   1.564   3.011   7.539  0.8891 -1.3974 -1.3804
 1372SOL    HW215579   1.507   2.981   7.661  0.1111  1.6582 -0.5903
 1373SOL     OW15580   4.585   3.017   8.782  0.2833 -0.4636  0.0025
 1373SOL    HW115581   4.584   2.948   8.715 -1.1004 -2.1525  1.7580
 1373SOL    HW215582   4.623   2.973   8.858  1.3739  0.1262 -0.2031
 1374SOL     OW15583   4.383   1.162  15.718 -0.1882 -0.2803  0.0585
 1374SOL    HW115584   4.337   1.079  15.723  0.2233 -0.4194  1.4032
 1374SOL    HW215585   4.307   1.220  15.708  1.0785  1.3685 -0.1830
 1375SOL     OW15586   3.798   0.269   1.939  0.0354 -0.4875 -0.1591
 1375SOL    HW115587   3.864   0.209   1.974  0.6217 -0.5064 -1.3004
 1375SOL    HW215588   3.822   0.278   1.847  0.4769 -3.5829 -0.3201
 1376SOL     OW15589   4.477   0.765   1.884  0.0950  0.3903  0.5907
 1376SOL    HW115590   4.434   0.822   1.820  2.5372  2.5743  0.9319
 1376SOL    HW215591   4.539   0.826   1.922  1.4533 -1.6474  1.6476
 1377SOL     OW15592   3.751   4.674   2.194  0.7573  0.4085 -0.0445
 1377SOL    HW115593   3.824   4.724   2.231  1.0949 -0.0914 -0.0282
 1377SOL    HW215594   3.763   4.698   2.102 -0.6458 -1.6003 -0.7462
 1378SOL     OW15595   0.371   3.375   1.737 -0.1630 -0.1723 -0.0107
 1378SOL    HW115596   0.293   3.356   1.685 -0.3478  0.5411  0.0073
 1378SOL    HW215597   0.378   3.464   1.702  0.7627 -1.0066 -1.9049
 1379SOL     OW15598   4.231   2.442  11.688 -0.0050 -0.4153 -0.2258
 1379SOL    HW115599   4.245   2.428  11.594 -1.0782 -0.4392 -0.3776
 1379SOL    HW215600   4.286   2.372  11.722 -0.7974 -0.8687  0.1193
 1380SOL     OW15601   3.940   3.268   8.297 -0.2101 -0.0027 -0.0036
 1380SOL    HW115602   4.023   3.305   8.266 -1.4853  2.8456 -0.0926
 1380SOL    HW215603   3.874   3.311   8.242  2.1892  2.2985 -1.0985
 1381SOL     OW15604   3.363   3.483  13.189 -0.0698 -0.1412 -0.2629
 1381SOL    HW115605   3.307   3.452  13.118  0.6059  2.0565 -1.7393
 1381SOL    HW215606   3.381   3.575  13.168  0.6319  0.4200  2.7692
 1382SOL     OW15607   4.231   3.657   2.967  0.3560 -0.0810 -0.0139
 1382SOL    HW115608   4.238   3.614   2.881 -0.5936  1.3817 -0.8287
 1382SOL    HW215609   4.163   3.724   2.955  1.7405  1.4571  0.8771
 1383SOL     OW15610   2.470   3.020   8.750 -0.0795 -0.1521  0.1957
 1383SOL    HW115611   2.517   2.999   8.669  1.7076  1.3213  0.8338
 1383SOL    HW215612   2.428   2.936   8.767 -0.1877 -0.1322  0.0223
 1384SOL     OW15613   1.492   1.025   6.575 -0.7009  0.2192 -0.1484
 1384SOL    HW115614   1.558   1.063   6.516  0.7216  1.2918  2.1340
 1384SOL    HW215615   1.526   0.935   6.581 -0.2135  0.2828 -1.8242
 1385SOL     OW15616   4.408   0.042   5.649  0.1603 -0.1225  0.2243
 1385SOL    HW115617   4.486   0.028   5.704  0.2456 -0.9615 -0.1087
 1385SOL    HW215618   4.447   0.068   5.565  2.6017  3.1382  2.3628
 1386SOL     OW15619   3.245   0.902  12.292 -0.5192 -0.3062 -0.0138
 1386SOL    HW115620   3.338   0.901  12.268 -0.5364  2.1149 -0.2002
 1386SOL    HW215621   3.211   0.886  12.205 -1.0705 -1.1221  0.3502
 1387SOL     OW15622   1.596   3.724   2.278 -0.4124  0.1817  0.8122
 1387SOL    HW115623   1.576   3.635   2.307 -0.9931  0.0269 -0.0630
 1387SOL    HW215624   1.525   3.768   2.325  1.9154  2.6770  2.0130
 1388SOL     OW15625   3.762   1.908   2.613 -0.0626  0.0553  0.1108
 1388SOL    HW115626   3.672   1.910   2.647 -0.0996 -1.9743  0.1409
 1388SOL    HW215627   3.757   1.827   2.563 -1.6467  0.1619  0.0710
 1389SOL     OW15628   0.607   0.521  13.407  0.2853  0.1419  0.2149
 1389SOL    HW115629   0.651   0.485  13.331 -1.4147 -0.2404 -0.5874
 1389SOL    HW215630   0.680   0.530  13.469  0.8094  1.7483 -0.6272
 1390SOL     OW15631   0.577   3.046   2.276 -0.4966  0.0513 -0.1095
 1390SOL    HW115632   0.626   3.006   2.203 -1.5136 -0.5992 -0.4363
 1390SOL    HW215633   0.501   2.988   2.271  1.9349 -3.1240 -0.8334
 1391SOL     OW15634   1.627   3.678  17.037 -0.2201  0.6798  0.2759
 1391SOL    HW115635   1.622   3.773  17.035 -0.8093  0.7182  3.0772
 1391SOL    HW215636   1.608   3.676  17.131  1.0606  1.3289  0.5509
 1392SOL     OW15637   4.687   4.078   7.924  0.3569  0.4031 -0.5538
 1392SOL    HW115638   0.048   4.096   7.953  0.4549 -1.0910  0.0774
 1392SOL    HW215639   4.636   4.143   7.972  2.1332  0.0357  1.7913
 1393SOL     OW15640   1.050   3.384  10.397 -0.2238 -0.5383 -0.8470
 1393SOL    HW115641   1.024   3.460  10.448  1.1376 -1.1687  0.7882
 1393SOL    HW215642   1.007   3.309  10.438  2.6563 -2.5196 -1.3800
 1394SOL     OW15643   1.119   0.334   0.434  0.6096  0.1319  1.0651
 1394SOL    HW115644   1.118   0.411   0.378 -0.0969  0.0731  0.9960
 1394SOL    HW215645   1.068   0.363   0.510  0.8038  0.5290  1.0421
 1395SOL     OW15646   1.284   0.416   4.252 -0.5099  0.2374 -0.1750
 1395SOL    HW115647   1.221   0.443   4.320 -0.8431  2.7100 -1.4812
 1395SOL    HW215648   1.307   0.325   4.274  1.2719  0.3229 -1.7123
 1396SOL     OW15649   0.169   2.160   1.756 -0.3160  0.0298 -0.2147
 1396SOL    HW115650   0.120   2.219   1.814  0.8623  0.7574  0.0303
 1396SOL    HW215651   0.212   2.093   1.809  1.4306 -0.4937 -2.3401
 1397SOL     OW15652   2.000   2.473   4.421  0.2096 -0.0019 -0.2051
 1397SOL    HW115653   1.948   2.541   4.379  1.5360  2.1003  1.5159
 1397SOL    HW215654   1.946   2.397   4.398  0.3052 -0.5378  1.3330
 1398SOL     OW15655   0.234   1.263  12.287  0.0044  0.2211  0.3689
 1398SOL    HW115656   0.271   1.336  12.237  1.4305 -0.8310 -0.0907
 1398SOL    HW215657   0.178   1.311  12.349 -1.5462  1.0909 -1.7143
 1399SOL     OW15658   0.795   3.894   7.902  0.1159 -0.3342  0.0841
 1399SOL    HW115659   0.861   3.959   7.878 -1.8674  1.2953 -1.0075
 1399SOL    HW215660   0.766   3.915   7.991  0.5834  0.7207 -0.0114
 1400SOL     OW15661   0.113   2.597   4.104  0.2945 -0.0002  0.3838
 1400SOL    HW115662   0.129   2.579   4.011 -3.1535  0.8837 -0.3847
 1400SOL    HW215663   0.023   2.622   4.086  1.4385  2.8761 -1.4503
 1401SOL     OW15664   1.766   1.461   1.404  0.3174 -0.3239  0.1520
 1401SOL    HW115665   1.814   1.379   1.392  0.8688 -0.0180  0.2923
 1401SOL    HW215666   1.681   1.420   1.422  0.3152  0.2888  1.5508
 1402SOL     OW15667   3.289   2.631   5.809  1.1201 -0.6319  0.2991
 1402SOL    HW115668   3.249   2.715   5.784 -3.1222 -2.7036  0.1754
 1402SOL    HW215669   3.306   2.597   5.722  0.3478  1.2841 -0.6119
 1403SOL     OW15670   0.719   1.101   6.382 -0.4965  0.4943 -0.6618
 1403SOL    HW115671   0.803   1.077   6.345 -0.3625  1.2128 -0.8228
 1403SOL    HW215672   0.752   1.138   6.464 -1.6463  0.0281  0.0203
 1404SOL     OW15673   2.413   2.896  17.416 -0.3404 -0.0903  0.2148
 1404SOL    HW115674   2.337   2.840  17.401 -2.2240  2.3869  0.5794
 1404SOL    HW215675   2.393   2.959  17.347  2.9915  0.4128 -0.2936
 1405SOL     OW15676   1.142   3.852   4.863 -0.2074 -0.1828  0.0896
 1405SOL    HW115677   1.211   3.828   4.925  0.9513  0.9390 -0.7664
 1405SOL    HW215678   1.078   3.885   4.926 -0.4072  1.4290 -0.9645
 1406SOL     OW15679   2.099   4.687   6.694  0.2946  0.6742 -0.4231
 1406SOL    HW115680   2.076   4.595   6.709  1.9636  0.1111 -1.3306
 1406SOL    HW215681   2.122   4.720   6.781  0.3080  1.5674 -0.7660
 1407SOL     OW15682   4.094   2.502   1.699  0.1792  0.7260 -0.3695
 1407SOL    HW115683   4.156   2.575   1.703  0.8954 -0.1229  3.3042
 1407SOL    HW215684   4.015   2.554   1.684 -0.2564  0.3979  0.7956
 1408SOL     OW15685   1.260   4.125   4.250  0.0798 -0.0959 -0.1977
 1408SOL    HW115686   1.173   4.162   4.266  0.6861  0.4354  1.9312
 1408SOL    HW215687   1.313   4.199   4.220 -1.8155  1.4533  0.2583
 1409SOL     OW15688   0.973   4.221   1.182 -0.3837  0.2113 -0.1720
 1409SOL    HW115689   0.883   4.187   1.184 -0.4521  0.4527  0.8656
 1409SOL    HW215690   1.017   4.181   1.107  1.1299 -2.2317  2.0169
 1410SOL     OW15691   0.600   2.799   7.458  0.0411 -0.2769  0.1417
 1410SOL    HW115692   0.562   2.831   7.376  0.6731  3.1613  1.1786
 1410SOL    HW215693   0.690   2.834   7.455  0.2107 -0.6472  1.0503
 1411SOL     OW15694   1.668   2.867   5.428 -0.0910 -0.7152  0.2986
 1411SOL    HW115695   1.636   2.814   5.355  3.4711  0.1923 -1.8714
 1411SOL    HW215696   1.729   2.800   5.458  0.7364  0.3276  0.9353
 1412SOL     OW15697   3.743   2.805   1.203  0.1231 -0.1845 -0.6883
 1412SOL    HW115698   3.824   2.848   1.231 -1.2931  0.5057  2.3380
 1412SOL    HW215699   3.712   2.865   1.135 -0.2457 -0.4775 -0.7778
 1413SOL     OW15700   2.345   1.509  12.360  0.2151 -0.8204  0.0076
 1413SOL    HW115701   2.255   1.514  12.329 -0.5531 -2.3263  2.0222
 1413SOL    HW215702   2.361   1.415  12.348  0.7549 -0.8752  1.2349
 1414SOL     OW15703   2.935   3.542   6.875  0.6303  0.1431  0.1178
 1414SOL    HW115704   3.019   3.587   6.871 -0.6919  2.4900 -0.5811
 1414SOL    HW215705   2.973   3.457   6.901 -0.7616 -0.9113 -1.3003
 1415SOL     OW15706   2.847   4.061   2.846  0.0797  0.1783 -0.0643
 1415SOL    HW115707   2.803   4.095   2.768 -0.1822  0.9876  0.4300
 1415SOL    HW215708   2.906   3.994   2.813  2.2031  0.1178  3.8183
 1416SOL     OW15709   2.546   0.723  13.125  0.0811  0.1557 -0.2200
 1416SOL    HW115710   2.538   0.808  13.167 -0.1817 -0.4942  1.0519
 1416SOL    HW215711   2.553   0.747  13.032 -0.7826  1.3913  0.0414
 1417SOL     OW15712   2.537   3.654   3.424 -0.3161  0.8222  0.0388
 1417SOL    HW115713   2.598   3.580   3.424 -1.7553 -0.3593 -1.4922
 1417SOL    HW215714   2.579   3.708   3.491  0.4703  0.6594 -0.3249
 1418SOL     OW15715   4.282   2.116  13.058 -0.6796 -0.1072 -0.1365
 1418SOL    HW115716   4.200   2.068  13.052 -1.2230  0.6801  0.9546
 1418SOL    HW215717   4.299   2.156  12.972  0.0610  0.7527  0.3952
 1419SOL     OW15718   1.221   0.540   8.534 -0.0483 -0.1472 -0.6330
 1419SOL    HW115719   1.255   0.455   8.563  0.0173  0.1190  0.0649
 1419SOL    HW215720   1.223   0.529   8.439 -1.4611 -2.3193 -0.4113
 1420SOL     OW15721   0.722   0.900  16.646 -0.0800 -0.6324  0.1422
 1420SOL    HW115722   0.813   0.897  16.677 -0.4445  0.5382  1.3410
 1420SOL    HW215723   0.716   0.993  16.623  0.6283 -0.9184 -1.2100
 1421SOL     OW15724   2.464   1.404   4.669 -0.1899  0.4841  0.0448
 1421SOL    HW115725   2.456   1.499   4.678 -0.2397  0.1306  3.7380
 1421SOL    HW215726   2.558   1.400   4.653  0.0114  0.4162  1.2747
 1422SOL     OW15727   1.627   0.555   5.857  0.3094 -0.1772 -0.0947
 1422SOL    HW115728   1.603   0.468   5.890 -2.0889 -0.1448 -1.7886
 1422SOL    HW215729   1.707   0.577   5.906 -1.0701  2.1181  1.1012
 1423SOL     OW15730   0.567   1.329   6.384  0.0548 -0.6084  0.5900
 1423SOL    HW115731   0.614   1.268   6.327 -2.0674 -2.0501  0.3813
 1423SOL    HW215732   0.626   1.344   6.457  0.9770  1.5782 -0.5956
 1424SOL     OW15733   1.611   1.442   1.140  0.2064  0.5658  0.6562
 1424SOL    HW115734   1.571   1.418   1.057 -0.9323  1.2625  1.0016
 1424SOL    HW215735   1.564   1.387   1.203  3.7422 -0.4530  2.3984
 1425SOL     OW15736   3.926   0.452  15.076  0.4405  0.4898  0.0312
 1425SOL    HW115737   3.867   0.377  15.090  0.3309  0.9028  1.7951
 1425SOL    HW215738   3.872   0.498  15.011  0.7158  0.5797 -0.1337
 1426SOL     OW15739   3.984   0.474  17.649  0.5500 -0.3424 -0.3702
 1426SOL    HW115740   4.009   0.469   0.030 -1.6064 -1.3580  0.1724
 1426SOL    HW215741   3.971   0.568  17.639  0.8228 -0.4432 -1.7646
 1427SOL     OW15742   4.479   1.915   9.172 -0.6292 -0.1829  0.1047
 1427SOL    HW115743   4.503   1.979   9.239 -1.7046 -0.1005  0.4120
 1427SOL    HW215744   4.399   1.885   9.216  0.8406 -2.2971  1.3469
 1428SOL     OW15745   1.610   0.028   2.141 -0.3470  0.0123 -0.0680
 1428SOL    HW115746   1.557   0.097   2.181  1.3032  0.4829  1.3052
 1428SOL    HW215747   1.546   4.698   2.100 -0.8483  0.8690 -0.4863
 1429SOL     OW15748   1.134   4.715   3.734  0.6916 -0.9518  0.6621
 1429SOL    HW115749   1.147   4.696   3.827 -1.9756 -1.0492  1.0142
 1429SOL    HW215750   1.221   4.720   3.693 -0.7712 -0.4504 -2.3607
 1430SOL     OW15751   0.638   2.256   5.042  0.3303  0.2726 -0.1876
 1430SOL    HW115752   0.669   2.347   5.039 -0.9316  0.7721  1.9880
 1430SOL    HW215753   0.566   2.268   5.103  0.3567 -0.5475  0.0016
 1431SOL     OW15754   0.235   1.651   4.097 -0.4054  0.1270  0.5421
 1431SOL    HW115755   0.329   1.658   4.112 -0.2512  2.3602 -1.4667
 1431SOL    HW215756   0.198   1.669   4.184 -0.4486  0.4090  0.4668
 1432SOL     OW15757   3.354   2.907   4.627  0.0898  0.5436 -0.4359
 1432SOL    HW115758   3.447   2.927   4.620  0.1355  0.0988 -1.0662
 1432SOL    HW215759   3.329   2.919   4.536  0.0427 -1.4617 -0.6956
 1433SOL     OW15760   2.428   0.644   4.131 -0.0517 -0.2387 -0.0444
 1433SOL    HW115761   2.342   0.648   4.090  0.5367 -1.6326 -1.3904
 1433SOL    HW215762   2.479   0.691   4.064  2.1926 -2.1417  0.3304
 1434SOL     OW15763   2.424   0.104   6.135  0.1418 -0.4941 -0.0738
 1434SOL    HW115764   2.440   0.123   6.042 -0.4223  0.7901  0.0828
 1434SOL    HW215765   2.379   0.021   6.143 -0.8666  0.1739  1.1948
 1435SOL     OW15766   2.373   3.063   1.543 -0.0204  0.4985 -0.4656
 1435SOL    HW115767   2.299   3.003   1.543 -0.4919  1.0783 -2.9075
 1435SOL    HW215768   2.445   3.014   1.582 -1.4953 -0.1965  1.3687
 1436SOL     OW15769   2.377   4.138   8.005 -0.4253  0.8375 -0.0073
 1436SOL    HW115770   2.448   4.199   8.028  0.7117 -0.0998 -1.0433
 1436SOL    HW215771   2.391   4.129   7.911 -1.7646 -1.2869  0.0087
 1437SOL     OW15772   1.628   2.624  11.267 -0.3999  0.3814  0.2516
 1437SOL    HW115773   1.552   2.590  11.314  0.1465 -0.3377  0.6190
 1437SOL    HW215774   1.604   2.600  11.178  1.1474  1.6402 -0.5180
 1438SOL     OW15775   0.689   3.566   2.744 -0.1449 -0.4145 -0.2795
 1438SOL    HW115776   0.784   3.568   2.760 -0.6068 -0.6575  2.5247
 1438SOL    HW215777   0.669   3.646   2.793  0.6622 -2.2464  3.0635
 1439SOL     OW15778   1.705   3.432   2.050 -0.6047  0.1096  0.5379
 1439SOL    HW115779   1.784   3.468   2.092  0.4325  0.2943 -1.5765
 1439SOL    HW215780   1.683   3.366   2.116  1.6877 -0.7148  0.4708
 1440SOL     OW15781   0.928   2.801   3.512 -0.1846 -0.1762 -0.5085
 1440SOL    HW115782   0.861   2.841   3.568  0.2075  0.3987 -0.4441
 1440SOL    HW215783   0.981   2.877   3.487  2.2080 -0.9304  2.2091
 1441SOL     OW15784   4.655   2.117   5.944  0.0624 -0.6681 -0.1286
 1441SOL    HW115785   0.003   2.072   5.906 -0.9484 -0.4992 -2.3347
 1441SOL    HW215786   4.627   2.058   6.014 -1.1284 -1.5465 -1.3499
 1442SOL     OW15787   0.844   4.335   2.157 -0.5520  0.4807 -0.2878
 1442SOL    HW115788   0.772   4.293   2.112  0.1395  0.5222 -1.4242
 1442SOL    HW215789   0.913   4.295   2.104 -0.1860  0.8435 -0.0967
 1443SOL     OW15790   1.437   2.902  11.015  0.0874  0.1160 -0.8000
 1443SOL    HW115791   1.402   2.950  10.940 -1.6070 -0.4716 -0.3994
 1443SOL    HW215792   1.518   2.949  11.034 -0.5697  0.0763  2.0619
 1444SOL     OW15793   2.882   2.322   5.825  0.0146 -0.1158 -0.1248
 1444SOL    HW115794   2.909   2.250   5.768  0.1275 -0.1105 -0.0781
 1444SOL    HW215795   2.885   2.279   5.911  1.4312 -2.8847 -1.5727
 1445SOL     OW15796   0.890   3.356   8.838  0.7379 -0.4243  0.4341
 1445SOL    HW115797   0.870   3.287   8.902 -0.3813 -0.2613  0.2540
 1445SOL    HW215798   0.972   3.327   8.797 -0.9265 -3.9207 -0.4195
 1446SOL     OW15799   1.818   2.591   2.055  0.5559 -0.4040 -0.5716
 1446SOL    HW115800   1.790   2.603   2.146 -0.3923 -1.1557 -0.7643
 1446SOL    HW215801   1.877   2.666   2.042 -0.8165  0.7486 -0.1347
 1447SOL     OW15802   0.202   1.347  13.344 -0.4131 -0.1613  1.0653
 1447SOL    HW115803   0.215   1.387  13.258 -1.5057 -2.4844 -0.1831
 1447SOL    HW215804   0.178   1.258  13.318  2.1099 -0.6683  0.4633
 1448SOL     OW15805   3.805   1.264   4.149 -0.5565 -0.1649  0.2003
 1448SOL    HW115806   3.872   1.240   4.213 -0.0743 -3.0186 -1.3920
 1448SOL    HW215807   3.805   1.181   4.102  1.2766 -0.9081  1.4909
 1449SOL     OW15808   1.930   0.092   6.513  0.6534  0.0684 -0.2419
 1449SOL    HW115809   1.983   0.160   6.472  0.4803 -0.9330 -2.1260
 1449SOL    HW215810   1.995   0.048   6.568  0.7597 -1.7999 -1.8805
 1450SOL     OW15811   0.773   3.349   4.474  0.6600 -0.2943  0.3852
 1450SOL    HW115812   0.713   3.390   4.537 -0.7049 -1.2393 -0.2839
 1450SOL    HW215813   0.742   3.258   4.478  1.6785 -0.6920 -0.9735
 1451SOL     OW15814   2.576   3.469   8.560 -0.1634 -0.4027  0.3122
 1451SOL    HW115815   2.646   3.437   8.504 -0.7563  3.0634 -2.4026
 1451SOL    HW215816   2.616   3.451   8.646 -0.1538 -1.0446  0.1739
 1452SOL     OW15817   2.247   4.677   6.926  0.2836  0.2329  0.3395
 1452SOL    HW115818   2.270   4.585   6.935  1.8831  0.7054  1.1888
 1452SOL    HW215819   2.195   4.702   7.003 -1.9658  1.1481 -1.4850
 1453SOL     OW15820   3.298   4.542   5.687  0.2438 -0.3782  0.0325
 1453SOL    HW115821   3.305   4.554   5.592  0.7089  0.1636  0.1336
 1453SOL    HW215822   3.386   4.556   5.721 -0.0535  2.6312 -0.4018
 1454SOL     OW15823   1.694   2.371   8.587 -0.2865  0.3712 -0.0692
 1454SOL    HW115824   1.714   2.280   8.605 -2.8269 -0.2823 -0.4518
 1454SOL    HW215825   1.775   2.403   8.548  0.2206  0.3849  1.0212
 1455SOL     OW15826   1.482   4.032   3.591 -0.0820  0.1738  0.2861
 1455SOL    HW115827   1.463   4.074   3.508 -2.5055  0.6772  1.1032
 1455SOL    HW215828   1.411   4.068   3.645  0.2286  0.0977  0.7438
 1456SOL     OW15829   2.771   4.568   2.882  0.2740 -0.3185 -0.2142
 1456SOL    HW115830   2.822   4.565   2.963  0.5744  0.8456 -0.3486
 1456SOL    HW215831   2.839   4.559   2.816  2.7305  1.2763  2.0949
 1457SOL     OW15832   4.547   4.509   3.667 -0.3246  0.2494 -0.4129
 1457SOL    HW115833   4.621   4.448   3.660 -1.2137 -0.8986  0.1897
 1457SOL    HW215834   4.566   4.567   3.594 -1.8460  1.7901  0.4282
 1458SOL     OW15835   4.672   1.439  12.257 -0.3619  0.2403 -0.3834
 1458SOL    HW115836   4.634   1.362  12.299  1.5100  0.3431  1.4703
 1458SOL    HW215837   4.593   1.473  12.214 -1.3016  0.1603  1.2928
 1459SOL     OW15838   3.000   0.544   6.389 -0.2237 -0.1032  0.1562
 1459SOL    HW115839   3.040   0.499   6.315 -1.6640 -3.1110  1.2003
 1459SOL    HW215840   3.081   0.589   6.413 -0.7227  1.0136 -0.2348
 1460SOL     OW15841   1.260   2.033   3.830 -0.0915 -0.7365 -0.0479
 1460SOL    HW115842   1.333   1.986   3.869  0.7066  0.6205  0.1033
 1460SOL    HW215843   1.189   1.974   3.855  1.5970 -2.5346  0.4306
 1461SOL     OW15844   2.779   3.729  12.795 -0.2118 -0.2514 -0.4369
 1461SOL    HW115845   2.736   3.681  12.725 -0.4936 -3.0955  1.6835
 1461SOL    HW215846   2.718   3.717  12.868  1.2468 -1.1902  0.6298
 1462SOL     OW15847   3.659   4.214   0.921 -0.3126  0.1677  0.2933
 1462SOL    HW115848   3.600   4.160   0.973 -1.2033  0.3063 -0.5748
 1462SOL    HW215849   3.734   4.221   0.980  0.1126  0.4767 -0.2852
 1463SOL     OW15850   3.271   4.200   4.948  0.1488  0.4210 -0.3681
 1463SOL    HW115851   3.186   4.213   4.906  0.0255 -0.6469 -0.4369
 1463SOL    HW215852   3.257   4.255   5.026  1.4274  1.7246 -1.0417
 1464SOL     OW15853   2.515   4.306  11.562 -0.2089  0.0236  0.2677
 1464SOL    HW115854   2.556   4.236  11.512  0.5212  0.8049 -0.2164
 1464SOL    HW215855   2.594   4.348  11.594  0.2422 -0.9903  0.4717
 1465SOL     OW15856   0.080   1.396  14.756  0.0157 -0.0494 -0.1007
 1465SOL    HW115857   0.141   1.411  14.828 -1.5391  0.3909  1.1222
 1465SOL    HW215858   0.002   1.410  14.808 -1.2633 -0.5423 -1.9003
 1466SOL     OW15859   1.999   1.683   6.023 -0.2298 -0.1858 -0.1858
 1466SOL    HW115860   2.037   1.760   6.064  2.2299 -0.0412 -2.7843
 1466SOL    HW215861   1.909   1.706   6.001 -1.1214 -2.9115  0.5536
 1467SOL     OW15862   4.636   4.537   5.636 -0.5202 -0.0476 -0.1857
 1467SOL    HW115863   4.585   4.544   5.717 -0.1019 -0.3644  0.1072
 1467SOL    HW215864   4.654   4.444   5.629  0.6616  0.0025  2.3409
 1468SOL     OW15865   4.724   4.317  14.767 -0.1676  0.0303  0.1225
 1468SOL    HW115866   4.709   4.226  14.795  2.2692 -0.4757 -0.2062
 1468SOL    HW215867   0.030   4.368  14.841  2.2179  0.6501 -1.3830
 1469SOL     OW15868   4.396   4.424   7.070  1.1114  0.0338  0.2368
 1469SOL    HW115869   4.390   4.519   7.082  1.1996  0.2560 -1.5389
 1469SOL    HW215870   4.411   4.410   6.977  0.5189  1.1011 -0.0143
 1470SOL     OW15871   1.406   0.585   5.068  0.0610  0.1146  0.1229
 1470SOL    HW115872   1.469   0.520   5.100  0.8210  0.3083 -0.9583
 1470SOL    HW215873   1.377   0.540   4.989 -0.0665 -0.9867  0.7994
 1471SOL     OW15874   4.387   1.841  13.608 -0.1123 -0.0503 -0.2215
 1471SOL    HW115875   4.478   1.827  13.585  0.2369  2.6680 -0.5256
 1471SOL    HW215876   4.349   1.813  13.525 -4.0431  1.1833  1.1623
 1472SOL     OW15877   4.607   2.593   6.555  0.5128 -0.3881 -0.1598
 1472SOL    HW115878   4.580   2.506   6.583  0.2460  0.3953  1.9977
 1472SOL    HW215879   4.533   2.614   6.498  1.6887  0.4572 -1.3802
 1473SOL     OW15880   3.932   4.039   2.744  0.2911 -0.5112  0.0762
 1473SOL    HW115881   3.960   4.130   2.741  0.2010 -0.5085 -0.7748
 1473SOL    HW215882   3.849   4.049   2.697  1.4020  0.5543 -1.6588
 1474SOL     OW15883   4.547   1.455   6.600 -0.6327  0.0936  0.3403
 1474SOL    HW115884   4.643   1.457   6.597 -0.6038  1.9655  2.7103
 1474SOL    HW215885   4.531   1.531   6.545 -0.7229 -1.2552 -1.5031
 1475SOL     OW15886   3.942   3.132   6.110 -1.2105  0.3780 -0.0259
 1475SOL    HW115887   3.911   3.042   6.106  1.6999 -0.5846 -1.0597
 1475SOL    HW215888   4.037   3.129   6.122 -1.4552 -0.0254  1.7473
 1476SOL     OW15889   0.997   2.275   2.657 -0.3359  0.5041  0.3761
 1476SOL    HW115890   0.916   2.318   2.684 -0.9609 -0.6808  0.3689
 1476SOL    HW215891   1.010   2.209   2.725 -0.5972 -0.0809 -0.1402
 1477SOL     OW15892   2.071   1.256   4.949  0.6330 -0.2749  0.2924
 1477SOL    HW115893   2.003   1.266   5.016 -0.9076 -1.3133 -1.1360
 1477SOL    HW215894   2.124   1.185   4.986 -0.2100 -0.5644  0.9338
 1478SOL     OW15895   4.059   2.831   4.791 -0.7716 -0.2705  0.1877
 1478SOL    HW115896   4.041   2.809   4.883  0.1131 -0.4544  0.3132
 1478SOL    HW215897   4.093   2.920   4.792 -0.6147 -0.3080 -3.6783
 1479SOL     OW15898   1.830   3.732   7.427 -0.2854 -0.0118 -0.3305
 1479SOL    HW115899   1.791   3.777   7.502 -0.9765  0.6253 -1.0655
 1479SOL    HW215900   1.924   3.734   7.445 -0.5246  2.6275  0.5188
 1480SOL     OW15901   4.336   4.166   6.765  0.4353  0.3913  0.0267
 1480SOL    HW115902   4.263   4.128   6.813 -0.5620  1.7385 -0.4435
 1480SOL    HW215903   4.405   4.130   6.820 -0.2573 -2.7508 -1.1717
 1481SOL     OW15904   2.470   1.716  10.998 -0.1289 -0.0925 -0.6027
 1481SOL    HW115905   2.436   1.646  11.054 -2.7390  1.4528 -0.2556
 1481SOL    HW215906   2.390   1.740  10.950 -1.5829 -0.4601  1.6537
 1482SOL     OW15907   2.962   0.221   3.113 -0.1714  0.0393  0.2613
 1482SOL    HW115908   3.015   0.141   3.116  0.1334  0.3180  2.4671
 1482SOL    HW215909   2.894   0.192   3.174 -0.7829  1.8578  0.4478
 1483SOL     OW15910   2.762   0.771   2.991 -0.5793  0.7913  0.0466
 1483SOL    HW115911   2.705   0.826   3.043 -1.8102 -0.8748  0.4579
 1483SOL    HW215912   2.821   0.748   3.062 -1.3699 -0.8261  0.1837
 1484SOL     OW15913   3.791   4.070   5.604 -0.0241 -0.6078  0.4385
 1484SOL    HW115914   3.885   4.065   5.625  0.4153  0.8711 -1.2112
 1484SOL    HW215915   3.765   3.979   5.619  0.6460 -1.0246 -0.8971
 1485SOL     OW15916   2.153   0.252   0.922  0.0333  0.3640  0.2233
 1485SOL    HW115917   2.072   0.286   0.959  0.7056  1.5958  0.5535
 1485SOL    HW215918   2.195   0.215   1.000 -1.9027  0.4654  1.3072
 1486SOL     OW15919   1.421   3.123   4.775  0.0314 -0.0526  0.6144
 1486SOL    HW115920   1.351   3.184   4.798  0.9058  0.9397  0.6416
 1486SOL    HW215921   1.372   3.079   4.706  0.6949 -0.2366  0.2531
 1487SOL     OW15922   3.356   4.550  15.850 -0.3736 -0.1045 -0.1990
 1487SOL    HW115923   3.343   4.643  15.831 -2.3391  0.1505  2.3443
 1487SOL    HW215924   3.273   4.532  15.894 -0.0078  1.0991  0.9727
 1488SOL     OW15925   4.490   2.569   9.928  0.2082 -0.5376  0.2359
 1488SOL    HW115926   4.531   2.498   9.977  1.7138  1.4925  1.9209
 1488SOL    HW215927   4.412   2.526   9.893 -0.2147  0.5578 -0.1862
 1489SOL     OW15928   4.217   4.174   4.470 -0.1208  0.3673 -0.0570
 1489SOL    HW115929   4.132   4.150   4.505 -0.4057  1.0946 -0.2492
 1489SOL    HW215930   4.234   4.226   4.548 -0.1887  1.3233 -0.6767
 1490SOL     OW15931   3.484   0.055   2.172 -0.5159 -0.0480 -0.3673
 1490SOL    HW115932   3.488   0.145   2.141  1.9587 -0.4178 -1.1700
 1490SOL    HW215933   3.575   0.029   2.187 -0.2802 -0.4266 -2.4636
 1491SOL     OW15934   0.828   1.439   2.439  0.5785 -0.0303  0.2281
 1491SOL    HW115935   0.851   1.378   2.510 -2.1885 -1.7711 -0.3459
 1491SOL    HW215936   0.838   1.386   2.360  1.1900  1.1323 -0.4627
 1492SOL     OW15937   3.989   0.188  14.317  0.3343  0.3225 -1.1647
 1492SOL    HW115938   3.976   0.272  14.362 -0.6260 -0.5216  0.1259
 1492SOL    HW215939   4.084   0.197  14.307  0.4474 -0.6068 -0.8747
 1493SOL     OW15940   1.748   0.239   4.844 -0.3584 -0.0729 -0.5235
 1493SOL    HW115941   1.762   0.151   4.808  0.4601  0.2831 -1.0979
 1493SOL    HW215942   1.828   0.287   4.821 -1.0088  1.0337 -0.5034
 1494SOL     OW15943   4.617   0.779  12.968  0.0128  0.4151  0.2070
 1494SOL    HW115944   4.571   0.723  13.031  0.3263  1.6392  1.5167
 1494SOL    HW215945   4.680   0.716  12.934  0.1819  0.1823  0.9539
 1495SOL     OW15946   3.175   4.605   4.687  0.6691 -0.3819  0.6284
 1495SOL    HW115947   3.178   4.590   4.593  2.0532 -0.9529  0.7504
 1495SOL    HW215948   3.269   4.594   4.706  0.2887  0.6722  3.2033
 1496SOL     OW15949   0.503   0.354   4.587 -0.0298  0.3125  0.2501
 1496SOL    HW115950   0.503   0.419   4.516  1.7152 -2.1806 -2.0706
 1496SOL    HW215951   0.417   0.367   4.626  0.1271  0.6377  0.4931
 1497SOL     OW15952   3.464   0.565   2.198 -0.2212 -0.7880 -0.2598
 1497SOL    HW115953   3.380   0.577   2.152 -2.1269  0.6454  3.5712
 1497SOL    HW215954   3.519   0.551   2.121 -0.3584  0.3458 -0.5666
 1498SOL     OW15955   0.078   2.395   3.438  0.6493 -0.0476  0.5225
 1498SOL    HW115956   0.009   2.374   3.501  0.8772 -2.1367  0.0636
 1498SOL    HW215957   0.022   2.442   3.377 -1.1151  0.4783  2.5368
 1499SOL     OW15958   4.197   2.301  14.009 -0.1696  0.2647  0.2102
 1499SOL    HW115959   4.266   2.252  13.964  1.2131  1.7728  0.6604
 1499SOL    HW215960   4.186   2.382  13.958  0.0671  0.5665  0.6421
 1500SOL     OW15961   1.363   3.933  11.202 -0.5286  0.6317  0.1671
 1500SOL    HW115962   1.455   3.939  11.179 -0.1334 -1.9895  1.1321
 1500SOL    HW215963   1.323   3.936  11.115  0.4670 -3.2696 -0.4361
 1501SOL     OW15964   4.246   0.160   5.855 -0.0151 -0.5512 -0.1974
 1501SOL    HW115965   4.291   0.110   5.787 -0.1828  2.0589 -2.2394
 1501SOL    HW215966   4.297   0.240   5.861  2.2258 -2.0086  0.1302
 1502SOL     OW15967   2.898   1.067   4.955 -0.4830  0.4337 -0.0956
 1502SOL    HW115968   2.866   1.113   4.877  0.7951  1.2085 -0.1597
 1502SOL    HW215969   2.830   1.093   5.017  1.3377  1.1234  1.5954
 1503SOL     OW15970   2.921   1.878  11.213 -0.0206  0.1404  0.2200
 1503SOL    HW115971   2.840   1.902  11.168 -0.2096 -2.3611 -0.7812
 1503SOL    HW215972   2.890   1.847  11.299 -2.0162  2.5073  0.3646
 1504SOL     OW15973   2.059   3.445   2.418  0.2285 -0.2601 -0.4787
 1504SOL    HW115974   2.082   3.513   2.481  0.1583  1.4089 -2.2769
 1504SOL    HW215975   2.044   3.363   2.466 -0.1097  0.0490 -0.0480
 1505SOL     OW15976   0.543   2.655   4.604  0.2295 -0.0809 -0.1679
 1505SOL    HW115977   0.538   2.735   4.551  3.6566  0.0628 -0.2752
 1505SOL    HW215978   0.637   2.638   4.597 -0.6858 -4.9305 -0.6341
 1506SOL     OW15979   3.294   3.304   7.027 -0.2263 -0.2206  0.1129
 1506SOL    HW115980   3.313   3.228   7.082 -0.2621  0.4408  1.0353
 1506SOL    HW215981   3.214   3.336   7.069  0.7569  1.7597  0.4929
 1507SOL     OW15982   3.563   1.535   5.522 -0.6077 -0.2588 -0.3014
 1507SOL    HW115983   3.584   1.565   5.433 -1.6921  1.5059  0.0493
 1507SOL    HW215984   3.527   1.619   5.552  1.1579 -0.0621  1.2876
 1508SOL     OW15985   2.428   1.300   4.105  0.3635  0.6768  0.4317
 1508SOL    HW115986   2.507   1.344   4.073 -0.6185 -0.7240 -3.8861
 1508SOL    HW215987   2.420   1.335   4.194  0.9227 -0.5453  0.9736
 1509SOL     OW15988   4.247   0.301   6.766 -0.1202 -0.0431  0.0481
 1509SOL    HW115989   4.218   0.216   6.797 -2.2725  0.3840 -0.7656
 1509SOL    HW215990   4.333   0.276   6.735 -0.4512  0.3695 -1.1956
 1510SOL     OW15991   2.706   4.431   8.287 -0.0107 -0.1085  0.5995
 1510SOL    HW115992   2.644   4.470   8.349 -2.6896 -0.0858 -2.0420
 1510SOL    HW215993   2.761   4.506   8.265 -0.9202  0.7256  1.1093
 1511SOL     OW15994   3.217   2.360   3.146 -0.5329  0.2662 -0.0859
 1511SOL    HW115995   3.122   2.357   3.154 -0.6147  3.5532  0.1480
 1511SOL    HW215996   3.234   2.445   3.105  1.0753 -0.0603 -0.1239
 1512SOL     OW15997   4.295   1.215   7.854 -0.7468 -0.1043 -0.4137
 1512SOL    HW115998   4.265   1.253   7.937 -0.5145  0.1710 -0.4584
 1512SOL    HW215999   4.212   1.178   7.822 -0.0359 -1.7131 -0.3972
 1513SOL     OW16000   4.139   2.863   4.124 -0.4346  0.2978 -0.3817
 1513SOL    HW116001   4.177   2.923   4.188  2.1556 -1.1935 -0.5185
 1513SOL    HW216002   4.147   2.784   4.178 -1.1917  0.9044  0.6023
 1514SOL     OW16003   2.249   0.894   3.118 -0.3179 -0.1974  0.3701
 1514SOL    HW116004   2.267   0.892   3.024  2.0534  1.8621  0.7756
 1514SOL    HW216005   2.291   0.978   3.138 -1.0832  0.6159 -1.4625
 1515SOL     OW16006   1.195   4.144   4.601 -0.3284  0.0899 -0.5535
 1515SOL    HW116007   1.269   4.202   4.580  0.3205 -0.4389  0.2575
 1515SOL    HW216008   1.236   4.062   4.630  0.6567  0.8148  0.0893
 1516SOL     OW16009   3.983   3.612   8.394  0.1302  0.4335 -0.2159
 1516SOL    HW116010   4.018   3.686   8.344  0.8641  0.8175  0.8795
 1516SOL    HW216011   4.033   3.548   8.343  0.8873 -0.7472  1.9955
 1517SOL     OW16012   0.190   3.700   9.392  0.0656 -0.2403 -0.2225
 1517SOL    HW116013   0.221   3.610   9.388 -2.0107 -0.9911  0.7148
 1517SOL    HW216014   0.163   3.708   9.483  2.2565 -0.9051  0.4822
 1518SOL     OW16015   1.008   2.770   5.288  0.1381  0.1405 -0.1747
 1518SOL    HW116016   1.094   2.751   5.251  0.3754 -1.2940  1.1047
 1518SOL    HW216017   0.956   2.726   5.221 -0.8841 -0.7199  1.1963
 1519SOL     OW16018   2.349   0.405   1.484 -0.1572 -0.4710  0.1930
 1519SOL    HW116019   2.420   0.341   1.477  1.3540  1.0682  1.7519
 1519SOL    HW216020   2.279   0.356   1.441  0.6064 -1.6349  0.2450
 1520SOL     OW16021   3.291   2.687  14.720 -0.2421  0.3684 -0.0295
 1520SOL    HW116022   3.247   2.767  14.747 -0.7120  0.2269 -0.3771
 1520SOL    HW216023   3.223   2.646  14.667  0.5164 -3.3475  1.9205
 1521SOL     OW16024   4.259   0.849  17.554 -0.1477 -0.2216 -0.3841
 1521SOL    HW116025   4.198   0.832  17.626 -0.8863 -0.9373 -1.1756
 1521SOL    HW216026   4.306   0.767  17.541  0.2745  0.1512 -1.2043
 1522SOL     OW16027   1.152   2.797   6.575  0.1947  0.3800 -1.2375
 1522SOL    HW116028   1.197   2.855   6.514 -0.3858  2.2139  0.0704
 1522SOL    HW216029   1.201   2.827   6.652  0.7681  0.8722 -1.8027
 1523SOL     OW16030   1.448   2.781  17.049 -0.4584 -0.0253 -0.7705
 1523SOL    HW116031   1.459   2.726  17.127 -0.4827 -0.4170 -1.0396
 1523SOL    HW216032   1.450   2.710  16.984  0.9253  0.5132 -1.3208
 1524SOL     OW16033   0.687   0.167   9.627 -0.3558 -1.0637 -0.4420
 1524SOL    HW116034   0.779   0.159   9.651 -0.4107 -1.8784 -0.5104
 1524SOL    HW216035   0.653   0.179   9.716 -1.8708 -0.7020 -1.0596
 1525SOL     OW16036   1.781   3.660  17.707 -0.3296  0.5209 -0.1290
 1525SOL    HW116037   1.702   3.696  17.668 -0.6408 -1.0968 -0.9954
 1525SOL    HW216038   1.791   3.579  17.656  0.4865 -0.8962  2.2629
 1526SOL     OW16039   0.611   2.859   3.959 -0.5479  0.2431  0.2645
 1526SOL    HW116040   0.596   2.889   4.048 -0.5750 -2.4416  1.1611
 1526SOL    HW216041   0.642   2.769   3.975 -1.8785  0.0357  1.5691
 1527SOL     OW16042   4.193   4.468   6.096 -0.2532  0.6130 -0.1631
 1527SOL    HW116043   4.165   4.537   6.035 -0.3067  0.8605  0.1428
 1527SOL    HW216044   4.216   4.397   6.036 -1.7069  0.2745 -0.3289
 1528SOL     OW16045   4.193   1.651   4.048  0.1628 -0.0912 -0.7844
 1528SOL    HW116046   4.146   1.734   4.037  1.4061  0.7695  0.6006
 1528SOL    HW216047   4.131   1.592   4.004  1.3491 -1.0797 -1.1360
 1529SOL     OW16048   1.164   0.600   3.542  0.0559 -0.0273 -0.0578
 1529SOL    HW116049   1.159   0.632   3.632 -1.0609  0.3040 -0.2318
 1529SOL    HW216050   1.252   0.563   3.549 -0.4297 -0.9840  1.0402
 1530SOL     OW16051   4.335   0.981  11.757  0.4629 -0.3201  0.1950
 1530SOL    HW116052   4.399   0.913  11.777  1.7935  0.4336 -1.4295
 1530SOL    HW216053   4.372   1.067  11.776  2.4979 -0.9149 -1.0081
 1531SOL     OW16054   3.706   0.008   1.364  0.3991 -0.0913 -0.2555
 1531SOL    HW116055   3.784   0.019   1.418 -0.9248  0.8734  1.4747
 1531SOL    HW216056   3.682   4.646   1.386 -2.6361  0.2536 -2.0616
 1532SOL     OW16057   0.589   1.230   5.050  0.3953 -0.0754 -0.0478
 1532SOL    HW116058   0.589   1.206   4.957 -0.1204  0.2345 -0.1252
 1532SOL    HW216059   0.516   1.173   5.076  0.9962 -0.7782  0.0971
 1533SOL     OW16060   0.362   3.806   8.579 -0.4015 -0.2197  0.1014
 1533SOL    HW116061   0.311   3.871   8.530  2.2435  1.3621 -0.5904
 1533SOL    HW216062   0.407   3.868   8.636  0.4437 -1.1209  0.4153
 1534SOL     OW16063   2.349   3.322  13.242  0.0742 -0.1397 -0.3364
 1534SOL    HW116064   2.390   3.293  13.161 -0.2466  0.2822 -0.6507
 1534SOL    HW216065   2.260   3.306  13.211 -0.8345  0.5832  1.9122
 1535SOL     OW16066   3.766   4.372   6.564  0.1281 -0.1359 -0.1585
 1535SOL    HW116067   3.730   4.351   6.650  2.2230  0.9300  0.9899
 1535SOL    HW216068   3.857   4.344   6.574  0.1037  0.0851  0.6020
 1536SOL     OW16069   4.561   1.780  16.059 -0.4391 -0.3156  0.4633
 1536SOL    HW116070   4.498   1.813  16.123 -0.6379 -1.0088  0.6234
 1536SOL    HW216071   4.570   1.848  15.992 -1.4008 -0.3090  0.3387
 1537SOL     OW16072   2.439   0.383   5.415 -0.5574  0.1480  0.0323
 1537SOL    HW116073   2.519   0.331   5.409 -2.4778 -2.8149  0.0822
 1537SOL    HW216074   2.408   0.364   5.327 -1.1199 -1.9440  0.6860
 1538SOL     OW16075   2.057   4.463   4.989 -0.8300  0.5079  0.3943
 1538SOL    HW116076   2.131   4.470   4.929 -0.2054 -0.1258  1.0884
 1538SOL    HW216077   2.040   4.369   4.983 -0.7632  0.5569 -0.5532
 1539SOL     OW16078   1.352   0.186   2.470 -0.3288 -0.4261  0.0271
 1539SOL    HW116079   1.373   0.227   2.386  0.6795 -0.2625  0.3467
 1539SOL    HW216080   1.276   0.238   2.494 -1.2356 -2.1557  0.8980
 1540SOL     OW16081   3.629   2.366   6.797 -0.2473 -0.1493 -0.2009
 1540SOL    HW116082   3.540   2.384   6.767 -0.5769 -0.1009  0.7936
 1540SOL    HW216083   3.687   2.374   6.721  0.3915 -0.3939  0.2590
 1541SOL     OW16084   1.379   2.707   1.222 -0.1970  0.1745 -0.2815
 1541SOL    HW116085   1.394   2.613   1.233  0.1016  0.3587  0.9225
 1541SOL    HW216086   1.463   2.743   1.248  0.0766 -0.3738 -0.4157
 1542SOL     OW16087   3.246   0.645   2.054  0.0067  0.8431  0.2662
 1542SOL    HW116088   3.201   0.719   2.013  0.0668  0.6566 -0.1429
 1542SOL    HW216089   3.188   0.576   2.021 -0.1033 -0.8516  3.9593
 1543SOL     OW16090   2.408   0.754   2.603 -0.0420 -0.0957 -0.0787
 1543SOL    HW116091   2.413   0.708   2.687  0.0411 -1.0508 -0.6107
 1543SOL    HW216092   2.314   0.768   2.590 -0.2530 -0.8286  0.6950
 1544SOL     OW16093   4.040   2.911   0.731  0.3267  0.9001 -0.1428
 1544SOL    HW116094   4.068   2.895   0.641 -0.7906 -1.6936 -0.0365
 1544SOL    HW216095   3.977   2.839   0.739  0.7525  0.6987  1.2982
 1545SOL     OW16096   0.392   0.609   7.007  0.7112 -0.3870  0.0939
 1545SOL    HW116097   0.385   0.621   6.912 -0.2230  1.0709  0.3328
 1545SOL    HW216098   0.300   0.617   7.033  0.4065  1.3116 -1.4728
 1546SOL     OW16099   0.677   3.596   8.930 -0.2907  0.0634 -0.0795
 1546SOL    HW116100   0.630   3.629   8.853  0.4448 -0.2799 -0.6739
 1546SOL    HW216101   0.665   3.501   8.925 -1.2126  0.2354 -1.2503
 1547SOL     OW16102   0.130   2.951  10.156 -0.1520  0.0695  0.0496
 1547SOL    HW116103   0.145   2.885  10.087  1.4835  1.8247 -1.2748
 1547SOL    HW216104   0.218   2.973  10.186 -0.4799  0.6846  0.5529
 1548SOL     OW16105   1.740   3.887  16.531 -0.2868 -0.2539  0.3703
 1548SOL    HW116106   1.699   3.809  16.493 -0.4990  0.5115 -0.9849
 1548SOL    HW216107   1.759   3.847  16.616 -0.5146 -0.7608  0.1853
 1549SOL     OW16108   4.615   3.060  10.167 -0.0019  0.2521  0.3114
 1549SOL    HW116109   4.695   3.008  10.159  0.9942  1.5957  1.7127
 1549SOL    HW216110   4.644   3.150  10.183 -2.5371  0.8462  1.5747
 1550SOL     OW16111   0.460   0.822   2.118 -0.2812  0.1502 -0.3296
 1550SOL    HW116112   0.519   0.868   2.178 -0.2795 -1.0079  0.5633
 1550SOL    HW216113   0.492   0.735   2.143  2.2776  0.9103 -0.8638
 1551SOL     OW16114   0.099   3.338  14.212  0.8561  1.1729 -0.2132
 1551SOL    HW116115   0.115   3.427  14.242 -0.8197  1.4356 -0.1488
 1551SOL    HW216116   0.052   3.341  14.129 -0.5298 -6.1567  0.2570
 1552SOL     OW16117   2.941   4.265   4.613  0.0332 -0.2527  0.4075
 1552SOL    HW116118   2.885   4.339   4.590 -0.3430 -0.1607  1.6609
 1552SOL    HW216119   3.005   4.277   4.542 -0.3747 -0.1396  0.0593
 1553SOL     OW16120   0.900   3.484  10.108  0.0067 -0.0381  0.3005
 1553SOL    HW116121   0.954   3.430  10.165  1.1217  0.5127 -0.2458
 1553SOL    HW216122   0.910   3.570  10.149  1.4142 -0.6480  1.2191
 1554SOL     OW16123   4.359   2.520  13.653 -0.0104 -0.2754  0.3570
 1554SOL    HW116124   4.429   2.497  13.592 -0.2352  0.6223 -0.2424
 1554SOL    HW216125   4.310   2.581  13.599  0.8687 -0.5156 -0.7039
 1555SOL     OW16126   2.073   3.939   3.425 -0.3719  0.3333 -0.6189
 1555SOL    HW116127   2.095   4.015   3.372  1.1997 -0.3489 -0.9640
 1555SOL    HW216128   2.165   3.916   3.444 -0.5953  0.5692  0.7353
 1556SOL     OW16129   1.145   1.047   0.335 -0.4306  0.0259  0.1605
 1556SOL    HW116130   1.065   1.040   0.283 -0.2203 -1.4002  0.0358
 1556SOL    HW216131   1.209   0.992   0.289  0.3053 -0.6803  1.9971
 1557SOL     OW16132   0.324   0.840   4.015 -0.0192 -0.3192 -0.0696
 1557SOL    HW116133   0.414   0.851   4.048 -0.1243  0.0427  0.0951
 1557SOL    HW216134   0.305   0.933   4.017  1.5528  0.0394 -2.2393
 1558SOL     OW16135   0.176   3.780   2.248 -0.1528 -0.5023  0.2331
 1558SOL    HW116136   0.224   3.844   2.301 -2.1501  0.2489  1.1150
 1558SOL    HW216137   0.139   3.830   2.176 -0.7908 -0.6049  0.4899
 1559SOL     OW16138   0.290   1.436  13.613  0.3907 -0.0907 -0.1597
 1559SOL    HW116139   0.375   1.414  13.651 -0.2769  2.1918  2.7013
 1559SOL    HW216140   0.308   1.421  13.521 -1.4865 -2.1497 -0.2039
 1560SOL     OW16141   0.112   3.795   7.239  0.1221 -0.2563  1.1339
 1560SOL    HW116142   0.053   3.721   7.227  0.7276 -1.2007  3.9907
 1560SOL    HW216143   0.191   3.771   7.192 -0.2663  1.4600 -0.3813
 1561SOL     OW16144   1.391   0.769   2.077  0.2550  0.1345  0.3284
 1561SOL    HW116145   1.341   0.849   2.092  0.2484  0.5024 -1.7317
 1561SOL    HW216146   1.476   0.796   2.112  0.4393  0.3098 -0.2597
 1562SOL     OW16147   1.364   0.892   4.636  0.2955 -0.2705 -0.2239
 1562SOL    HW116148   1.422   0.905   4.711 -0.5528  2.4182 -0.0186
 1562SOL    HW216149   1.285   0.930   4.674  1.5663 -0.5471  2.6841
 1563SOL     OW16150   1.517   1.215   1.897 -0.0295  0.3462  0.1254
 1563SOL    HW116151   1.495   1.259   1.978 -1.4731  0.5922 -0.3822
 1563SOL    HW216152   1.448   1.250   1.839 -0.4160  0.7532  0.8358
 1564SOL     OW16153   4.046   3.582   3.660 -0.1641  0.5819 -0.1736
 1564SOL    HW116154   4.051   3.552   3.751 -1.4467  0.5758 -0.1074
 1564SOL    HW216155   4.096   3.510   3.621 -0.2256 -0.6030  1.9059
 1565SOL     OW16156   2.172   3.237   3.274  0.3799 -0.1198 -0.2137
 1565SOL    HW116157   2.187   3.203   3.186 -0.3432 -1.6260  0.2446
 1565SOL    HW216158   2.147   3.328   3.259  1.9406  0.6059  1.6331
 1566SOL     OW16159   1.594   3.951   5.558  0.5611  0.5135 -0.2537
 1566SOL    HW116160   1.608   3.856   5.555  0.3333  0.5204 -1.8440
 1566SOL    HW216161   1.657   3.965   5.628 -1.7125 -2.9084  2.4903
 1567SOL     OW16162   4.408   3.480   9.114  0.1142 -0.0752 -0.1638
 1567SOL    HW116163   4.382   3.570   9.134 -0.6542 -0.2908 -0.1671
 1567SOL    HW216164   4.503   3.486   9.113  0.2515 -2.2554  0.0098
 1568SOL     OW16165   1.288   1.662   1.122  0.4021  0.1863  0.1575
 1568SOL    HW116166   1.236   1.681   1.200 -1.2491 -1.3092 -0.5764
 1568SOL    HW216167   1.380   1.662   1.147  1.0652  0.3545 -2.2297
 1569SOL     OW16168   3.817   0.846   8.407 -0.3167  0.2568  0.2200
 1569SOL    HW116169   3.812   0.770   8.465  0.5385 -1.4639 -1.9454
 1569SOL    HW216170   3.899   0.884   8.438 -2.1301  2.9760  1.6112
 1570SOL     OW16171   0.981   2.856   2.059 -0.0364 -0.6080 -0.2206
 1570SOL    HW116172   0.896   2.901   2.055  1.3164  2.1873  2.0666
 1570SOL    HW216173   0.973   2.782   2.120 -0.4608  0.5921  1.1747
 1571SOL     OW16174   0.591   1.082   7.681 -0.1218 -0.5414 -1.1862
 1571SOL    HW116175   0.609   1.171   7.650  0.7036 -0.1814  0.3319
 1571SOL    HW216176   0.645   1.027   7.624 -1.2965 -2.3894 -0.5060
 1572SOL     OW16177   4.215   3.365   5.158  0.4716  0.1076  0.0735
 1572SOL    HW116178   4.219   3.459   5.172 -0.4484 -0.1112  1.8756
 1572SOL    HW216179   4.288   3.320   5.201  0.0793 -0.8624 -0.2607
 1573SOL     OW16180   1.439   0.982   7.016 -0.4780  0.5338  0.8246
 1573SOL    HW116181   1.426   1.040   6.941 -0.4963  0.6247  0.8989
 1573SOL    HW216182   1.350   0.948   7.031  0.0337 -1.6424 -0.9832
 1574SOL     OW16183   3.111   3.754  10.275  0.3018 -0.4091  0.0409
 1574SOL    HW116184   3.204   3.751  10.298  0.4049  2.7149  0.0004
 1574SOL    HW216185   3.096   3.834  10.325  1.7273 -0.0223 -0.1428
 1575SOL     OW16186   0.262   1.790  16.021 -0.4577  0.5069 -0.3403
 1575SOL    HW116187   0.223   1.751  15.942  0.8928 -0.9988 -0.2635
 1575SOL    HW216188   0.225   1.726  16.082  1.9616 -0.0481  0.5186
 1576SOL     OW16189   4.172   3.949   9.248 -0.1347  0.0122  0.1757
 1576SOL    HW116190   4.219   3.927   9.168 -0.5814  2.8955 -0.9010
 1576SOL    HW216191   4.237   3.936   9.316 -0.6027 -2.8652  0.0530
 1577SOL     OW16192   2.402   3.565   8.384 -0.2910  0.1328  0.1847
 1577SOL    HW116193   2.465   3.593   8.317  2.5597 -1.5993  2.1339
 1577SOL    HW216194   2.460   3.520   8.446 -0.4813 -0.7304 -0.2540
 1578SOL     OW16195   3.790   0.476   8.061  0.3174  0.0220  0.0870
 1578SOL    HW116196   3.881   0.505   8.051  0.9934 -1.3679  2.1188
 1578SOL    HW216197   3.794   0.380   8.066 -0.2542  0.0069  0.1941
 1579SOL     OW16198   3.696   3.755   2.430  0.2196 -0.1926 -0.4060
 1579SOL    HW116199   3.617   3.701   2.436 -0.0986  0.3308  0.2667
 1579SOL    HW216200   3.672   3.826   2.371 -0.4411 -0.3924 -0.3858
 1580SOL     OW16201   1.236   0.313   3.380  0.2324  0.1610 -0.1415
 1580SOL    HW116202   1.164   0.302   3.443  0.2756 -0.4590 -0.2029
 1580SOL    HW216203   1.301   0.361   3.430  0.4982 -0.1019 -0.2314
 1581SOL     OW16204   0.297   3.965   3.178  0.4367  0.3503  0.5689
 1581SOL    HW116205   0.236   3.982   3.251 -2.0014 -0.0411 -1.3789
 1581SOL    HW216206   0.233   3.921   3.122  1.6678 -1.2129  0.4129
 1582SOL     OW16207   4.032   0.237  14.801 -0.1850  0.6672 -0.7110
 1582SOL    HW116208   3.951   0.199  14.836  0.9978  0.5880  1.9788
 1582SOL    HW216209   4.083   0.156  14.806  1.9287  2.1221  1.4239
 1583SOL     OW16210   1.940   0.442   0.958 -0.6111 -0.1389  0.2118
 1583SOL    HW116211   1.961   0.521   1.007  0.9429 -1.7509  2.1320
 1583SOL    HW216212   1.903   0.488   0.883  0.3316 -1.3315 -0.9799
 1584SOL     OW16213   4.007   3.665   3.308 -0.0931 -0.4024 -0.3310
 1584SOL    HW116214   4.095   3.637   3.330  0.1730  0.8347  0.1616
 1584SOL    HW216215   3.994   3.621   3.224 -1.4070  2.3950 -1.5800
 1585SOL     OW16216   2.898   3.918   3.340 -0.2954 -0.2722 -0.3424
 1585SOL    HW116217   2.916   3.999   3.293  1.5056 -0.8105 -0.5908
 1585SOL    HW216218   2.907   3.856   3.267 -0.6232 -0.9685  0.2088
 1586SOL     OW16219   2.303   2.813  11.555  0.2062 -0.5231  0.5455
 1586SOL    HW116220   2.267   2.896  11.588 -0.2934  0.5960 -2.7820
 1586SOL    HW216221   2.230   2.761  11.522 -0.8356  1.2070  0.0886
 1587SOL     OW16222   3.362   1.961   3.864  0.4951 -0.3169  0.0643
 1587SOL    HW116223   3.441   2.015   3.855  0.0059  0.7177  2.1645
 1587SOL    HW216224   3.375   1.894   3.796 -2.1370 -0.7351 -0.0093
 1588SOL     OW16225   1.109   2.071   3.030  0.2589 -0.1212 -0.4056
 1588SOL    HW116226   1.158   2.031   2.957 -0.0605  0.8351 -1.1451
 1588SOL    HW216227   1.020   2.052   2.999  0.5747 -1.5690 -0.4378
 1589SOL     OW16228   2.246   0.445   3.614  0.2606  0.2259  0.2638
 1589SOL    HW116229   2.199   0.363   3.622  0.1861  0.3593  1.2668
 1589SOL    HW216230   2.307   0.437   3.688  1.5426  0.8146 -0.7373
 1590SOL     OW16231   2.211   2.770   9.545  0.3760  0.5462 -0.3192
 1590SOL    HW116232   2.298   2.778   9.506  0.8985  0.7564  0.8808
 1590SOL    HW216233   2.226   2.695   9.603  0.4812  1.2495  0.5620
 1591SOL     OW16234   1.797   2.958   5.147 -0.2525  0.4641  0.5363
 1591SOL    HW116235   1.710   2.943   5.184 -0.1845  2.3771  1.4713
 1591SOL    HW216236   1.779   2.965   5.054 -0.9548  1.0718  0.7271
 1592SOL     OW16237   1.285   0.878   2.787  0.5634  0.3978  0.5606
 1592SOL    HW116238   1.308   0.839   2.872 -2.3997 -2.0996  0.1954
 1592SOL    HW216239   1.194   0.852   2.793  1.0213 -0.6026  3.3054
 1593SOL     OW16240   4.355   1.705   0.418  0.1932  0.6278  0.2789
 1593SOL    HW116241   4.394   1.643   0.356 -1.1557  0.8585 -0.7850
 1593SOL    HW216242   4.294   1.757   0.365  0.6468 -0.5582 -1.4206
 1594SOL     OW16243   3.394   2.816   3.081  0.5341 -0.4117  0.3198
 1594SOL    HW116244   3.488   2.801   3.091  0.6016  0.2420  0.6985
 1594SOL    HW216245   3.393   2.889   3.019 -1.0544  1.4816  2.5641
 1595SOL     OW16246   2.911   2.961   7.814 -0.2236 -0.1686 -0.7423
 1595SOL    HW116247   2.825   2.967   7.855  0.6632  0.2132  1.0539
 1595SOL    HW216248   2.879   2.959   7.723 -0.7221 -0.6634 -0.5512
 1596SOL     OW16249   2.676   0.474   3.423  0.2366 -0.2390 -0.0541
 1596SOL    HW116250   2.760   0.447   3.386  1.1982  1.3725  0.9546
 1596SOL    HW216251   2.694   0.483   3.517  0.2492 -0.1338 -0.0674
 1597SOL     OW16252   0.199   1.370  15.009  0.0151 -0.2402  0.3870
 1597SOL    HW116253   0.277   1.419  14.982 -1.2870  1.2457 -0.6828
 1597SOL    HW216254   0.234   1.299  15.063  0.3651 -0.2615  0.1370
 1598SOL     OW16255   4.501   3.151   8.374 -0.2806 -0.0935  0.1898
 1598SOL    HW116256   4.457   3.081   8.422 -1.8055  0.3489 -0.5625
 1598SOL    HW216257   4.446   3.148   8.296 -2.6529  1.8093  1.8010
 1599SOL     OW16258   1.328   0.434   7.197  0.2461  0.6661  0.5693
 1599SOL    HW116259   1.382   0.509   7.171  0.4561  0.0841 -0.7142
 1599SOL    HW216260   1.252   0.482   7.230  0.5914  2.4098 -1.1415
 1600SOL     OW16261   3.952   3.747   8.906 -0.7400  0.2534  0.1496
 1600SOL    HW116262   4.042   3.763   8.934 -0.4902  0.5707 -0.8387
 1600SOL    HW216263   3.949   3.807   8.831  2.2246 -0.7946 -0.8276
 1601SOL     OW16264   2.800   2.492   9.796 -0.1343  0.4280 -0.2129
 1601SOL    HW116265   2.738   2.422   9.813 -1.9735  1.7824 -1.3836
 1601SOL    HW216266   2.886   2.452   9.806 -0.4559 -0.1419  0.2641
 1602SOL     OW16267   4.313   4.610   6.762  0.4118 -0.1667 -0.3987
 1602SOL    HW116268   4.365   4.537   6.727  0.1582  0.2979 -1.7406
 1602SOL    HW216269   4.372   4.628   6.835 -1.1972 -1.7201  1.2886
 1603SOL     OW16270   3.800   3.448   6.389 -0.0157 -0.0541 -0.5693
 1603SOL    HW116271   3.755   3.409   6.313 -0.6633 -2.2147  0.9203
 1603SOL    HW216272   3.797   3.542   6.373  1.9541 -0.0155 -0.7342
 1604SOL     OW16273   1.479   2.910   0.663 -0.1988 -0.5051 -0.4037
 1604SOL    HW116274   1.385   2.926   0.671 -0.4124 -1.8773 -0.0376
 1604SOL    HW216275   1.478   2.814   0.655  2.2853 -0.5306 -0.3244
 1605SOL     OW16276   2.274   4.019  14.468  0.0967 -0.6200 -0.1541
 1605SOL    HW116277   2.235   3.939  14.431 -0.5180 -0.7719  0.8357
 1605SOL    HW216278   2.203   4.037  14.529 -1.0185  0.1918 -1.6978
 1606SOL     OW16279   4.115   3.797  10.698 -0.4944  0.0646  0.3097
 1606SOL    HW116280   4.125   3.713  10.654  0.6193  0.7745 -0.7883
 1606SOL    HW216281   4.027   3.791  10.736  0.0475 -1.2498  1.3353
 1607SOL     OW16282   2.061   3.233   8.678 -0.0699  0.2797  0.0807
 1607SOL    HW116283   2.046   3.316   8.723 -1.2726 -0.1295  0.4255
 1607SOL    HW216284   2.154   3.236   8.657 -0.0229  1.4983  0.4568
 1608SOL     OW16285   3.607   1.219   8.588 -0.2282 -0.0949  0.0749
 1608SOL    HW116286   3.601   1.185   8.677  1.6401  1.7708  0.9228
 1608SOL    HW216287   3.615   1.313   8.603  0.9917  0.1165 -1.8581
 1609SOL     OW16288   1.794   4.479   3.627 -0.5761 -0.2772 -0.4225
 1609SOL    HW116289   1.865   4.483   3.691  1.2222  1.1370 -2.4790
 1609SOL    HW216290   1.748   4.401   3.657 -1.1250  0.8659  1.6997
 1610SOL     OW16291   4.703   0.131   5.802 -0.0748  0.1732  0.0078
 1610SOL    HW116292   4.699   0.049   5.851  0.7571 -0.2470 -0.6177
 1610SOL    HW216293   4.712   0.186   5.879  1.4693  0.6948 -0.5480
 1611SOL     OW16294   4.586   3.940  11.689 -0.0782  0.0539 -0.2434
 1611SOL    HW116295   4.621   3.921  11.776 -1.6042 -0.1746  0.3214
 1611SOL    HW216296   4.581   4.035  11.697 -0.7055  0.1864 -2.0680
 1612SOL     OW16297   2.572   3.218   5.297 -0.0375  0.1150  0.6504
 1612SOL    HW116298   2.642   3.188   5.240  0.9574 -0.5115  2.1951
 1612SOL    HW216299   2.502   3.201   5.233 -1.0557  0.4545  1.6697
 1613SOL     OW16300   4.443   0.013   4.385  0.5009  0.5958 -0.4192
 1613SOL    HW116301   4.467   4.651   4.363  0.2207  1.0146 -2.4121
 1613SOL    HW216302   4.482   0.021   4.473  0.8530 -0.0319 -0.5160
 1614SOL     OW16303   3.910   3.972   0.593 -0.0219 -0.2442 -0.8199
 1614SOL    HW116304   3.890   4.064   0.575  3.0863  0.7042  0.6089
 1614SOL    HW216305   3.864   3.926   0.522 -0.5442  0.0118 -0.6458
 1615SOL     OW16306   4.392   4.716   7.325 -0.1243  0.1938  0.5237
 1615SOL    HW116307   4.332   0.061   7.342  0.3359  0.5523  0.6134
 1615SOL    HW216308   4.469   0.035   7.293 -1.7259  2.4826  0.0187
 1616SOL     OW16309   4.704   0.844  14.929 -0.2046  0.0003 -0.1059
 1616SOL    HW116310   0.033   0.921  14.938  0.0655 -0.1446 -0.6349
 1616SOL    HW216311   0.031   0.768  14.946 -2.1996 -1.1909  1.0916
 1617SOL     OW16312   1.354   3.436   5.015 -0.6491 -0.1782 -0.1680
 1617SOL    HW116313   1.393   3.374   5.078 -1.2138 -2.0975 -1.7050
 1617SOL    HW216314   1.396   3.516   5.046 -0.6793 -0.1702 -0.1474
 1618SOL     OW16315   0.355   3.010   6.200 -0.1049 -0.1566 -0.2561
 1618SOL    HW116316   0.450   3.019   6.196 -0.0223 -1.1195 -0.5279
 1618SOL    HW216317   0.341   2.969   6.285  0.2015 -1.6961 -0.9324
 1619SOL     OW16318   3.615   4.230   2.918 -0.1520 -0.4179 -0.0301
 1619SOL    HW116319   3.683   4.249   2.982 -0.3728  1.1065 -0.2414
 1619SOL    HW216320   3.540   4.261   2.970 -0.7714 -0.0500 -1.1339
 1620SOL     OW16321   2.891   0.786   6.924 -0.5202  0.4378  0.2947
 1620SOL    HW116322   2.893   0.872   6.965 -1.2932 -0.1182  1.5152
 1620SOL    HW216323   2.803   0.784   6.886 -0.9787  1.5421  1.2833
 1621SOL     OW16324   4.160   3.368   7.065 -0.6317 -0.6707 -0.3333
 1621SOL    HW116325   4.238   3.364   7.009 -0.5351 -0.0209 -0.2432
 1621SOL    HW216326   4.167   3.290   7.120  1.3694 -0.8689 -0.8595
 1622SOL     OW16327   1.100   3.158   9.405 -0.3678 -0.5064  0.7016
 1622SOL    HW116328   1.032   3.217   9.373 -0.3355  0.0314  1.6341
 1622SOL    HW216329   1.175   3.218   9.405 -0.5142 -0.3114 -1.4759
 1623SOL     OW16330   3.290   3.051  11.255  0.1485 -0.4647 -0.2340
 1623SOL    HW116331   3.239   3.083  11.181  0.0085  0.2279  0.1607
 1623SOL    HW216332   3.290   2.962  11.219 -0.5894 -0.5359 -0.0729
 1624SOL     OW16333   2.919   1.759   0.961  0.0999 -0.4211  0.3139
 1624SOL    HW116334   2.825   1.777   0.960  0.2098  0.2713  1.5556
 1624SOL    HW216335   2.947   1.796   1.045  0.2601 -1.4360  0.7039
 1625SOL     OW16336   3.038   0.259   8.503 -0.0983 -0.0549  0.3800
 1625SOL    HW116337   2.960   0.232   8.455  1.5177 -2.7679 -0.7245
 1625SOL    HW216338   2.999   0.286   8.586 -0.4141 -1.0953  0.5705
 1626SOL     OW16339   1.518   1.383   5.142  0.2367 -0.0493 -0.3445
 1626SOL    HW116340   1.539   1.331   5.065  2.9587 -0.6904  0.8391
 1626SOL    HW216341   1.593   1.442   5.145  0.0191  0.2913 -1.5075
 1627SOL     OW16342   4.540   0.771   6.481  0.4755  0.1039 -0.5423
 1627SOL    HW116343   4.553   0.863   6.456 -2.2355  0.7942  0.5665
 1627SOL    HW216344   4.631   0.758   6.508  0.7074 -0.8448 -1.7683
 1628SOL     OW16345   2.878   4.021   8.464  0.1334  0.3614 -0.4401
 1628SOL    HW116346   2.873   4.076   8.542 -2.8192 -0.9333  0.2838
 1628SOL    HW216347   2.959   3.978   8.488 -0.7183 -0.4649  0.9329
 1629SOL     OW16348   1.456   1.898   7.456 -0.5083 -0.3466 -0.4814
 1629SOL    HW116349   1.488   1.809   7.442 -0.4075 -0.3993  0.0799
 1629SOL    HW216350   1.385   1.901   7.392 -0.7701  0.9854 -0.1259
 1630SOL     OW16351   1.291   2.645   3.058 -0.0774  0.0045  0.8712
 1630SOL    HW116352   1.230   2.705   3.099 -0.0443 -0.5182  1.6939
 1630SOL    HW216353   1.257   2.555   3.066 -1.1262  0.3794  0.6024
 1631SOL     OW16354   3.244   4.124  11.501 -0.2912 -0.2083 -0.2575
 1631SOL    HW116355   3.205   4.139  11.415  2.3216  0.0796 -1.4141
 1631SOL    HW216356   3.226   4.032  11.520 -0.7376 -0.0348  0.1332
 1632SOL     OW16357   1.195   1.153  17.508 -0.3039 -0.0027 -0.1425
 1632SOL    HW116358   1.232   1.097  17.576 -0.9648  0.7938  0.8769
 1632SOL    HW216359   1.112   1.110  17.488 -1.9041  1.1040  4.3114
 1633SOL     OW16360   4.076   3.704  14.993 -0.2248 -0.6430  0.4595
 1633SOL    HW116361   4.017   3.726  14.921  0.8927 -1.2354 -0.6316
 1633SOL    HW216362   4.101   3.793  15.019 -0.8198 -0.1577 -0.6104
 1634SOL     OW16363   2.134   2.605   7.517  0.2024 -0.0408 -0.1284
 1634SOL    HW116364   2.151   2.578   7.607 -0.8273  2.3802  0.8015
 1634SOL    HW216365   2.212   2.572   7.472  0.4920  0.2887  0.1319
 1635SOL     OW16366   0.817   2.958   7.388  0.7178 -0.5395 -0.0356
 1635SOL    HW116367   0.865   2.890   7.342  0.3180 -2.2504  2.1090
 1635SOL    HW216368   0.807   3.027   7.322  0.0179  0.1739  0.8208
 1636SOL     OW16369   4.325   0.174  17.190  0.2400  0.0731  0.0199
 1636SOL    HW116370   4.417   0.150  17.199  1.0020  2.7115 -0.7066
 1636SOL    HW216371   4.309   0.230  17.267  0.5747  0.2779 -0.0582
 1637SOL     OW16372   2.228   0.962   0.216  0.4394 -0.3310 -0.0667
 1637SOL    HW116373   2.306   1.014   0.196 -0.1022  1.1393  1.6742
 1637SOL    HW216374   2.231   0.904   0.140  1.8714  0.7958 -0.8765
 1638SOL     OW16375   3.032   2.607   4.352  0.2137 -0.4020  0.0299
 1638SOL    HW116376   3.081   2.582   4.274 -0.6736 -0.7479 -0.4134
 1638SOL    HW216377   2.956   2.648   4.312 -0.8684  0.0921  2.5711
 1639SOL     OW16378   1.658   1.665   8.649  0.6710  0.7051  0.4296
 1639SOL    HW116379   1.654   1.737   8.711 -0.8561  0.8537  0.1564
 1639SOL    HW216380   1.741   1.627   8.677  0.2738  0.1826  0.8887
 1640SOL     OW16381   2.210   3.218  10.859  0.2693  0.0491 -0.2085
 1640SOL    HW116382   2.177   3.295  10.812  0.3701  0.4273  0.3374
 1640SOL    HW216383   2.291   3.256  10.893 -0.8484  2.5739 -0.3426
 1641SOL     OW16384   2.110   0.291   9.888  0.7328 -0.0187 -0.0458
 1641SOL    HW116385   2.068   0.277   9.803 -0.3303  1.6976  0.1920
 1641SOL    HW216386   2.045   0.335   9.942 -2.2039 -2.0143 -1.9814
 1642SOL     OW16387   1.259   0.679  17.036  0.0024  0.6593  0.0084
 1642SOL    HW116388   1.230   0.668  17.127 -0.5768 -1.0086 -0.3870
 1642SOL    HW216389   1.177   0.678  16.987 -0.0480  3.2015  0.0205
 1643SOL     OW16390   2.548   3.588   4.752 -0.6491 -0.2469  0.4113
 1643SOL    HW116391   2.521   3.662   4.806 -0.1911  1.2033 -1.3470
 1643SOL    HW216392   2.573   3.640   4.676  1.8604 -2.5473 -0.3677
 1644SOL     OW16393   1.729   2.603   1.144 -0.1335 -0.1358 -0.3590
 1644SOL    HW116394   1.658   2.545   1.117 -1.5571  1.4023  0.0874
 1644SOL    HW216395   1.694   2.651   1.219 -1.2300  0.2295 -1.1051
 1645SOL     OW16396   2.411   2.928   4.461  0.0322 -0.0902  0.0320
 1645SOL    HW116397   2.345   2.868   4.495  0.9893 -1.9491 -1.3728
 1645SOL    HW216398   2.394   2.913   4.368 -0.5011 -1.1683  0.3063
 1646SOL     OW16399   0.092   0.388   2.155 -0.0846 -0.3632 -0.2085
 1646SOL    HW116400   0.079   0.399   2.061  1.7020  0.4096 -0.3566
 1646SOL    HW216401   0.082   0.294   2.173 -0.2441 -0.2384  0.3442
 1647SOL     OW16402   4.565   1.591   6.863  0.8039 -0.0956  0.1402
 1647SOL    HW116403   4.479   1.579   6.822  0.6166  1.4666  0.0397
 1647SOL    HW216404   4.536   1.590   6.954 -2.6307 -0.0600 -0.9503
 1648SOL     OW16405   2.869   3.954  17.043 -0.0293 -0.3771 -0.0291
 1648SOL    HW116406   2.890   3.984  16.955 -1.2338 -1.0039 -0.5325
 1648SOL    HW216407   2.846   3.862  17.035  2.2620 -0.9180 -0.2360
 1649SOL     OW16408   2.805   3.337   2.136  0.4009 -0.0581 -0.1617
 1649SOL    HW116409   2.748   3.336   2.059 -0.1648  0.0547  0.2506
 1649SOL    HW216410   2.806   3.246   2.165 -1.4855 -0.7553 -2.2592
 1650SOL     OW16411   2.537   1.264  14.099  0.7998 -0.1950  0.0666
 1650SOL    HW116412   2.575   1.212  14.169 -2.2825 -0.4538  1.5498
 1650SOL    HW216413   2.488   1.192  14.059 -1.0825  1.3844 -0.4414
 1651SOL     OW16414   1.941   3.360  15.732  0.2086  0.1619  0.5049
 1651SOL    HW116415   1.966   3.373  15.824  0.5900 -0.3804  0.4760
 1651SOL    HW216416   2.023   3.353  15.684  0.1204  0.5173  0.3073
 1652SOL     OW16417   4.302   3.662   8.777  0.1337  0.1459  0.3529
 1652SOL    HW116418   4.347   3.639   8.696  1.2828  0.0562  1.0176
 1652SOL    HW216419   4.219   3.618   8.760 -1.3263  3.2040 -0.5468
 1653SOL     OW16420   0.584   0.571   2.145  0.0593 -0.6015  0.3161
 1653SOL    HW116421   0.622   0.539   2.063 -0.5319 -0.5913  0.0362
 1653SOL    HW216422   0.595   0.492   2.198  1.6795 -1.4433 -1.2821
 1654SOL     OW16423   0.375   3.246   9.847 -0.2015 -0.3449 -0.1070
 1654SOL    HW116424   0.402   3.304   9.776 -1.3133 -1.8289 -1.7444
 1654SOL    HW216425   0.304   3.301   9.882  0.6026  0.1787  0.6866
 1655SOL     OW16426   3.430   3.498   5.765 -0.8290  0.7037  0.1066
 1655SOL    HW116427   3.354   3.506   5.708  0.9315 -1.9974 -2.6528
 1655SOL    HW216428   3.396   3.468   5.849  0.1418 -0.2570  0.1625
 1656SOL     OW16429   0.958   3.959   3.095 -0.2832 -0.0315 -0.1991
 1656SOL    HW116430   0.907   3.971   3.015  0.8219  2.6716 -0.4942
 1656SOL    HW216431   0.956   3.864   3.107 -1.6012  0.0801  0.4700
 1657SOL     OW16432   3.413   0.817   5.257 -0.1109 -0.1715 -0.6948
 1657SOL    HW116433   3.325   0.852   5.263 -0.1891 -0.0011 -2.7336
 1657SOL    HW216434   3.397   0.730   5.222 -0.0573 -1.4920  2.5701
 1658SOL     OW16435   3.051   0.840   0.756  0.1651  0.3566 -0.4667
 1658SOL    HW116436   3.000   0.891   0.693 -1.7874 -2.9631 -1.5203
 1658SOL    HW216437   3.099   0.906   0.807 -0.0926  1.7420 -2.0060
 1659SOL     OW16438   4.180   1.214   4.122  0.0913 -0.3352  0.0403
 1659SOL    HW116439   4.141   1.296   4.092  2.8263  0.4873 -1.2534
 1659SOL    HW216440   4.148   1.200   4.211  0.6881 -0.8561  0.1750
 1660SOL     OW16441   1.861   4.593   2.064  0.4694  0.1071 -0.3701
 1660SOL    HW116442   1.882   4.501   2.046 -0.8258 -0.0354 -1.1684
 1660SOL    HW216443   1.889   4.596   2.155 -1.7532 -2.5355  0.3872
 1661SOL     OW16444   2.591   0.653   5.849 -0.1987  0.2158  0.4152
 1661SOL    HW116445   2.622   0.713   5.918  1.3431  0.2752 -0.3479
 1661SOL    HW216446   2.544   0.715   5.793 -0.1102  0.2519  0.3809
 1662SOL     OW16447   1.496   4.394   5.683  0.0656  0.5284 -0.3080
 1662SOL    HW116448   1.563   4.396   5.751 -0.5975  1.4282  0.3217
 1662SOL    HW216449   1.558   4.391   5.609  0.9797  1.4914  0.4125
 1663SOL     OW16450   3.170   3.872   4.899 -0.0942 -0.3383 -0.7850
 1663SOL    HW116451   3.105   3.804   4.915  0.8704 -1.3038 -1.0301
 1663SOL    HW216452   3.119   3.938   4.851  1.0939  0.6388 -0.7194
 1664SOL     OW16453   3.559   3.348   8.580 -0.2225  0.5000  0.2693
 1664SOL    HW116454   3.504   3.301   8.642 -0.0966 -0.2396 -0.1877
 1664SOL    HW216455   3.633   3.287   8.588  2.0799  2.8313 -3.0274
 1665SOL     OW16456   2.612   0.938   3.761  0.0501 -0.1546  0.1043
 1665SOL    HW116457   2.623   1.006   3.827  0.0209 -1.2893  1.2592
 1665SOL    HW216458   2.702   0.907   3.771 -0.4963 -1.9453 -0.3887
 1666SOL     OW16459   1.669   0.874   7.958 -0.9155 -0.9754  0.1526
 1666SOL    HW116460   1.592   0.878   7.901  0.0340  2.6614 -0.8621
 1666SOL    HW216461   1.716   0.807   7.908 -1.7117 -1.3132 -0.1484
 1667SOL     OW16462   4.019   4.301   6.614  0.1334 -0.0551 -0.3702
 1667SOL    HW116463   4.029   4.279   6.707 -1.2814  2.2292  0.3446
 1667SOL    HW216464   4.051   4.220   6.574  0.7395  0.0503 -0.1089
 1668SOL     OW16465   3.675   3.150  13.645  0.0447 -0.0096 -0.2116
 1668SOL    HW116466   3.590   3.179  13.611 -0.2390  0.7675  1.1748
 1668SOL    HW216467   3.652   3.143  13.737  0.4294 -1.0053 -0.1902
 1669SOL     OW16468   0.885   4.608   5.755  0.0914  0.0151  0.0801
 1669SOL    HW116469   0.854   4.671   5.820  1.4266  0.0816  0.6418
 1669SOL    HW216470   0.966   4.649   5.724 -1.3597  3.0262  0.2773
 1670SOL     OW16471   0.531   1.260   0.706  0.4088  0.6261 -0.2819
 1670SOL    HW116472   0.558   1.212   0.784 -2.0472 -0.9708 -0.4372
 1670SOL    HW216473   0.612   1.240   0.658  0.2940 -0.8147  0.1253
 1671SOL     OW16474   1.533   0.452   1.418  0.4100  0.2053 -0.1580
 1671SOL    HW116475   1.528   0.428   1.511  1.2237  1.4244  0.2010
 1671SOL    HW216476   1.538   0.547   1.432  0.7944 -0.1655  2.1579
 1672SOL     OW16477   1.223   3.406   3.350  0.1023  0.2579  0.0880
 1672SOL    HW116478   1.221   3.313   3.329  1.8113 -0.0484  1.2748
 1672SOL    HW216479   1.297   3.409   3.410 -0.8661  0.7068  1.2572
 1673SOL     OW16480   0.392   3.648   3.423 -0.0858  0.1127  0.1778
 1673SOL    HW116481   0.347   3.565   3.434  2.0216 -1.0013  0.3178
 1673SOL    HW216482   0.331   3.708   3.467 -2.9372 -0.8902 -2.4107
 1674SOL     OW16483   1.157   0.247  11.356  0.2745 -0.5846  0.4094
 1674SOL    HW116484   1.194   0.161  11.371  0.7264 -0.8665 -2.3378
 1674SOL    HW216485   1.233   0.303  11.338 -0.5587  1.2293  2.4166
 1675SOL     OW16486   0.703   3.028  17.319 -0.2388 -0.7201 -0.6451
 1675SOL    HW116487   0.734   2.957  17.263  3.3032 -0.1884  0.6491
 1675SOL    HW216488   0.782   3.083  17.324 -1.7164  1.1917  1.6769
 1676SOL     OW16489   0.521   3.964   0.365  0.3305  0.1440  0.1010
 1676SOL    HW116490   0.616   3.972   0.359  0.5058 -1.5179  0.5263
 1676SOL    HW216491   0.517   3.877   0.406 -0.0134  0.4273  0.6763
 1677SOL     OW16492   0.189   3.401   1.236 -0.1437 -0.0361 -0.6849
 1677SOL    HW116493   0.112   3.371   1.284 -0.5055  1.2197 -0.4824
 1677SOL    HW216494   0.215   3.478   1.286  1.3350 -1.3058  0.5245
 1678SOL     OW16495   2.388   3.863   5.832  0.1401 -0.1741  0.8910
 1678SOL    HW116496   2.444   3.907   5.768 -0.9086  0.2897  0.3000
 1678SOL    HW216497   2.332   3.937   5.857 -0.4766 -0.9741  1.8567
 1679SOL     OW16498   2.480   1.830  14.295 -0.4276 -0.8898 -0.0883
 1679SOL    HW116499   2.414   1.884  14.251  0.4442  0.0363 -0.2518
 1679SOL    HW216500   2.556   1.888  14.306 -0.4813 -0.5889 -1.2670
 1680SOL     OW16501   2.121   4.274  10.783 -0.4926 -0.6949  0.5520
 1680SOL    HW116502   2.102   4.266  10.877 -0.7171 -0.6781  0.5083
 1680SOL    HW216503   2.162   4.360  10.778  0.8355 -1.4192 -0.9771
 1681SOL     OW16504   0.561   2.307  11.108 -0.1037  0.0335  0.5003
 1681SOL    HW116505   0.578   2.394  11.145  0.1004  0.0602  0.3441
 1681SOL    HW216506   0.504   2.274  11.178  1.0487 -1.1812  0.8587
 1682SOL     OW16507   2.411   1.346   6.966  0.4685 -0.1445  0.1963
 1682SOL    HW116508   2.377   1.326   6.879 -1.2456  1.1105  0.5576
 1682SOL    HW216509   2.342   1.397   7.009 -0.7916 -1.8159  0.1659
 1683SOL     OW16510   0.364   1.744   8.360  0.1796 -0.9866  0.0454
 1683SOL    HW116511   0.436   1.791   8.320  0.5094 -0.3507  1.3674
 1683SOL    HW216512   0.370   1.768   8.453 -1.0159  0.7444 -0.3407
 1684SOL     OW16513   0.696   4.230   4.682 -0.2374 -0.5908  0.5446
 1684SOL    HW116514   0.696   4.242   4.777  1.8103  0.0775  0.4652
 1684SOL    HW216515   0.620   4.176   4.664 -0.6491  1.8832 -5.0591
 1685SOL     OW16516   4.641   1.468   6.077 -0.3336 -0.3521 -0.2686
 1685SOL    HW116517   4.633   1.503   5.988 -0.6456 -0.5812 -0.3314
 1685SOL    HW216518   4.709   1.526   6.111 -2.6108  2.1023  0.0744
 1686SOL     OW16519   0.988   1.910  17.600  0.1640  0.1440 -0.1854
 1686SOL    HW116520   0.965   1.817  17.594 -0.8307  0.2484  1.9503
 1686SOL    HW216521   0.974   1.922  17.694 -0.9180 -2.5834  0.0083
 1687SOL     OW16522   3.197   4.320  12.238 -0.2423 -0.1594  0.3285
 1687SOL    HW116523   3.134   4.261  12.279 -0.3624  0.5592  1.1686
 1687SOL    HW216524   3.168   4.310  12.147  0.6340  1.5383 -0.1223
 1688SOL     OW16525   3.230   4.260   8.491  0.1553 -0.8806  0.4389
 1688SOL    HW116526   3.235   4.230   8.582  0.1923 -2.4509 -0.0795
 1688SOL    HW216527   3.147   4.306   8.501  0.2744 -0.0246 -2.6981
 1689SOL     OW16528   1.273   0.632   5.997 -0.2222  0.4159  0.3673
 1689SOL    HW116529   1.338   0.580   6.044 -0.5788  1.0826  1.5971
 1689SOL    HW216530   1.235   0.571   5.934 -0.3104  0.6714  0.1745
 1690SOL     OW16531   3.402   2.785   5.006  0.5335 -0.9041  0.0672
 1690SOL    HW116532   3.468   2.788   4.937 -0.1421 -1.3278 -0.5978
 1690SOL    HW216533   3.377   2.877   5.012  1.8162 -0.6270  1.1947
 1691SOL     OW16534   3.537   4.726   3.245  0.2279  0.5273  0.1329
 1691SOL    HW116535   3.565   4.674   3.170  0.1402  0.8578 -0.1281
 1691SOL    HW216536   3.617   0.051   3.251  0.3540  0.6758 -2.9944
 1692SOL     OW16537   3.748   4.223   2.574 -0.5420  0.0769 -0.3358
 1692SOL    HW116538   3.758   4.310   2.614  0.7611 -1.4976  2.8297
 1692SOL    HW216539   3.657   4.221   2.545 -0.0570 -1.0069 -1.8002
 1693SOL     OW16540   3.844   1.193  12.990 -0.5894  0.1396  0.4353
 1693SOL    HW116541   3.841   1.179  12.895 -0.8934 -1.1858  0.6522
 1693SOL    HW216542   3.840   1.100  13.012  0.2387  0.3768  1.5629
 1694SOL     OW16543   1.074   0.434  15.916  0.1879 -0.5350 -0.2768
 1694SOL    HW116544   1.034   0.457  16.000  2.3315 -1.1989  0.9437
 1694SOL    HW216545   1.112   0.348  15.932  0.5710 -0.3946 -0.4192
 1695SOL     OW16546   1.866   4.305   2.010  0.6514  0.3343 -0.4156
 1695SOL    HW116547   1.873   4.209   2.008 -2.1573  0.1310  0.1505
 1695SOL    HW216548   1.772   4.315   1.994  0.0584 -1.8404  1.7390
 1696SOL     OW16549   2.336   0.499   2.968  0.1349  0.1066 -0.1158
 1696SOL    HW116550   2.407   0.487   3.031 -1.9212  1.1541  2.3927
 1696SOL    HW216551   2.378   0.564   2.912 -2.6322  0.9115 -1.2468
 1697SOL     OW16552   3.799   3.095   5.116 -0.1333  0.2170 -0.0117
 1697SOL    HW116553   3.836   3.180   5.138 -0.9475  0.3642  0.8210
 1697SOL    HW216554   3.705   3.111   5.104 -0.2038 -0.5471 -0.4873
 1698SOL     OW16555   1.434   2.218   7.576 -0.2530  0.3488 -0.3481
 1698SOL    HW116556   1.424   2.142   7.633 -1.6542  1.4662  0.8852
 1698SOL    HW216557   1.395   2.280   7.637  0.5887 -0.3586  0.9023
 1699SOL     OW16558   3.023   4.163  12.415 -0.1308 -0.5783 -0.6433
 1699SOL    HW116559   2.944   4.142  12.465  0.0568  3.7682  1.4790
 1699SOL    HW216560   3.049   4.237  12.470  0.5953 -0.8408 -0.6361
 1700SOL     OW16561   0.346   4.089  13.639  0.6159 -0.0340 -0.0271
 1700SOL    HW116562   0.363   4.046  13.555 -3.5100 -2.2133  0.2714
 1700SOL    HW216563   0.339   4.180  13.609  0.1666 -0.2922 -0.7202
 1701SOL     OW16564   2.893   1.615   2.376 -0.3148  0.5274  0.8975
 1701SOL    HW116565   2.820   1.675   2.387 -1.5950 -0.7485 -0.7126
 1701SOL    HW216566   2.958   1.672   2.335  0.5296 -0.8926  0.2517
 1702SOL     OW16567   3.691   2.561   2.841 -0.7200  0.2160 -0.6761
 1702SOL    HW116568   3.740   2.615   2.779 -1.0138  3.2026  1.6943
 1702SOL    HW216569   3.613   2.544   2.787 -0.7670  1.9490 -1.1564
 1703SOL     OW16570   1.811   0.949  13.198  0.4263 -0.0287  0.2560
 1703SOL    HW116571   1.757   0.937  13.276 -1.0783 -0.6166 -0.8831
 1703SOL    HW216572   1.894   0.909  13.224 -0.6149 -1.1919  1.7713
 1704SOL     OW16573   3.252   2.804   5.553  0.3845 -0.0808 -0.4657
 1704SOL    HW116574   3.290   2.854   5.624  1.5832 -2.2958  0.4710
 1704SOL    HW216575   3.327   2.793   5.495 -1.4952  1.2986 -3.1993
 1705SOL     OW16576   2.587   0.798   0.221  0.1669 -0.3151 -0.0897
 1705SOL    HW116577   2.544   0.713   0.234 -2.1862  0.9478  0.4537
 1705SOL    HW216578   2.644   0.776   0.148  1.5445 -1.6715  1.3924
 1706SOL     OW16579   3.447   4.399   3.042 -0.4651  0.1034 -0.1024
 1706SOL    HW116580   3.512   4.467   3.026 -2.5127  2.0301 -0.1067
 1706SOL    HW216581   3.368   4.429   2.998 -0.6875  0.6526  0.6747
 1707SOL     OW16582   0.065   2.391   5.865  0.8569 -0.2402  0.1774
 1707SOL    HW116583   0.086   2.310   5.912  1.0366 -0.0890  0.3560
 1707SOL    HW216584   0.145   2.442   5.877  0.3884  0.9911 -2.0791
 1708SOL     OW16585   3.350   0.870   4.958 -0.6231 -0.1622  0.1132
 1708SOL    HW116586   3.425   0.923   4.984 -0.9688 -0.1026  1.0224
 1708SOL    HW216587   3.272   0.926   4.967 -0.6488 -0.3440  1.0574
 1709SOL     OW16588   0.800   0.936   2.969 -0.2724 -0.4189  0.7975
 1709SOL    HW116589   0.744   0.867   3.005  1.3132 -1.7151  0.7672
 1709SOL    HW216590   0.779   1.016   3.018  1.3451  1.6583 -1.8951
 1710SOL     OW16591   1.762   0.588   4.562  0.0731 -0.3969  0.1768
 1710SOL    HW116592   1.690   0.596   4.625  0.2741  1.3728  0.1959
 1710SOL    HW216593   1.720   0.637   4.491 -2.1148 -1.3891  0.7744
 1711SOL     OW16594   1.655   3.503   7.064 -0.1213  0.2363 -0.3829
 1711SOL    HW116595   1.700   3.553   6.996  0.8948 -2.2452 -1.5232
 1711SOL    HW216596   1.670   3.556   7.142  0.0482  0.2922 -0.4534
 1712SOL     OW16597   0.085   2.837   3.640  0.1265 -0.0684 -0.5499
 1712SOL    HW116598   0.132   2.830   3.557 -0.1782  5.4512 -1.2309
 1712SOL    HW216599   0.161   2.830   3.698 -1.0244 -1.3658  0.7943
 1713SOL     OW16600   3.466   2.754  17.144 -0.1948 -0.2563 -0.5359
 1713SOL    HW116601   3.469   2.830  17.086 -1.6346 -0.4538 -0.8729
 1713SOL    HW216602   3.471   2.787  17.234 -2.2680  0.3449 -0.6351
 1714SOL     OW16603   1.419   2.721  10.639  0.0942  0.0324  0.2606
 1714SOL    HW116604   1.514   2.715  10.654  0.0121  1.2079  1.2113
 1714SOL    HW216605   1.392   2.795  10.692 -2.5128 -1.4147  0.9263
 1715SOL     OW16606   4.247   2.771   7.049 -0.0320 -0.0810 -0.2697
 1715SOL    HW116607   4.273   2.718   7.124 -0.8972  1.1133  0.8825
 1715SOL    HW216608   4.277   2.708   6.983  1.9772 -0.1914  0.7420
 1716SOL     OW16609   1.338   0.819   8.401 -0.6184  0.3765 -1.0554
 1716SOL    HW116610   1.377   0.734   8.420 -1.5972  0.1431 -0.0992
 1716SOL    HW216611   1.309   0.848   8.487  2.2822 -0.1261  0.1042
 1717SOL     OW16612   1.874   2.481   6.193 -0.0705 -0.4845  0.1377
 1717SOL    HW116613   1.823   2.549   6.238  2.2716  0.8411  0.8018
 1717SOL    HW216614   1.862   2.408   6.253  1.9294  1.2821  2.6469
 1718SOL     OW16615   4.342   1.628   3.641  0.2579  0.3734  0.0285
 1718SOL    HW116616   4.411   1.670   3.693 -0.1042 -0.4499  1.1584
 1718SOL    HW216617   4.382   1.587   3.565  1.9628  0.4128  0.8957
 1719SOL     OW16618   2.008   1.450  14.866  0.2242 -0.2158  0.1201
 1719SOL    HW116619   2.025   1.528  14.812 -0.4269  0.0951  0.3572
 1719SOL    HW216620   2.076   1.453  14.933 -0.9637 -2.1707  1.4120
 1720SOL     OW16621   0.749   3.238   9.143 -0.2453 -0.5580  0.2639
 1720SOL    HW116622   0.822   3.294   9.168 -1.2281  0.6290  0.4761
 1720SOL    HW216623   0.790   3.184   9.076  1.2203 -0.5502  1.1633
 1721SOL     OW16624   0.525   3.683   2.506  0.2395 -0.3361  0.1541
 1721SOL    HW116625   0.610   3.643   2.487 -0.6432 -1.8621 -0.5446
 1721SOL    HW216626   0.494   3.680   2.415 -0.1686  0.6585  0.2648
 1722SOL     OW16627   1.732   0.817   1.182  0.1448  0.3244  0.1136
 1722SOL    HW116628   1.708   0.768   1.104 -1.5763  1.1870  0.0982
 1722SOL    HW216629   1.729   0.903   1.140  2.1933  0.3129 -0.0695
 1723SOL     OW16630   0.422   1.305  15.742 -0.3303  0.2934  0.2002
 1723SOL    HW116631   0.364   1.278  15.813  1.3000 -0.6624  1.1496
 1723SOL    HW216632   0.509   1.286  15.778  0.5391  0.1195 -1.9958
 1724SOL     OW16633   2.181   3.288   2.650  0.1200 -0.7053  0.1800
 1724SOL    HW116634   2.244   3.264   2.718  1.7955 -0.7288 -1.3675
 1724SOL    HW216635   2.224   3.273   2.566  0.1197  1.8305 -0.2990
 1725SOL     OW16636   2.380   0.144   7.413 -0.1069 -0.1502 -0.7060
 1725SOL    HW116637   2.415   0.179   7.332 -1.9532  2.1386 -0.5276
 1725SOL    HW216638   2.393   0.051   7.400 -1.7310 -0.8324  2.3094
 1726SOL     OW16639   0.068   1.227  12.048 -0.4303  0.4059 -0.2488
 1726SOL    HW116640   4.722   1.287  12.033 -1.5923 -0.1988  3.1747
 1726SOL    HW216641   0.100   1.261  12.131  1.5116 -1.2746 -0.3161
 1727SOL     OW16642   4.227   0.513  11.624  0.0314 -0.1110 -0.5201
 1727SOL    HW116643   4.305   0.540  11.671 -0.0633  0.3880 -0.6475
 1727SOL    HW216644   4.243   0.543  11.535  1.4623  0.7870  0.0445
 1728SOL     OW16645   3.561   3.297   5.641 -0.2775 -0.2430 -0.3044
 1728SOL    HW116646   3.639   3.336   5.679 -1.3396  2.6826 -1.0583
 1728SOL    HW216647   3.498   3.370   5.641 -0.8108 -0.7060  0.0412
 1729SOL     OW16648   2.391   4.658  10.088 -0.3812 -0.3553 -0.2871
 1729SOL    HW116649   2.390   4.721  10.016 -1.2264 -0.3446 -0.2658
 1729SOL    HW216650   2.311   4.609  10.073  0.2261 -1.9141  1.4571
 1730SOL     OW16651   0.601   2.368   2.427 -0.2471 -0.6288  0.3611
 1730SOL    HW116652   0.535   2.349   2.494  0.0101 -1.9975  0.2211
 1730SOL    HW216653   0.603   2.464   2.422  1.2067 -0.6148  0.8708
 1731SOL     OW16654   2.294   2.121  11.035 -0.8768 -0.2981 -0.3514
 1731SOL    HW116655   2.234   2.182  11.077  0.5712 -0.7814  2.4242
 1731SOL    HW216656   2.231   2.073  10.981 -1.8523 -1.3544  1.7102
 1732SOL     OW16657   3.010   1.472   9.369 -0.3202 -0.5435 -0.4811
 1732SOL    HW116658   3.035   1.509   9.284 -1.4885  0.6117 -0.3158
 1732SOL    HW216659   2.948   1.408   9.335 -3.0914  1.1187  1.4197
 1733SOL     OW16660   4.357   0.643  15.805  0.2531 -0.2078  0.7111
 1733SOL    HW116661   4.441   0.654  15.761 -0.5771  0.7945 -0.6407
 1733SOL    HW216662   4.344   0.548  15.803 -2.3859  0.1922 -1.4537
 1734SOL     OW16663   2.925   4.224  12.795  0.6698  0.0164  0.0495
 1734SOL    HW116664   2.934   4.150  12.855  1.0109  0.1896  0.2160
 1734SOL    HW216665   2.869   4.187  12.727 -1.9680  1.5758  1.3689
 1735SOL     OW16666   0.302   2.351   3.686  0.2190 -0.0327 -0.6556
 1735SOL    HW116667   0.216   2.357   3.727  0.1916 -1.7083 -0.4853
 1735SOL    HW216668   0.293   2.417   3.616  4.4346  0.5081 -0.6908
 1736SOL     OW16669   2.739   3.109   7.012 -0.0848  0.0240  0.5708
 1736SOL    HW116670   2.682   3.049   6.963  0.2385 -0.4840  0.8198
 1736SOL    HW216671   2.778   3.156   6.938 -2.6079  0.6356 -0.3676
 1737SOL     OW16672   1.405   1.318  10.604  0.1531 -0.1930 -0.3811
 1737SOL    HW116673   1.395   1.246  10.666  1.6295 -0.5843 -0.5860
 1737SOL    HW216674   1.315   1.341  10.584 -0.1258 -1.6157 -0.7796
 1738SOL     OW16675   2.160   0.102   5.936 -0.5554  0.0684 -0.1539
 1738SOL    HW116676   2.181   0.053   6.015  1.0309 -0.0150 -0.6116
 1738SOL    HW216677   2.249   0.127   5.912 -0.0180  0.5810  2.4061
 1739SOL     OW16678   4.074   4.170  11.136  0.8014  0.4203  0.2579
 1739SOL    HW116679   4.165   4.190  11.156  1.1071  1.5070 -2.1547
 1739SOL    HW216680   4.027   4.253  11.136  1.5865  0.8585  1.1580
 1740SOL     OW16681   2.950   3.728   4.928  0.1771  0.1081  0.4371
 1740SOL    HW116682   2.944   3.666   5.000  0.8135 -2.3804 -1.6321
 1740SOL    HW216683   2.907   3.679   4.858 -0.2024  1.5663 -0.3410
 1741SOL     OW16684   0.014   0.258   2.844 -0.7676  0.4642 -0.1902
 1741SOL    HW116685   4.686   0.274   2.769 -0.3016 -1.1107 -0.8615
 1741SOL    HW216686   0.103   0.280   2.815  0.7559  0.2730  4.2399
 1742SOL     OW16687   2.991   0.830   7.421 -0.5379  0.5070  0.2188
 1742SOL    HW116688   3.055   0.779   7.371 -1.2732  1.1277 -1.3535
 1742SOL    HW216689   2.904   0.814   7.383 -0.5563  2.4225 -0.5305
 1743SOL     OW16690   0.935   0.446   4.436  0.1471 -0.0934  0.2130
 1743SOL    HW116691   0.887   0.474   4.514 -2.1499  1.0600 -1.6140
 1743SOL    HW216692   0.897   0.499   4.366 -0.5393  0.4366  0.9909
 1744SOL     OW16693   2.653   4.341   0.252  0.0898  0.2503  0.4801
 1744SOL    HW116694   2.649   4.389   0.335 -1.1669  1.3469 -0.2299
 1744SOL    HW216695   2.683   4.261   0.296  1.5890  0.5403 -0.0084
 1745SOL     OW16696   2.114   1.924   1.266 -0.1680  0.1556 -0.7184
 1745SOL    HW116697   2.067   1.986   1.211  0.3185 -0.3681 -1.7319
 1745SOL    HW216698   2.083   1.844   1.224  0.2918 -0.6853  0.5155
 1746SOL     OW16699   2.242   1.351  12.087  0.6694  0.4724 -0.2008
 1746SOL    HW116700   2.304   1.313  12.025 -0.4397 -1.5154 -0.1073
 1746SOL    HW216701   2.280   1.323  12.170  1.6929  0.2582 -0.7539
 1747SOL     OW16702   4.303   4.723   2.290  0.3968 -0.6442  0.1869
 1747SOL    HW116703   4.375   0.059   2.296 -1.7123  1.8487 -1.1331
 1747SOL    HW216704   4.248   0.034   2.222  1.0657 -1.8447 -1.0481
 1748SOL     OW16705   2.195   1.207   9.097  0.5438 -0.2705 -0.0729
 1748SOL    HW116706   2.172   1.298   9.116 -1.3218 -0.5982 -0.7731
 1748SOL    HW216707   2.240   1.191   9.180  2.1373 -0.3023 -0.9290
 1749SOL     OW16708   0.439   0.655   6.684 -0.7084  0.1757  0.0778
 1749SOL    HW116709   0.480   0.734   6.719 -0.6172  0.6524 -1.1040
 1749SOL    HW216710   0.451   0.676   6.592 -0.9931  0.1120  0.0268
 1750SOL     OW16711   0.125   2.385  16.379  0.1601 -0.2995 -0.2360
 1750SOL    HW116712   0.172   2.304  16.355 -2.2347 -1.7819  0.1015
 1750SOL    HW216713   0.140   2.395  16.473  0.5328 -1.9297 -0.1185
 1751SOL     OW16714   1.651   4.692   8.524  0.0753 -0.0294  0.0804
 1751SOL    HW116715   1.661   4.596   8.520 -3.5519 -0.4016 -0.6535
 1751SOL    HW216716   1.573   4.715   8.474  1.0483 -1.2274 -2.0077
 1752SOL     OW16717   4.381   0.607   6.647  0.3750 -0.3707  0.4210
 1752SOL    HW116718   4.377   0.619   6.742 -1.1779  2.0523  0.0495
 1752SOL    HW216719   4.435   0.682   6.623  0.3399 -0.8211 -1.0495
 1753SOL     OW16720   1.536   3.180  15.257  0.2968 -0.2955 -0.5380
 1753SOL    HW116721   1.525   3.098  15.306 -2.8843  0.2279 -0.3840
 1753SOL    HW216722   1.458   3.232  15.277  1.3334  1.8656 -2.1223
 1754SOL     OW16723   4.348   2.971  10.262 -0.1923 -0.2417  0.3003
 1754SOL    HW116724   4.378   2.887  10.297  0.4543 -0.6458 -1.2386
 1754SOL    HW216725   4.417   2.980  10.196 -2.4043  1.0245 -1.8160
 1755SOL     OW16726   3.092   3.839   7.676  0.4985  0.0506 -0.0479
 1755SOL    HW116727   3.080   3.912   7.615 -0.4266 -0.1081 -0.0518
 1755SOL    HW216728   3.186   3.847   7.690  0.3017 -2.3462  2.6537
 1756SOL     OW16729   3.792   2.729  11.097 -0.1325  0.9666 -0.4581
 1756SOL    HW116730   3.733   2.654  11.102  0.0062  0.9924  1.4776
 1756SOL    HW216731   3.858   2.695  11.037 -0.7860 -1.1226 -0.0045
 1757SOL     OW16732   2.342   2.062  11.850 -0.5315  0.0130 -0.0447
 1757SOL    HW116733   2.317   1.969  11.851 -1.6263  0.2980 -1.9519
 1757SOL    HW216734   2.251   2.092  11.857 -0.0550  1.6423 -0.9094
 1758SOL     OW16735   2.225   1.670   4.299 -0.4334 -0.3131 -0.2921
 1758SOL    HW116736   2.257   1.737   4.359 -0.8045 -0.0646 -0.3731
 1758SOL    HW216737   2.271   1.688   4.217 -1.5008  1.3588 -0.5291
 1759SOL     OW16738   4.031   2.470   8.525 -0.5050  0.4258 -0.3880
 1759SOL    HW116739   4.111   2.514   8.551  0.5485 -1.4635 -0.4204
 1759SOL    HW216740   3.998   2.514   8.446 -2.3624  0.3941  0.3779
 1760SOL     OW16741   2.352   2.032   9.829 -0.2578 -0.0781  0.1847
 1760SOL    HW116742   2.404   1.969   9.879 -1.7670 -2.3753 -1.1467
 1760SOL    HW216743   2.261   2.007   9.844 -1.0443  3.1496  0.9047
 1761SOL     OW16744   1.993   4.467   9.248  0.2650 -0.0020  0.4995
 1761SOL    HW116745   2.006   4.518   9.329 -2.0831  1.9025 -0.3478
 1761SOL    HW216746   2.085   4.441   9.238  0.1732 -0.0348 -0.2518
 1762SOL     OW16747   3.561   1.146   0.661 -0.7829 -0.7115 -0.3537
 1762SOL    HW116748   3.564   1.050   0.669  0.2271 -0.6937 -0.5676
 1762SOL    HW216749   3.646   1.167   0.699 -0.2777  1.1189 -2.5895
 1763SOL     OW16750   1.285   1.060  12.049 -0.6655  0.4325 -0.3628
 1763SOL    HW116751   1.198   1.051  12.089 -0.5048  0.5750  0.0168
 1763SOL    HW216752   1.342   0.994  12.087 -0.7643 -0.1626 -1.2457
 1764SOL     OW16753   1.211   0.484   1.667  0.0837 -0.2289  0.1584
 1764SOL    HW116754   1.304   0.466   1.655  0.1836  2.0161 -2.3415
 1764SOL    HW216755   1.214   0.578   1.687 -3.0266 -0.1075  0.0059
 1765SOL     OW16756   3.862   4.045  12.176  0.8826 -0.1530  0.1098
 1765SOL    HW116757   3.869   4.100  12.098 -0.1660  1.0953  0.8830
 1765SOL    HW216758   3.932   4.082  12.229 -0.0544  2.7945 -0.6948
 1766SOL     OW16759   2.832   2.331   7.354  0.7525  0.2163  0.1996
 1766SOL    HW116760   2.851   2.359   7.444 -1.7184 -0.8643  1.0551
 1766SOL    HW216761   2.781   2.252   7.371  2.4929 -1.4315 -2.2038
 1767SOL     OW16762   2.396   2.323   3.484 -0.7303 -0.6940 -0.0421
 1767SOL    HW116763   2.402   2.303   3.391  0.5326 -0.5295  0.0023
 1767SOL    HW216764   2.375   2.238   3.523 -0.8274 -2.1101 -3.1881
 1768SOL     OW16765   0.954   0.023   6.783 -0.4556  0.4015 -0.0173
 1768SOL    HW116766   0.980   0.107   6.820  1.7240 -0.5968  0.7949
 1768SOL    HW216767   0.875   0.008   6.834 -0.2955  0.5249  0.2662
 1769SOL     OW16768   2.784   2.267   5.334  0.1816 -0.2327  0.6333
 1769SOL    HW116769   2.829   2.183   5.325  2.1568  0.9995 -1.0518
 1769SOL    HW216770   2.859   2.325   5.346 -0.6471  0.9966 -0.1233
 1770SOL     OW16771   1.730   2.184  13.045 -0.7318 -0.3812 -0.3328
 1770SOL    HW116772   1.823   2.166  13.056 -1.3402 -1.7481  2.3934
 1770SOL    HW216773   1.734   2.280  13.039 -1.7418 -0.1571  2.6979
 1771SOL     OW16774   2.129   1.003   3.531 -0.6631  0.5030 -0.4876
 1771SOL    HW116775   2.167   0.919   3.505  0.7657  1.1842 -0.6287
 1771SOL    HW216776   2.202   1.054   3.567 -1.7791  2.6841 -1.3137
 1772SOL     OW16777   4.081   2.518   6.112 -0.2043 -0.0104 -0.9237
 1772SOL    HW116778   4.055   2.546   6.025  0.5230  2.3040 -0.3960
 1772SOL    HW216779   4.096   2.602   6.156  2.9284 -1.9607  1.7784
 1773SOL     OW16780   2.632   2.429   0.320  0.4230  0.0282  0.1628
 1773SOL    HW116781   2.633   2.509   0.268  2.1748 -0.6394 -0.8383
 1773SOL    HW216782   2.707   2.382   0.284 -0.5689  0.2059 -2.1039
 1774SOL     OW16783   0.759   2.630  14.030  0.1704  0.2077 -0.3031
 1774SOL    HW116784   0.843   2.586  14.016 -0.7695 -1.1591 -1.7408
 1774SOL    HW216785   0.696   2.557  14.024  0.8440 -0.5294  1.6555
 1775SOL     OW16786   1.767   0.323   2.743 -0.2481 -0.3419  0.0217
 1775SOL    HW116787   1.685   0.361   2.712 -0.0738  0.2255  0.2698
 1775SOL    HW216788   1.799   0.279   2.664  0.6103  3.4472 -1.7200
 1776SOL     OW16789   2.882   3.623  13.565  0.0152  0.2531  0.1226
 1776SOL    HW116790   2.919   3.560  13.503  1.1475 -1.3225  2.4040
 1776SOL    HW216791   2.887   3.704  13.514 -1.0400  0.4054  0.2749
 1777SOL     OW16792   2.303   4.724  10.450 -0.7409  0.2863  0.4338
 1777SOL    HW116793   2.380   0.014  10.397 -0.2146  1.0828  1.4605
 1777SOL    HW216794   2.284   0.079  10.495  0.2582  0.1239  1.1547
 1778SOL     OW16795   2.325   2.620   3.418 -0.2863  0.0121  0.1550
 1778SOL    HW116796   2.233   2.623   3.391 -0.2899  4.5250  0.7731
 1778SOL    HW216797   2.335   2.527   3.438 -0.6255 -0.5841 -2.4900
 1779SOL     OW16798   2.553   2.163   7.871 -0.1562 -0.5284  0.0633
 1779SOL    HW116799   2.561   2.125   7.784  1.3585  0.3350 -0.1781
 1779SOL    HW216800   2.482   2.109   7.907 -0.6825 -1.1423 -1.9343
 1780SOL     OW16801   3.566   1.121   2.675  0.3241 -0.0659 -0.5203
 1780SOL    HW116802   3.606   1.074   2.748  0.7907  0.1829 -0.6141
 1780SOL    HW216803   3.481   1.077   2.684  0.3052 -0.2649 -1.6706
 1781SOL     OW16804   4.243   4.438   8.537 -0.4662  0.2553 -0.2516
 1781SOL    HW116805   4.315   4.447   8.599  2.1057  0.9783 -3.3114
 1781SOL    HW216806   4.226   4.532   8.528 -1.8642 -0.0071 -0.2690
 1782SOL     OW16807   3.131   1.622   4.735 -0.4019 -0.2744  0.2971
 1782SOL    HW116808   3.093   1.547   4.690 -0.9684  0.5362 -0.5649
 1782SOL    HW216809   3.218   1.599   4.703 -1.1388  0.8963 -2.4630
 1783SOL     OW16810   0.190   0.506  17.136 -0.3115 -0.0511 -0.1338
 1783SOL    HW116811   0.254   0.483  17.203  1.9436  1.4688 -1.7594
 1783SOL    HW216812   0.133   0.567  17.183  0.0151  1.0246 -1.1387
 1784SOL     OW16813   1.268   0.163  13.151 -0.1805 -0.0146  0.5912
 1784SOL    HW116814   1.269   0.071  13.176 -0.1702 -0.5287 -1.2526
 1784SOL    HW216815   1.177   0.183  13.129  0.2210  0.5516 -0.5879
 1785SOL     OW16816   3.838   2.758   0.818 -0.2809 -0.3403  0.0082
 1785SOL    HW116817   3.767   2.736   0.757  1.2108  0.1124 -1.9040
 1785SOL    HW216818   3.790   2.801   0.888 -0.7531 -0.0514 -0.4924
 1786SOL     OW16819   0.087   0.163   7.994  0.7361  0.8231 -0.0440
 1786SOL    HW116820   0.094   0.131   8.084  0.8093 -3.8745 -1.7198
 1786SOL    HW216821   0.179   0.177   7.972  0.5223 -0.1231 -1.5056
 1787SOL     OW16822   1.341   2.396   4.472  0.1608 -0.5748 -0.0121
 1787SOL    HW116823   1.350   2.491   4.478  0.2850 -0.6532  1.1904
 1787SOL    HW216824   1.281   2.372   4.543  0.8461 -1.7935  0.1610
 1788SOL     OW16825   3.186   4.221   4.178 -0.3633 -0.0251 -0.0899
 1788SOL    HW116826   3.278   4.236   4.154  0.2394  0.2938  2.4688
 1788SOL    HW216827   3.139   4.265   4.107  1.6185  2.7126  0.2757
 1789SOL     OW16828   4.078   2.159   5.781 -0.1948 -0.5531 -0.0476
 1789SOL    HW116829   4.003   2.124   5.829 -1.1338 -0.1830 -1.2246
 1789SOL    HW216830   4.147   2.131   5.841  0.0905 -1.9775 -1.0512
 1790SOL     OW16831   1.108   1.509   9.029  0.2907  0.0977  0.1452
 1790SOL    HW116832   1.076   1.467   9.109 -0.2477  0.7132  0.2493
 1790SOL    HW216833   1.075   1.596   9.047 -1.0007 -0.8115  2.0968
 1791SOL     OW16834   2.586   2.637   6.261 -0.1445 -0.6218 -0.8390
 1791SOL    HW116835   2.527   2.567   6.233 -0.8909 -1.2123  2.2562
 1791SOL    HW216836   2.656   2.632   6.196  0.9679  0.5818  0.2722
 1792SOL     OW16837   4.439   1.279   5.136  0.3460  0.4566  0.0574
 1792SOL    HW116838   4.485   1.224   5.200 -0.8228  1.3002  1.6415
 1792SOL    HW216839   4.468   1.227   5.061  3.1168  1.2206  0.6059
 1793SOL     OW16840   4.693   0.013   3.852 -0.4139 -0.2596 -0.6105
 1793SOL    HW116841   4.614   4.726   3.904  0.7529 -1.2291  0.8404
 1793SOL    HW216842   4.657   0.008   3.763  5.4191  0.4427 -3.0020
 1794SOL     OW16843   3.314   0.808   4.251 -0.1440 -0.1698 -0.8658
 1794SOL    HW116844   3.409   0.799   4.243  0.0508  0.0499  1.2411
 1794SOL    HW216845   3.288   0.753   4.324  0.8563  0.1527 -0.2700
 1795SOL     OW16846   1.219   0.750   8.140  0.6051  0.9695  0.7278
 1795SOL    HW116847   1.247   0.796   8.220  1.9892 -0.9756  1.3608
 1795SOL    HW216848   1.129   0.784   8.132  0.3395  0.4723  1.6218
 1796SOL     OW16849   4.346   0.225   9.422  0.3171  0.9349  0.5069
 1796SOL    HW116850   4.381   0.221   9.511 -0.7264 -0.4747  0.8556
 1796SOL    HW216851   4.259   0.264   9.437  0.2762  0.7341  0.7927
 1797SOL     OW16852   2.623   1.385   7.508 -0.0158  0.4781  0.4081
 1797SOL    HW116853   2.678   1.309   7.490 -0.0409  1.0523 -2.1313
 1797SOL    HW216854   2.545   1.365   7.456  0.1563  0.7307  0.0480
 1798SOL     OW16855   0.689   0.736  11.167  0.4856 -0.0289  0.1476
 1798SOL    HW116856   0.697   0.702  11.256 -1.5782  1.0354  0.7368
 1798SOL    HW216857   0.616   0.684  11.134  0.7931  0.8773 -1.9424
 1799SOL     OW16858   2.786   2.030   8.277 -0.2106 -0.8512  0.2944
 1799SOL    HW116859   2.830   2.090   8.338 -0.1757 -0.3044 -0.2732
 1799SOL    HW216860   2.769   2.087   8.202 -2.1329  1.7531  2.7141
 1800SOL     OW16861   0.298   1.988  16.563 -0.3439  0.0006 -0.5511
 1800SOL    HW116862   0.294   2.051  16.491 -2.6968  0.9357  0.4237
 1800SOL    HW216863   0.388   1.998  16.593 -0.9820  1.1001  0.9645
 1801SOL     OW16864   2.498   0.246   8.823 -0.6130  0.4556 -0.3815
 1801SOL    HW116865   2.562   0.226   8.892 -0.5675 -1.2048 -0.9127
 1801SOL    HW216866   2.420   0.205   8.861 -1.2568  1.7357 -0.3182
 1802SOL     OW16867   0.273   2.178  16.321  0.7863 -0.7423 -0.4201
 1802SOL    HW116868   0.226   2.114  16.267  0.4464 -1.5458  0.8283
 1802SOL    HW216869   0.347   2.182  16.260  0.5369 -0.1631 -0.6890
 1803SOL     OW16870   0.841   3.720   2.489 -0.0915  0.1291 -0.0332
 1803SOL    HW116871   0.814   3.629   2.471 -2.0224  0.8817 -1.0337
 1803SOL    HW216872   0.935   3.713   2.502  0.2495 -1.2548 -3.0603
 1804SOL     OW16873   3.736   0.866   8.815 -0.6393 -0.1106 -0.2520
 1804SOL    HW116874   3.761   0.794   8.757 -0.9423 -0.3157 -0.1257
 1804SOL    HW216875   3.819   0.884   8.859 -2.5742 -1.8122  4.0729
 1805SOL     OW16876   3.538   1.408   4.470  0.2550  0.0438 -0.1489
 1805SOL    HW116877   3.537   1.313   4.467  0.1348  0.0193  0.7918
 1805SOL    HW216878   3.628   1.430   4.496 -0.3281 -0.4493  2.2690
 1806SOL     OW16879   1.743   4.262   0.197 -0.0707 -0.0785  0.7388
 1806SOL    HW116880   1.765   4.182   0.243  1.4736  0.1660  0.4169
 1806SOL    HW216881   1.828   4.306   0.196  0.8319 -1.8158  1.0720
 1807SOL     OW16882   3.177   2.329   1.785  0.5691  0.2282 -0.6869
 1807SOL    HW116883   3.270   2.310   1.773  1.0523  1.9944  0.4172
 1807SOL    HW216884   3.160   2.244   1.744  1.8232 -0.3351 -0.0496
 1808SOL     OW16885   2.549   4.578   8.469 -0.3220  0.2233  0.3199
 1808SOL    HW116886   2.493   4.591   8.546 -2.1711 -1.6161 -0.7304
 1808SOL    HW216887   2.533   4.664   8.430  0.5782  0.9644  1.5480
 1809SOL     OW16888   3.214   3.254  14.444 -0.2203 -0.0020  0.6915
 1809SOL    HW116889   3.229   3.175  14.390 -1.8178  2.6942 -3.7147
 1809SOL    HW216890   3.230   3.222  14.532 -1.0932  1.4891  1.3836
 1810SOL     OW16891   1.792   2.313   6.994 -0.1001  0.4952  0.0118
 1810SOL    HW116892   1.824   2.314   6.904 -0.4995  0.5737 -0.1281
 1810SOL    HW216893   1.790   2.405   7.021  1.3400  1.0687 -1.8707
 1811SOL     OW16894   3.942   1.202   2.843 -0.1593 -0.4748 -0.0174
 1811SOL    HW116895   3.966   1.171   2.930  0.1803 -0.5036 -0.1201
 1811SOL    HW216896   4.019   1.182   2.789 -1.2133 -0.0024 -1.6870
 1812SOL     OW16897   1.038   0.617   3.135 -0.1539 -0.1190 -0.1146
 1812SOL    HW116898   0.979   0.644   3.206  1.3050  1.9184  0.3087
 1812SOL    HW216899   1.073   0.699   3.101  2.9194 -0.7622  1.5278
 1813SOL     OW16900   1.051   0.614   5.206 -0.3882 -0.0013  0.0409
 1813SOL    HW116901   1.123   0.572   5.252  1.0386  1.2818 -1.0207
 1813SOL    HW216902   1.064   0.698   5.250 -3.6970  0.4576  0.1596
 1814SOL     OW16903   3.199   0.697  16.779 -0.1679  0.5776  0.0251
 1814SOL    HW116904   3.252   0.766  16.740  0.8005 -1.1732 -1.7355
 1814SOL    HW216905   3.190   0.715  16.873 -0.1951 -1.8268  0.4890
 1815SOL     OW16906   3.543   4.060   5.018  1.0528 -0.7283  0.2671
 1815SOL    HW116907   3.582   3.974   5.031 -1.3835 -2.5789 -4.6715
 1815SOL    HW216908   3.450   4.041   5.032  0.9578 -2.1349 -2.3399
 1816SOL     OW16909   3.236   1.889   3.015  0.0597  0.2275 -0.0189
 1816SOL    HW116910   3.175   1.870   2.944 -0.3003  0.1871  0.3028
 1816SOL    HW216911   3.217   1.980   3.037 -1.3507 -0.6110  2.2455
 1817SOL     OW16912   0.430   1.049   7.911 -0.0216 -0.1599 -0.0462
 1817SOL    HW116913   0.496   1.057   7.842  0.6048  0.4487  0.6300
 1817SOL    HW216914   0.426   0.954   7.900 -1.3958  0.2779 -3.3093
 1818SOL     OW16915   1.750   1.496   5.828  0.2609 -0.2662  0.1781
 1818SOL    HW116916   1.735   1.508   5.922  0.8484 -1.7469  0.4574
 1818SOL    HW216917   1.665   1.460   5.802  1.1279 -1.3417 -1.2294
 1819SOL     OW16918   3.976   0.739   5.093 -0.1480 -0.5288  0.0658
 1819SOL    HW116919   4.056   0.691   5.109  0.0906  0.4289  1.7042
 1819SOL    HW216920   3.973   0.783   5.178 -0.9753  2.4870 -1.4864
 1820SOL     OW16921   2.452   0.422  16.294 -0.4310 -0.3942  0.9258
 1820SOL    HW116922   2.367   0.420  16.251 -0.4019 -0.2263  0.8603
 1820SOL    HW216923   2.504   0.439  16.216 -1.1467 -1.6958  0.1673
 1821SOL     OW16924   0.315   3.286   7.547  0.3548 -0.2900 -0.0126
 1821SOL    HW116925   0.363   3.362   7.581  0.3766 -0.1380 -0.3798
 1821SOL    HW216926   0.294   3.241   7.628 -0.1841  0.1726  0.1040
 1822SOL     OW16927   1.025   4.175   8.984 -0.9633 -0.2433 -0.0283
 1822SOL    HW116928   1.007   4.250   8.927  2.3738  0.4384 -0.1882
 1822SOL    HW216929   0.963   4.121   8.935 -0.5219  0.2724 -1.1458
 1823SOL     OW16930   3.914   2.103  13.903 -0.2121 -0.3253  0.4572
 1823SOL    HW116931   3.956   2.186  13.879 -1.0457  0.2854  1.1251
 1823SOL    HW216932   3.956   2.079  13.985  0.0262 -2.0866 -0.1810
 1824SOL     OW16933   3.647   3.930  12.052  0.5755 -0.0868 -0.1967
 1824SOL    HW116934   3.590   4.006  12.042  2.0338  0.9627 -0.5678
 1824SOL    HW216935   3.711   3.958  12.118 -0.5088  2.0248 -0.0375
 1825SOL     OW16936   3.331   4.407   3.306 -0.2278  0.0870 -0.7319
 1825SOL    HW116937   3.373   4.375   3.226 -0.0638 -1.3448 -0.0813
 1825SOL    HW216938   3.255   4.452   3.269 -1.4990 -0.3591  1.2948
 1826SOL     OW16939   2.688   1.166   3.328  0.5296  0.3211  0.1134
 1826SOL    HW116940   2.754   1.201   3.268 -2.1635  2.2029 -1.7954
 1826SOL    HW216941   2.733   1.084   3.347 -2.1271 -0.8342  1.4467
 1827SOL     OW16942   3.638   3.052  11.103 -1.1383 -0.1726  0.8171
 1827SOL    HW116943   3.681   3.020  11.182  2.3984  0.6160 -0.8245
 1827SOL    HW216944   3.637   2.975  11.046 -0.2592  0.1393  0.3791
 1828SOL     OW16945   1.669   0.873   2.881 -0.1575  0.5207  0.6260
 1828SOL    HW116946   1.645   0.800   2.938  0.8120  0.4474  0.9368
 1828SOL    HW216947   1.712   0.934   2.941  1.2940  0.4649 -0.3449
 1829SOL     OW16948   1.706   0.476   1.152  0.0046  0.1582 -0.1837
 1829SOL    HW116949   1.789   0.463   1.106 -0.2468 -1.1880 -0.2586
 1829SOL    HW216950   1.715   0.425   1.233  0.1866  0.0923 -0.2465
 1830SOL     OW16951   1.792   1.128   1.593 -0.2269 -0.3870  0.4929
 1830SOL    HW116952   1.709   1.082   1.579  0.1540 -1.7026  2.6473
 1830SOL    HW216953   1.812   1.150   1.502 -0.9923 -0.0154  0.4184
 1831SOL     OW16954   4.665   3.839   8.771  0.0965 -0.0151 -0.0038
 1831SOL    HW116955   4.658   3.807   8.681 -0.9374  0.8203 -0.2262
 1831SOL    HW216956   0.014   3.788   8.796 -1.1426 -2.3447 -0.9579
 1832SOL     OW16957   2.038   1.949   1.553  0.1130  0.2408 -0.5199
 1832SOL    HW116958   2.006   1.896   1.480  0.4953  2.1983 -2.0924
 1832SOL    HW216959   2.105   2.008   1.519  0.5260 -1.1572 -2.1492
 1833SOL     OW16960   2.089   3.126   2.368  0.3066  0.5278 -0.0363
 1833SOL    HW116961   2.052   3.060   2.425  0.3389  0.7431  0.2343
 1833SOL    HW216962   2.171   3.086   2.339  0.8435  1.3811  0.2938
 1834SOL     OW16963   4.341   1.221   6.207 -0.4543  0.4235  0.0882
 1834SOL    HW116964   4.412   1.253   6.263 -0.1398  2.1378 -1.3077
 1834SOL    HW216965   4.387   1.162   6.147 -0.0234  0.1814  0.6534
 1835SOL     OW16966   4.550   1.094   1.556  0.0713 -0.3363  0.4786
 1835SOL    HW116967   4.485   1.137   1.500 -0.2289 -0.0724  1.0293
 1835SOL    HW216968   4.490   1.037   1.603 -0.7800 -1.9072 -2.5420
 1836SOL     OW16969   3.631   1.218   0.394  0.0332  0.5166 -0.9679
 1836SOL    HW116970   3.601   1.141   0.347 -1.1767  1.1841 -1.3039
 1836SOL    HW216971   3.614   1.206   0.487 -0.0399  2.3623 -0.7404
 1837SOL     OW16972   0.597   1.092   2.650 -0.1261  0.1796  0.5101
 1837SOL    HW116973   0.548   1.121   2.574  1.5751 -1.3076 -1.1651
 1837SOL    HW216974   0.583   1.174   2.696  0.6681  1.4004 -1.4175
 1838SOL     OW16975   2.641   4.079  17.100  0.4319  0.3098  0.5618
 1838SOL    HW116976   2.659   4.169  17.074 -0.1740  0.8535  1.9760
 1838SOL    HW216977   2.726   4.038  17.111 -0.6973 -2.2886 -0.2730
 1839SOL     OW16978   2.458   2.657   0.925  0.1538 -0.1779  0.3663
 1839SOL    HW116979   2.374   2.674   0.967  0.1303  0.8858 -0.1086
 1839SOL    HW216980   2.476   2.742   0.885 -3.0060  1.6194  2.7877
 1840SOL     OW16981   0.419   1.131  12.429 -0.1897  0.4715 -0.7450
 1840SOL    HW116982   0.478   1.079  12.374 -4.0417 -1.7195 -2.8220
 1840SOL    HW216983   0.345   1.142  12.369 -0.6487  2.0507  0.1186
 1841SOL     OW16984   1.660   2.128   2.642 -0.1730 -0.7017 -0.0547
 1841SOL    HW116985   1.602   2.129   2.566 -0.3555  1.8457  0.1191
 1841SOL    HW216986   1.732   2.091   2.590 -0.6124 -2.9438  0.9213
 1842SOL     OW16987   0.690   0.953   8.405  0.4726  0.1316 -0.1973
 1842SOL    HW116988   0.649   1.027   8.450  1.9448  0.1701  1.0735
 1842SOL    HW216989   0.780   0.963   8.435  0.5489  1.6301 -0.9321
 1843SOL     OW16990   0.381   2.458   2.858 -0.0723  0.3487 -0.1233
 1843SOL    HW116991   0.301   2.492   2.899 -0.7110 -0.7659 -0.4595
 1843SOL    HW216992   0.426   2.426   2.937  1.6348  2.1371 -0.3828
 1844SOL     OW16993   1.721   4.251   3.731 -0.3883 -0.1350 -0.3022
 1844SOL    HW116994   1.760   4.206   3.656 -1.7450 -1.1427 -0.4031
 1844SOL    HW216995   1.677   4.178   3.773  0.5024 -0.5422 -0.0826
 1845SOL     OW16996   1.497   3.755  17.296 -0.1980  0.3624 -0.3606
 1845SOL    HW116997   1.436   3.818  17.258 -1.3406  0.5168  1.7305
 1845SOL    HW216998   1.453   3.671  17.285 -0.2541  0.0948  1.9974
 1846SOL     OW16999   3.157   0.673   6.131 -0.0873  0.4686 -0.4903
 1846SOL    HW117000   3.155   0.581   6.157  0.4607 -0.1808 -2.8037
 1846SOL    HW217001   3.118   0.711   6.210 -0.3785 -1.5462  0.3252
 1847SOL     OW17002   2.337   0.214   1.121 -0.8178  0.6201 -0.1008
 1847SOL    HW117003   2.376   0.138   1.078  2.0764  2.4390 -0.6442
 1847SOL    HW217004   2.407   0.278   1.106  0.6839 -1.2504 -1.0232
 1848SOL     OW17005   3.906   0.698   3.605 -0.1549  0.1439  0.0152
 1848SOL    HW117006   3.960   0.658   3.673  2.3166  1.7064 -1.0192
 1848SOL    HW217007   3.885   0.617   3.559  0.6156  0.4454 -0.8749
 1849SOL     OW17008   1.341   1.556  14.235  0.4875  0.0785 -0.2816
 1849SOL    HW117009   1.420   1.583  14.188  0.7248 -0.3236 -0.1167
 1849SOL    HW217010   1.318   1.634  14.285  1.1966 -0.3068  0.6477
 1850SOL     OW17011   0.384   4.170   2.990  1.0255 -0.3474 -0.3633
 1850SOL    HW117012   0.348   4.096   3.040 -3.4497  1.4192 -1.0243
 1850SOL    HW217013   0.309   4.229   3.003  1.4615  0.1610 -0.1373
 1851SOL     OW17014   0.844   0.958   2.441  0.3044 -0.2998  0.0233
 1851SOL    HW117015   0.874   0.874   2.405  1.0963  0.5193 -1.2093
 1851SOL    HW217016   0.823   0.944   2.534 -0.4338  0.8780  0.0281
 1852SOL     OW17017   1.860   4.225  13.253 -0.2444  0.1066 -0.0349
 1852SOL    HW117018   1.933   4.238  13.192 -1.3747 -0.9715 -1.6099
 1852SOL    HW217019   1.820   4.310  13.269 -0.7735  0.0713 -1.2054
 1853SOL     OW17020   1.410   4.008  13.136 -0.0767  0.0515 -0.0284
 1853SOL    HW117021   1.496   4.031  13.171 -0.6441  1.3625  0.5191
 1853SOL    HW217022   1.420   3.913  13.125 -0.0812 -0.1653  1.8624
 1854SOL     OW17023   1.178   1.708   7.734  0.9198  0.1767 -0.0557
 1854SOL    HW117024   1.128   1.788   7.748  1.1225  0.2475  0.2838
 1854SOL    HW217025   1.142   1.654   7.805  0.3677 -0.2720 -0.6792
 1855SOL     OW17026   1.508   1.560   8.164  0.1826  0.1447  0.0411
 1855SOL    HW117027   1.565   1.543   8.089  0.4544  4.0507 -0.6208
 1855SOL    HW217028   1.503   1.655   8.167 -2.9602  0.0548 -2.8424
 1856SOL     OW17029   3.022   3.550   5.371 -0.9986  0.2584  0.5912
 1856SOL    HW117030   2.996   3.541   5.279 -1.0301 -0.5809  0.6857
 1856SOL    HW217031   2.949   3.515   5.423 -1.0214 -0.6170 -0.0296
 1857SOL     OW17032   2.124   0.912  10.893 -0.0994 -0.1103  0.2742
 1857SOL    HW117033   2.052   0.975  10.892 -0.5941 -0.6591  0.6890
 1857SOL    HW217034   2.079   0.842  10.941 -0.8181 -1.9602 -3.0686
 1858SOL     OW17035   0.190   3.101  14.383  0.0471 -0.4746  0.4122
 1858SOL    HW117036   0.096   3.117  14.372  0.0754  0.0094  0.8356
 1858SOL    HW217037   0.230   3.125  14.299  2.7991 -2.9597  1.0037
 1859SOL     OW17038   4.052   2.639   7.944 -0.6291  0.1568 -0.2251
 1859SOL    HW117039   4.046   2.634   7.849 -0.2137 -1.5679 -0.1550
 1859SOL    HW217040   4.046   2.734   7.957 -2.0064  0.0427 -0.0069
 1860SOL     OW17041   3.338   4.245   6.866  0.3845  0.0234  0.0353
 1860SOL    HW117042   3.302   4.301   6.936 -0.0016  0.4578 -0.5132
 1860SOL    HW217043   3.399   4.189   6.914 -0.6218 -1.4151 -0.3874
 1861SOL     OW17044   1.867   3.289   4.316  0.1690 -0.4168  0.1606
 1861SOL    HW117045   1.925   3.343   4.263 -0.2111  0.8457  1.0623
 1861SOL    HW217046   1.786   3.296   4.266 -0.1759 -0.3512  0.7361
 1862SOL     OW17047   1.859   4.079   3.545  0.1692  1.2060 -0.1912
 1862SOL    HW117048   1.935   4.054   3.492  1.9619  2.1229  1.9429
 1862SOL    HW217049   1.816   4.130   3.477  2.4909  2.0696 -1.0106
 1863SOL     OW17050   1.769   1.041   4.961 -0.0590 -0.0191  0.1823
 1863SOL    HW117051   1.841   0.979   4.967  0.0928 -0.0028 -1.3621
 1863SOL    HW217052   1.803   1.116   5.009 -0.9377 -1.3468  2.8752
 1864SOL     OW17053   3.814   3.582   3.492 -0.2063  0.2960 -0.6378
 1864SOL    HW117054   3.871   3.627   3.430 -0.1025 -0.1697 -0.8873
 1864SOL    HW217055   3.880   3.578   3.561 -2.1483  1.9638  1.2711
 1865SOL     OW17056   2.971   2.469   2.598 -0.1694  0.3055 -0.0610
 1865SOL    HW117057   2.995   2.544   2.544  0.9912 -2.4110 -3.3317
 1865SOL    HW217058   2.881   2.455   2.571 -0.5173 -1.2852  1.9619
 1866SOL     OW17059   2.014   3.904   5.217 -0.4971  0.3748 -0.2081
 1866SOL    HW117060   1.953   3.942   5.154 -1.2825 -2.1785 -0.9944
 1866SOL    HW217061   1.959   3.835   5.257  0.3247  0.0389  0.3497
 1867SOL     OW17062   4.355   3.119   0.851  0.1438  0.4341 -0.2721
 1867SOL    HW117063   4.323   3.050   0.908 -1.5433  0.3313 -1.3318
 1867SOL    HW217064   4.414   3.071   0.794 -0.8503 -1.7071  0.5324
 1868SOL     OW17065   2.102   4.281   7.883  0.7409 -0.1059 -0.0520
 1868SOL    HW117066   2.196   4.266   7.874  0.5205 -1.0408 -0.7742
 1868SOL    HW217067   2.100   4.350   7.950  0.3559 -0.5815  0.4341
 1869SOL     OW17068   2.386   2.350   4.496  0.4340 -0.7690  0.2571
 1869SOL    HW117069   2.329   2.404   4.549  2.1468  1.3320 -0.0552
 1869SOL    HW217070   2.451   2.332   4.564  0.7772  2.2828  0.7232
 1870SOL     OW17071   3.843   1.006   4.493 -0.0068  0.1287  0.8896
 1870SOL    HW117072   3.871   0.924   4.452 -0.9084  0.1768  0.1832
 1870SOL    HW217073   3.792   0.978   4.568 -0.1949 -1.4936  0.1564
 1871SOL     OW17074   2.548   3.920   4.746 -0.0714 -0.1437  0.4820
 1871SOL    HW117075   2.472   3.882   4.790 -0.0769  1.0096  1.4870
 1871SOL    HW217076   2.545   3.991   4.810 -0.8011  0.1015  0.1734
 1872SOL     OW17077   2.310   3.550   4.003 -0.4969  0.6022  0.1254
 1872SOL    HW117078   2.385   3.605   4.024  0.1524 -1.0133  2.0711
 1872SOL    HW217079   2.272   3.609   3.938 -0.0165  0.4986 -0.2538
 1873SOL     OW17080   3.243   0.465   4.283  0.1106  0.0546  0.2953
 1873SOL    HW117081   3.273   0.374   4.280  2.5149  0.6753  4.6049
 1873SOL    HW217082   3.234   0.475   4.378 -0.7429 -1.3495  0.3542
 1874SOL     OW17083   1.152   1.196   6.897 -0.3499  0.0836 -0.2662
 1874SOL    HW117084   1.235   1.170   6.856  0.0412  0.0090  0.5770
 1874SOL    HW217085   1.183   1.206   6.987 -0.7754 -0.4394 -0.0604
 1875SOL     OW17086   1.829   0.636   0.801  0.5376  0.1351 -0.5765
 1875SOL    HW117087   1.810   0.586   0.721 -1.3229 -1.6222  0.9629
 1875SOL    HW217088   1.898   0.693   0.768  1.1373 -0.3870 -0.2392
 1876SOL     OW17089   2.527   3.854   6.286 -0.0633 -0.1971 -0.1860
 1876SOL    HW117090   2.599   3.846   6.224 -1.1119  2.6247 -1.7733
 1876SOL    HW217091   2.486   3.937   6.261 -0.7884 -1.0566 -1.8435
 1877SOL     OW17092   0.416   0.564   4.990 -0.5428  0.1136  0.0880
 1877SOL    HW117093   0.506   0.597   4.982  0.8172 -3.6286  0.0534
 1877SOL    HW217094   0.384   0.614   5.065 -0.6229 -0.4460  0.4257
 1878SOL     OW17095   3.359   0.448   8.367  0.1956  0.2241 -0.0584
 1878SOL    HW117096   3.369   0.450   8.272 -1.8075 -0.2487 -0.2682
 1878SOL    HW217097   3.450   0.475   8.382  0.9977 -2.2398 -0.5237
 1879SOL     OW17098   3.262   4.690   5.194 -0.6182  0.0448 -0.4468
 1879SOL    HW117099   3.308   0.031   5.243 -1.5906 -0.4650  1.1903
 1879SOL    HW217100   3.187   0.013   5.163  1.2312  3.1297  0.1094
 1880SOL     OW17101   2.541   1.277   2.239  0.2355 -0.3800  0.5899
 1880SOL    HW117102   2.533   1.330   2.318  0.2390  0.6970 -0.1312
 1880SOL    HW217103   2.449   1.253   2.226  0.3276  0.9651 -2.6008
 1881SOL     OW17104   1.318   0.508  14.445  0.2718 -0.2448 -0.0050
 1881SOL    HW117105   1.270   0.429  14.467 -0.0632  0.4105  1.5549
 1881SOL    HW217106   1.278   0.580  14.493 -0.4993  0.3860 -1.5915
 1882SOL     OW17107   3.929   1.946   2.813  0.0323 -0.1752  0.1749
 1882SOL    HW117108   3.879   1.922   2.735 -0.3952 -0.5579  0.5681
 1882SOL    HW217109   3.980   1.866   2.829 -1.4867 -1.2078 -0.1619
 1883SOL     OW17110   1.667   1.327   3.967  0.0603  0.0794  0.0468
 1883SOL    HW117111   1.575   1.300   3.956 -0.2847  1.7207 -1.0501
 1883SOL    HW217112   1.667   1.407   4.020 -0.1250  0.6042 -0.7424
 1884SOL     OW17113   4.552   4.007   9.165 -0.0033  0.7493  0.1594
 1884SOL    HW117114   4.563   3.922   9.122 -0.3144  2.3488 -3.1219
 1884SOL    HW217115   4.588   3.968   9.244  0.2971  1.8373  0.5625
 1885SOL     OW17116   2.122   0.200  17.394  0.5473 -0.2692 -0.3496
 1885SOL    HW117117   2.072   0.171  17.470 -1.6156 -0.0526 -1.6913
 1885SOL    HW217118   2.198   0.234  17.442 -1.2146  2.2017  0.6768
 1886SOL     OW17119   1.118   0.284  14.373  0.1990  0.3915  0.2647
 1886SOL    HW117120   1.106   0.284  14.278 -3.3494 -0.0228  0.7104
 1886SOL    HW217121   1.044   0.240  14.414  2.6589 -1.2483  2.9124
 1887SOL     OW17122   1.400   3.103   7.820  0.1027 -0.0654 -0.1420
 1887SOL    HW117123   1.432   3.173   7.878  1.9545 -0.9326 -0.1000
 1887SOL    HW217124   1.402   3.036   7.889 -0.6047  1.0990  1.0204
 1888SOL     OW17125   4.298   1.576   2.285 -0.5828 -0.0462 -0.3800
 1888SOL    HW117126   4.393   1.582   2.276 -0.3308 -1.6860  1.1407
 1888SOL    HW217127   4.281   1.482   2.278 -1.9395  0.2449 -1.0137
 1889SOL     OW17128   0.610   0.383   7.839 -0.0878 -0.3819 -0.4804
 1889SOL    HW117129   0.644   0.380   7.750  0.2270  0.6192 -0.3911
 1889SOL    HW217130   0.685   0.402   7.894  1.6075 -3.4576 -1.7709
 1890SOL     OW17131   1.070   2.606   9.552  0.6115 -0.3193  0.0986
 1890SOL    HW117132   0.975   2.619   9.550  0.7902  0.6033 -2.2009
 1890SOL    HW217133   1.076   2.564   9.637  0.1850 -2.1218 -0.7690
 1891SOL     OW17134   0.952   1.868   3.522  0.4390 -0.0069 -0.1766
 1891SOL    HW117135   0.959   1.919   3.603  0.9196 -0.0645 -0.1822
 1891SOL    HW217136   0.863   1.841   3.543  0.3490 -0.4708 -1.1943
 1892SOL     OW17137   4.435   1.298  15.255  0.0771 -0.3564 -0.1203
 1892SOL    HW117138   4.483   1.373  15.290  0.3239 -0.9692  0.8611
 1892SOL    HW217139   4.470   1.220  15.300  0.0118 -0.8208 -0.8795
 1893SOL     OW17140   0.688   1.265  15.792  0.4842  0.8777  0.1500
 1893SOL    HW117141   0.742   1.207  15.846  0.5753 -0.6913 -1.6308
 1893SOL    HW217142   0.753   1.301  15.732  0.9339 -0.0398  0.0800
 1894SOL     OW17143   0.624   0.719   2.893  0.4530  0.8314  0.3732
 1894SOL    HW117144   0.599   0.695   2.983  0.8268 -0.5932  0.0852
 1894SOL    HW217145   0.633   0.631   2.856 -0.7671  0.7169  0.3488
 1895SOL     OW17146   1.025   1.323   6.126  0.5386  0.5449 -0.5639
 1895SOL    HW117147   1.033   1.418   6.140  1.3179 -0.0465  2.8508
 1895SOL    HW217148   1.115   1.295   6.144  0.8405  0.3211 -2.4438
 1896SOL     OW17149   1.493   0.584   8.414  0.1308 -0.2808 -0.0108
 1896SOL    HW117150   1.494   0.498   8.457  0.1384 -0.0701  0.4033
 1896SOL    HW217151   1.557   0.627   8.469 -1.0684  0.2878  0.9418
 1897SOL     OW17152   4.003   1.628   2.145 -0.0460  0.3991  0.1472
 1897SOL    HW117153   4.044   1.561   2.090  1.3608 -0.1705  1.8823
 1897SOL    HW217154   4.040   1.617   2.233  1.5455  0.5338 -0.5088
 1898SOL     OW17155   2.694   4.579   7.376  0.6526  0.0885 -0.6935
 1898SOL    HW117156   2.752   4.530   7.317 -1.4325 -0.6461 -2.1068
 1898SOL    HW217157   2.758   4.637   7.416 -0.6324 -0.3413  1.9723
 1899SOL     OW17158   1.458   2.318   8.458  0.2683  0.2047 -0.2661
 1899SOL    HW117159   1.505   2.268   8.392  3.6454  2.0452  0.7565
 1899SOL    HW217160   1.528   2.328   8.522 -2.0373  0.3526  2.2182
 1900SOL     OW17161   3.263   3.330   8.453  0.6838  0.2066  0.0530
 1900SOL    HW117162   3.282   3.365   8.540 -1.4123  2.4996 -0.4155
 1900SOL    HW217163   3.203   3.257   8.468 -0.9538  1.5175 -0.0911
 1901SOL     OW17164   3.509   4.257   8.679 -0.6102 -0.5675 -0.5648
 1901SOL    HW117165   3.525   4.346   8.646 -1.0973 -0.3180 -0.1194
 1901SOL    HW217166   3.576   4.251   8.748 -1.7500 -1.6898  0.4340
 1902SOL     OW17167   4.688   2.861   8.973  0.0372  0.3095  0.2946
 1902SOL    HW117168   4.656   2.873   9.062 -1.6322  1.1120 -0.4109
 1902SOL    HW217169   0.055   2.850   8.984 -0.4442 -1.4271  2.6521
 1903SOL     OW17170   3.862   0.716   2.145  0.3577 -0.3135 -0.1549
 1903SOL    HW117171   3.822   0.660   2.079 -0.1417 -1.3465  1.0355
 1903SOL    HW217172   3.788   0.751   2.193  0.3758 -1.0598  0.4060
 1904SOL     OW17173   3.029   2.322   9.770 -0.3388 -0.5519  0.1832
 1904SOL    HW117174   3.066   2.278   9.694  0.1218 -0.7157  0.4986
 1904SOL    HW217175   3.109   2.358   9.808 -0.5277  0.5540 -0.4966
 1905SOL     OW17176   0.366   0.774  14.382  0.4568 -0.4077  0.5125
 1905SOL    HW117177   0.429   0.833  14.342  0.8323 -0.2208  1.3891
 1905SOL    HW217178   0.294   0.766  14.318 -0.0249  0.5469  0.9335
 1906SOL     OW17179   2.603   3.063   6.738  0.1926 -0.6936 -0.3525
 1906SOL    HW117180   2.554   3.011   6.802 -2.9805  0.0307 -2.2085
 1906SOL    HW217181   2.558   3.146   6.722  3.6437  1.4881  1.2155
 1907SOL     OW17182   3.764   4.572   3.370  0.0731 -0.3320  0.0840
 1907SOL    HW117183   3.772   4.651   3.424 -2.6226 -0.9314  1.3268
 1907SOL    HW217184   3.857   4.553   3.352 -0.8742 -1.2175 -3.8427
 1908SOL     OW17185   0.659   1.567  10.404  0.1500 -0.0519 -0.2866
 1908SOL    HW117186   0.648   1.629  10.332 -2.3156 -1.9900 -1.5642
 1908SOL    HW217187   0.626   1.488  10.362  0.1755 -0.6245  0.7531
 1909SOL     OW17188   1.401   2.656   3.338  0.1050  0.5170  0.1108
 1909SOL    HW117189   1.320   2.608   3.357 -0.9619  2.5726  0.7609
 1909SOL    HW217190   1.443   2.582   3.293 -1.7823  0.1496 -1.0408
 1910SOL     OW17191   1.165   1.377  14.143  0.7094  0.4393 -0.3012
 1910SOL    HW117192   1.089   1.432  14.162 -1.0067 -1.7142 -0.8414
 1910SOL    HW217193   1.240   1.429  14.171  0.8808  0.9098 -1.6280
 1911SOL     OW17194   4.128   3.109  14.393 -0.4365 -0.4913 -0.1669
 1911SOL    HW117195   4.197   3.173  14.375 -0.6312 -0.3402 -0.3747
 1911SOL    HW217196   4.161   3.081  14.479  2.2259  0.3793 -0.8851
 1912SOL     OW17197   3.827   1.627   5.505 -0.0382  0.7219  0.2900
 1912SOL    HW117198   3.755   1.565   5.517  0.5439  0.1106  0.6143
 1912SOL    HW217199   3.904   1.570   5.508 -1.4009 -1.2061 -1.5443
 1913SOL     OW17200   4.539   1.292   3.305 -0.1062  0.1461  0.5235
 1913SOL    HW117201   4.578   1.239   3.235  0.9434  1.2530  0.2697
 1913SOL    HW217202   4.624   1.322   3.338  0.2752  3.4154 -3.4595
 1914SOL     OW17203   0.301   0.673  16.527  0.2230 -0.8155  0.6323
 1914SOL    HW117204   0.282   0.728  16.452 -1.2510 -2.4179 -0.1714
 1914SOL    HW217205   0.215   0.681  16.568  0.1405 -2.0062  0.6938
 1915SOL     OW17206   0.444   3.925  15.846 -0.5501  0.5450  0.3612
 1915SOL    HW117207   0.375   3.867  15.878  0.5802 -0.5907  0.7540
 1915SOL    HW217208   0.518   3.865  15.859 -0.1582  1.0958  0.6425
 1916SOL     OW17209   2.354   3.919   6.577 -0.3712 -0.3458 -0.7160
 1916SOL    HW117210   2.366   4.003   6.533 -0.8441  1.4168  2.5472
 1916SOL    HW217211   2.384   3.935   6.667  1.9431  1.8041 -1.8570
 1917SOL     OW17212   4.530   2.684   4.571 -0.4048 -0.0399  0.7182
 1917SOL    HW117213   4.583   2.746   4.520 -0.8980  1.4502  2.0273
 1917SOL    HW217214   4.449   2.723   4.603 -0.9950 -1.6890  1.2132
 1918SOL     OW17215   0.799   2.658   9.656 -0.3031  0.7429 -0.1404
 1918SOL    HW117216   0.829   2.728   9.714 -1.4836  2.1970 -1.2932
 1918SOL    HW217217   0.710   2.684   9.632  0.6667  1.7768 -2.6866
 1919SOL     OW17218   3.442   3.985   8.908  0.0153 -0.5761 -0.0460
 1919SOL    HW117219   3.446   4.039   8.987 -4.4868 -1.8031  1.0004
 1919SOL    HW217220   3.535   3.987   8.883 -0.7798  0.9809 -2.8464
 1920SOL     OW17221   0.423   2.396  16.799  0.3481 -0.1820  1.1028
 1920SOL    HW117222   0.446   2.341  16.874 -0.2989 -0.6078  0.9962
 1920SOL    HW217223   0.394   2.473  16.848 -2.1044  0.2837 -1.0547
 1921SOL     OW17224   2.623   3.649   5.181 -0.0640  0.1706  0.2391
 1921SOL    HW117225   2.643   3.586   5.112 -0.2683  0.8829 -0.4700
 1921SOL    HW217226   2.698   3.707   5.175  0.0778 -0.0640 -0.3425
 1922SOL     OW17227   3.419   0.893   3.333  0.5400  0.5174 -0.3292
 1922SOL    HW117228   3.445   0.976   3.372  1.3515  0.8885 -1.6647
 1922SOL    HW217229   3.331   0.915   3.305  0.4916 -0.5839 -1.0760
 1923SOL     OW17230   1.273   4.214   0.731  0.4205 -0.4495 -0.1117
 1923SOL    HW117231   1.225   4.228   0.812 -0.8129 -1.4474 -0.6776
 1923SOL    HW217232   1.362   4.242   0.754 -0.5463  1.9839  0.6905
 1924SOL     OW17233   1.707   1.316  12.112  0.1438 -0.1569  0.2323
 1924SOL    HW117234   1.718   1.386  12.048 -1.8480  0.0123  0.0513
 1924SOL    HW217235   1.640   1.265  12.064 -0.1360  0.1642  0.2844
 1925SOL     OW17236   1.400   3.646  12.583 -0.1712 -0.7402 -0.3282
 1925SOL    HW117237   1.307   3.638  12.605  0.3919 -0.7576  2.0693
 1925SOL    HW217238   1.399   3.716  12.518  0.5589 -0.8183 -0.4187
 1926SOL     OW17239   3.013   2.436   6.945  0.0789  0.2978 -0.2071
 1926SOL    HW117240   3.038   2.528   6.953 -1.6244  0.6985  0.5336
 1926SOL    HW217241   3.026   2.423   6.852  1.3407 -1.2818  0.1867
 1927SOL     OW17242   3.435   0.590  16.580  0.7006 -0.6421 -0.0777
 1927SOL    HW117243   3.353   0.594  16.531 -0.0181  0.3211  1.2017
 1927SOL    HW217244   3.454   0.684  16.584 -0.4252 -0.2510 -3.8979
 1928SOL     OW17245   4.430   4.171   8.980 -0.2135  0.1113 -0.4441
 1928SOL    HW117246   4.374   4.181   9.057  1.8896 -1.7441  1.3144
 1928SOL    HW217247   4.501   4.117   9.014 -2.1249 -2.2198 -0.1579
 1929SOL     OW17248   4.551   2.055  11.668  0.0598 -0.1239 -0.7590
 1929SOL    HW117249   4.587   2.043  11.756  0.7002  0.2687 -0.9656
 1929SOL    HW217250   4.611   2.121  11.633  1.1150 -0.4308  0.4859
 1930SOL     OW17251   3.589   2.120   4.961  0.2289  0.6718 -0.1461
 1930SOL    HW117252   3.608   2.211   4.935 -0.6542  1.2479  1.2280
 1930SOL    HW217253   3.494   2.118   4.950 -0.0300 -1.6079  2.4177
 1931SOL     OW17254   1.032   0.184   4.856 -0.0825  0.2917 -0.3019
 1931SOL    HW117255   1.076   0.160   4.937  0.1742  2.5822  0.2425
 1931SOL    HW217256   0.950   0.225   4.884  0.3817  0.0168  1.4093
 1932SOL     OW17257   3.316   0.530   0.687  0.3063  0.0858  0.4782
 1932SOL    HW117258   3.290   0.446   0.650  1.6715 -0.8519  1.6806
 1932SOL    HW217259   3.404   0.507   0.716  0.8528  0.0391 -1.2300
 1933SOL     OW17260   1.809   2.656   5.527  0.1809  0.2314 -0.3638
 1933SOL    HW117261   1.903   2.645   5.533  0.1965  0.3064 -0.4760
 1933SOL    HW217262   1.768   2.570   5.529 -1.1315  0.8795  1.1286
 1934SOL     OW17263   1.913   1.144  16.809  0.5332  0.0382  0.0721
 1934SOL    HW117264   1.848   1.082  16.842  0.1250  0.3321 -0.1765
 1934SOL    HW217265   1.994   1.135  16.859 -0.5472 -0.9463  1.6248
 1935SOL     OW17266   1.743   3.688   4.473  0.3632  0.2801 -0.2228
 1935SOL    HW117267   1.745   3.594   4.491 -1.5797 -0.2065 -2.6543
 1935SOL    HW217268   1.654   3.703   4.443 -0.4420 -0.9216  1.5669
 1936SOL     OW17269   1.329   1.839   3.268 -0.2518  0.4007  0.1073
 1936SOL    HW117270   1.325   1.808   3.178 -1.1389 -1.9552  0.9745
 1936SOL    HW217271   1.410   1.801   3.304 -2.1440 -3.3218  0.4091
 1937SOL     OW17272   3.883   1.742   8.686 -0.2279  0.0644 -0.0684
 1937SOL    HW117273   3.852   1.831   8.668  2.3968  1.2321  1.2389
 1937SOL    HW217274   3.882   1.705   8.598  2.5054  3.2285 -1.4206
 1938SOL     OW17275   0.875   3.037   0.217 -0.0040  0.1483 -0.0962
 1938SOL    HW117276   0.968   3.048   0.199  0.0016 -1.2189 -0.8857
 1938SOL    HW217277   0.880   2.962   0.276 -0.1690 -0.2648 -0.6139
 1939SOL     OW17278   2.731   1.184   5.132 -0.5759  0.6474 -0.1470
 1939SOL    HW117279   2.698   1.152   5.216  2.4483 -0.2317  0.6996
 1939SOL    HW217280   2.689   1.269   5.124 -1.7542  0.3134  2.6999
 1940SOL     OW17281   4.073   2.790   9.772 -0.0661 -0.2000  0.0921
 1940SOL    HW117282   4.117   2.835   9.844  2.0778 -0.1615 -1.2444
 1940SOL    HW217283   4.148   2.740   9.739  0.9094  0.1114  1.8428
 1941SOL     OW17284   4.605   2.256   8.795 -0.1458  0.4796  0.0416
 1941SOL    HW117285   4.682   2.244   8.850 -0.7371  0.3133  0.8303
 1941SOL    HW217286   4.540   2.194   8.826 -1.7329  1.6064 -0.9985
 1942SOL     OW17287   1.778   0.475   8.935  0.6369  0.7633  0.0905
 1942SOL    HW117288   1.798   0.381   8.936  0.8785  0.8002 -2.1672
 1942SOL    HW217289   1.749   0.489   9.025  1.2767  0.0983  0.4049
 1943SOL     OW17290   3.915   2.134   2.577  1.1045 -0.1938 -0.4012
 1943SOL    HW117291   3.967   2.144   2.656 -0.4244 -1.1030  0.7200
 1943SOL    HW217292   3.860   2.058   2.598  0.1356 -0.1514 -2.8133
 1944SOL     OW17293   1.177   3.303   9.892 -0.0101 -0.1213  0.0476
 1944SOL    HW117294   1.175   3.295   9.988  3.8802  1.0950  0.2396
 1944SOL    HW217295   1.183   3.397   9.874 -2.5565  0.1271  0.5432
 1945SOL     OW17296   2.218   2.015   5.855 -0.1551 -0.0949 -0.1703
 1945SOL    HW117297   2.267   2.064   5.789 -0.8338 -1.0175 -1.3806
 1945SOL    HW217298   2.152   2.078   5.883 -1.5252 -0.5389 -2.4166
 1946SOL     OW17299   4.422   0.960   6.300  0.2579 -0.4937 -0.3401
 1946SOL    HW117300   4.394   0.908   6.376  0.3327  1.3390  0.9168
 1946SOL    HW217301   4.403   1.049   6.327  1.4658 -0.2663 -0.2476
 1947SOL     OW17302   2.849   4.124   3.548  0.0947  0.1443 -0.0079
 1947SOL    HW117303   2.882   4.100   3.462  0.5926 -0.0897  0.2512
 1947SOL    HW217304   2.926   4.152   3.597  1.0315 -1.7786 -0.3958
 1948SOL     OW17305   1.598   1.642   0.879 -0.2649  0.0722 -0.3088
 1948SOL    HW117306   1.582   1.548   0.869 -1.3862  0.0827  1.4263
 1948SOL    HW217307   1.652   1.671   0.805  1.7173  0.8775  1.4502
 1949SOL     OW17308   1.379   1.424   3.078  0.4301 -0.5797  0.1806
 1949SOL    HW117309   1.341   1.356   3.133 -1.8039  0.1459 -0.5037
 1949SOL    HW217310   1.379   1.384   2.990 -3.2477 -0.8433  0.3162
 1950SOL     OW17311   1.098   2.518   7.141  0.4783 -0.7163  0.4847
 1950SOL    HW117312   1.117   2.425   7.153 -0.3524 -1.1037 -1.1102
 1950SOL    HW217313   1.090   2.543   7.233  0.4888  2.7361 -0.4552
 1951SOL     OW17314   3.812   1.116  10.797 -0.0610  0.4120 -0.0766
 1951SOL    HW117315   3.825   1.045  10.734 -2.6582 -0.4169  0.3526
 1951SOL    HW217316   3.763   1.179  10.746 -1.0370 -1.1487 -1.0546
 1952SOL     OW17317   2.411   2.552   8.019  0.2487 -0.4648  0.2075
 1952SOL    HW117318   2.493   2.562   8.066 -0.8167  0.1983  1.9041
 1952SOL    HW217319   2.370   2.632   8.051  1.9747  1.6128 -2.7343
 1953SOL     OW17320   0.817   0.520   2.763 -0.0369  0.1775 -0.1047
 1953SOL    HW117321   0.855   0.437   2.735 -0.2104 -0.0969  0.4809
 1953SOL    HW217322   0.895   0.564   2.798 -1.1101  3.2826 -1.5937
 1954SOL     OW17323   1.237   2.697   9.891 -0.4659 -0.1955 -0.4651
 1954SOL    HW117324   1.171   2.666   9.953 -3.1077 -0.5179 -3.4199
 1954SOL    HW217325   1.289   2.617   9.879  0.0028  0.3330 -1.9380
 1955SOL     OW17326   2.891   3.624   4.430  0.3420  0.2954 -0.2884
 1955SOL    HW117327   2.799   3.624   4.456  0.3925  0.8568 -0.1273
 1955SOL    HW217328   2.893   3.545   4.376  2.0166 -1.5124  2.4503
 1956SOL     OW17329   2.514   2.994  17.091  0.3209  0.2895  0.6036
 1956SOL    HW117330   2.465   2.925  17.046  1.6349 -0.6033  0.5365
 1956SOL    HW217331   2.442   3.040  17.133  1.3941  1.2285  1.4227
 1957SOL     OW17332   2.899   3.375  15.178  0.4099  0.4802 -0.3205
 1957SOL    HW117333   2.838   3.349  15.247  0.0511  2.4991  0.1399
 1957SOL    HW217334   2.900   3.470  15.188 -1.5464  0.5108 -0.2500
 1958SOL     OW17335   1.032   3.594  15.743 -0.4429  0.0837  0.9478
 1958SOL    HW117336   0.989   3.536  15.681 -0.7590  2.2042 -0.7996
 1958SOL    HW217337   0.963   3.618  15.805  0.4403  0.4460  1.8016
 1959SOL     OW17338   1.138   3.963   9.145  0.2628 -0.2733  0.0710
 1959SOL    HW117339   1.082   4.036   9.119  0.3031 -0.4160 -0.4128
 1959SOL    HW217340   1.126   3.924   9.058 -0.7251  1.1763 -0.4428
 1960SOL     OW17341   1.438   0.952   3.550  0.6673  0.9766  0.0970
 1960SOL    HW117342   1.485   1.032   3.573  1.9930  0.8885 -2.3290
 1960SOL    HW217343   1.397   0.948   3.636  1.9269  0.2101  0.6732
 1961SOL     OW17344   2.097   1.867  15.849 -0.3331 -0.2658 -0.7436
 1961SOL    HW117345   2.179   1.833  15.886 -0.8702 -1.0313 -0.2678
 1961SOL    HW217346   2.032   1.836  15.912  0.4621 -0.0549  0.1762
 1962SOL     OW17347   2.193   0.741   7.569 -0.4612 -0.0532  0.0031
 1962SOL    HW117348   2.182   0.826   7.612 -0.0183 -0.2958  0.6019
 1962SOL    HW217349   2.261   0.699   7.622  0.1299  0.8227 -0.0613
 1963SOL     OW17350   2.602   0.896   5.350 -0.2417 -0.2754  0.3320
 1963SOL    HW117351   2.632   0.983   5.375 -2.1788  0.7068 -0.7548
 1963SOL    HW217352   2.674   0.852   5.305  0.0451 -0.1606  0.6840
 1964SOL     OW17353   2.299   4.442   4.158 -0.2722  0.2654  0.4381
 1964SOL    HW117354   2.328   4.351   4.159  0.8244  0.6432  2.1654
 1964SOL    HW217355   2.330   4.454   4.247 -1.2454  1.2873  0.6376
 1965SOL     OW17356   2.163   2.474   4.626  0.0970  0.2429 -0.3054
 1965SOL    HW117357   2.121   2.421   4.693  2.7026 -1.7683 -0.2435
 1965SOL    HW217358   2.100   2.476   4.554 -1.3226 -0.5300  0.9338
 1966SOL     OW17359   4.552   3.378   4.933 -0.2660  0.1405 -0.3339
 1966SOL    HW117360   4.505   3.461   4.927 -0.3340  0.1513  0.4293
 1966SOL    HW217361   4.612   3.385   5.007 -4.5350  1.4569  2.9859
 1967SOL     OW17362   3.210   1.906   5.205  0.2453 -0.3656 -0.0585
 1967SOL    HW117363   3.262   1.904   5.125  0.1192 -2.8139 -0.0836
 1967SOL    HW217364   3.217   1.817   5.239 -1.7370 -0.4045  0.2818
 1968SOL     OW17365   3.084   1.893   4.907  0.5548 -0.6182 -0.5629
 1968SOL    HW117366   3.050   1.973   4.947 -0.8554 -0.7361 -1.5561
 1968SOL    HW217367   3.060   1.912   4.816 -1.0207  2.3797  0.5138
 1969SOL     OW17368   1.101   3.681   9.012  0.7598 -0.1240 -0.0682
 1969SOL    HW117369   1.103   3.590   9.041 -1.6618  0.0865  0.8336
 1969SOL    HW217370   1.010   3.711   9.011  0.4594 -0.9716  1.6006
 1970SOL     OW17371   2.646   3.458   6.875 -0.4455 -0.5263 -0.0250
 1970SOL    HW117372   2.741   3.467   6.883 -0.9030  2.9407  1.8935
 1970SOL    HW217373   2.642   3.493   6.786 -1.5416  0.0546  0.2554
 1971SOL     OW17374   0.036   4.590   2.144 -0.5373 -0.7418 -0.0651
 1971SOL    HW117375   0.077   4.536   2.076  1.7840 -0.6222  1.2429
 1971SOL    HW217376   4.677   4.549   2.150  0.5663 -3.3906 -1.9660
 1972SOL     OW17377   3.956   2.718  14.964  0.1520  0.1714 -0.3581
 1972SOL    HW117378   4.018   2.647  14.948  0.5820  0.9510 -2.1345
 1972SOL    HW217379   3.871   2.677  14.982  1.3296 -1.8824  0.6192
 1973SOL     OW17380   3.110   1.450  16.874  0.3017  0.2470 -0.0280
 1973SOL    HW117381   3.045   1.508  16.835  0.4498  0.6493  0.3228
 1973SOL    HW217382   3.176   1.440  16.805  0.7831  0.6172  0.3759
 1974SOL     OW17383   3.196   1.426  14.060  0.2052 -0.0564  1.1817
 1974SOL    HW117384   3.158   1.496  14.007  1.5073  0.6344  1.1805
 1974SOL    HW217385   3.289   1.446  14.054  0.0567  0.4178  0.3601
 1975SOL     OW17386   3.899   1.232  12.122 -0.8594  0.2985  0.6153
 1975SOL    HW117387   3.987   1.256  12.094 -0.8625 -0.9168 -0.4447
 1975SOL    HW217388   3.873   1.185  12.042  0.9705  0.1776  0.0938
 1976SOL     OW17389   2.835   1.230   6.315 -0.0397  0.3916 -0.0399
 1976SOL    HW117390   2.858   1.140   6.294  0.1292  0.2031  0.9565
 1976SOL    HW217391   2.741   1.225   6.300 -0.2503 -0.6697  1.7564
 1977SOL     OW17392   3.778   3.007  10.220  0.1505  0.5136 -0.0879
 1977SOL    HW117393   3.790   3.050  10.136  1.2434  0.3985  0.0150
 1977SOL    HW217394   3.869   2.992  10.245  0.4984  1.2693 -0.9034
 1978SOL     OW17395   0.046   2.423   6.935 -0.3419  0.0502 -0.3161
 1978SOL    HW117396   0.074   2.338   6.901  0.3451  0.5615 -1.0419
 1978SOL    HW217397   0.119   2.478   6.905 -2.7128  1.1080 -4.1753
 1979SOL     OW17398   0.054   4.617   6.329  0.5938  0.5561  0.2672
 1979SOL    HW117399   4.718   4.569   6.383 -1.6606  0.6734 -2.2952
 1979SOL    HW217400   0.133   4.563   6.329  2.0375  2.6919 -2.5283
 1980SOL     OW17401   3.991   2.055   4.495  0.4488 -0.1141  0.0548
 1980SOL    HW117402   3.964   2.139   4.457  1.4423 -0.3018 -1.0667
 1980SOL    HW217403   3.916   2.031   4.550  0.5702  0.2611  0.3937
 1981SOL     OW17404   3.917   4.712   3.091 -0.0072  0.4765 -0.4188
 1981SOL    HW117405   3.847   0.044   3.064 -2.2104 -2.1200 -0.4456
 1981SOL    HW217406   3.955   4.707   3.004  0.1892 -0.8971 -0.2577
 1982SOL     OW17407   0.311   2.949  10.827 -0.3556  0.1146 -0.1023
 1982SOL    HW117408   0.261   2.887  10.879 -0.4753  2.1303  2.1572
 1982SOL    HW217409   0.301   3.031  10.876  2.4047 -0.0690  0.7892
 1983SOL     OW17410   2.989   1.060   7.017  0.0734  0.4707  0.1378
 1983SOL    HW117411   3.032   0.997   7.075  0.6208 -0.4414 -1.2748
 1983SOL    HW217412   2.952   1.116   7.085  0.7310 -0.8895  1.6282
 1984SOL     OW17413   1.573   0.713   9.638  0.0774  0.0094 -0.7844
 1984SOL    HW117414   1.664   0.682   9.633 -0.4594 -1.5897 -0.5622
 1984SOL    HW217415   1.542   0.667   9.715 -1.1230  1.8221 -0.1766
 1985SOL     OW17416   2.852   0.686   2.755  0.1448 -0.0337 -0.0347
 1985SOL    HW117417   2.769   0.671   2.709  0.5432 -2.2470 -0.0484
 1985SOL    HW217418   2.828   0.725   2.838  1.0866  0.6017 -0.0671
 1986SOL     OW17419   1.730   3.251   7.134 -0.0291 -0.0618 -0.0873
 1986SOL    HW117420   1.743   3.249   7.229  0.5111  0.1535 -0.1571
 1986SOL    HW217421   1.690   3.335   7.116 -0.7232  0.1578  2.5463
 1987SOL     OW17422   0.312   4.293  15.592  0.2959 -0.1825  0.3840
 1987SOL    HW117423   0.284   4.218  15.540  1.3407 -0.8506  0.7903
 1987SOL    HW217424   0.242   4.358  15.583  0.0192 -0.3485  1.3365
 1988SOL     OW17425   4.362   1.010   9.102 -0.1390  0.6338 -0.2188
 1988SOL    HW117426   4.389   1.079   9.042  0.2542 -0.8202 -1.7008
 1988SOL    HW217427   4.296   1.067   9.143 -0.3152 -0.3025  0.7875
 1989SOL     OW17428   4.241   1.762  15.995  0.3617  0.2804  0.2910
 1989SOL    HW117429   4.318   1.786  16.047 -0.8504  0.2006  2.1357
 1989SOL    HW217430   4.228   1.668  16.012 -0.2530  0.2875 -0.1666
 1990SOL     OW17431   0.918   1.827   2.776 -0.1643 -0.2807 -0.3200
 1990SOL    HW117432   0.982   1.814   2.706  0.5933  2.4027 -0.1250
 1990SOL    HW217433   0.855   1.760   2.746 -1.1605  0.5803 -0.1492
 1991SOL     OW17434   2.161   1.848  15.578  0.7352 -0.1172  0.2228
 1991SOL    HW117435   2.106   1.773  15.556  1.4853 -0.3598 -0.8411
 1991SOL    HW217436   2.129   1.861  15.667 -0.9370 -0.9246 -0.2616
 1992SOL     OW17437   4.140   1.321   5.041 -0.1930  0.2916  0.1683
 1992SOL    HW117438   4.140   1.380   5.116  3.2205  2.2498 -1.3344
 1992SOL    HW217439   4.217   1.273   5.072  0.8467 -0.0599 -2.9347
 1993SOL     OW17440   3.839   3.693   6.873  1.0642 -0.1240 -0.3499
 1993SOL    HW117441   3.782   3.641   6.928 -0.3104  0.6058 -1.0748
 1993SOL    HW217442   3.900   3.621   6.858 -1.0975 -1.7231 -1.4170
 1994SOL     OW17443   0.201   2.048   3.101  0.0807  0.2766 -0.2824
 1994SOL    HW117444   0.168   2.122   3.050 -2.5467 -0.8716 -0.2498
 1994SOL    HW217445   0.226   2.096   3.180 -1.9095  0.4742  0.2337
 1995SOL     OW17446   3.443   3.027  12.059  0.1462  0.0975  0.1364
 1995SOL    HW117447   3.536   3.002  12.063  0.4521  1.1470 -0.4117
 1995SOL    HW217448   3.410   2.946  12.020  1.9983 -0.2936 -0.6261
 1996SOL     OW17449   3.365   2.818   6.132 -0.1395 -0.0137  0.3405
 1996SOL    HW117450   3.294   2.840   6.191 -0.0551  0.4408  0.2694
 1996SOL    HW217451   3.357   2.722   6.133 -2.4962  0.1840 -0.2497
 1997SOL     OW17452   0.958   0.527  16.700 -0.1227  0.9659 -0.2522
 1997SOL    HW117453   0.883   0.519  16.759  0.5339  4.0333  1.0038
 1997SOL    HW217454   1.013   0.583  16.755  0.1641  0.7170 -0.2851
 1998SOL     OW17455   2.766   3.832   2.342  0.2311 -0.0833  0.4501
 1998SOL    HW117456   2.798   3.749   2.308  0.0018  0.4996 -1.1764
 1998SOL    HW217457   2.671   3.818   2.335  0.1193  1.6957 -1.6894
 1999SOL     OW17458   0.074   1.174   7.252  0.8067 -0.3826  0.1161
 1999SOL    HW117459   0.092   1.264   7.225 -0.6670  0.0182  0.4980
 1999SOL    HW217460   0.004   1.162   7.188  0.5861 -2.8981  0.8425
 2000SOL     OW17461   4.341   1.209  17.469  0.1132 -0.4551 -0.4807
 2000SOL    HW117462   4.329   1.246  17.557  1.2953  1.0187 -0.9333
 2000SOL    HW217463   4.255   1.207  17.428 -0.1311  1.1055 -0.0758
 2001SOL     OW17464   1.240   4.480   8.024  0.0349 -0.0327  0.5867
 2001SOL    HW117465   1.286   4.398   8.010 -0.6426 -0.7389  2.5847
 2001SOL    HW217466   1.183   4.451   8.095  0.5890 -0.6350  0.7835
 2002SOL     OW17467   4.378   4.037   7.979 -0.0272 -0.3553  0.0789
 2002SOL    HW117468   4.440   4.106   8.001 -0.6409 -0.4620  2.1439
 2002SOL    HW217469   4.314   4.046   8.050 -0.9973  0.7576 -0.9490
 2003SOL     OW17470   4.158   1.157   4.781  0.3459  0.0517 -0.0836
 2003SOL    HW117471   4.182   1.076   4.736  1.0691 -0.2864  0.9234
 2003SOL    HW217472   4.234   1.165   4.839  1.3361  1.5841 -1.5752
 2004SOL     OW17473   1.215   4.455   1.574 -0.0609  0.1957  0.3564
 2004SOL    HW117474   1.197   4.388   1.507 -1.7886  0.3297  0.6689
 2004SOL    HW217475   1.128   4.489   1.597  0.8383  1.6999  1.5138
 2005SOL     OW17476   3.877   2.291   6.050 -0.3815 -0.3093  0.1703
 2005SOL    HW117477   3.910   2.364   5.998 -1.3094 -0.0167 -0.0052
 2005SOL    HW217478   3.829   2.342   6.115 -0.7619 -0.4156 -0.0303
 2006SOL     OW17479   1.422   4.264   9.806 -0.0358 -0.0167 -0.0799
 2006SOL    HW117480   1.416   4.310   9.723  2.3524  1.0420  0.3544
 2006SOL    HW217481   1.461   4.330   9.864  2.4785 -2.4104  0.9300
 2007SOL     OW17482   1.794   1.219  14.330 -0.4095  0.2478  0.3017
 2007SOL    HW117483   1.796   1.257  14.418  2.4430 -0.9160  0.7228
 2007SOL    HW217484   1.876   1.171  14.328  1.2240  3.0201  0.4004
 2008SOL     OW17485   2.038   1.331   3.520  0.0659  0.1036  0.1967
 2008SOL    HW117486   2.068   1.348   3.609 -1.0553  0.2125  0.5623
 2008SOL    HW217487   1.945   1.355   3.519 -0.2832 -1.2451 -0.4113
 2009SOL     OW17488   4.164   1.575   1.186 -0.3028 -0.5292  0.2106
 2009SOL    HW117489   4.123   1.549   1.104 -0.4178 -0.4532  0.2445
 2009SOL    HW217490   4.214   1.655   1.170 -0.0216 -1.1045 -1.7011
 2010SOL     OW17491   0.218   1.109   4.028 -0.2718 -0.4377  0.1415
 2010SOL    HW117492   0.151   1.067   4.082 -0.1117 -2.4408 -1.2102
 2010SOL    HW217493   0.232   1.194   4.069  0.3584  0.2163 -1.4603
 2011SOL     OW17494   3.215   0.760  12.956 -0.3654  0.0677 -0.2223
 2011SOL    HW117495   3.250   0.673  12.936  0.2474 -0.1050  1.5539
 2011SOL    HW217496   3.147   0.747  13.023 -2.5164  1.2980 -2.1776
 2012SOL     OW17497   0.674   2.501   1.958  0.0210  0.3833 -0.0427
 2012SOL    HW117498   0.691   2.447   2.035 -0.9155 -0.9307 -0.7452
 2012SOL    HW217499   0.585   2.470   1.939  0.2463 -1.4480  1.8395
 2013SOL     OW17500   1.806   3.828  10.127 -0.4396  0.1627  0.2376
 2013SOL    HW117501   1.860   3.794  10.056 -2.9023 -0.5371 -1.3165
 2013SOL    HW217502   1.778   3.908  10.081  0.3516 -0.6711 -1.6906
 2014SOL     OW17503   2.091   0.000   5.501 -0.3467  0.1023  0.2256
 2014SOL    HW117504   2.138   4.653   5.466 -1.4697  0.5386 -2.2024
 2014SOL    HW217505   2.120   4.722   5.592 -0.4748  0.8440  0.3139
 2015SOL     OW17506   3.439   0.749   6.591  1.3214  0.2006  0.6383
 2015SOL    HW117507   3.381   0.787   6.656 -0.8107 -2.8659  0.5348
 2015SOL    HW217508   3.518   0.797   6.616  1.7353 -0.2300  0.1847
 2016SOL     OW17509   0.029   2.159   2.049  0.2461 -0.0790  0.0685
 2016SOL    HW117510   0.019   2.074   2.006  0.4018 -0.6902  1.2424
 2016SOL    HW217511   0.004   2.136   2.138 -1.8872  2.0233  0.0138
 2017SOL     OW17512   1.655   3.666  13.874 -0.1391 -0.2562  0.4463
 2017SOL    HW117513   1.651   3.690  13.967 -0.7917  0.7536  0.1593
 2017SOL    HW217514   1.744   3.632  13.865  0.2086  0.4633  1.1839
 2018SOL     OW17515   0.771   3.991   8.150 -0.3477 -0.1185 -1.0265
 2018SOL    HW117516   0.801   3.928   8.216 -1.3381 -0.6455 -1.0797
 2018SOL    HW217517   0.836   4.061   8.157 -2.0855  1.4299 -0.4749
 2019SOL     OW17518   3.043   0.648   3.709  0.1162 -0.2610  0.1779
 2019SOL    HW117519   3.129   0.661   3.750  0.0054 -1.6165  0.8284
 2019SOL    HW217520   3.033   0.558   3.742  1.0875 -0.2025  0.6425
 2020SOL     OW17521   4.721   0.433   7.618 -0.1710  0.2333  0.0156
 2020SOL    HW117522   0.054   0.363   7.643 -1.0133 -1.1971 -1.9033
 2020SOL    HW217523   0.015   0.509   7.672 -0.2632  1.6811 -2.0056
 2021SOL     OW17524   3.086   4.686   3.742 -0.1827 -0.2322  0.1816
 2021SOL    HW117525   3.139   0.029   3.705 -0.8781  0.7187  0.9992
 2021SOL    HW217526   3.156   4.620   3.741  0.7160  0.7260 -1.1892
 2022SOL     OW17527   4.134   3.192   6.752 -0.1411 -0.2524  0.0763
 2022SOL    HW117528   4.040   3.198   6.771 -0.1478 -2.2187  0.7384
 2022SOL    HW217529   4.138   3.099   6.773 -0.5272 -0.4510 -0.7411
 2023SOL     OW17530   3.689   3.436   3.076  0.6463  0.5622  0.0115
 2023SOL    HW117531   3.682   3.342   3.059 -1.9590  0.5573  0.9957
 2023SOL    HW217532   3.637   3.439   3.157 -0.4101  1.1427 -0.6860
 2024SOL     OW17533   0.413   4.560   2.128  0.1639  0.2797  0.2787
 2024SOL    HW117534   0.422   4.653   2.110 -3.4823  0.7526  0.8025
 2024SOL    HW217535   0.337   4.540   2.073  1.2383 -0.7447 -0.8375
 2025SOL     OW17536   1.219   2.818   3.645  0.3014  0.2763 -0.0219
 2025SOL    HW117537   1.174   2.739   3.614 -0.1480  1.3488 -2.1338
 2025SOL    HW217538   1.181   2.814   3.732  0.6339  0.3860  0.1299
 2026SOL     OW17539   1.622   2.101   3.218  0.0728  0.6962 -0.5686
 2026SOL    HW117540   1.713   2.077   3.237 -0.6004 -3.0227 -2.0142
 2026SOL    HW217541   1.576   2.047   3.283 -0.5713  0.6353 -1.0716
 2027SOL     OW17542   4.020   1.228  15.992  0.2878  0.0477  0.3766
 2027SOL    HW117543   4.078   1.236  16.068 -1.7744  0.3457  1.9128
 2027SOL    HW217544   4.030   1.310  15.943 -2.0903  0.2790  0.2921
 2028SOL     OW17545   3.661   4.074   8.521 -0.2121 -0.0436  0.0711
 2028SOL    HW117546   3.615   3.996   8.549 -1.4351  1.3882  2.0234
 2028SOL    HW217547   3.698   4.094   8.607 -2.7991  3.0187  0.4621
 2029SOL     OW17548   0.532   4.039  10.569  0.0742  0.3837 -0.1466
 2029SOL    HW117549   0.572   3.988  10.640 -1.0246  0.1854  0.3222
 2029SOL    HW217550   0.615   4.057  10.526  0.4313 -0.6978  0.0823
 2030SOL     OW17551   2.861   1.008   1.984 -0.0840  0.6553 -0.3544
 2030SOL    HW117552   2.930   1.068   1.956  2.0427 -1.6916 -0.1211
 2030SOL    HW217553   2.790   1.071   2.000  0.9704  1.7284  0.0930
 2031SOL     OW17554   0.810   1.520   4.185 -0.1489 -0.3768  0.2188
 2031SOL    HW117555   0.875   1.528   4.255 -2.3134 -0.8300  2.2824
 2031SOL    HW217556   0.825   1.431   4.152 -0.5584 -0.3351 -0.0868
 2032SOL     OW17557   2.096   4.279   2.347  0.1191 -0.3314 -0.4894
 2032SOL    HW117558   2.191   4.264   2.345  0.1407 -0.1944 -0.5202
 2032SOL    HW217559   2.075   4.220   2.419  0.0171 -2.8947 -2.6573
 2033SOL     OW17560   2.136   0.641   3.203  0.3164  0.0376 -0.5028
 2033SOL    HW117561   2.115   0.572   3.141  0.5718  0.1401 -0.7040
 2033SOL    HW217562   2.195   0.693   3.148  0.1629  0.6238 -0.1112
 2034SOL     OW17563   4.255   0.576   3.118 -0.0293 -0.5160 -0.3103
 2034SOL    HW117564   4.345   0.550   3.103  0.7434  1.3996  0.9290
 2034SOL    HW217565   4.277   0.646   3.179 -1.0750 -1.0713  0.7277
 2035SOL     OW17566   1.074   1.455   1.144 -0.8353  0.5855 -1.0140
 2035SOL    HW117567   1.154   1.485   1.186 -0.3687 -0.8967 -0.8284
 2035SOL    HW217568   1.118   1.401   1.077 -2.0280  0.0676 -1.3817
 2036SOL     OW17569   0.553   1.429   8.466  0.3867  0.5456  0.3137
 2036SOL    HW117570   0.537   1.488   8.540 -1.3369 -0.8595  1.0371
 2036SOL    HW217571   0.606   1.359   8.503  0.8210 -0.1454 -1.6143
 2037SOL     OW17572   4.380   1.434   7.736  0.3609  0.4753  0.2763
 2037SOL    HW117573   4.350   1.351   7.774  1.8320 -0.1245  0.1346
 2037SOL    HW217574   4.459   1.450   7.789  1.3720 -0.4576 -0.9735
 2038SOL     OW17575   0.401   3.007  11.136 -0.7190  0.0141  0.4889
 2038SOL    HW117576   0.437   3.016  11.225 -1.0904  0.7825  0.5590
 2038SOL    HW217577   0.471   3.030  11.075 -0.4400 -0.3082  0.6857
 2039SOL     OW17578   4.348   2.608   7.282  0.2423  0.3132 -0.3424
 2039SOL    HW117579   4.329   2.515   7.278 -1.1392  0.3688  5.1568
 2039SOL    HW217580   4.443   2.617   7.291  0.2341 -1.6838  1.5324
 2040SOL     OW17581   0.911   2.911   2.737  0.5659  0.3480  0.2606
 2040SOL    HW117582   0.926   2.834   2.792  3.4987  1.1700  0.6358
 2040SOL    HW217583   0.878   2.869   2.658 -0.0831 -0.0989  0.7758
 2041SOL     OW17584   1.756   1.747   6.381  0.1303  0.3409 -0.5324
 2041SOL    HW117585   1.669   1.769   6.348  0.9169  1.1170 -2.1187
 2041SOL    HW217586   1.778   1.664   6.338  1.2572 -0.8102  2.2885
 2042SOL     OW17587   2.238   1.009  14.696  0.0845 -0.4402 -0.1648
 2042SOL    HW117588   2.306   1.027  14.631  0.9821  1.5452  1.3090
 2042SOL    HW217589   2.280   0.965  14.769  0.5776 -0.4409 -0.4501
 2043SOL     OW17590   4.572   2.666   4.028  0.3900  0.0521  0.2217
 2043SOL    HW117591   4.541   2.692   4.114  2.8139 -0.9644  1.3790
 2043SOL    HW217592   4.489   2.665   3.979  0.4652 -1.2266  0.1116
 2044SOL     OW17593   2.172   2.649   9.318  0.4429  0.2676  0.1028
 2044SOL    HW117594   2.212   2.567   9.347  1.3721 -0.2548 -2.6452
 2044SOL    HW217595   2.157   2.690   9.403 -0.0603 -1.1399  0.6920
 2045SOL     OW17596   3.600   4.103   4.481  0.3489 -0.1188  0.4589
 2045SOL    HW117597   3.603   4.133   4.572 -1.7838  1.5888 -0.0687
 2045SOL    HW217598   3.594   4.190   4.442 -0.7916 -0.1100  0.6717
 2046SOL     OW17599   0.210   2.431  16.640  0.2776  0.0510 -0.6245
 2046SOL    HW117600   0.286   2.419  16.697  0.6677 -0.3246 -1.2128
 2046SOL    HW217601   0.178   2.520  16.654 -2.5016 -1.2063  1.1026
 2047SOL     OW17602   2.720   0.175   0.933  0.0721 -0.2236 -0.0073
 2047SOL    HW117603   2.760   0.208   1.013 -0.6975  1.1604 -0.1889
 2047SOL    HW217604   2.760   0.226   0.863 -0.3482 -1.3058 -1.0295
 2048SOL     OW17605   0.583   0.864   6.759 -0.4502 -0.0984  0.9681
 2048SOL    HW117606   0.603   0.943   6.708  0.5120 -1.0218 -0.0903
 2048SOL    HW217607   0.670   0.830   6.778 -0.6392  0.1297  2.2025
 2049SOL     OW17608   3.317   3.787   6.318 -0.6714 -0.0680  0.0442
 2049SOL    HW117609   3.260   3.863   6.326 -1.4296 -0.7008  0.7225
 2049SOL    HW217610   3.398   3.832   6.293 -0.3895 -0.1840  0.7334
 2050SOL     OW17611   0.160   3.436  17.397 -0.3057 -0.2240 -0.5731
 2050SOL    HW117612   0.208   3.414  17.477  1.6021 -0.2595 -1.7419
 2050SOL    HW217613   0.203   3.372  17.341  0.0624  1.6472 -2.4334
 2051SOL     OW17614   1.502   1.528   2.774 -0.3010  0.2377 -0.3207
 2051SOL    HW117615   1.555   1.458   2.737  3.4201  2.3961  0.9733
 2051SOL    HW217616   1.547   1.526   2.859 -4.6357 -2.7324  1.9544
 2052SOL     OW17617   2.556   3.704   0.847  0.3079  0.5907  0.2047
 2052SOL    HW117618   2.462   3.699   0.864  0.8426 -1.3689  2.6132
 2052SOL    HW217619   2.591   3.678   0.932 -0.8401  1.4933  0.9573
 2053SOL     OW17620   2.547   0.363   1.939 -0.2257 -0.0699  0.0744
 2053SOL    HW117621   2.545   0.293   2.005  2.1754 -1.6032 -1.4884
 2053SOL    HW217622   2.534   0.439   1.995  0.5460 -1.4312  2.0862
 2054SOL     OW17623   1.209   0.653   0.647  0.0321 -0.0590 -0.6291
 2054SOL    HW117624   1.144   0.665   0.716  0.7767  0.5488 -0.0265
 2054SOL    HW217625   1.279   0.701   0.691 -0.5067  0.9633 -0.8899
 2055SOL     OW17626   0.577   4.355   2.048  0.1903  0.2505 -0.2705
 2055SOL    HW117627   0.499   4.304   2.025 -0.3725  1.7122 -1.5597
 2055SOL    HW217628   0.533   4.421   2.102 -0.6179 -1.2505  0.9377
 2056SOL     OW17629   2.268   4.338   3.686  0.5454  0.1949 -0.3839
 2056SOL    HW117630   2.251   4.321   3.779  1.1149  0.3075 -0.2608
 2056SOL    HW217631   2.279   4.433   3.682  0.8062  0.1553 -0.5988
 2057SOL     OW17632   0.101   1.330   2.374 -0.5801 -0.3718 -0.3967
 2057SOL    HW117633   0.179   1.362   2.330  0.8587  0.4600  2.7551
 2057SOL    HW217634   0.105   1.377   2.458  0.6584 -0.2546 -0.5272
 2058SOL     OW17635   0.210   2.986   6.926 -0.1777  0.4708  0.6648
 2058SOL    HW117636   0.147   3.057   6.934 -2.0266 -1.2111  1.1968
 2058SOL    HW217637   0.268   3.027   6.862  0.4059  2.1155  2.2832
 2059SOL     OW17638   4.360   0.941   4.759  0.1234  0.0265  0.2006
 2059SOL    HW117639   4.343   0.855   4.721 -1.1228  0.7297 -0.8613
 2059SOL    HW217640   4.318   0.929   4.844  1.8380 -4.3967  0.4446
 2060SOL     OW17641   1.319   3.023   5.586  0.0222 -0.2902  0.1113
 2060SOL    HW117642   1.413   3.037   5.600 -0.1540 -2.1071  3.1406
 2060SOL    HW217643   1.304   3.023   5.491 -0.8579  0.5923  0.2557
 2061SOL     OW17644   3.869   0.590   0.253 -0.2417 -0.6410  0.2479
 2061SOL    HW117645   3.909   0.676   0.246 -1.0773 -0.1720  1.2414
 2061SOL    HW217646   3.944   0.532   0.239 -0.9983 -1.0648 -2.0438
 2062SOL     OW17647   2.292   3.605   3.236  0.3832  0.7054  0.0419
 2062SOL    HW117648   2.339   3.583   3.317  2.3051  0.9068 -1.0109
 2062SOL    HW217649   2.207   3.573   3.264  1.5245 -1.6122  0.9013
 2063SOL     OW17650   4.286   1.346   2.517  0.5435  0.1958 -0.1509
 2063SOL    HW117651   4.283   1.302   2.433  0.9916  2.9455 -1.6075
 2063SOL    HW217652   4.379   1.368   2.524 -0.4746  4.2745  0.7868
 2064SOL     OW17653   2.034   0.639  15.235  0.0224  0.0164  0.0066
 2064SOL    HW117654   2.101   0.672  15.296  1.6550  1.1997 -2.4287
 2064SOL    HW217655   1.961   0.632  15.296 -0.8607 -0.7028 -1.1447
 2065SOL     OW17656   3.184   3.584  17.587 -0.1887 -0.1349  0.1923
 2065SOL    HW117657   3.193   3.663  17.640  1.0461  1.1128 -1.8721
 2065SOL    HW217658   3.100   3.600  17.544 -0.8365  1.1072  1.9540
 2066SOL     OW17659   2.054   4.387   6.090 -0.3309 -0.4327 -0.4242
 2066SOL    HW117660   2.143   4.400   6.058  0.1316  0.3422  1.1926
 2066SOL    HW217661   2.061   4.409   6.182  1.4899 -0.5621 -0.5386
 2067SOL     OW17662   3.603   2.499   5.201  0.0081  0.2778  0.3762
 2067SOL    HW117663   3.522   2.455   5.175  0.5291 -0.1545 -0.5325
 2067SOL    HW217664   3.658   2.478   5.125 -1.6299 -0.6852 -0.5407
 2068SOL     OW17665   1.617   3.764   5.248 -0.2785  0.4079 -0.4405
 2068SOL    HW117666   1.664   3.688   5.213  1.2800  0.1629  2.2323
 2068SOL    HW217667   1.628   3.746   5.341 -2.0895 -2.3966 -0.7573
 2069SOL     OW17668   3.088   4.635   5.819 -0.0661  0.4585  0.1482
 2069SOL    HW117669   3.144   4.702   5.857  1.1291 -0.1473 -0.5427
 2069SOL    HW217670   3.164   4.587   5.785 -0.7216 -0.4015 -0.1337
 2070SOL     OW17671   2.655   0.358   8.636 -0.2031  0.0337  0.0547
 2070SOL    HW117672   2.595   0.306   8.690 -0.4483 -1.5093 -1.6925
 2070SOL    HW217673   2.698   0.399   8.711  2.5366 -0.7684 -1.0946
 2071SOL     OW17674   4.411   2.731   9.704  0.2211 -0.1651 -0.0017
 2071SOL    HW117675   4.450   2.694   9.783 -0.3698 -0.0475  0.3457
 2071SOL    HW217676   4.467   2.699   9.633 -0.9439  0.7810 -1.3688
 2072SOL     OW17677   2.138   4.093   4.718 -0.4342 -0.5075 -0.3111
 2072SOL    HW117678   2.173   4.008   4.693  1.0810 -0.4279  1.4629
 2072SOL    HW217679   2.193   4.140   4.656  0.8517  1.0487  1.9896
 2073SOL     OW17680   2.280   0.412  15.876  0.4423 -0.0901  0.4013
 2073SOL    HW117681   2.308   0.499  15.848  2.0627 -1.0292 -0.9253
 2073SOL    HW217682   2.191   0.396  15.844  0.3110  1.7488 -0.1793
 2074SOL     OW17683   1.592   2.856   4.726  0.4475 -0.5637 -0.7684
 2074SOL    HW117684   1.598   2.913   4.803  0.2727  0.4079 -1.4775
 2074SOL    HW217685   1.589   2.767   4.762 -0.7865 -0.9867 -1.9293
 2075SOL     OW17686   0.359   0.524   7.957  0.5345  0.5725  0.7608
 2075SOL    HW117687   0.416   0.467   7.905 -2.2817 -1.6815  0.1213
 2075SOL    HW217688   0.361   0.481   8.043 -0.1271  0.6783  0.8340
 2076SOL     OW17689   2.549   1.078  14.638 -0.5145 -0.0098  0.3975
 2076SOL    HW117690   2.617   1.135  14.676  0.1560 -0.0668 -0.7239
 2076SOL    HW217691   2.514   1.045  14.721  0.3759  0.4954  0.9824
 2077SOL     OW17692   1.202   0.529   8.824 -0.4581  0.0202  0.2980
 2077SOL    HW117693   1.295   0.543   8.808 -0.2774 -0.5102  0.9090
 2077SOL    HW217694   1.171   0.515   8.734  2.5483  0.1678 -0.7731
 2078SOL     OW17695   3.601   0.295   7.232  0.1283  0.1094 -0.5321
 2078SOL    HW117696   3.551   0.293   7.314  2.3790  3.5710  0.8956
 2078SOL    HW217697   3.563   0.371   7.187  2.3898  2.5304  1.6298
 2079SOL     OW17698   2.165   4.495  13.706 -0.0729 -0.3314 -0.4174
 2079SOL    HW117699   2.136   4.551  13.634  0.1637  2.5356  1.7424
 2079SOL    HW217700   2.161   4.411  13.661 -0.1834 -0.0117 -1.0073
 2080SOL     OW17701   0.641   0.961  12.347 -0.2083  0.2232  0.0356
 2080SOL    HW117702   0.700   0.889  12.328 -0.8859 -0.3921  0.2823
 2080SOL    HW217703   0.698   1.038  12.356  1.9683 -1.5421  1.2809
 2081SOL     OW17704   0.829   2.290  17.629 -0.1908 -0.3256  0.1730
 2081SOL    HW117705   0.793   2.370  17.669 -2.7367 -0.8504 -1.0739
 2081SOL    HW217706   0.839   2.229  17.702  1.5999 -0.8562 -0.5183
 2082SOL     OW17707   1.866   4.019   6.102 -1.5625 -0.1403  0.0859
 2082SOL    HW117708   1.951   4.049   6.068 -1.1956 -2.0472 -0.6775
 2082SOL    HW217709   1.876   4.013   6.198 -0.5727  0.0707  0.0005
 2083SOL     OW17710   1.374   2.891   9.771  0.0796 -0.0646 -0.2642
 2083SOL    HW117711   1.459   2.863   9.807  0.7132  1.1175 -0.8428
 2083SOL    HW217712   1.312   2.828   9.809  0.0410  0.6927  0.9339
 2084SOL     OW17713   1.666   1.217   6.089 -0.4553 -0.6573 -0.6528
 2084SOL    HW117714   1.630   1.133   6.116 -1.5672 -0.0741 -0.3027
 2084SOL    HW217715   1.589   1.264   6.056 -0.3040 -2.2651 -3.2547
 2085SOL     OW17716   2.959   1.406   1.232 -0.7177  0.2183 -0.1659
 2085SOL    HW117717   2.993   1.398   1.143  2.3791  1.6614  0.8909
 2085SOL    HW217718   2.945   1.313   1.250  1.5702 -0.6551 -2.8070
 2086SOL     OW17719   4.632   3.377   9.961  0.2992  0.6158 -0.6423
 2086SOL    HW117720   4.723   3.374   9.990  0.3494  1.4801 -0.7319
 2086SOL    HW217721   4.642   3.445   9.895 -0.9395 -0.2059 -1.6962
 2087SOL     OW17722   4.058   0.328   2.567 -0.7046  0.2520 -0.7933
 2087SOL    HW117723   4.022   0.404   2.522  2.4196  1.7042 -0.8991
 2087SOL    HW217724   4.148   0.361   2.572 -0.8494  0.3286  1.1440
 2088SOL     OW17725   4.693   2.989   2.406  0.2228  0.0431 -0.9223
 2088SOL    HW117726   4.715   2.949   2.490 -2.2132  1.6368  0.4677
 2088SOL    HW217727   0.042   2.971   2.351 -0.0627 -3.0066 -0.3149
 2089SOL     OW17728   1.199   1.531   5.103 -0.2747  1.1497 -0.2201
 2089SOL    HW117729   1.253   1.461   5.141  1.1895  2.5178  0.2092
 2089SOL    HW217730   1.231   1.527   5.013  2.9518  0.4298  0.9644
 2090SOL     OW17731   3.361   0.222   7.364  0.1551  0.1903  0.0787
 2090SOL    HW117732   3.322   0.275   7.295 -1.1473  0.8227  1.3085
 2090SOL    HW217733   3.402   0.288   7.420  0.7065 -2.0435  2.3429
 2091SOL     OW17734   2.254   1.919  17.444  0.1036  1.0662 -0.2448
 2091SOL    HW117735   2.168   1.924  17.401  0.6114 -0.6913 -1.4980
 2091SOL    HW217736   2.227   1.907  17.535 -0.2233 -1.5771 -0.6949
 2092SOL     OW17737   2.269   1.799  11.847 -0.4676  0.0100  0.3867
 2092SOL    HW117738   2.272   1.735  11.776 -0.7160  0.2603  0.1507
 2092SOL    HW217739   2.263   1.742  11.924 -0.0884 -0.3923  0.1139
 2093SOL     OW17740   3.855   3.815   4.940 -0.0347 -0.5012  0.3562
 2093SOL    HW117741   3.773   3.804   4.987 -0.4168 -0.5872 -0.3250
 2093SOL    HW217742   3.902   3.866   5.006  2.5402 -3.4241  0.8033
 2094SOL     OW17743   3.297   2.690   7.520 -0.4060  0.5086  0.2441
 2094SOL    HW117744   3.365   2.726   7.577 -2.2479  2.0846  1.4565
 2094SOL    HW217745   3.221   2.720   7.571 -1.8509  0.8581 -2.0934
 2095SOL     OW17746   3.754   4.308   3.123 -0.3443 -0.6213 -0.6084
 2095SOL    HW117747   3.836   4.351   3.100 -0.7302  1.5880  2.1532
 2095SOL    HW217748   3.709   4.366   3.185 -2.9939 -1.9568 -1.2755
 2096SOL     OW17749   3.988   4.470  14.554  0.4008  0.3904  0.2206
 2096SOL    HW117750   4.014   4.555  14.518 -2.6389  0.8966 -0.8404
 2096SOL    HW217751   4.061   4.442  14.608 -0.6831 -2.5896  0.1600
 2097SOL     OW17752   2.283   1.611   5.219 -0.2591  0.2919  0.6567
 2097SOL    HW117753   2.309   1.519   5.231  2.4619  0.6242 -2.6439
 2097SOL    HW217754   2.224   1.626   5.293  0.1841  0.5969  0.9501
 2098SOL     OW17755   4.524   1.780   3.236  0.1440  0.7318  0.3729
 2098SOL    HW117756   4.489   1.726   3.307  1.1978  1.5916  1.5383
 2098SOL    HW217757   4.598   1.828   3.274 -0.8794  0.6407  2.4502
 2099SOL     OW17758   2.961   3.522   5.121  0.2544 -0.1862 -0.0723
 2099SOL    HW117759   3.004   3.448   5.080  0.5540  0.6743 -1.2913
 2099SOL    HW217760   2.872   3.490   5.105 -0.1947 -0.0015  2.0649
 2100SOL     OW17761   1.180   4.605   4.074 -0.5473 -0.3462  0.3625
 2100SOL    HW117762   1.104   4.662   4.065 -1.3473 -1.3571  0.7046
 2100SOL    HW217763   1.209   4.634   4.161 -0.1739  0.8846 -0.1729
 2101SOL     OW17764   3.838   1.921  10.163  0.6155  0.2734  0.0733
 2101SOL    HW117765   3.899   1.989  10.192  1.5067 -0.9695  1.0940
 2101SOL    HW217766   3.874   1.901  10.076  0.9273  1.3342 -0.0381
 2102SOL     OW17767   1.083   2.393   8.735  0.1156 -0.1655 -0.4391
 2102SOL    HW117768   1.142   2.345   8.792  2.4226  2.3121 -0.7368
 2102SOL    HW217769   1.140   2.434   8.670  1.3074  0.2757  0.8940
 2103SOL     OW17770   4.467   0.992   4.340 -0.0065 -0.0633 -0.3849
 2103SOL    HW117771   4.464   1.031   4.253 -1.1167 -2.1832 -1.3119
 2103SOL    HW217772   4.451   1.072   4.390 -1.0349  0.8303 -2.1674
 2104SOL     OW17773   3.753   3.703   6.307  0.3233  0.2333 -0.5868
 2104SOL    HW117774   3.783   3.782   6.261  0.1529  0.4986 -0.2364
 2104SOL    HW217775   3.705   3.737   6.382  1.5549 -1.6729  1.0493
 2105SOL     OW17776   3.393   1.345  10.510  0.4388 -0.1267  0.1450
 2105SOL    HW117777   3.403   1.406  10.437  0.9519 -0.9825 -0.5025
 2105SOL    HW217778   3.398   1.402  10.587  0.9329  0.4409 -0.3091
 2106SOL     OW17779   1.485   4.343  13.328  0.1681  0.2198  0.8525
 2106SOL    HW117780   1.419   4.288  13.285  0.9771  0.8300 -1.1715
 2106SOL    HW217781   1.554   4.282  13.353  0.1605 -1.0580 -2.3074
 2107SOL     OW17782   2.887   4.421   6.913 -0.1837 -0.8563  0.1985
 2107SOL    HW117783   2.922   4.364   6.846  2.1881  0.2940  0.4522
 2107SOL    HW217784   2.926   4.375   6.987 -0.5639 -2.1221 -0.3929
 2108SOL     OW17785   1.271   3.814  10.267  0.2890 -0.0872 -0.0808
 2108SOL    HW117786   1.300   3.725  10.288  0.8832 -0.2411 -1.5525
 2108SOL    HW217787   1.181   3.803  10.297  0.3578  1.3163  0.6588
 2109SOL     OW17788   0.677   2.203   8.933 -0.0555  0.4351  0.6505
 2109SOL    HW117789   0.718   2.249   8.859 -0.0014  1.5295  1.3666
 2109SOL    HW217790   0.753   2.151   8.958 -0.7085 -2.3747 -3.1625
 2110SOL     OW17791   0.495   3.892   6.761  1.1078 -0.3690  0.9463
 2110SOL    HW117792   0.567   3.951   6.781  0.4089  0.6954  0.3132
 2110SOL    HW217793   0.506   3.893   6.666  1.0902 -0.7404  0.9377
 2111SOL     OW17794   1.274   3.575  13.017 -0.1021  0.0607 -0.5277
 2111SOL    HW117795   1.361   3.598  12.983 -0.8211  1.0548 -1.7064
 2111SOL    HW217796   1.274   3.622  13.100  1.0974 -1.1644  0.1719
 2112SOL     OW17797   3.201   2.226   5.198  0.4275 -0.1497  0.5569
 2112SOL    HW117798   3.144   2.185   5.133  0.5933  1.1391 -0.4094
 2112SOL    HW217799   3.285   2.203   5.156 -0.2656 -0.5724 -0.5970
 2113SOL     OW17800   4.192   3.762   6.595  0.3444 -0.2812 -0.2519
 2113SOL    HW117801   4.272   3.750   6.645  1.6308 -0.0395 -2.2589
 2113SOL    HW217802   4.231   3.805   6.518  2.0563  0.4891  1.0512
 2114SOL     OW17803   3.737   2.862   8.994  0.5946 -0.3743 -0.1492
 2114SOL    HW117804   3.720   2.851   9.088  0.5514  0.0854 -0.1027
 2114SOL    HW217805   3.760   2.955   8.996  3.6370 -1.1431  0.8252
 2115SOL     OW17806   3.240   4.114   5.581 -0.1121 -0.2067 -1.4079
 2115SOL    HW117807   3.231   4.053   5.653  0.9589  0.9861 -0.2716
 2115SOL    HW217808   3.312   4.067   5.540  1.5594 -0.0407  1.4113
 2116SOL     OW17809   3.386   2.680  13.254 -0.0352  0.3402  0.4100
 2116SOL    HW117810   3.418   2.626  13.326 -2.0244 -0.4246  0.7217
 2116SOL    HW217811   3.418   2.766  13.281  1.2854  0.5036 -1.6794
 2117SOL     OW17812   0.956   0.266   3.934 -0.0657 -0.4121 -0.1904
 2117SOL    HW117813   0.890   0.260   3.865 -0.4117  0.1338  0.0897
 2117SOL    HW217814   0.944   0.189   3.990  0.1314 -0.1285  0.2425
 2118SOL     OW17815   3.211   1.691   1.720 -0.2866  0.4536  0.1458
 2118SOL    HW117816   3.217   1.739   1.638  3.3049 -0.8940 -0.3712
 2118SOL    HW217817   3.158   1.612   1.710 -1.8593  1.2332  2.2651
 2119SOL     OW17818   3.464   4.293   5.341 -0.1733  0.2940 -0.2075
 2119SOL    HW117819   3.388   4.319   5.393  1.0496  3.7952 -0.1249
 2119SOL    HW217820   3.442   4.201   5.328 -0.5331  0.3137  0.2575
 2120SOL     OW17821   3.886   3.417   0.881  0.4011 -0.1135 -0.7069
 2120SOL    HW117822   3.858   3.326   0.866  1.9673 -0.6338 -0.5142
 2120SOL    HW217823   3.941   3.439   0.805  0.9408  0.7432 -0.0643
 2121SOL     OW17824   3.392   1.655   3.795  0.1893 -0.1300  0.6994
 2121SOL    HW117825   3.320   1.603   3.829 -0.5538  1.3200  1.3705
 2121SOL    HW217826   3.436   1.588   3.743 -1.7591  1.0175 -2.4000
 2122SOL     OW17827   1.976   4.695   4.356 -0.3949  0.2118 -0.2969
 2122SOL    HW117828   2.037   4.702   4.430  0.3652  1.6433 -1.0741
 2122SOL    HW217829   1.904   4.648   4.399 -1.2775  1.0737 -0.8493
 2123SOL     OW17830   1.745   0.256   4.508  0.0789  0.2972  0.4391
 2123SOL    HW117831   1.678   0.293   4.565  0.8043  1.1832  0.7130
 2123SOL    HW217832   1.718   0.164   4.502  0.3560  0.3348 -1.3896
 2124SOL     OW17833   4.011   1.673   6.451  0.3208 -0.2007  0.3949
 2124SOL    HW117834   3.960   1.735   6.400 -0.5157  0.5499  2.1456
 2124SOL    HW217835   4.103   1.684   6.425 -0.0557  4.6873  1.2202
 2125SOL     OW17836   0.715   0.983   5.834 -0.1827 -0.0177  0.1791
 2125SOL    HW117837   0.664   0.985   5.915 -0.3265  1.5492  0.0524
 2125SOL    HW217838   0.661   1.047   5.787 -0.3812  0.3684  0.9221
 2126SOL     OW17839   0.447   2.804   8.593  0.3008 -0.0840  0.1275
 2126SOL    HW117840   0.506   2.733   8.615  0.5659  0.3270  0.7447
 2126SOL    HW217841   0.408   2.831   8.677 -0.0789  0.6255 -0.2701
 2127SOL     OW17842   1.897   0.651   7.877  0.4071  0.5975  0.1151
 2127SOL    HW117843   1.858   0.626   7.961  0.7982 -0.8127 -0.1354
 2127SOL    HW217844   1.965   0.584   7.877  1.0193  1.2304 -3.6444
 2128SOL     OW17845   2.078   4.622  10.571 -0.6107 -0.2162 -0.8569
 2128SOL    HW117846   2.084   4.676  10.650  0.4964  1.1486 -1.8750
 2128SOL    HW217847   2.168   4.630  10.539  0.0932  2.6429  1.8671
 2129SOL     OW17848   0.120   4.495  15.524  0.1861  0.7562 -0.5623
 2129SOL    HW117849   0.069   4.440  15.464 -2.5995  2.8728 -0.1414
 2129SOL    HW217850   0.151   4.561  15.463  0.5177  1.1743  0.0613
 2130SOL     OW17851   0.573   0.269  16.016  0.0522 -0.2013  0.0806
 2130SOL    HW117852   0.546   0.273  16.108 -0.2767 -0.1261 -0.0184
 2130SOL    HW217853   0.541   0.353  15.984 -2.1266 -0.7187  0.8713
 2131SOL     OW17854   2.507   2.461   3.872  0.2287  0.1781 -0.3854
 2131SOL    HW117855   2.515   2.376   3.917  1.0886 -0.7143 -2.2419
 2131SOL    HW217856   2.413   2.480   3.873  0.4739  1.3732 -1.2638
 2132SOL     OW17857   3.553   4.606  10.817 -0.0129 -0.6546  0.1336
 2132SOL    HW117858   3.584   4.667  10.749  1.0911 -0.8272  0.4808
 2132SOL    HW217859   3.636   4.573  10.853 -0.1762 -0.4646  0.6812
 2133SOL     OW17860   1.850   2.635  10.862  0.1105  0.9546 -0.2323
 2133SOL    HW117861   1.916   2.586  10.911 -1.5251 -0.4410  0.5400
 2133SOL    HW217862   1.818   2.697  10.927  1.7664  1.1751  0.3793
 2134SOL     OW17863   1.710   1.797  16.588 -0.5349  0.0888  0.3281
 2134SOL    HW117864   1.745   1.828  16.672 -0.9684  2.1613 -0.2691
 2134SOL    HW217865   1.717   1.886  16.554 -2.1473  0.1161  0.0744
 2135SOL     OW17866   2.021   0.741   1.605 -0.4341 -0.7869 -0.0825
 2135SOL    HW117867   2.063   0.676   1.549 -0.9051 -0.8292 -0.3970
 2135SOL    HW217868   1.961   0.697   1.666  0.8420 -0.0948  1.6587
 2136SOL     OW17869   4.428   3.485  14.322 -0.6424  0.2662  0.0675
 2136SOL    HW117870   4.344   3.502  14.365 -0.5035  1.1486 -0.0233
 2136SOL    HW217871   4.425   3.389  14.317 -0.3938  0.3569 -1.8919
 2137SOL     OW17872   4.682   3.513   9.091 -0.3854 -0.1926 -0.0305
 2137SOL    HW117873   4.715   3.474   9.010  0.2647  0.7395 -0.2191
 2137SOL    HW217874   0.017   3.478   9.154  0.4316  2.9620  0.8850
 2138SOL     OW17875   0.485   0.996   9.942  0.3960 -0.1821 -0.9999
 2138SOL    HW117876   0.498   0.968   9.851 -0.2934  1.1230 -1.5088
 2138SOL    HW217877   0.546   0.938   9.988 -1.0244 -0.1217  0.9676
 2139SOL     OW17878   2.988   3.993   4.745  0.1457  0.2254  0.5527
 2139SOL    HW117879   2.937   4.043   4.681  0.8717  1.0727  0.6434
 2139SOL    HW217880   3.006   3.906   4.710  0.5403  1.2120 -1.6954
 2140SOL     OW17881   2.017   4.363   6.587 -0.0763  0.2225  0.1422
 2140SOL    HW117882   1.950   4.352   6.654 -2.2846  1.4092 -1.8684
 2140SOL    HW217883   2.104   4.352   6.625  0.5254  1.2198 -0.9151
 2141SOL     OW17884   2.954   2.167  15.278 -0.0546  0.1093  0.0495
 2141SOL    HW117885   2.869   2.122  15.277 -0.3557  0.6968 -0.9103
 2141SOL    HW217886   2.930   2.248  15.323 -1.2190  0.4576 -1.2213
 2142SOL     OW17887   2.544   4.365   3.811  0.6758  0.2295  0.0526
 2142SOL    HW117888   2.508   4.414   3.884  0.3335 -0.2302  0.1930
 2142SOL    HW217889   2.587   4.287   3.848  0.0921 -0.5852 -0.9690
 2143SOL     OW17890   4.177   1.767   5.587  0.4480  0.2212 -0.1338
 2143SOL    HW117891   4.151   1.777   5.679 -0.9550  1.0042 -0.6218
 2143SOL    HW217892   4.179   1.672   5.576 -0.4059  0.0652  1.0479
 2144SOL     OW17893   1.930   4.556  16.042  0.5682  0.2559  0.7361
 2144SOL    HW117894   1.915   4.462  16.033  3.1042  0.0353 -1.3184
 2144SOL    HW217895   2.007   4.557  16.099  0.3975 -2.6066  1.0310
 2145SOL     OW17896   1.356   2.675   7.804  0.1066  0.0009  0.1956
 2145SOL    HW117897   1.275   2.717   7.775  0.5915  0.1336 -0.9897
 2145SOL    HW217898   1.361   2.696   7.897  1.3398  1.8217 -0.2753
 2146SOL     OW17899   3.745   4.138   6.378  0.1157 -0.0858 -0.3053
 2146SOL    HW117900   3.719   4.199   6.309  2.0958 -1.5956 -2.3812
 2146SOL    HW217901   3.838   4.127   6.362  0.2930 -0.0459  0.7096
 2147SOL     OW17902   1.853   3.117  13.601  0.1501 -0.0140  0.0518
 2147SOL    HW117903   1.803   3.128  13.682 -0.7717  1.7692 -0.7637
 2147SOL    HW217904   1.902   3.198  13.614  1.2594 -1.2009  3.2880
 2148SOL     OW17905   1.268   0.804   0.204  0.6413  0.2052 -0.2780
 2148SOL    HW117906   1.324   0.757   0.266  0.1592 -2.3340 -1.7678
 2148SOL    HW217907   1.326   0.837   0.135  0.8479 -2.2675 -1.2782
 2149SOL     OW17908   2.594   3.458   8.086  0.5140  0.0206 -0.1925
 2149SOL    HW117909   2.576   3.536   8.137 -0.5864 -0.4720  0.1681
 2149SOL    HW217910   2.651   3.498   8.020 -0.7989 -0.3919 -1.5844
 2150SOL     OW17911   0.839   4.053   8.824 -0.0456  0.1049  0.0531
 2150SOL    HW117912   0.862   3.986   8.760 -1.8658 -0.1328 -0.3412
 2150SOL    HW217913   0.747   4.035   8.840 -0.2258  0.8110 -0.1978
 2151SOL     OW17914   3.349   2.757   1.924 -0.2121 -0.2473 -0.1328
 2151SOL    HW117915   3.335   2.762   1.829 -1.4670  1.4427  0.1575
 2151SOL    HW217916   3.402   2.677   1.929  1.9537  1.2833  1.1417
 2152SOL     OW17917   3.571   4.125  17.669  0.1813 -0.3976  0.2743
 2152SOL    HW117918   3.571   4.032  17.649 -1.0669 -0.1780 -0.7090
 2152SOL    HW217919   3.500   4.118   0.022  0.3772 -0.9732  0.4248
 2153SOL     OW17920   2.027   0.651   9.748  0.3964 -0.3846 -0.0860
 2153SOL    HW117921   2.108   0.614   9.714  0.1006 -1.3829  0.3070
 2153SOL    HW217922   2.049   0.648   9.842 -1.8413  1.0119  0.4894
 2154SOL     OW17923   0.187   0.909   4.885  0.4453 -0.3593 -0.2235
 2154SOL    HW117924   0.282   0.892   4.880  0.0484 -3.0332  1.0409
 2154SOL    HW217925   0.174   0.994   4.843 -1.7835  0.3788  1.9771
 2155SOL     OW17926   0.454   4.699  10.075  0.0480  0.1743  0.2749
 2155SOL    HW117927   0.416   4.650  10.148 -1.5466  0.2263 -0.5254
 2155SOL    HW217928   0.544   4.675  10.099 -0.1586 -1.3673 -0.5037
 2156SOL     OW17929   2.996   2.983   3.060  0.3636  0.1042 -0.3607
 2156SOL    HW117930   3.043   3.052   3.014 -0.8495  1.0908 -0.1156
 2156SOL    HW217931   3.032   2.990   3.148 -0.0167  1.0555 -0.2828
 2157SOL     OW17932   1.935   4.423   6.845 -0.0456 -0.1611  0.2111
 2157SOL    HW117933   1.858   4.440   6.899 -0.2224  0.8441 -0.3677
 2157SOL    HW217934   1.998   4.426   6.917  0.2343  0.0078 -0.0434
 2158SOL     OW17935   1.143   3.455   6.925  0.7588  0.4615 -0.2216
 2158SOL    HW117936   1.224   3.488   6.964  1.1067  0.2872 -0.7961
 2158SOL    HW217937   1.070   3.495   6.973  1.5930  0.4600  1.0261
 2159SOL     OW17938   3.712   1.338   8.352 -0.4612 -0.3363  0.6999
 2159SOL    HW117939   3.650   1.300   8.415 -1.9719  0.0677 -0.5313
 2159SOL    HW217940   3.789   1.282   8.360  1.1177  1.5747 -1.2498
 2160SOL     OW17941   1.225   1.913   2.344 -0.0752  0.4179  0.2259
 2160SOL    HW117942   1.175   1.923   2.425 -0.0551 -2.1400  0.5433
 2160SOL    HW217943   1.188   1.836   2.300 -2.6283  0.4020  2.4310
 2161SOL     OW17944   0.139   2.367  10.092  0.8563 -0.4140 -0.0426
 2161SOL    HW117945   0.117   2.304  10.161  0.6983 -1.4546 -1.0392
 2161SOL    HW217946   0.096   2.449  10.115  0.0577 -0.9058  0.2200
 2162SOL     OW17947   4.692   3.305   4.719 -0.0155 -0.2192  0.5534
 2162SOL    HW117948   4.641   3.317   4.800 -0.8724  0.9998 -0.1661
 2162SOL    HW217949   4.660   3.377   4.666 -0.2966 -0.2696  0.6561
 2163SOL     OW17950   3.605   1.962   3.223 -0.1594  0.0064 -0.0367
 2163SOL    HW117951   3.653   2.012   3.157 -1.9983 -1.2459 -2.3297
 2163SOL    HW217952   3.560   1.897   3.169  1.0451 -1.5044  0.7556
 2164SOL     OW17953   0.188   0.002   3.519  0.4286 -0.2691 -0.7366
 2164SOL    HW117954   0.098   4.705   3.540 -1.4205  2.9762 -4.9113
 2164SOL    HW217955   0.183   0.068   3.449  1.3288  0.3774 -0.1807
 2165SOL     OW17956   2.274   2.106   4.446  0.3074 -0.1139  0.3022
 2165SOL    HW117957   2.307   2.190   4.479  0.2182  0.0372  0.0073
 2165SOL    HW217958   2.277   2.129   4.353 -1.4265 -3.2189 -0.5395
 2166SOL     OW17959   4.026   2.971   7.648  0.4279  0.1973  0.6266
 2166SOL    HW117960   4.102   2.917   7.625  1.2147  1.2121  0.8336
 2166SOL    HW217961   4.078   3.049   7.671 -0.7549  0.4989  2.2205
 2167SOL     OW17962   0.518   1.226   3.653  0.4924  0.0840 -0.2496
 2167SOL    HW117963   0.506   1.272   3.569 -0.8323 -0.9451 -0.6259
 2167SOL    HW217964   0.451   1.158   3.654 -0.5032  1.0697  1.2877
 2168SOL     OW17965   3.526   2.943   7.261 -0.1370  0.5350  0.4086
 2168SOL    HW117966   3.591   2.878   7.286 -1.5013 -0.3089  1.7362
 2168SOL    HW217967   3.516   2.996   7.341 -1.2781  1.5177 -0.3754
 2169SOL     OW17968   0.792   1.099   1.868 -0.1368  0.0889  0.1958
 2169SOL    HW117969   0.751   1.034   1.811  1.0827 -0.3398 -0.1881
 2169SOL    HW217970   0.720   1.160   1.881 -0.8139 -0.5544 -0.5573
 2170SOL     OW17971   2.328   3.458  16.490  0.7786 -0.1056  0.3620
 2170SOL    HW117972   2.336   3.428  16.400 -0.7753 -0.1180  0.2176
 2170SOL    HW217973   2.408   3.419  16.527  2.2402  1.8364 -0.8122
 2171SOL     OW17974   4.544   4.455   6.112  0.1128 -0.5955  0.1366
 2171SOL    HW117975   4.585   4.369   6.120  1.0781 -0.1890 -0.4086
 2171SOL    HW217976   4.484   4.438   6.039  0.0457  3.3319 -0.7244
 2172SOL     OW17977   2.100   0.441   5.185  0.2168 -0.3352 -0.3017
 2172SOL    HW117978   2.090   0.388   5.264 -1.7049 -0.2334 -0.4931
 2172SOL    HW217979   2.028   0.403   5.135 -0.7186 -0.5245  1.2061
 2173SOL     OW17980   4.068   4.061  16.736  0.0814  0.0195 -0.0861
 2173SOL    HW117981   4.125   4.087  16.809 -2.1279  2.8386  0.6716
 2173SOL    HW217982   4.024   4.145  16.724  0.8138  0.2902 -0.8075
 2174SOL     OW17983   1.514   2.778   3.579  0.3781  0.0161 -0.4124
 2174SOL    HW117984   1.473   2.740   3.502 -0.5549 -0.9466  0.5517
 2174SOL    HW217985   1.434   2.806   3.624 -0.2312 -1.5382 -0.5112
 2175SOL     OW17986   1.180   4.299  12.238 -0.1637 -0.1119 -0.0142
 2175SOL    HW117987   1.269   4.326  12.214 -0.7521  1.9549  0.1580
 2175SOL    HW217988   1.127   4.325  12.163  0.2116  0.6667 -0.0109
 2176SOL     OW17989   3.399   3.792   2.137 -0.3526  0.7632 -0.2036
 2176SOL    HW117990   3.372   3.837   2.056  1.0892  1.1917 -0.4454
 2176SOL    HW217991   3.451   3.717   2.111 -0.7743 -0.6618  3.1688
 2177SOL     OW17992   2.167   3.983   7.723 -0.3250 -0.0451  0.3604
 2177SOL    HW117993   2.148   3.995   7.630  0.3253 -0.1330  0.2128
 2177SOL    HW217994   2.079   4.004   7.753 -0.0898 -0.3833  1.2769
 2178SOL     OW17995   2.440   0.320  10.296  0.0573 -0.2106 -0.4625
 2178SOL    HW117996   2.402   0.326  10.384 -1.1473 -2.0028 -0.8507
 2178SOL    HW217997   2.478   0.232  10.299 -0.7849 -0.6141 -1.9585
 2179SOL     OW17998   1.164   2.369   6.222  0.0277  0.6065  0.2486
 2179SOL    HW117999   1.208   2.291   6.256 -0.1859  0.8594  1.1157
 2179SOL    HW218000   1.075   2.366   6.259 -0.4706 -0.9507 -1.0752
 2180SOL     OW18001   4.622   4.205   6.195  0.0761  0.0697 -0.3676
 2180SOL    HW118002   4.710   4.194   6.159  0.8036 -1.0924  1.7529
 2180SOL    HW218003   4.637   4.187   6.288  2.0205  0.3711 -0.6239
 2181SOL     OW18004   3.380   2.836   1.635 -0.0939 -0.0374  0.2132
 2181SOL    HW118005   3.312   2.788   1.588 -0.4370 -0.4211  1.1105
 2181SOL    HW218006   3.454   2.848   1.575  0.3909  0.1223  0.8452
 2182SOL     OW18007   0.988   1.454  15.912 -0.0227 -0.0993 -0.6719
 2182SOL    HW118008   1.030   1.369  15.925  3.5378  1.7244 -0.1233
 2182SOL    HW218009   0.962   1.442  15.821  0.5830 -2.2801 -0.5681
 2183SOL     OW18010   3.130   3.775   2.274  0.2860  0.0944 -0.3361
 2183SOL    HW118011   3.193   3.808   2.211 -1.1760  0.3358 -1.6731
 2183SOL    HW218012   3.091   3.700   2.229  0.3840 -1.8537  2.8105
 2184SOL     OW18013   1.622   1.891   3.741  0.3867  0.4502 -0.1859
 2184SOL    HW118014   1.693   1.939   3.700  2.0374 -0.7846  1.2574
 2184SOL    HW218015   1.581   1.868   3.658  0.2127 -1.0550  0.3154
 2185SOL     OW18016   0.997   3.414   1.599  0.2089 -0.2610  0.0876
 2185SOL    HW118017   0.998   3.510   1.608  1.7840 -0.1183 -1.6386
 2185SOL    HW218018   1.017   3.392   1.508 -0.9824 -0.8732 -0.0244
 2186SOL     OW18019   3.548   1.120  14.350  0.3526 -0.1085 -0.1689
 2186SOL    HW118020   3.626   1.090  14.303  0.0552 -2.1017  0.6114
 2186SOL    HW218021   3.593   1.135  14.433 -1.3087 -1.0781  0.9232
 2187SOL     OW18022   0.086   3.968   2.067 -0.5633 -0.0401 -0.6034
 2187SOL    HW118023   0.052   4.055   2.087 -1.4643 -0.3117 -0.9466
 2187SOL    HW218024   0.166   3.989   2.020  0.6766  0.5098  1.7886
 2188SOL     OW18025   0.500   3.370   9.042 -0.4160  0.3479 -0.3716
 2188SOL    HW118026   0.488   3.341   8.952 -0.2791 -3.1765  0.7435
 2188SOL    HW218027   0.575   3.314   9.065 -0.0856  1.2733  0.8353
 2189SOL     OW18028   0.104   3.706   5.193  0.2983 -0.1558 -0.2972
 2189SOL    HW118029   0.140   3.748   5.271  2.5464  0.5172 -1.7147
 2189SOL    HW218030   0.058   3.772   5.141 -0.3141 -0.8537 -0.6577
 2190SOL     OW18031   2.738   3.784  15.557  0.2584  0.1193 -0.4151
 2190SOL    HW118032   2.665   3.732  15.592  0.6601 -1.0998 -1.3831
 2190SOL    HW218033   2.701   3.793  15.469 -1.2808 -0.7774  0.1366
 2191SOL     OW18034   4.487   4.556  12.169  0.2066 -0.3954  0.3290
 2191SOL    HW118035   4.529   4.520  12.247  1.5703  0.9889  0.2312
 2191SOL    HW218036   4.553   4.613  12.130  0.7217 -1.3224 -0.1379
 2192SOL     OW18037   0.147   3.329   9.664 -0.3875  0.1203 -0.5973
 2192SOL    HW118038   0.177   3.389   9.733 -0.2574 -1.0415  0.3412
 2192SOL    HW218039   0.196   3.369   9.592 -1.2203  2.1898 -0.0254
 2193SOL     OW18040   4.587   2.369  12.921 -0.7085 -0.1244 -0.1332
 2193SOL    HW118041   4.492   2.367  12.914 -0.7217 -1.9263  0.4154
 2193SOL    HW218042   4.607   2.355  12.829  0.1904  1.7347 -0.2147
 2194SOL     OW18043   4.224   3.076   7.259  0.3792 -0.3077 -0.5597
 2194SOL    HW118044   4.146   3.046   7.305  1.1664 -0.0174  0.9684
 2194SOL    HW218045   4.283   3.002   7.269  0.1077 -0.5564 -0.8024
 2195SOL     OW18046   1.820   2.164   1.891  0.2377  0.4767 -0.3286
 2195SOL    HW118047   1.890   2.157   1.955  1.9910 -1.7757 -2.4590
 2195SOL    HW218048   1.818   2.259   1.882 -0.5500  0.4337 -0.6374
 2196SOL     OW18049   2.140   2.391  10.587 -0.3956 -0.0304 -0.2390
 2196SOL    HW118050   2.212   2.441  10.547 -2.2227  2.1912 -0.7387
 2196SOL    HW218051   2.186   2.309  10.604  0.4484  0.9275  2.1471
 2197SOL     OW18052   4.372   0.350  15.213  0.0514 -0.4300  0.3847
 2197SOL    HW118053   4.307   0.358  15.143 -1.8328 -3.7864  1.7345
 2197SOL    HW218054   4.422   0.275  15.180 -1.3140 -0.7238 -1.0188
 2198SOL     OW18055   0.677   0.343   8.141 -0.0121  0.1975  0.5688
 2198SOL    HW118056   0.624   0.366   8.218 -0.4848  0.5667  0.1272
 2198SOL    HW218057   0.612   0.289   8.096  0.7397 -0.5546  0.3887
 2199SOL     OW18058   1.082   4.361   8.514 -0.0036 -0.3009  0.2755
 2199SOL    HW118059   1.125   4.438   8.551  0.2157 -1.2068  1.8828
 2199SOL    HW218060   1.057   4.322   8.597 -1.4706  2.6948  1.2562
 2200SOL     OW18061   1.423   4.423  15.851 -0.0840  0.1385  0.4630
 2200SOL    HW118062   1.379   4.372  15.783  2.0522 -0.7875 -0.2317
 2200SOL    HW218063   1.508   4.436  15.809 -0.0500 -0.1504  0.4449
 2201SOL     OW18064   2.842   4.567   8.015  0.3694  0.1719  0.2185
 2201SOL    HW118065   2.904   4.496   7.998  1.0297  1.0579 -0.9877
 2201SOL    HW218066   2.794   4.569   7.933  1.1430  2.5851 -0.1578
 2202SOL     OW18067   1.711   0.780   6.065 -0.6163 -0.2417 -0.4144
 2202SOL    HW118068   1.726   0.809   6.155 -0.5025 -0.2501 -0.4304
 2202SOL    HW218069   1.616   0.767   6.068 -0.9211  1.8349 -0.9989
 2203SOL     OW18070   1.714   2.623  10.365 -0.2717  0.0654  0.0048
 2203SOL    HW118071   1.670   2.583  10.290  1.0019  2.0971 -1.8297
 2203SOL    HW218072   1.680   2.712  10.351  1.8886  0.8406 -0.3054
 2204SOL     OW18073   2.217   0.319   4.589 -0.2325  0.0567  0.0965
 2204SOL    HW118074   2.225   0.350   4.499  0.5420 -0.5704 -0.0542
 2204SOL    HW218075   2.308   0.299   4.610  0.0720 -1.8681 -3.2207
 2205SOL     OW18076   2.708   2.619   9.306 -0.3258  0.1700 -0.0123
 2205SOL    HW118077   2.765   2.695   9.320 -1.7708  0.7317  2.7052
 2205SOL    HW218078   2.759   2.558   9.358 -1.3112 -2.3139 -1.9840
 2206SOL     OW18079   3.349   3.342   0.481 -0.2622  0.2065  0.1872
 2206SOL    HW118080   3.272   3.304   0.522  1.8540 -0.2402  3.7257
 2206SOL    HW218081   3.337   3.436   0.495 -1.2399  0.1416 -0.2206
 2207SOL     OW18082   3.784   3.484   0.403 -0.4923  0.1853 -0.7879
 2207SOL    HW118083   3.809   3.509   0.492 -0.4558 -2.0461 -0.1685
 2207SOL    HW218084   3.823   3.397   0.396 -0.6964  0.3423 -3.6295
 2208SOL     OW18085   1.158   3.079   3.610 -0.0681  0.0962 -0.2618
 2208SOL    HW118086   1.188   2.989   3.602 -1.2582 -0.2320 -1.0074
 2208SOL    HW218087   1.228   3.126   3.655  0.1920 -1.1848  0.6579
 2209SOL     OW18088   1.251   0.963  10.065 -0.4498  0.2696 -0.9855
 2209SOL    HW118089   1.198   0.950   9.987  0.4221 -1.8241 -1.2334
 2209SOL    HW218090   1.214   1.043  10.103  0.2941  0.7946 -1.3541
 2210SOL     OW18091   3.786   2.021   7.314 -0.3501 -0.4486  0.0736
 2210SOL    HW118092   3.713   2.075   7.345 -0.7716 -2.7539  3.1272
 2210SOL    HW218093   3.780   1.951   7.379 -1.3901 -0.1763  0.2746
 2211SOL     OW18094   4.114   1.813   5.861  0.2130  0.1858 -0.6214
 2211SOL    HW118095   4.191   1.856   5.899  0.2706 -1.1259  0.7389
 2211SOL    HW218096   4.041   1.851   5.911  1.2045  0.7907  0.3866
 2212SOL     OW18097   4.179   0.881   7.533  0.2555  0.8811  0.0108
 2212SOL    HW118098   4.094   0.854   7.570  0.8712  0.1087  0.8832
 2212SOL    HW218099   4.163   0.968   7.498  1.6598  1.2637  0.2973
 2213SOL     OW18100   0.896   1.431  15.136  0.4521 -0.1067 -0.4263
 2213SOL    HW118101   0.830   1.374  15.177  0.8353  0.8448  1.5066
 2213SOL    HW218102   0.838   1.492  15.092  2.0850 -0.5653 -3.1675
 2214SOL     OW18103   2.501   0.436   6.525  0.1688 -0.0835 -0.5680
 2214SOL    HW118104   2.479   0.526   6.551 -1.0998 -1.0461  1.7094
 2214SOL    HW218105   2.431   0.393   6.574  2.4840 -1.7194  1.2425
 2215SOL     OW18106   2.692   2.410   5.131  0.3163 -1.0933  0.2787
 2215SOL    HW118107   2.707   2.356   5.209  1.7324 -0.1420  0.6674
 2215SOL    HW218108   2.775   2.458   5.131  1.8859 -3.8164 -1.2981
 2216SOL     OW18109   3.494   2.425  10.752 -0.4750 -0.2657 -0.0326
 2216SOL    HW118110   3.499   2.405  10.845  1.1297  0.5575  0.0589
 2216SOL    HW218111   3.585   2.405  10.729  0.3356  2.8922  0.4972
 2217SOL     OW18112   1.632   0.795   2.218 -0.0942  0.0707  0.1742
 2217SOL    HW118113   1.568   0.754   2.277 -1.0239  0.4727 -0.5623
 2217SOL    HW218114   1.680   0.853   2.277  0.1528  1.3095 -1.2448
 2218SOL     OW18115   1.592   0.763   1.430 -0.0890 -0.0287 -0.0970
 2218SOL    HW118116   1.653   0.697   1.462  0.4808  0.1363 -0.8435
 2218SOL    HW218117   1.627   0.763   1.341  1.5891 -2.2325  0.5670
 2219SOL     OW18118   3.452   0.197   5.631  0.3343 -0.1251 -0.0963
 2219SOL    HW118119   3.423   0.226   5.717 -1.2808 -0.7561 -0.4274
 2219SOL    HW218120   3.379   0.229   5.578  0.7504 -0.2235 -0.7290
 2220SOL     OW18121   3.737   4.504   7.243 -0.5551 -0.6153  0.1676
 2220SOL    HW118122   3.741   4.515   7.338 -0.0013  1.7936 -0.1367
 2220SOL    HW218123   3.699   4.590   7.223  0.5217 -0.2824 -0.4285
 2221SOL     OW18124   4.079   2.885   2.288  0.0155 -0.6934  0.1171
 2221SOL    HW118125   4.139   2.914   2.219  3.7330 -3.6397  2.1212
 2221SOL    HW218126   4.139   2.901   2.361 -0.3883  2.0333 -0.1563
 2222SOL     OW18127   0.985   2.561   8.935  0.2231  0.0517 -0.4498
 2222SOL    HW118128   0.895   2.587   8.955 -0.6114 -1.0260 -2.7515
 2222SOL    HW218129   0.973   2.496   8.865 -1.4820  0.6175 -0.6989
 2223SOL     OW18130   0.818   1.691   3.078 -0.1898  0.7808  0.2812
 2223SOL    HW118131   0.844   1.752   3.008 -0.0210 -0.7884 -1.0281
 2223SOL    HW218132   0.802   1.757   3.145  0.4711  0.6968  0.5193
 2224SOL     OW18133   3.284   1.122   8.463  0.6736 -0.2436  0.1435
 2224SOL    HW118134   3.368   1.161   8.439 -1.2714  2.1418 -2.7813
 2224SOL    HW218135   3.270   1.149   8.553  0.3911 -0.1882  0.0804
 2225SOL     OW18136   1.615   3.076   8.217 -0.4280 -0.0320 -0.6054
 2225SOL    HW118137   1.565   3.154   8.192 -2.1949 -1.1949 -0.7007
 2225SOL    HW218138   1.571   3.017   8.156  0.9857 -1.8175  0.1161
 2226SOL     OW18139   1.819   3.890  10.389  0.2300  0.0455  0.9599
 2226SOL    HW118140   1.846   3.892  10.297  0.2412  0.6377  0.9738
 2226SOL    HW218141   1.742   3.833  10.390 -0.5361  1.0947  1.0272
 2227SOL     OW18142   3.270   3.124   4.762  0.6460  0.0521 -0.2794
 2227SOL    HW118143   3.307   3.040   4.735  0.2823  0.4994 -2.1519
 2227SOL    HW218144   3.212   3.143   4.688  0.1563  1.5341  0.4836
 2228SOL     OW18145   0.221   3.300   3.308  0.0933  0.5928  0.3111
 2228SOL    HW118146   0.252   3.332   3.392  0.6026  1.6942 -0.3002
 2228SOL    HW218147   0.243   3.208   3.324 -0.5793  0.2409 -0.7679
 2229SOL     OW18148   0.514   0.009   7.670 -0.1356  0.6848 -0.4921
 2229SOL    HW118149   0.594   0.035   7.716 -0.6534  0.0084  0.7854
 2229SOL    HW218150   0.553   4.697   7.592  0.3867  0.8539 -0.3184
 2230SOL     OW18151   3.646   0.052  10.627 -0.3782 -0.6315 -0.2063
 2230SOL    HW118152   3.739   0.034  10.614 -0.1628 -1.5157  2.7303
 2230SOL    HW218153   3.627   0.117  10.558 -0.3865  1.4815  1.7972
 2231SOL     OW18154   4.176   0.376   6.486 -0.4324  0.4068 -0.0619
 2231SOL    HW118155   4.215   0.392   6.572 -0.2858  1.5106 -0.3320
 2231SOL    HW218156   4.090   0.415   6.501 -0.3936  0.2058  0.6949
 2232SOL     OW18157   2.770   2.766   2.732  0.3368 -0.3849  0.1116
 2232SOL    HW118158   2.748   2.821   2.807 -0.1376  1.9598 -1.7748
 2232SOL    HW218159   2.864   2.784   2.731  0.5893 -1.4908  2.0932
 2233SOL     OW18160   1.386   3.035   7.132 -0.2355  0.1127  0.4192
 2233SOL    HW118161   1.435   3.082   7.065  1.6086 -0.7112  1.1813
 2233SOL    HW218162   1.297   3.065   7.111 -0.4881 -0.1751  1.0577
 2234SOL     OW18163   2.603   0.992  11.757  0.1189 -0.3018 -0.5521
 2234SOL    HW118164   2.551   0.958  11.684  0.9456  0.2493 -1.3779
 2234SOL    HW218165   2.691   0.960  11.741  1.5965  2.4714  2.0002
 2235SOL     OW18166   3.864   0.194   5.977  0.4753  0.0040  0.5094
 2235SOL    HW118167   3.883   0.195   6.071 -0.9889  0.4567  0.7905
 2235SOL    HW218168   3.819   0.109   5.975  2.8545 -1.3385  3.0627
 2236SOL     OW18169   4.449   3.261   3.787  0.6924 -0.6968 -0.6183
 2236SOL    HW118170   4.377   3.286   3.846 -0.8918 -3.2291 -1.4923
 2236SOL    HW218171   4.440   3.166   3.796  0.4141 -0.4368  1.8924
 2237SOL     OW18172   2.315   0.289  12.571 -0.0062  0.0773  0.5848
 2237SOL    HW118173   2.327   0.315  12.480  0.6443 -1.5433  0.1978
 2237SOL    HW218174   2.265   0.209  12.552  0.1389  0.0292  0.4057
 2238SOL     OW18175   0.245   2.555   6.833 -0.2456  0.5548  0.5014
 2238SOL    HW118176   0.281   2.629   6.785  1.1508  0.4384  1.3465
 2238SOL    HW218177   0.332   2.523   6.858  0.1379  1.7057  0.6550
 2239SOL     OW18178   4.264   0.547   9.315  0.4139 -0.1788  0.1181
 2239SOL    HW118179   4.280   0.480   9.248 -2.1181  2.2900 -2.9391
 2239SOL    HW218180   4.329   0.613   9.291 -0.8538  0.4655 -1.5195
 2240SOL     OW18181   4.305   3.470  12.096 -0.2411 -0.0674 -0.1329
 2240SOL    HW118182   4.359   3.462  12.018 -1.2348 -2.0049 -0.6158
 2240SOL    HW218183   4.371   3.490  12.163  0.3047 -2.3858  0.0011
 2241SOL     OW18184   0.573   0.311   7.427  0.4247  0.0346  0.2718
 2241SOL    HW118185   0.603   0.377   7.490  2.5416  0.3776 -1.0818
 2241SOL    HW218186   0.565   0.363   7.347  0.5217  1.3934  1.1482
 2242SOL     OW18187   2.286   4.647   6.500  0.0095  0.4639  0.1068
 2242SOL    HW118188   2.290   0.001   6.450  2.8536  1.8703  2.6297
 2242SOL    HW218189   2.267   4.682   6.587  1.1648  0.3229  0.4176
 2243SOL     OW18190   0.367   3.567   5.684  0.0161 -0.2402  0.2236
 2243SOL    HW118191   0.328   3.533   5.604  1.0923  1.2036 -0.8947
 2243SOL    HW218192   0.439   3.623   5.656 -1.1057  1.6330  1.0899
 2244SOL     OW18193   3.582   0.513   7.027  0.0135  0.2935 -0.2582
 2244SOL    HW118194   3.623   0.477   6.948  2.0427  0.8640  0.5450
 2244SOL    HW218195   3.608   0.604   7.011 -2.3792  0.8160 -1.1516
 2245SOL     OW18196   3.942   3.794  13.963 -0.0473 -0.1011  0.7650
 2245SOL    HW118197   3.948   3.887  13.940  0.2155 -0.1387  0.6838
 2245SOL    HW218198   3.865   3.791  14.019 -2.1830 -0.1089 -2.1540
 2246SOL     OW18199   3.468   4.561  16.682 -0.3306  0.0213  0.2330
 2246SOL    HW118200   3.497   4.647  16.712 -0.7453 -0.2786  1.4977
 2246SOL    HW218201   3.544   4.540  16.628  0.4541 -0.5455  1.5580
 2247SOL     OW18202   2.793   3.398   7.685  0.1133  0.1829  0.0500
 2247SOL    HW118203   2.797   3.337   7.758  1.2019  0.8169  0.5095
 2247SOL    HW218204   2.855   3.467   7.707 -1.6353  1.1260  1.9338
 2248SOL     OW18205   1.718   1.326   1.739 -0.1063 -0.3840  0.0993
 2248SOL    HW118206   1.661   1.279   1.800  0.9234  0.8129  1.9957
 2248SOL    HW218207   1.756   1.263   1.678 -1.1438 -1.8826  0.9814
 2249SOL     OW18208   4.630   3.520   4.568 -0.0247  0.1942  0.0951
 2249SOL    HW118209   4.707   3.575   4.554  0.0508 -0.1555 -0.8998
 2249SOL    HW218210   4.575   3.566   4.505  0.0966 -1.4993 -1.2715
 2250SOL     OW18211   3.912   3.028   8.400  0.5270 -0.5280 -0.3858
 2250SOL    HW118212   3.981   2.988   8.347  1.5067  0.5241  0.1092
 2250SOL    HW218213   3.921   3.116   8.365  0.3024 -0.7132 -0.9084
 2251SOL     OW18214   4.378   4.563   4.932  0.3748  0.5749 -0.5446
 2251SOL    HW118215   4.310   4.568   4.999  0.5531 -1.8604 -0.1956
 2251SOL    HW218216   4.443   4.623   4.969  2.4627 -1.8389 -0.2976
 2252SOL     OW18217   1.164   2.355  17.034  0.0325 -0.4095  0.0023
 2252SOL    HW118218   1.070   2.357  17.018  0.0010 -3.5562 -0.0468
 2252SOL    HW218219   1.168   2.346  17.129  2.9653 -0.3670 -0.1263
 2253SOL     OW18220   1.915   0.801   0.034  0.9925  0.1537 -0.1332
 2253SOL    HW118221   1.937   0.830  17.657 -0.9830 -1.0031 -1.0257
 2253SOL    HW218222   1.999   0.783   0.075 -0.1041  0.0304  2.0912
 2254SOL     OW18223   2.680   0.822   7.462  0.1301  0.2556 -0.3730
 2254SOL    HW118224   2.590   0.813   7.493 -0.2007  4.3327 -0.1638
 2254SOL    HW218225   2.664   0.793   7.372 -0.7002 -1.8281  0.4490
 2255SOL     OW18226   0.849   3.455  14.729 -0.2059  0.2619  0.5555
 2255SOL    HW118227   0.889   3.484  14.647 -2.0487  1.6962  0.1639
 2255SOL    HW218228   0.789   3.387  14.700  1.5654 -1.2911  0.5796
 2256SOL     OW18229   3.542   0.301  12.325 -0.3392 -0.3060 -0.4492
 2256SOL    HW118230   3.450   0.327  12.326  0.3015  1.9855  1.0948
 2256SOL    HW218231   3.532   0.206  12.320 -0.4130 -0.2346 -1.6213
 2257SOL     OW18232   3.232   3.179  12.866  0.5943  0.1359 -0.1322
 2257SOL    HW118233   3.193   3.118  12.803 -0.6352  0.8744 -0.0884
 2257SOL    HW218234   3.181   3.162  12.946  1.7568 -0.2762  0.5119
 2258SOL     OW18235   3.654   2.080  16.890  0.2789 -0.0154 -0.6137
 2258SOL    HW118236   3.727   2.019  16.905 -1.6395 -1.6242  2.0454
 2258SOL    HW218237   3.589   2.023  16.850 -1.4148  0.3809  1.6307
 2259SOL     OW18238   3.638   4.649   6.835 -0.4805  0.6827 -0.3744
 2259SOL    HW118239   3.594   4.565   6.840  0.9523 -0.0836 -0.4669
 2259SOL    HW218240   3.636   4.655   6.931 -1.5024 -0.1244 -0.3602
 2260SOL     OW18241   2.262   3.642   3.562 -0.4828  0.0591 -0.1531
 2260SOL    HW118242   2.353   3.612   3.562 -0.5184 -0.0774  0.8387
 2260SOL    HW218243   2.273   3.727   3.519  1.4421 -0.1348 -0.0483
 2261SOL     OW18244   1.668   4.455  15.715  0.0736 -0.7130 -0.3260
 2261SOL    HW118245   1.760   4.429  15.722  0.3681  1.2255  2.6879
 2261SOL    HW218246   1.679   4.548  15.694 -2.4294 -0.7194 -1.5976
 2262SOL     OW18247   4.509   4.263  14.563 -0.0301  0.9477 -0.1980
 2262SOL    HW118248   4.573   4.279  14.632  0.9244  2.6213 -1.4585
 2262SOL    HW218249   4.514   4.168  14.551  0.0964  1.0469 -0.9781
 2263SOL     OW18250   1.955   0.644   1.214  0.4500  0.4521  0.1380
 2263SOL    HW118251   1.897   0.721   1.211  1.2501  1.0743  0.7285
 2263SOL    HW218252   1.913   0.578   1.268 -3.1937  1.6123 -1.2636
 2264SOL     OW18253   1.588   3.342   7.587 -0.2946 -0.0758 -0.6597
 2264SOL    HW118254   1.591   3.285   7.664 -0.4617  0.7547 -0.0395
 2264SOL    HW218255   1.656   3.296   7.538 -0.0398 -0.2049 -0.1863
 2265SOL     OW18256   4.336   0.455   5.913 -0.4721 -0.2689  0.1208
 2265SOL    HW118257   4.377   0.439   5.999 -0.1682 -0.3776 -0.0436
 2265SOL    HW218258   4.249   0.489   5.935  0.2214  2.0029 -0.6623
 2266SOL     OW18259   4.342   0.366   9.115  0.6741  0.1998  0.3444
 2266SOL    HW118260   4.388   0.284   9.132  1.1254  0.5325  0.7483
 2266SOL    HW218261   4.280   0.329   9.052  2.0040  0.9318 -1.4051
 2267SOL     OW18262   0.775   3.578   7.656 -0.5150 -0.5475  0.4442
 2267SOL    HW118263   0.819   3.648   7.704  0.0676 -2.0610  2.1307
 2267SOL    HW218264   0.788   3.496   7.704  0.3584  0.3710  1.7754
 2268SOL     OW18265   3.122   4.588   6.813 -0.0531 -0.1526  0.5185
 2268SOL    HW118266   3.158   4.650   6.750 -1.8978  1.5126  1.0903
 2268SOL    HW218267   3.038   4.577   6.769  0.6676  0.0156 -0.9164
 2269SOL     OW18268   0.861   4.179  10.068  0.3420  0.5228  0.4044
 2269SOL    HW118269   0.880   4.213  10.155 -2.1151 -1.4386  1.6866
 2269SOL    HW218270   0.833   4.262  10.028  0.2383  1.1255  1.7294
 2270SOL     OW18271   4.721   0.968   6.379 -0.8800  0.4851  0.2107
 2270SOL    HW118272   0.003   1.054   6.422  0.8843  0.5084 -0.2135
 2270SOL    HW218273   0.057   0.977   6.308 -0.9065  1.0864  0.2589
 2271SOL     OW18274   4.569   2.361   3.572  0.1041  0.1701  0.5530
 2271SOL    HW118275   4.482   2.362   3.532  0.1876  1.0250  0.3825
 2271SOL    HW218276   4.575   2.450   3.607  0.3533  0.1700  0.5091
 2272SOL     OW18277   2.564   0.162   2.143 -0.1303 -0.3219  0.2129
 2272SOL    HW118278   2.609   0.127   2.219 -0.0512 -0.7003 -0.0074
 2272SOL    HW218279   2.482   0.171   2.191 -1.2289 -1.3612 -1.4440
 2273SOL     OW18280   2.747   1.331   7.940  0.0348  0.0135  0.2910
 2273SOL    HW118281   2.773   1.410   7.988  1.5262  1.2451 -2.5930
 2273SOL    HW218282   2.674   1.295   7.990  0.7226  0.2904  1.5188
 2274SOL     OW18283   3.000   3.099  16.133 -0.1845 -0.2658 -0.3366
 2274SOL    HW118284   2.944   3.141  16.197 -0.6846 -0.9461 -0.3244
 2274SOL    HW218285   2.986   3.155  16.056  0.7550 -0.8668 -0.9408
 2275SOL     OW18286   0.431   0.760   1.860  0.1339  0.6781 -0.0718
 2275SOL    HW118287   0.377   0.824   1.813 -1.1944 -1.0547 -0.9179
 2275SOL    HW218288   0.433   0.788   1.951  1.1069  1.3538 -0.3033
 2276SOL     OW18289   2.641   1.140  10.398 -0.2038 -0.6087  0.4341
 2276SOL    HW118290   2.658   1.170  10.309  0.4605 -0.0017  0.7649
 2276SOL    HW218291   2.561   1.186  10.424 -1.5587 -1.4941 -2.1647
 2277SOL     OW18292   1.705   3.836   7.631 -0.7302  0.1877  0.5703
 2277SOL    HW118293   1.699   3.930   7.618 -0.7041 -0.2275 -2.5116
 2277SOL    HW218294   1.617   3.814   7.660 -0.6318 -1.4576 -0.3201
 2278SOL     OW18295   4.606   1.568   3.490 -0.1573 -0.1772 -0.3233
 2278SOL    HW118296   4.676   1.567   3.425  0.0335 -0.4427 -0.1098
 2278SOL    HW218297   4.622   1.482   3.528 -1.8264 -0.2341  0.2442
 2279SOL     OW18298   2.866   3.622   5.680  0.2877 -0.1740 -0.3572
 2279SOL    HW118299   2.773   3.616   5.660  0.1520 -2.9202  1.0837
 2279SOL    HW218300   2.885   3.530   5.695 -0.3484  0.0036  1.5248
 2280SOL     OW18301   1.735   3.543   1.645  0.3882 -0.3577 -0.0906
 2280SOL    HW118302   1.744   3.457   1.603 -1.1901  0.3574 -1.8704
 2280SOL    HW218303   1.677   3.593   1.588 -1.1127 -1.9379  0.0186
 2281SOL     OW18304   2.163   1.484   5.922  0.3713  0.0630 -0.2729
 2281SOL    HW118305   2.112   1.442   5.853 -0.0595  0.6077 -0.2827
 2281SOL    HW218306   2.129   1.573   5.923  1.2937  0.4472 -2.2762
 2282SOL     OW18307   2.911   2.067   3.242  0.5742  0.0106  0.1628
 2282SOL    HW118308   2.862   2.011   3.303 -2.9797  1.0977 -1.7024
 2282SOL    HW218309   2.926   2.000   3.175 -0.0883 -2.5030  2.5413
 2283SOL     OW18310   0.365   2.337   7.815 -0.6002 -0.1457 -0.1378
 2283SOL    HW118311   0.385   2.278   7.743  0.8980 -2.1077  1.8925
 2283SOL    HW218312   0.360   2.417   7.763  2.0235 -0.7807 -1.3650
 2284SOL     OW18313   1.553   0.118   3.828 -0.1801 -0.2382  0.8089
 2284SOL    HW118314   1.553   0.150   3.918 -2.0505  1.4298  0.2229
 2284SOL    HW218315   1.635   0.157   3.797 -0.4028  1.7126  2.6052
 2285SOL     OW18316   3.934   3.162   4.264  0.4062  0.0559  0.1071
 2285SOL    HW118317   4.008   3.120   4.308 -0.6289 -0.8929  0.9588
 2285SOL    HW218318   3.860   3.102   4.257  2.2229 -2.1973  0.3783
 2286SOL     OW18319   3.943   3.357   5.950 -0.1030  0.2943 -0.3613
 2286SOL    HW118320   3.929   3.282   6.008 -0.1499 -0.0477 -0.8152
 2286SOL    HW218321   3.945   3.428   6.014 -1.8292 -0.2355  0.2774
 2287SOL     OW18322   1.208   0.184   6.422  0.3553 -0.0216  0.2136
 2287SOL    HW118323   1.256   0.101   6.413 -0.8520 -0.4594 -2.1735
 2287SOL    HW218324   1.243   0.234   6.349  2.0056 -1.9857 -0.3465
 2288SOL     OW18325   1.477   4.511   2.925 -0.1601 -0.1206  0.0771
 2288SOL    HW118326   1.486   4.598   2.966  2.8066 -1.9199  3.2461
 2288SOL    HW218327   1.566   4.478   2.939 -1.1737 -2.0497  1.9004
 2289SOL     OW18328   4.699   2.285   6.243  0.3325  0.5254 -0.4080
 2289SOL    HW118329   4.609   2.253   6.236  0.6929 -0.3833 -0.8800
 2289SOL    HW218330   4.707   2.272   6.337  0.3105 -0.8687 -0.5968
 2290SOL     OW18331   4.302   1.360   3.431 -0.1554 -0.0375  0.1809
 2290SOL    HW118332   4.349   1.379   3.512  1.7835 -1.4049 -0.6501
 2290SOL    HW218333   4.376   1.322   3.384 -1.0668  1.4426 -2.4763
 2291SOL     OW18334   2.835   1.696   4.571 -0.7201  0.3157 -0.0186
 2291SOL    HW118335   2.889   1.636   4.520 -1.4790 -0.2616 -0.1447
 2291SOL    HW218336   2.864   1.779   4.534  2.7436 -0.3927  1.1742
 2292SOL     OW18337   1.594   3.276   4.109 -0.1236  0.1680 -0.1651
 2292SOL    HW118338   1.601   3.298   4.016 -1.5143  2.1949  0.2307
 2292SOL    HW218339   1.543   3.195   4.099 -1.5569  1.1147 -0.4995
 2293SOL     OW18340   1.777   1.730  17.320 -0.2558 -0.1695  0.0443
 2293SOL    HW118341   1.689   1.755  17.348  0.3569  1.5611  0.4512
 2293SOL    HW218342   1.753   1.713  17.229  0.2005 -0.2581 -0.0590
 2294SOL     OW18343   1.846   3.507   6.513 -0.8117 -0.1098  0.3110
 2294SOL    HW118344   1.839   3.424   6.467  0.8506  0.0938 -0.3007
 2294SOL    HW218345   1.853   3.556   6.431  3.1095  0.0133  0.7292
 2295SOL     OW18346   4.617   3.711  12.117  0.1531 -0.0155  0.1894
 2295SOL    HW118347   4.544   3.757  12.158  0.1753  0.6933 -0.5603
 2295SOL    HW218348   4.602   3.617  12.131 -0.4295  0.0585  0.0576
 2296SOL     OW18349   2.850   2.825   9.376  0.3543  0.3785 -0.1983
 2296SOL    HW118350   2.784   2.890   9.401 -0.4616 -0.8556  0.8106
 2296SOL    HW218351   2.911   2.883   9.331 -0.4828  2.0291  0.7835
 2297SOL     OW18352   3.193   4.671   6.252 -0.1298  0.1140  1.2197
 2297SOL    HW118353   3.237   4.588   6.237  0.8663  0.6900  0.9536
 2297SOL    HW218354   3.105   4.652   6.219  0.6136  2.0448 -1.7974
 2298SOL     OW18355   1.208   3.430   7.872  0.2468  0.4669  0.5491
 2298SOL    HW118356   1.210   3.516   7.915  0.1349  0.7630 -0.0374
 2298SOL    HW218357   1.294   3.394   7.890 -0.3251 -1.3969 -0.4516
 2299SOL     OW18358   4.307   3.538   7.375  0.2979  0.1676 -0.1142
 2299SOL    HW118359   4.215   3.536   7.348  0.0026 -1.5201  0.9490
 2299SOL    HW218360   4.337   3.447   7.364  1.4898  0.4845  0.5491
 2300SOL     OW18361   2.380   2.509   5.872 -0.1279 -0.0044 -0.5932
 2300SOL    HW118362   2.388   2.581   5.809 -0.1479 -1.1595 -1.9243
 2300SOL    HW218363   2.458   2.528   5.922  0.1098 -2.3228 -0.1083
 2301SOL     OW18364   4.478   2.430  14.735  0.3470 -0.2912 -0.4048
 2301SOL    HW118365   4.572   2.412  14.726  0.1513 -0.8258 -1.3345
 2301SOL    HW218366   4.473   2.523  14.712 -1.7276 -0.3180 -0.0570
 2302SOL     OW18367   1.872   2.129   3.373 -0.6565  0.3417 -0.2413
 2302SOL    HW118368   1.855   2.099   3.463 -0.2519 -0.3076 -0.3846
 2302SOL    HW218369   1.967   2.139   3.371 -0.8323  1.6339 -1.9269
 2303SOL     OW18370   0.833   2.873   4.750 -0.3147 -0.3233 -0.0315
 2303SOL    HW118371   0.854   2.893   4.841  1.8478 -2.3099 -0.1041
 2303SOL    HW218372   0.819   2.780   4.767  0.9761 -0.4340  0.4076
 2304SOL     OW18373   2.044   3.283  17.115 -0.8304  0.3753  0.4758
 2304SOL    HW118374   2.097   3.250  17.043 -0.1377  0.4725  0.9397
 2304SOL    HW218375   1.981   3.338  17.069  0.4399  0.7395 -0.8106
 2305SOL     OW18376   3.826   0.178   8.073  0.5286 -0.6106  0.5318
 2305SOL    HW118377   3.921   0.182   8.064  0.5923  1.7491  2.2366
 2305SOL    HW218378   3.792   0.165   7.984  0.1784  1.7614  0.3048
 2306SOL     OW18379   2.777   2.921   8.210  0.0313  0.3548 -0.1653
 2306SOL    HW118380   2.800   2.851   8.270  1.1413  0.7211 -0.1757
 2306SOL    HW218381   2.817   2.999   8.249  1.6183 -0.5150 -0.0708
 2307SOL     OW18382   2.227   2.219   5.348  0.6572 -0.7157 -0.0466
 2307SOL    HW118383   2.134   2.237   5.358  1.2872  2.7421 -0.4146
 2307SOL    HW218384   2.266   2.301   5.379  0.6921  0.1183 -2.3228
 2308SOL     OW18385   0.392   4.130  16.746  0.6052  0.3988  0.5619
 2308SOL    HW118386   0.317   4.097  16.795  1.0127  0.5796  1.2923
 2308SOL    HW218387   0.405   4.216  16.784  0.0999  0.0257  1.5695
 2309SOL     OW18388   3.573   3.445   4.451  0.4133  0.7139 -0.4856
 2309SOL    HW118389   3.607   3.504   4.519 -0.4638  0.9530 -0.2640
 2309SOL    HW218390   3.650   3.387   4.457 -0.3096 -0.2677 -0.7504
 2310SOL     OW18391   4.713   2.335   7.703 -0.3130 -0.1203 -0.0252
 2310SOL    HW118392   0.027   2.388   7.770 -0.7003  0.4266 -0.2137
 2310SOL    HW218393   0.050   2.264   7.694 -2.3049 -1.9264 -0.0454
 2311SOL     OW18394   3.858   1.347  12.674 -0.0070  0.8634  0.8776
 2311SOL    HW118395   3.896   1.427  12.712  3.1235 -0.0384 -0.4040
 2311SOL    HW218396   3.766   1.376  12.677 -0.1107  0.5675  0.5216
 2312SOL     OW18397   2.862   2.393  16.983  0.0304  0.3362 -0.4126
 2312SOL    HW118398   2.924   2.415  16.914 -1.1295  0.3159 -1.4485
 2312SOL    HW218399   2.801   2.466  16.983 -0.4601 -0.0808 -3.8678
 2313SOL     OW18400   1.195   4.081   3.157 -0.2556  0.1402 -0.5616
 2313SOL    HW118401   1.171   4.144   3.089 -0.3972 -2.0174 -2.5309
 2313SOL    HW218402   1.126   4.015   3.146  0.7359 -0.7488 -1.5349
 2314SOL     OW18403   4.635   2.634   2.192  0.0595  0.6615  0.2121
 2314SOL    HW118404   4.618   2.556   2.140  0.4361 -0.7893  2.2616
 2314SOL    HW218405   4.550   2.668   2.220 -0.3656  1.7769 -2.4532
 2315SOL     OW18406   3.919   0.997  11.950  0.5530  0.5731  0.1213
 2315SOL    HW118407   3.900   0.935  12.020  1.9855  0.3222  0.2914
 2315SOL    HW218408   3.988   0.948  11.905  1.1525  1.3532  0.1887
 2316SOL     OW18409   0.970   3.113   1.259  0.0714 -0.2699 -0.7086
 2316SOL    HW118410   1.065   3.113   1.274  0.0565  1.6290 -0.6539
 2316SOL    HW218411   0.952   3.020   1.273 -0.6647 -0.1970 -1.1719
 2317SOL     OW18412   3.068   2.941   1.511 -0.0706 -0.1292 -0.5823
 2317SOL    HW118413   3.101   2.854   1.489 -1.2279 -0.0587 -2.5994
 2317SOL    HW218414   3.044   2.977   1.426 -2.0213 -0.6915 -0.2733
 2318SOL     OW18415   1.511   0.547   9.411 -0.1523  0.2263 -0.0303
 2318SOL    HW118416   1.530   0.465   9.458  2.0581  1.0430  0.4947
 2318SOL    HW218417   1.526   0.605   9.485  0.7999 -0.0676  0.0181
 2319SOL     OW18418   1.497   1.098   1.191  0.6686 -0.2452 -0.1234
 2319SOL    HW118419   1.589   1.095   1.165  0.2876  0.9123 -1.6069
 2319SOL    HW218420   1.460   1.028   1.138 -0.4240  0.6784 -0.5774
 2320SOL     OW18421   1.479   3.346   8.197  0.2976  0.3554  0.4104
 2320SOL    HW118422   1.416   3.416   8.213  0.8242  0.9107  0.0285
 2320SOL    HW218423   1.521   3.355   8.283 -1.5426  2.0230  1.1517
 2321SOL     OW18424   2.942   1.210   3.207  0.0506 -0.0758  0.4100
 2321SOL    HW118425   2.981   1.293   3.181 -1.8917  1.0521  1.1282
 2321SOL    HW218426   2.945   1.164   3.123  1.1141  0.7018  0.0265
 2322SOL     OW18427   4.411   1.518   0.245 -0.1007 -0.3811  0.5268
 2322SOL    HW118428   4.459   1.436   0.233  0.4559  0.1986 -1.1617
 2322SOL    HW218429   4.321   1.488   0.262  0.1586 -1.6560 -0.3732
 2323SOL     OW18430   3.136   4.653   2.501 -0.5019 -0.1029  0.0943
 2323SOL    HW118431   3.221   4.694   2.486  0.0927 -1.8990 -1.4287
 2323SOL    HW218432   3.127   4.607   2.418 -0.4373 -2.6675  1.5182
 2324SOL     OW18433   4.480   0.883   3.790  0.0586 -0.1926 -0.3771
 2324SOL    HW118434   4.386   0.870   3.796  0.2625 -1.3579  0.4962
 2324SOL    HW218435   4.483   0.900   3.696  0.3403  1.5838 -0.0390
 2325SOL     OW18436   3.276   1.948  14.656  0.0503  0.1011  0.3238
 2325SOL    HW118437   3.371   1.937  14.647 -0.2134  0.2903 -2.8861
 2325SOL    HW218438   3.241   1.869  14.613 -0.8014  1.4600 -1.4873
 2326SOL     OW18439   4.149   2.502   4.918 -0.0994  0.4208  0.7300
 2326SOL    HW118440   4.171   2.510   4.825 -0.3272 -1.1911  0.5415
 2326SOL    HW218441   4.088   2.428   4.922  1.2674 -0.7782 -0.2997
 2327SOL     OW18442   0.017   2.993   4.225 -0.2380 -0.3624  0.1598
 2327SOL    HW118443   0.003   2.996   4.130  0.0986  3.7921  0.2366
 2327SOL    HW218444   0.090   3.054   4.238  0.6144 -1.6995  1.6016
 2328SOL     OW18445   2.884   1.755   5.743  0.0362 -0.6530 -0.2011
 2328SOL    HW118446   2.824   1.692   5.704 -2.0904  1.0031  0.4234
 2328SOL    HW218447   2.896   1.710   5.826  1.4006 -0.9412 -0.5456
 2329SOL     OW18448   0.080   3.600   6.803  0.2616  0.0435  0.1574
 2329SOL    HW118449   0.167   3.607   6.764  0.6640 -2.7778  0.5818
 2329SOL    HW218450   0.046   3.690   6.798 -0.1352 -0.1327 -0.2609
 2330SOL     OW18451   3.929   0.894   5.873  0.3094 -0.1329  0.0817
 2330SOL    HW118452   3.904   0.802   5.874  1.7950 -0.5236  1.3069
 2330SOL    HW218453   4.019   0.894   5.842  0.3132 -0.9391  0.0935
 2331SOL     OW18454   3.079   1.130   5.300 -0.2648  0.4139 -0.5062
 2331SOL    HW118455   3.053   1.215   5.264  0.3392  0.5166 -0.7014
 2331SOL    HW218456   3.066   1.138   5.395 -0.6568 -3.5031 -0.2314
 2332SOL     OW18457   1.625   0.101   8.766 -0.0928  0.2894  0.2857
 2332SOL    HW118458   1.530   0.090   8.766 -0.1785  1.0751  0.5831
 2332SOL    HW218459   1.639   0.057   8.682 -1.0597 -2.6467  1.6482
 2333SOL     OW18460   0.271   4.049   8.467  0.3400 -0.3689 -0.1337
 2333SOL    HW118461   0.223   4.081   8.390 -0.8359 -0.7127  0.4552
 2333SOL    HW218462   0.284   4.130   8.516 -1.2196 -1.1150  1.4976
 2334SOL     OW18463   1.069   0.632   0.425 -0.3247 -0.0644  0.3091
 2334SOL    HW118464   0.982   0.642   0.462 -0.6121  1.9223 -0.9108
 2334SOL    HW218465   1.124   0.629   0.503  2.6274  0.5814 -1.7360
 2335SOL     OW18466   0.009   0.271   3.112  0.4552  0.1431  0.5195
 2335SOL    HW118467   0.032   0.180   3.128  2.8452  0.3528 -1.7098
 2335SOL    HW218468   0.018   0.280   3.017  0.7411  4.5501  0.9620
 2336SOL     OW18469   1.346   0.156   4.332 -0.3197  0.3037  0.4667
 2336SOL    HW118470   1.403   0.145   4.409  0.8305 -0.8354 -0.5624
 2336SOL    HW218471   1.257   0.133   4.360 -0.3745  0.9284  0.8066
 2337SOL     OW18472   1.540   0.511   7.499  0.9557 -0.2193  0.5242
 2337SOL    HW118473   1.629   0.510   7.535  0.7011  1.0720  1.2145
 2337SOL    HW218474   1.554   0.565   7.421  1.7527 -2.8584 -1.1229
 2338SOL     OW18475   2.489   3.027   6.122 -0.1379 -0.6144 -0.3155
 2338SOL    HW118476   2.409   3.046   6.072  0.5265 -1.9003 -1.8695
 2338SOL    HW218477   2.452   3.049   6.208 -0.5670  0.6736 -0.8282
 2339SOL     OW18478   3.611   3.544  16.894 -0.0483 -0.2301  0.5018
 2339SOL    HW118479   3.626   3.558  16.987  1.0220  2.5272 -0.0799
 2339SOL    HW218480   3.703   3.548  16.866 -0.9181 -1.9152 -2.5853
 2340SOL     OW18481   2.646   2.590   0.563 -0.1074  0.6923 -0.0880
 2340SOL    HW118482   2.610   2.555   0.482  2.9256 -0.0396 -1.1464
 2340SOL    HW218483   2.625   2.514   0.616  0.2381  0.7706  0.1673
 2341SOL     OW18484   0.634   1.028  13.617  0.6663  0.7430 -0.4761
 2341SOL    HW118485   0.720   1.063  13.592  1.3057  1.3797  2.5946
 2341SOL    HW218486   0.654   0.936  13.596 -1.1637  0.1555  0.3591
 2342SOL     OW18487   2.709   2.628   5.480  0.2372  0.0578 -0.4259
 2342SOL    HW118488   2.775   2.639   5.412  0.0445  1.3920 -0.3977
 2342SOL    HW218489   2.661   2.710   5.467  0.8801  0.1501 -2.1339
 2343SOL     OW18490   0.275   3.006   4.475  0.0346 -0.5452  0.6598
 2343SOL    HW118491   0.197   3.033   4.523  0.2855  2.0038 -0.3781
 2343SOL    HW218492   0.252   3.041   4.389  1.9049 -0.4366  0.2037
 2344SOL     OW18493   0.009   4.098   8.673 -0.2025 -0.3537 -0.1325
 2344SOL    HW118494   0.003   4.018   8.725  0.9332 -1.4039 -1.6264
 2344SOL    HW218495   0.016   4.166   8.739  0.2554 -0.0774 -0.4661
 2345SOL     OW18496   1.503   0.296  10.486 -0.0622  0.6134  0.5341
 2345SOL    HW118497   1.571   0.336  10.539 -0.3309  0.2567  1.1550
 2345SOL    HW218498   1.553   0.265  10.410 -0.3605 -0.7708  0.8936
 2346SOL     OW18499   3.149   1.036   5.053  0.2727 -0.0921  0.0269
 2346SOL    HW118500   3.144   1.053   5.147 -0.3852  1.5377 -0.3093
 2346SOL    HW218501   3.061   1.057   5.020 -0.3951 -1.4910  0.9219
 2347SOL     OW18502   3.102   1.830   5.510  0.3673  0.1660 -0.2075
 2347SOL    HW118503   3.031   1.805   5.570 -1.4287  0.9291 -1.9947
 2347SOL    HW218504   3.056   1.854   5.430  0.4083 -0.8692 -0.5418
 2348SOL     OW18505   3.547   4.041   4.099 -0.4032 -0.0510  0.3798
 2348SOL    HW118506   3.627   4.003   4.135  0.3339  2.0587  1.0136
 2348SOL    HW218507   3.531   4.001   4.014  0.4232  0.5546 -0.0593
 2349SOL     OW18508   4.180   1.972   0.725 -0.3809 -0.4964  0.2217
 2349SOL    HW118509   4.105   1.959   0.783  0.3417  1.3656  1.5587
 2349SOL    HW218510   4.245   1.919   0.771 -1.5125 -1.3618  0.8224
 2350SOL     OW18511   0.987   0.897  12.791  0.2238  0.0720  0.0127
 2350SOL    HW118512   1.011   0.833  12.858 -0.3545 -0.1793 -0.0272
 2350SOL    HW218513   0.898   0.871  12.768 -0.1686  2.0775 -0.7513
 2351SOL     OW18514   4.060   0.440   8.082  0.6899  0.1288  0.0512
 2351SOL    HW118515   4.095   0.405   8.000 -0.4401  1.0442 -0.8364
 2351SOL    HW218516   4.138   0.485   8.113  1.5374 -2.1403  1.1596
 2352SOL     OW18517   0.407   3.469   0.146  0.4501  0.1124 -0.0760
 2352SOL    HW118518   0.498   3.469   0.116  0.9304  0.0987  1.3949
 2352SOL    HW218519   0.367   3.453   0.060 -0.3483 -2.9823  0.8607
 2353SOL     OW18520   3.110   2.266  12.811 -0.1491 -0.6681  0.5899
 2353SOL    HW118521   3.168   2.194  12.833  2.1301  1.3993  1.3355
 2353SOL    HW218522   3.030   2.247  12.860 -0.3347 -0.9260  0.1844
 2354SOL     OW18523   2.662   2.269   9.717  0.1462  0.4835  0.1723
 2354SOL    HW118524   2.664   2.192   9.660 -1.8093  0.8407 -0.3959
 2354SOL    HW218525   2.684   2.222   9.797  0.8489 -0.6396 -0.6900
 2355SOL     OW18526   3.861   4.669   0.366 -0.2558  0.0238  0.4040
 2355SOL    HW118527   3.809   4.720   0.429  2.2622  1.7308  1.0735
 2355SOL    HW218528   3.885   0.015   0.311 -3.3669  1.3358  0.7791
 2356SOL     OW18529   2.626   2.869  12.601 -0.0935 -0.0014  0.2527
 2356SOL    HW118530   2.619   2.917  12.518 -2.8759 -1.3304 -0.2841
 2356SOL    HW218531   2.561   2.800  12.589 -1.4555  1.3671 -0.1953
 2357SOL     OW18532   1.320   2.663  15.371  0.1513 -0.3178 -0.5170
 2357SOL    HW118533   1.380   2.737  15.363  1.4467 -1.2598  0.5390
 2357SOL    HW218534   1.365   2.595  15.421 -1.6477 -2.1856 -1.3934
 2358SOL     OW18535   1.447   3.938   0.264 -0.3581 -0.1893  0.0090
 2358SOL    HW118536   1.475   3.908   0.178 -0.2205  0.9261 -0.3396
 2358SOL    HW218537   1.533   3.977   0.277 -0.0811 -0.6436 -0.4742
 2359SOL     OW18538   4.076   3.761   6.041  0.2485 -0.0146 -0.1393
 2359SOL    HW118539   4.063   3.811   6.121 -1.0490  1.2769 -1.1652
 2359SOL    HW218540   4.106   3.675   6.070  1.5720 -0.4424 -2.7531
 2360SOL     OW18541   3.741   0.812   9.422  0.2377  0.0921 -0.2600
 2360SOL    HW118542   3.656   0.856   9.418  0.3985  0.3358 -0.9347
 2360SOL    HW218543   3.716   0.736   9.475 -0.8662  0.4879 -0.2065
 2361SOL     OW18544   2.930   0.803   5.048  0.1902 -0.2301  0.1236
 2361SOL    HW118545   2.941   0.881   4.992  1.8332 -0.1309  0.5963
 2361SOL    HW218546   2.889   0.754   4.977  1.1501 -1.5248  0.4720
 2362SOL     OW18547   1.225   2.707   5.562  0.3878  0.3744 -0.5034
 2362SOL    HW118548   1.312   2.743   5.550  0.5129  0.9506  2.2552
 2362SOL    HW218549   1.241   2.662   5.645 -0.9067  0.3177 -0.2772
 2363SOL     OW18550   4.479   2.649   5.546  0.5794  0.3787 -0.6111
 2363SOL    HW118551   4.442   2.594   5.477  0.3436 -1.4936  0.9843
 2363SOL    HW218552   4.543   2.585   5.578 -0.3735  0.1911  0.9244
 2364SOL     OW18553   4.225   4.405  16.728  0.2787  0.1847 -0.1740
 2364SOL    HW118554   4.239   4.357  16.809 -0.4521  0.8095  0.3231
 2364SOL    HW218555   4.292   4.375  16.666  0.9787  0.2036  0.5804
 2365SOL     OW18556   1.148   3.923   1.954  0.3368  0.8776  0.1908
 2365SOL    HW118557   1.145   4.016   1.975 -2.2098  0.7130  0.5720
 2365SOL    HW218558   1.140   3.923   1.858  3.0719 -0.9367 -0.0210
 2366SOL     OW18559   3.437   1.928   4.647  0.7476 -0.1993 -0.8774
 2366SOL    HW118560   3.465   1.865   4.714 -2.1105  0.6212  1.1041
 2366SOL    HW218561   3.515   1.932   4.592  0.3153  0.2250 -1.4555
 2367SOL     OW18562   3.009   2.030   1.524  0.3369  0.2255 -0.3458
 2367SOL    HW118563   3.008   2.043   1.619 -1.3387 -1.0245 -0.1848
 2367SOL    HW218564   2.917   2.011   1.509  0.5921 -1.0329 -0.2968
 2368SOL     OW18565   0.578   4.695   3.236  0.1398 -0.3721 -0.4852
 2368SOL    HW118566   0.559   4.604   3.210 -1.6974 -0.7540  2.1578
 2368SOL    HW218567   0.637   4.682   3.310 -2.1039  1.2880  1.6074
 2369SOL     OW18568   0.120   4.422   3.310  0.3281  0.0372  0.3460
 2369SOL    HW118569   0.162   4.507   3.295  0.5714  0.1992  1.9328
 2369SOL    HW218570   0.032   4.443   3.278 -0.2098 -0.4170  1.5249
 2370SOL     OW18571   1.534   1.840   7.809 -0.2404 -0.1594  0.7473
 2370SOL    HW118572   1.490   1.758   7.832 -0.0347  0.4137  3.1569
 2370SOL    HW218573   1.605   1.803   7.756 -0.6360  0.6534 -0.3582
 2371SOL     OW18574   2.397   1.072   3.295  0.9569 -0.1853  0.7321
 2371SOL    HW118575   2.412   1.019   3.374  0.9179  2.0040  2.2202
 2371SOL    HW218576   2.473   1.129   3.298  0.8977 -0.0188 -1.0009
 2372SOL     OW18577   1.312   1.663   2.993 -0.3867  0.0812 -0.6683
 2372SOL    HW118578   1.290   1.640   2.903 -1.8359 -2.4586  0.3397
 2372SOL    HW218579   1.338   1.575   3.021  0.7686  1.4251  2.5488
 2373SOL     OW18580   3.992   2.499   8.800  0.3107 -0.3757 -0.2607
 2373SOL    HW118581   4.084   2.507   8.826  0.5730  0.3175 -1.3940
 2373SOL    HW218582   4.003   2.500   8.705  3.2114  0.7502  0.1044
 2374SOL     OW18583   2.109   1.552   4.869  0.4746  0.4922 -0.0318
 2374SOL    HW118584   2.144   1.465   4.887  1.3457  0.2966 -2.5975
 2374SOL    HW218585   2.054   1.564   4.946 -1.5008 -2.3751 -0.9771
 2375SOL     OW18586   1.638   2.771   9.811 -0.7676 -0.0690 -0.4483
 2375SOL    HW118587   1.641   2.677   9.831  0.0652 -0.8570 -4.2507
 2375SOL    HW218588   1.675   2.774   9.722 -0.5223  0.0481 -0.3424
 2376SOL     OW18589   2.080   2.026   3.996  0.2329 -0.1742  0.0329
 2376SOL    HW118590   2.070   2.086   3.922  0.2898 -1.6573 -1.1864
 2376SOL    HW218591   2.062   2.093   4.062  2.6437  0.7671 -0.2830
 2377SOL     OW18592   3.019   1.779   1.914 -0.0767  0.6154  0.5195
 2377SOL    HW118593   3.043   1.706   1.971  0.1393 -0.0384 -0.4117
 2377SOL    HW218594   3.075   1.760   1.839  0.7187 -1.2753  1.6042
 2378SOL     OW18595   3.805   3.385   7.355  0.2663 -0.4461 -0.0275
 2378SOL    HW118596   3.767   3.327   7.289 -0.4696 -3.3102  2.9445
 2378SOL    HW218597   3.798   3.328   7.431 -0.1778 -0.2232  0.0988
 2379SOL     OW18598   3.134   1.604   4.387  0.4004  0.1811 -0.3379
 2379SOL    HW118599   3.165   1.693   4.398 -0.7687  0.2914  2.0552
 2379SOL    HW218600   3.208   1.560   4.430 -1.1774 -0.7856  1.4042
 2380SOL     OW18601   1.022   1.336   3.457  0.0927 -0.6760  0.4817
 2380SOL    HW118602   1.035   1.430   3.469  1.1853 -1.1675  2.9655
 2380SOL    HW218603   0.974   1.328   3.374 -1.3910  2.8507  0.9982
 2381SOL     OW18604   2.818   0.287  10.425 -0.4662  0.0339 -0.0272
 2381SOL    HW118605   2.809   0.261  10.333 -0.9808 -2.1678  0.6452
 2381SOL    HW218606   2.739   0.335  10.451 -0.9770 -1.5092  1.2393
 2382SOL     OW18607   0.764   2.830  12.532 -0.0481 -0.3620  0.0949
 2382SOL    HW118608   0.845   2.841  12.482  1.4261 -1.7908  2.1869
 2382SOL    HW218609   0.700   2.846  12.462 -0.3845  0.0865  0.5043
 2383SOL     OW18610   0.590   1.591   7.638  0.2966 -0.0860 -0.3064
 2383SOL    HW118611   0.605   1.500   7.614  2.1938 -0.4201  2.1114
 2383SOL    HW218612   0.662   1.585   7.701 -0.3994 -1.8052  0.3243
 2384SOL     OW18613   2.231   1.625  17.442 -0.9441  0.0339 -0.0285
 2384SOL    HW118614   2.280   1.707  17.434 -2.8849  1.0299 -1.6595
 2384SOL    HW218615   2.170   1.631  17.368  0.6624 -0.6954 -1.4267
 2385SOL     OW18616   3.906   2.788   3.492 -0.1760 -0.1908  0.2556
 2385SOL    HW118617   3.867   2.701   3.488  0.9487 -0.6959  0.2950
 2385SOL    HW218618   3.853   2.825   3.421  2.4502 -1.8249 -2.5416
 2386SOL     OW18619   2.042   1.420   5.445 -0.2274 -0.2732 -0.3308
 2386SOL    HW118620   2.069   1.337   5.406  0.0837 -1.6486  2.8135
 2386SOL    HW218621   2.051   1.394   5.536 -2.1932  1.3536  0.3263
 2387SOL     OW18622   4.388   2.251  11.792  0.2777 -0.0208 -0.5567
 2387SOL    HW118623   4.397   2.222  11.883 -1.7272 -2.1393 -1.0185
 2387SOL    HW218624   4.470   2.228  11.748  0.1814  0.4687 -0.9832
 2388SOL     OW18625   2.856   4.021  16.748  0.4717 -0.1779  0.2806
 2388SOL    HW118626   2.924   4.056  16.689 -0.2558 -0.2076 -0.5862
 2388SOL    HW218627   2.845   4.100  16.801 -0.3288 -0.2492  0.2201
 2389SOL     OW18628   1.382   3.493   7.091 -0.9543 -0.2683 -0.7308
 2389SOL    HW118629   1.372   3.485   7.186  0.2522  1.2762 -0.4656
 2389SOL    HW218630   1.476   3.504   7.076 -0.4533  0.5251  3.0583
 2390SOL     OW18631   1.307   1.367   8.122  0.3872 -0.1441  0.2652
 2390SOL    HW118632   1.370   1.434   8.148  1.6024 -1.1360 -0.1370
 2390SOL    HW218633   1.243   1.361   8.194 -2.1188  0.9174 -1.9003
 2391SOL     OW18634   0.347   0.599   2.984  0.4969  0.2116  0.1987
 2391SOL    HW118635   0.345   0.504   2.993  0.1020  0.3148  1.2641
 2391SOL    HW218636   0.400   0.622   3.061  1.6397 -0.1238 -0.4895
 2392SOL     OW18637   1.120   2.566   1.552  0.0948 -0.3009 -0.1336
 2392SOL    HW118638   1.096   2.495   1.492 -2.6316  0.4295  0.0993
 2392SOL    HW218639   1.059   2.635   1.524  0.2737 -0.1615 -0.1817
 2393SOL     OW18640   4.226   2.294   4.349  0.2601 -0.1146  0.0751
 2393SOL    HW118641   4.292   2.323   4.285  1.3501  0.4291  1.4558
 2393SOL    HW218642   4.184   2.225   4.297  0.8700  0.2010 -0.8520
 2394SOL     OW18643   0.320   0.701   5.999 -0.0463  0.1864  0.0300
 2394SOL    HW118644   0.233   0.711   6.036  0.1213 -2.4148  1.0722
 2394SOL    HW218645   0.302   0.668   5.911  0.3026  0.5848 -0.1936
 2395SOL     OW18646   0.648   2.907   6.820  0.6047  0.6725  0.2479
 2395SOL    HW118647   0.743   2.917   6.814  0.6922 -0.2960 -0.0567
 2395SOL    HW218648   0.630   2.899   6.913 -1.6944  3.5692  0.0502
 2396SOL     OW18649   3.688   1.921   5.851 -0.3535  0.2537 -0.0162
 2396SOL    HW118650   3.747   1.994   5.870  0.0479 -0.0349 -0.1433
 2396SOL    HW218651   3.743   1.850   5.886 -2.1860 -0.7945  0.7248
 2397SOL     OW18652   0.665   2.733  16.919 -0.2404  0.0371  0.2349
 2397SOL    HW118653   0.611   2.711  16.843 -0.1322 -0.6670  0.3634
 2397SOL    HW218654   0.752   2.735  16.880 -1.7155  4.6718 -2.8701
 2398SOL     OW18655   3.765   0.287   1.305 -0.1664  0.6313  0.0016
 2398SOL    HW118656   3.800   0.228   1.238  1.5739 -1.2454  2.5876
 2398SOL    HW218657   3.674   0.261   1.314  0.3385 -1.1269  0.0946
 2399SOL     OW18658   0.735   1.370   5.951 -0.8221  0.1069  0.6288
 2399SOL    HW118659   0.807   1.398   6.008  1.0900 -0.8972 -1.2859
 2399SOL    HW218660   0.763   1.389   5.862  0.7204  1.5575  1.4243
 2400SOL     OW18661   1.279   1.264  16.550 -0.2271 -0.3439 -0.2684
 2400SOL    HW118662   1.316   1.321  16.617 -2.4541  0.6964  0.0863
 2400SOL    HW218663   1.351   1.251  16.489  0.9108  0.0282  1.0035
 2401SOL     OW18664   0.864   2.020   9.000 -0.8728  0.3279  0.2345
 2401SOL    HW118665   0.838   2.005   9.091  0.3741 -1.8737  0.2144
 2401SOL    HW218666   0.814   1.949   8.959  0.8979  0.3884 -2.0033
 2402SOL     OW18667   3.024   1.207   6.792 -0.3908 -0.1768 -0.0538
 2402SOL    HW118668   3.003   1.140   6.857 -1.1835  0.8831  0.7920
 2402SOL    HW218669   3.076   1.270   6.843  1.6179  1.0561 -3.5938
 2403SOL     OW18670   4.251   4.109  15.459 -0.3559  0.6877 -0.7267
 2403SOL    HW118671   4.269   4.179  15.396  1.7803  1.2952  0.5514
 2403SOL    HW218672   4.249   4.033  15.402  0.1595  0.2169 -0.1132
 2404SOL     OW18673   3.418   1.675  13.442 -0.1203  0.1783  0.5580
 2404SOL    HW118674   3.395   1.589  13.406  0.4542  0.9440 -1.6600
 2404SOL    HW218675   3.339   1.729  13.448 -1.2117 -1.4013  0.4186
 2405SOL     OW18676   2.088   0.742   0.686  0.3397 -0.3799 -0.4155
 2405SOL    HW118677   2.127   0.828   0.696  1.3231 -0.8390 -0.3361
 2405SOL    HW218678   2.155   0.686   0.725  1.5011 -0.2767 -2.2751
 2406SOL     OW18679   1.075   0.670   2.521  0.4420  0.2711 -0.0448
 2406SOL    HW118680   1.003   0.614   2.492  0.8953  0.8446 -2.3177
 2406SOL    HW218681   1.087   0.622   2.603 -0.6154  0.5490  0.2853
 2407SOL     OW18682   2.763   0.909   3.401 -0.1040  0.2281 -0.2495
 2407SOL    HW118683   2.812   0.845   3.453  2.9837  1.3850 -1.7782
 2407SOL    HW218684   2.682   0.913   3.453  1.2020 -0.2686  1.8358
 2408SOL     OW18685   3.704   1.984  13.763  0.1393 -0.1334 -0.2657
 2408SOL    HW118686   3.742   2.036  13.692  0.3516  0.1162  0.0319
 2408SOL    HW218687   3.789   1.987  13.806 -0.6927  2.8011  1.1715
 2409SOL     OW18688   1.099   3.061  13.062 -0.3772 -0.4345 -0.6984
 2409SOL    HW118689   1.132   3.058  13.151 -1.8586  1.5123 -0.0590
 2409SOL    HW218690   1.114   2.971  13.035  2.9269 -0.2935  0.7605
 2410SOL     OW18691   4.597   4.022   2.272 -0.0183  0.1527  0.1128
 2410SOL    HW118692   4.547   4.091   2.229  0.3282 -0.3582 -1.1167
 2410SOL    HW218693   4.546   3.947   2.243  0.8450 -0.9197  1.3764
 2411SOL     OW18694   2.538   0.595  16.530 -0.0279  0.5107 -0.2439
 2411SOL    HW118695   2.511   0.545  16.453  2.4542 -1.5429  0.2274
 2411SOL    HW218696   2.584   0.522  16.571 -0.5198  0.8047  0.8375
 2412SOL     OW18697   2.056   1.521   6.493 -0.3249  0.0447 -0.0536
 2412SOL    HW118698   2.061   1.579   6.417  0.7367  0.3711  0.2657
 2412SOL    HW218699   2.082   1.569   6.572 -0.2652  0.1123 -0.1135
 2413SOL     OW18700   2.631   4.641   0.882 -0.3894 -0.4839  0.6177
 2413SOL    HW118701   2.542   4.674   0.889 -0.5652 -1.2538  1.9531
 2413SOL    HW218702   2.680   4.723   0.882  0.3433 -0.9037 -1.7803
 2414SOL     OW18703   2.061   4.188   4.953 -0.1119 -0.1726  0.1711
 2414SOL    HW118704   2.001   4.117   4.978  1.6060 -1.9648 -0.8377
 2414SOL    HW218705   2.092   4.158   4.868  2.7434 -1.0085  1.5319
 2415SOL     OW18706   3.065   3.998   6.490 -0.5901 -0.4802 -0.4067
 2415SOL    HW118707   2.994   4.056   6.515  0.0622 -0.0186  0.3883
 2415SOL    HW218708   3.143   4.016   6.544 -2.0520 -0.6968  1.7686
 2416SOL     OW18709   0.650   0.302  14.056  0.1901 -0.1557 -0.4091
 2416SOL    HW118710   0.593   0.379  14.050  0.2716 -0.2025 -1.6484
 2416SOL    HW218711   0.703   0.310  14.136  0.1547  2.8923 -0.7086
 2417SOL     OW18712   3.780   1.205   5.956 -0.1571  0.0836 -0.3376
 2417SOL    HW118713   3.785   1.182   5.863  0.1149  2.8989 -1.0081
 2417SOL    HW218714   3.869   1.230   5.982 -0.0477 -1.6965  0.9894
 2418SOL     OW18715   3.251   3.998   2.655 -0.0526  0.3132 -0.2547
 2418SOL    HW118716   3.250   4.090   2.681  0.4707  0.4761 -0.7950
 2418SOL    HW218717   3.199   3.953   2.722 -0.6469  2.4465  0.6970
 2419SOL     OW18718   4.206   0.740   3.956  0.1500 -0.5520 -0.7001
 2419SOL    HW118719   4.147   0.674   3.918 -0.8436 -0.4043  0.5854
 2419SOL    HW218720   4.259   0.691   4.020 -1.4395 -0.0178  1.0429
 2420SOL     OW18721   4.584   0.761   4.367 -0.2139 -0.2213  0.2292
 2420SOL    HW118722   4.537   0.844   4.359 -0.2248 -0.4918 -2.3909
 2420SOL    HW218723   4.548   0.724   4.448 -0.5634 -0.5232 -0.0598
 2421SOL     OW18724   4.172   3.153  13.185 -0.3376 -0.2191  0.0634
 2421SOL    HW118725   4.162   3.220  13.252  0.1990 -0.3064  0.2357
 2421SOL    HW218726   4.080   3.146  13.163 -0.5699 -2.4141  1.7743
 2422SOL     OW18727   4.045   2.321  13.011  0.1665  0.2877  0.4531
 2422SOL    HW118728   4.140   2.311  13.011  0.2203  0.7688 -1.2487
 2422SOL    HW218729   4.031   2.296  12.920 -0.1596  3.0126 -0.2323
 2423SOL     OW18730   1.437   1.165   7.966 -0.7897  0.1251 -0.1077
 2423SOL    HW118731   1.469   1.106   8.033 -0.5784 -2.0487 -2.1011
 2423SOL    HW218732   1.396   1.231   8.021  0.3396  1.1686 -0.5323
 2424SOL     OW18733   3.891   2.732   4.447  0.3971  0.0714  0.4632
 2424SOL    HW118734   3.976   2.775   4.435  0.4531 -0.5653 -1.2885
 2424SOL    HW218735   3.913   2.640   4.462  2.7724  0.2959 -1.7966
 2425SOL     OW18736   1.336   0.715  15.281  0.1945  0.8216 -0.1523
 2425SOL    HW118737   1.305   0.762  15.203  0.1133 -0.0808 -0.6773
 2425SOL    HW218738   1.262   0.738  15.337  0.2284  1.3994 -0.3497
 2426SOL     OW18739   3.554   4.543   1.633  0.0680  0.2898 -0.2467
 2426SOL    HW118740   3.474   4.510   1.672 -0.2762  0.7828 -0.5418
 2426SOL    HW218741   3.602   4.462   1.651 -0.5126  0.2496  1.1610
 2427SOL     OW18742   0.554   3.169   2.961 -0.5272  0.6658 -0.1577
 2427SOL    HW118743   0.506   3.149   3.042  2.0344  0.2703  1.2764
 2427SOL    HW218744   0.600   3.085   2.955 -0.7375  0.4076  1.6233
 2428SOL     OW18745   2.378   2.433   6.141  0.2014  0.1597  0.3171
 2428SOL    HW118746   2.363   2.432   6.047 -1.3737 -0.5696  0.5747
 2428SOL    HW218747   2.291   2.462   6.169  0.0285 -0.9361  0.8989
 2429SOL     OW18748   2.154   1.682   9.916  0.4254  0.1665  0.3826
 2429SOL    HW118749   2.126   1.769   9.886  1.5579 -0.0684 -1.3441
 2429SOL    HW218750   2.216   1.659   9.846  0.7770  3.4422 -0.4029
 2430SOL     OW18751   0.464   0.511   1.797  0.3304  0.5959  0.4167
 2430SOL    HW118752   0.560   0.506   1.802  0.2217 -1.1310  1.1181
 2430SOL    HW218753   0.453   0.602   1.823  1.6709  0.8317  0.1460
 2431SOL     OW18754   2.487   1.428   8.886 -0.0055  0.1514 -0.1002
 2431SOL    HW118755   2.539   1.379   8.823 -1.2407  1.1335 -1.8601
 2431SOL    HW218756   2.542   1.418   8.964 -0.2021  0.4914  0.0809
 2432SOL     OW18757   0.388   3.711   5.924  0.3224 -0.1604 -0.0964
 2432SOL    HW118758   0.336   3.666   5.990  0.9618 -0.2052  0.3811
 2432SOL    HW218759   0.367   3.654   5.851 -2.2712 -0.1409  0.6388
 2433SOL     OW18760   0.771   3.804   6.993 -0.4435  0.1106  0.1057
 2433SOL    HW118761   0.815   3.871   6.942 -1.9659  0.1686 -1.1287
 2433SOL    HW218762   0.838   3.767   7.050 -0.1235 -0.2656 -0.5198
 2434SOL     OW18763   1.602   2.236   4.398 -0.0071 -0.2908  0.2530
 2434SOL    HW118764   1.633   2.293   4.327 -0.7404  0.2403  0.3622
 2434SOL    HW218765   1.507   2.250   4.393 -0.1091 -0.2280  2.3702
 2435SOL     OW18766   4.619   0.321   7.359  0.1610 -0.1384 -0.3672
 2435SOL    HW118767   4.668   0.377   7.419 -0.3839  1.4922 -1.4388
 2435SOL    HW218768   4.672   0.332   7.280  1.5057 -0.4837  0.4914
 2436SOL     OW18769   1.969   0.582  11.552  0.5323 -0.1270 -0.2849
 2436SOL    HW118770   1.945   0.495  11.520  0.7709 -0.1510 -0.4015
 2436SOL    HW218771   1.901   0.599  11.616  0.2104  0.8209 -0.8754
 2437SOL     OW18772   4.257   2.388  14.265 -0.5627 -0.2929 -0.1734
 2437SOL    HW118773   4.215   2.352  14.187 -1.7685  1.6163 -0.4239
 2437SOL    HW218774   4.306   2.308  14.281  0.9955  0.4579 -1.1727
 2438SOL     OW18775   0.765   4.426   9.971  0.0065  0.3364  0.0807
 2438SOL    HW118776   0.729   4.514   9.977  0.3444  0.5580 -1.0811
 2438SOL    HW218777   0.703   4.393   9.905  0.6321  0.3523 -0.5124
 2439SOL     OW18778   2.154   0.696  11.767  0.3332  0.1004 -0.4545
 2439SOL    HW118779   2.196   0.660  11.689  0.1177 -0.5176 -0.2831
 2439SOL    HW218780   2.194   0.783  11.761  0.5895  0.1584  1.8275
 2440SOL     OW18781   0.325   4.713  16.639  0.2978  0.5192 -0.2200
 2440SOL    HW118782   0.255   0.007  16.700 -0.5244  0.6675 -1.2352
 2440SOL    HW218783   0.325   4.620  16.615  0.5956  0.7224 -1.0101
 2441SOL     OW18784   4.359   0.039  13.142  0.6072 -0.3025 -0.0987
 2441SOL    HW118785   4.331   0.098  13.073  0.3096  0.7868  0.9504
 2441SOL    HW218786   4.387   0.094  13.215  1.7800 -3.3651  1.7678
 2442SOL     OW18787   1.760   3.811   7.907  0.6453 -0.1702  0.5166
 2442SOL    HW118788   1.810   3.891   7.924  1.2532 -0.2584 -0.8456
 2442SOL    HW218789   1.754   3.811   7.812  2.0623 -1.2343  0.4232
 2443SOL     OW18790   1.146   3.650  16.102 -0.1155  0.3464 -1.0304
 2443SOL    HW118791   1.178   3.731  16.143  0.1809 -0.6720  0.7613
 2443SOL    HW218792   1.230   3.610  16.077 -0.1064 -0.9255  1.0376
 2444SOL     OW18793   1.296   2.495   8.185  0.0605 -0.9528 -0.3180
 2444SOL    HW118794   1.365   2.471   8.246  0.5635 -1.5647 -1.1306
 2444SOL    HW218795   1.296   2.443   8.105 -0.3627 -0.3868 -0.6915
 2445SOL     OW18796   2.264   2.380   7.732 -0.5709  0.3117 -0.3926
 2445SOL    HW118797   2.269   2.314   7.662 -0.3447  0.4292 -0.4859
 2445SOL    HW218798   2.345   2.430   7.722 -0.4716  0.5323  1.6075
 2446SOL     OW18799   4.087   2.441   3.991  0.0054 -0.3491 -0.2411
 2446SOL    HW118800   4.069   2.389   3.913  1.4902 -2.0169  0.5246
 2446SOL    HW218801   4.040   2.391   4.058 -0.5777  0.6841  0.1148
 2447SOL     OW18802   3.124   4.529   2.270  0.0478 -0.3780 -0.1244
 2447SOL    HW118803   3.172   4.446   2.274 -2.2465 -1.6952  0.4080
 2447SOL    HW218804   3.163   4.560   2.188 -0.9067 -1.9348 -1.1677
 2448SOL     OW18805   2.560   0.067   5.058  0.4904 -0.1459 -0.0595
 2448SOL    HW118806   2.475   0.077   5.015  1.0782  3.3431 -0.3609
 2448SOL    HW218807   2.571   4.703   5.085  0.2545  0.0820  0.8336
 2449SOL     OW18808   4.145   2.160   9.217  0.0685 -0.0344  0.4478
 2449SOL    HW118809   4.076   2.177   9.280 -2.8966  2.4405 -3.4500
 2449SOL    HW218810   4.185   2.080   9.250  0.2104 -0.2155 -0.1627
 2450SOL     OW18811   2.066   3.897  11.431  0.3788  0.0115  0.3224
 2450SOL    HW118812   2.159   3.873  11.434  0.0488 -1.4226 -0.4745
 2450SOL    HW218813   2.062   3.975  11.375 -1.3991  0.5344  1.1851
 2451SOL     OW18814   4.590   0.148   6.265  0.3709 -0.1597 -0.3878
 2451SOL    HW118815   4.506   0.182   6.296  0.0061 -0.6797 -0.8204
 2451SOL    HW218816   4.578   0.054   6.275 -0.5193  0.0888  0.8588
 2452SOL     OW18817   3.696   0.684  16.075 -0.2913 -0.2995  0.2365
 2452SOL    HW118818   3.705   0.720  16.163 -2.2542 -3.6066  1.7517
 2452SOL    HW218819   3.736   0.764  16.039 -0.1122  0.3084  1.7801
 2453SOL     OW18820   0.706   3.538  15.740 -0.9356 -0.4212  0.0065
 2453SOL    HW118821   0.768   3.551  15.668 -0.3514  0.8103  0.7442
 2453SOL    HW218822   0.730   3.453  15.774  0.8159 -0.3284 -0.9986
 2454SOL     OW18823   2.040   3.202   3.760 -0.1245 -0.0847 -0.3700
 2454SOL    HW118824   2.021   3.281   3.708  1.4581  0.6893  0.2327
 2454SOL    HW218825   1.986   3.129   3.731 -0.3822 -1.2521  3.0239
 2455SOL     OW18826   1.833   4.216  13.675 -0.4034 -0.0779  0.4933
 2455SOL    HW118827   1.923   4.184  13.668  0.0016  0.6401  2.3813
 2455SOL    HW218828   1.792   4.131  13.691  0.1629 -0.4691 -0.1349
 2456SOL     OW18829   3.671   1.348   6.962  0.1907  0.4566 -0.2512
 2456SOL    HW118830   3.625   1.395   6.892  1.0125 -0.6545 -1.5419
 2456SOL    HW218831   3.601   1.296   7.001  0.1269  0.7707  0.0503
 2457SOL     OW18832   4.236   3.320  13.410 -0.2070  0.0712 -0.1506
 2457SOL    HW118833   4.227   3.291  13.500  0.3183  1.4104  0.3394
 2457SOL    HW218834   4.311   3.377  13.427  0.3048 -0.4349 -0.7239
 2458SOL     OW18835   2.165   2.411   8.322  0.6186  0.4035 -0.2486
 2458SOL    HW118836   2.136   2.476   8.258 -1.3858  0.0840  0.3182
 2458SOL    HW218837   2.192   2.343   8.260  0.1597 -1.0007  1.0863
 2459SOL     OW18838   3.169   2.216   6.997 -0.1529  0.6094  0.6593
 2459SOL    HW118839   3.106   2.287   6.985 -2.3792 -1.4799 -0.0306
 2459SOL    HW218840   3.238   2.245   7.057 -1.0406  2.3041  0.8629
 2460SOL     OW18841   3.094   1.075   1.757 -0.4141  0.0799  0.5155
 2460SOL    HW118842   3.026   1.116   1.704  0.2424  0.6969  0.1545
 2460SOL    HW218843   3.163   1.138   1.738  0.5833 -1.2334 -0.2922
 2461SOL     OW18844   4.596   2.539   6.106  0.1019 -0.0701  0.0452
 2461SOL    HW118845   4.541   2.557   6.182  1.0840  0.1977  0.6905
 2461SOL    HW218846   4.650   2.468   6.142 -1.2612 -1.3631 -0.4688
 2462SOL     OW18847   0.062   1.003  12.984  0.5505 -0.2421  0.0077
 2462SOL    HW118848   0.145   0.989  12.938  0.7789  0.8593  0.0778
 2462SOL    HW218849   0.002   0.929  12.977 -0.8759  0.8396  0.7663
 2463SOL     OW18850   4.319   3.636  16.559  0.1305  0.5585  0.2028
 2463SOL    HW118851   4.363   3.561  16.599 -0.6344 -0.0186 -0.0504
 2463SOL    HW218852   4.228   3.607  16.565  0.1233  0.0208 -2.2453
 2464SOL     OW18853   2.004   3.698   3.085 -0.0057 -0.1328  0.0579
 2464SOL    HW118854   1.917   3.665   3.061 -0.0358  0.3196 -0.4564
 2464SOL    HW218855   1.987   3.792   3.081 -0.4258 -0.0584  3.9137
 2465SOL     OW18856   0.545   0.478   9.080  0.1817 -0.2188  0.0232
 2465SOL    HW118857   0.584   0.397   9.046  0.7580 -0.1734  0.5775
 2465SOL    HW218858   0.456   0.450   9.100  0.8766 -1.3620  1.5064
 2466SOL     OW18859   1.238   0.897   5.053 -0.3178  0.2298  0.0947
 2466SOL    HW118860   1.315   0.842   5.071  1.0047  2.5158  1.3940
 2466SOL    HW218861   1.185   0.895   5.133  1.2925  4.2051  1.2215
 2467SOL     OW18862   2.124   3.860  10.375 -0.1390  0.2042 -0.5588
 2467SOL    HW118863   2.081   3.899  10.451 -0.1798 -0.4851 -0.2294
 2467SOL    HW218864   2.111   3.765  10.382  1.3762 -0.1209 -2.3647
 2468SOL     OW18865   2.369   4.556   8.198  0.5456 -0.6594 -0.2238
 2468SOL    HW118866   2.353   4.516   8.112  0.0328  0.6344 -0.7403
 2468SOL    HW218867   2.304   4.513   8.254  2.0047 -1.0650  1.1374
 2469SOL     OW18868   3.956   4.311  15.694 -0.0612 -0.2480 -0.4698
 2469SOL    HW118869   3.989   4.249  15.759  0.6610  1.2684  0.5926
 2469SOL    HW218870   3.860   4.303  15.690 -0.0834 -0.1633 -0.0969
 2470SOL     OW18871   1.906   0.061   8.511  0.5608 -0.8336 -0.4704
 2470SOL    HW118872   1.941   0.006   8.581  0.2788  0.0558  0.3625
 2470SOL    HW218873   1.812   0.048   8.522  0.2289  1.4178 -0.5657
 2471SOL     OW18874   0.938   1.999   3.754 -0.1409 -0.4837 -0.3253
 2471SOL    HW118875   0.882   2.064   3.795 -2.0885 -1.6551 -1.1224
 2471SOL    HW218876   0.985   1.960   3.828  1.8793 -1.7262 -2.2616
 2472SOL     OW18877   3.119   1.385   3.605  0.5668 -0.3791  0.4536
 2472SOL    HW118878   3.095   1.308   3.554  1.1574 -0.3149  0.0880
 2472SOL    HW218879   3.202   1.403   3.561  0.4244 -1.5456 -0.2867
 2473SOL     OW18880   0.152   0.658   6.361  0.4027  0.1749 -0.2336
 2473SOL    HW118881   0.202   0.735   6.389 -0.1899  0.7096 -0.6627
 2473SOL    HW218882   0.203   0.583   6.394  0.2236  0.3465  0.4317
 2474SOL     OW18883   0.420   3.723   2.885  0.4840 -0.0051 -0.3417
 2474SOL    HW118884   0.437   3.637   2.847 -0.0483  0.1273 -0.8800
 2474SOL    HW218885   0.335   3.748   2.847 -0.4592 -1.0585  1.0467
 2475SOL     OW18886   3.021   3.069   1.756  0.2038  0.3694  0.4945
 2475SOL    HW118887   3.075   3.029   1.689  0.1787 -0.2444  0.8322
 2475SOL    HW218888   3.077   3.123   1.811 -1.4283  0.2591  2.2856
 2476SOL     OW18889   0.443   3.424   9.659  0.0972 -1.0485 -0.4475
 2476SOL    HW118890   0.512   3.361   9.639 -0.5310 -2.0773  0.5914
 2476SOL    HW218891   0.487   3.498   9.701  1.2161 -1.7209 -0.4475
 2477SOL     OW18892   2.098   4.263  13.585  0.0216 -0.2595  0.1407
 2477SOL    HW118893   2.109   4.198  13.516  0.2132 -1.9505  1.7900
 2477SOL    HW218894   2.047   4.327  13.534 -1.4033 -0.9287  0.7429
 2478SOL     OW18895   3.401   0.891   8.228 -0.0361 -0.2968 -0.1947
 2478SOL    HW118896   3.450   0.958   8.180  0.1672  0.2279  0.7396
 2478SOL    HW218897   3.440   0.899   8.315 -0.8656  2.9737 -0.1017
 2479SOL     OW18898   3.304   1.000   6.706  0.1234 -0.4250  0.2903
 2479SOL    HW118899   3.248   1.063   6.661  0.6129 -0.5011 -0.4328
 2479SOL    HW218900   3.233   0.947   6.742 -0.8940  0.5134 -0.3545
 2480SOL     OW18901   4.646   1.413  14.985  0.4341 -0.3934  0.2821
 2480SOL    HW118902   4.598   1.394  15.066  0.2857 -0.5650  0.1541
 2480SOL    HW218903   0.006   1.397  15.020  0.3713  0.2081  0.7093
 2481SOL     OW18904   4.665   1.982   7.818  0.5589  0.1895 -0.2946
 2481SOL    HW118905   4.600   1.916   7.843  0.8617 -0.3822 -0.9934
 2481SOL    HW218906   4.670   1.966   7.724  1.3597  1.7151 -0.5071
 2482SOL     OW18907   1.324   0.417   2.849 -0.2179  0.5306 -0.2767
 2482SOL    HW118908   1.335   0.355   2.921  0.3498  3.2422  1.9752
 2482SOL    HW218909   1.409   0.413   2.805  1.8936  1.6413  3.6843
 2483SOL     OW18910   0.040   1.634  16.181 -0.5796 -0.5492  0.4844
 2483SOL    HW118911   4.695   1.656  16.122 -1.6159 -3.8133  0.5782
 2483SOL    HW218912   0.084   1.565  16.130  0.7735  0.4863  0.2386
 2484SOL     OW18913   2.152   2.162   3.317  0.2957  0.8192  0.6061
 2484SOL    HW118914   2.171   2.069   3.332 -0.1138 -0.0562 -4.3807
 2484SOL    HW218915   2.238   2.194   3.291  0.1773  1.5398  1.0955
 2485SOL     OW18916   1.040   2.156  17.479  0.2796  0.5061  0.2194
 2485SOL    HW118917   1.019   2.074  17.523 -0.9811  1.2938  1.0923
 2485SOL    HW218918   0.960   2.207  17.495  0.9017  1.0682  1.4973
 2486SOL     OW18919   2.391   3.382   9.505  0.4778  0.3555  0.1098
 2486SOL    HW118920   2.475   3.350   9.472 -0.3994 -1.8568  0.0451
 2486SOL    HW218921   2.355   3.298   9.531  2.4480 -0.3212  0.6703
 2487SOL     OW18922   4.391   0.122   5.163 -0.0151  0.1264 -0.1524
 2487SOL    HW118923   4.414   0.046   5.217  1.5460 -0.7350 -2.0365
 2487SOL    HW218924   4.295   0.122   5.168  0.0119  0.7250  0.3375
 2488SOL     OW18925   2.829   4.499   5.216 -0.8737  0.1703  0.0359
 2488SOL    HW118926   2.903   4.517   5.158  0.5380  1.4387  2.2782
 2488SOL    HW218927   2.853   4.525   5.305 -2.9453  0.1410  0.6145
 2489SOL     OW18928   0.406   4.180   4.478 -0.1922  0.0913  0.9216
 2489SOL    HW118929   0.432   4.266   4.509 -1.1497  0.2943  1.1738
 2489SOL    HW218930   0.322   4.187   4.523 -1.1817 -1.0831 -0.7152
 2490SOL     OW18931   3.068   1.963  14.846  0.2399 -0.1999 -0.0906
 2490SOL    HW118932   3.016   2.039  14.874  0.0921  0.0589 -1.0769
 2490SOL    HW218933   3.130   1.988  14.777  0.9414  0.2228  0.6920
 2491SOL     OW18934   0.909   1.916   2.296  0.0189 -0.8899  0.5990
 2491SOL    HW118935   0.914   2.008   2.321  1.7619  0.0410 -3.0466
 2491SOL    HW218936   0.935   1.912   2.204  1.7591  0.0856  1.0354
 2492SOL     OW18937   4.168   3.518  16.930 -0.1614  0.7654  0.1036
 2492SOL    HW118938   4.255   3.481  16.943 -0.3693 -0.5759 -2.2936
 2492SOL    HW218939   4.188   3.612  16.922  0.9468  0.7288  2.6059
 2493SOL     OW18940   1.105   1.223   8.321 -0.0721  0.1721 -0.2257
 2493SOL    HW118941   1.025   1.182   8.289  0.1726 -0.4759 -0.0166
 2493SOL    HW218942   1.151   1.150   8.364 -0.3714 -1.0273 -1.9606
 2494SOL     OW18943   4.618   3.539  16.002  0.1111 -0.0880 -0.3621
 2494SOL    HW118944   4.656   3.598  16.067  0.0827  1.1522 -1.4643
 2494SOL    HW218945   4.608   3.462  16.058  1.2626 -0.7589 -1.0824
 2495SOL     OW18946   0.538   0.541   4.107  0.3938 -0.3495  0.3323
 2495SOL    HW118947   0.494   0.457   4.097 -0.4591  0.0313  0.7610
 2495SOL    HW218948   0.535   0.579   4.019  0.5500 -1.4395 -0.1332
 2496SOL     OW18949   2.147   1.523  13.427 -0.2328  0.1776  0.1311
 2496SOL    HW118950   2.134   1.617  13.419 -1.6322 -0.3069 -3.3863
 2496SOL    HW218951   2.153   1.510  13.522  1.0258  0.6927  0.1276
 2497SOL     OW18952   0.019   2.790   9.694 -0.0502  0.4528 -0.1593
 2497SOL    HW118953   0.097   2.754   9.652 -0.5932 -0.9825  0.0660
 2497SOL    HW218954   4.685   2.733   9.649 -0.3949  1.9243 -1.5324
 2498SOL     OW18955   3.885   2.801   5.378 -0.4427 -0.0460 -0.2402
 2498SOL    HW118956   3.869   2.726   5.321 -0.8533 -1.4218  1.7105
 2498SOL    HW218957   3.931   2.765   5.453 -1.0045 -0.3625 -0.0501
 2499SOL     OW18958   4.155   0.978   2.341  0.1900 -0.2588  0.9454
 2499SOL    HW118959   4.233   0.944   2.386  1.0019 -1.1775 -1.1501
 2499SOL    HW218960   4.118   0.893   2.316 -1.7018  0.4494  1.3561
 2500SOL     OW18961   3.820   1.574   3.906 -0.1354 -0.5313  0.3184
 2500SOL    HW118962   3.791   1.601   3.819  1.0365 -1.7573 -0.4616
 2500SOL    HW218963   3.766   1.632   3.960  1.1217 -0.0558  1.0751
 2501SOL     OW18964   0.210   0.025   6.055  0.2349  0.1588 -0.1034
 2501SOL    HW118965   0.185   4.699   5.980  0.6980  0.8916 -0.7733
 2501SOL    HW218966   0.138   0.008   6.116 -0.2108  1.1932 -0.3439
 2502SOL     OW18967   3.205   2.138   3.000 -0.0853  0.3412 -0.5095
 2502SOL    HW118968   3.267   2.160   2.931  0.6733  2.8434  0.9688
 2502SOL    HW218969   3.210   2.218   3.053  1.4454 -2.0541  2.9565
 2503SOL     OW18970   0.770   2.205   5.298 -0.2353  0.4502  0.3948
 2503SOL    HW118971   0.736   2.209   5.209  0.8759 -0.9458 -0.0888
 2503SOL    HW218972   0.805   2.290   5.326 -1.2553  1.6319 -1.9216
 2504SOL     OW18973   1.311   0.710  11.208 -0.0452  0.1520  0.5344
 2504SOL    HW118974   1.221   0.677  11.209 -0.4744  1.3015  0.5457
 2504SOL    HW218975   1.373   0.638  11.198  0.5596  0.4514  2.1481
 2505SOL     OW18976   0.600   4.177  17.603  0.2443  0.2839  0.7046
 2505SOL    HW118977   0.626   4.085  17.608 -1.0089 -0.2637 -2.5998
 2505SOL    HW218978   0.633   4.217  17.684  1.1080  1.2467 -0.1072
 2506SOL     OW18979   0.941   1.603  17.612 -0.1174 -0.4537  0.3687
 2506SOL    HW118980   1.016   1.549  17.640  1.3888  2.0276  1.1377
 2506SOL    HW218981   0.876   1.534  17.621  2.0599 -2.8258 -1.9459
 2507SOL     OW18982   2.997   0.062  10.320 -0.8360 -0.0425  0.3133
 2507SOL    HW118983   3.024   0.120  10.249  0.1077 -0.7910  0.0601
 2507SOL    HW218984   3.087   0.033  10.335 -0.1099  2.1778  0.2413
 2508SOL     OW18985   0.387   4.601   0.788 -0.0258  0.6607  0.2023
 2508SOL    HW118986   0.361   4.514   0.756  0.9374  0.8827 -1.1696
 2508SOL    HW218987   0.422   4.581   0.875 -1.5470  0.9649  0.8802
 2509SOL     OW18988   1.036   3.465   2.785 -0.0614 -0.1329 -0.3804
 2509SOL    HW118989   1.088   3.546   2.784 -1.8015  0.9958 -0.4431
 2509SOL    HW218990   1.105   3.407   2.755  1.4877  1.6433 -0.2707
 2510SOL     OW18991   2.591   4.180   2.351 -0.8217  0.0127  0.4599
 2510SOL    HW118992   2.595   4.191   2.256  1.9362 -1.2765  0.4193
 2510SOL    HW218993   2.504   4.215   2.370 -0.0052  1.4724  1.4990
 2511SOL     OW18994   0.723   3.287  14.534  0.1882 -0.1049 -0.0926
 2511SOL    HW118995   0.632   3.270  14.509 -0.9016  1.4602  2.8634
 2511SOL    HW218996   0.743   3.354  14.469 -1.7728  0.1860 -0.3872
 2512SOL     OW18997   4.328   2.421   3.414  0.8675  0.0197 -0.2033
 2512SOL    HW118998   4.302   2.333   3.386  1.8217  0.2969 -1.9837
 2512SOL    HW218999   4.245   2.457   3.444  0.6750 -1.3414  0.9043
 2513SOL     OW19000   2.054   0.182   4.950 -0.4747  0.4226  1.0603
 2513SOL    HW119001   2.040   0.211   4.859  1.8021  0.8562  0.8495
 2513SOL    HW219002   1.986   0.234   4.993  1.4300  1.6268  2.6638
 2514SOL     OW19003   0.935   1.262   5.577  0.2369 -0.0142  0.1222
 2514SOL    HW119004   0.894   1.324   5.637  0.7867 -1.1302  1.6355
 2514SOL    HW219005   0.922   1.317   5.500 -3.3984  1.2879  1.7048
 2515SOL     OW19006   3.381   4.719   7.256  0.0659  0.0204  0.5256
 2515SOL    HW119007   3.300   4.725   7.205  0.2803  1.2564  0.3366
 2515SOL    HW219008   3.367   0.062   7.320 -0.2408 -1.7201  2.3866
 2516SOL     OW19009   0.395   3.757  16.560 -0.3622 -0.0862 -0.2097
 2516SOL    HW119010   0.325   3.819  16.584  0.4238  0.2593  1.1787
 2516SOL    HW219011   0.459   3.810  16.514 -0.7489 -0.3865 -1.0973
 2517SOL     OW19012   1.507   2.603   1.880  0.1659 -0.2286  0.2423
 2517SOL    HW119013   1.505   2.670   1.948 -0.2636  1.2189 -1.2045
 2517SOL    HW219014   1.491   2.658   1.803  0.9227  0.3115  0.4737
 2518SOL     OW19015   2.620   1.099  15.701  0.4038 -0.4508  0.0310
 2518SOL    HW119016   2.696   1.130  15.750 -2.1449  0.3147  3.5625
 2518SOL    HW219017   2.566   1.068  15.774 -0.4775 -2.0665 -1.3113
 2519SOL     OW19018   3.355   2.113   4.427 -0.3940  0.5544 -0.2549
 2519SOL    HW119019   3.351   2.026   4.387  1.1415  0.0978  0.5833
 2519SOL    HW219020   3.337   2.088   4.518  1.0727 -0.1069 -0.1499
 2520SOL     OW19021   1.803   3.452  16.980  0.3256  0.2673 -0.3509
 2520SOL    HW119022   1.740   3.520  16.957  0.7302  0.6452 -0.3541
 2520SOL    HW219023   1.743   3.388  17.017  1.1263  0.0508  0.5799
 2521SOL     OW19024   3.000   1.732   2.875  0.4150  0.2847 -0.0771
 2521SOL    HW119025   2.918   1.700   2.836  0.0197 -0.6375  1.5390
 2521SOL    HW219026   3.060   1.658   2.866  1.1163  0.9882 -1.2458
 2522SOL     OW19027   0.677   4.023   5.482 -0.2512  0.1972  0.0908
 2522SOL    HW119028   0.655   4.107   5.442 -0.7581  0.2505  0.4741
 2522SOL    HW219029   0.750   4.038   5.542  0.0108 -1.1387  0.1176
 2523SOL     OW19030   2.318   4.047   3.870  0.4287 -0.0508 -0.8132
 2523SOL    HW119031   2.291   4.139   3.871  0.5289 -0.0206 -1.0448
 2523SOL    HW219032   2.260   4.025   3.797  0.5909 -0.1184 -0.9215
 2524SOL     OW19033   4.234   1.501  16.038  0.4734  0.7300  0.1485
 2524SOL    HW119034   4.169   1.491  15.969  0.8728  1.2627 -0.3103
 2524SOL    HW219035   4.200   1.431  16.093  1.4309 -1.2465 -1.7578
 2525SOL     OW19036   4.434   2.906   3.571  0.3074  0.1045  0.5869
 2525SOL    HW119037   4.394   2.866   3.648  2.1829 -0.4529  1.2645
 2525SOL    HW219038   4.452   2.835   3.510 -1.6913 -1.2129  1.5307
 2526SOL     OW19039   4.231   0.283   3.243 -0.0280 -0.2582  0.1185
 2526SOL    HW119040   4.136   0.277   3.232 -0.2385  1.2886  1.0615
 2526SOL    HW219041   4.262   0.242   3.163 -0.6569  0.5122 -0.5257
 2527SOL     OW19042   3.310   0.203   9.936  0.0397 -0.0523  0.2007
 2527SOL    HW119043   3.245   0.241   9.877  0.2565 -0.1467 -0.1040
 2527SOL    HW219044   3.386   0.216   9.880  0.0835  1.5238  0.6036
 2528SOL     OW19045   2.060   3.406   6.633 -0.3430 -0.4751  0.0685
 2528SOL    HW119046   1.982   3.448   6.597  1.2930  0.4786 -2.3926
 2528SOL    HW219047   2.039   3.370   6.719  0.8728 -1.0143  0.1330
 2529SOL     OW19048   1.012   1.600   4.403 -1.0980 -0.5910  1.1719
 2529SOL    HW119049   1.088   1.572   4.352 -0.0171  1.1503  1.8006
 2529SOL    HW219050   1.012   1.695   4.392 -1.3595 -0.6544  0.6307
 2530SOL     OW19051   1.866   2.511   7.937  0.3007 -0.5510 -0.1265
 2530SOL    HW119052   1.868   2.561   8.019 -0.4244 -1.4437  0.4341
 2530SOL    HW219053   1.944   2.557   7.904  0.7279 -0.9799  0.2704
 2531SOL     OW19054   2.315   1.238   4.526  0.0172  0.9378  0.1525
 2531SOL    HW119055   2.358   1.271   4.447  1.4388 -0.9818  0.1147
 2531SOL    HW219056   2.353   1.294   4.593 -0.8095  0.7523  0.7796
 2532SOL     OW19057   1.507   4.146  10.665 -0.4317 -0.1031  0.2970
 2532SOL    HW119058   1.508   4.060  10.708 -1.8622 -0.5223 -0.5089
 2532SOL    HW219059   1.436   4.192  10.708 -1.0080 -0.8476  0.1468
 2533SOL     OW19060   1.196   2.361   1.193 -0.0212  0.1108 -0.0150
 2533SOL    HW119061   1.120   2.376   1.249 -0.5835 -0.2109 -0.6940
 2533SOL    HW219062   1.260   2.330   1.256 -0.9190 -1.4174  0.1481
 2534SOL     OW19063   0.818   1.933  15.188  0.0626 -0.8326  0.1072
 2534SOL    HW119064   0.880   1.870  15.225  2.0395  0.4562 -1.0087
 2534SOL    HW219065   0.764   1.874  15.136  0.1099 -1.9278  1.3141
 2535SOL     OW19066   1.820   0.942   8.649 -0.5008  0.2317  0.1545
 2535SOL    HW119067   1.882   0.934   8.576  1.1011  0.9227  1.4618
 2535SOL    HW219068   1.879   0.944   8.724 -0.0267 -1.5079 -0.1524
 2536SOL     OW19069   3.794   3.407   1.905  0.0236  0.2121 -0.0266
 2536SOL    HW119070   3.860   3.351   1.865  0.0510  0.7981 -0.8068
 2536SOL    HW219071   3.848   3.424   1.982 -2.3443  0.0156  1.6701
 2537SOL     OW19072   0.093   1.698   6.955  0.8545  0.5692 -0.5707
 2537SOL    HW119073   0.007   1.669   6.924  1.1546 -0.6256 -0.3007
 2537SOL    HW219074   0.079   1.698   7.049  1.9415 -1.1643 -0.4100
 2538SOL     OW19075   0.709   2.167  10.400  0.1196  0.3428 -0.4628
 2538SOL    HW119076   0.768   2.148  10.473  1.8950 -0.2938 -2.0604
 2538SOL    HW219077   0.619   2.154  10.431  1.1857 -0.1733  2.3817
 2539SOL     OW19078   1.669   1.795   8.901  0.1447  0.2086 -0.1713
 2539SOL    HW119079   1.632   1.712   8.929  0.2409  1.0063  2.3803
 2539SOL    HW219080   1.594   1.852   8.915  0.0068 -0.8811  3.5256
 2540SOL     OW19081   4.371   1.637   5.854  0.1067 -0.1903 -0.4153
 2540SOL    HW119082   4.359   1.678   5.768 -0.3223 -2.1172 -1.2786
 2540SOL    HW219083   4.466   1.651   5.860  0.2497 -0.8547 -0.9565
 2541SOL     OW19084   2.595   3.843  14.229  0.6910 -0.4537 -0.0981
 2541SOL    HW119085   2.609   3.846  14.134 -2.7609 -0.3335 -0.6019
 2541SOL    HW219086   2.501   3.827  14.236  0.8582 -1.1073  0.5586
 2542SOL     OW19087   1.781   2.869   7.276 -0.0505  0.2664  0.1035
 2542SOL    HW119088   1.833   2.826   7.344 -1.0395 -2.7751 -1.0844
 2542SOL    HW219089   1.698   2.821   7.266  0.0731 -0.2621  1.5296
 2543SOL     OW19090   1.246   0.009   6.794 -0.1523 -0.4291 -0.3894
 2543SOL    HW119091   1.166   0.006   6.741 -1.6637 -0.0353  1.8698
 2543SOL    HW219092   1.264   0.102   6.805 -0.4983 -0.2135 -1.6265
 2544SOL     OW19093   4.422   1.280   9.306 -0.2345 -0.1478 -0.2574
 2544SOL    HW119094   4.479   1.318   9.238 -2.8471  2.0589 -1.2209
 2544SOL    HW219095   4.351   1.240   9.256 -0.0522 -1.5184  0.6044
 2545SOL     OW19096   0.720   0.593  11.391  0.5426 -0.0419 -0.3293
 2545SOL    HW119097   0.650   0.528  11.394  0.1824  0.4843  2.2449
 2545SOL    HW219098   0.788   0.530  11.369  0.8008 -0.0095  0.3870
 2546SOL     OW19099   4.122   1.151   7.487 -0.3212  0.1571 -0.0888
 2546SOL    HW119100   4.192   1.216   7.487 -1.2297  1.1458 -0.3135
 2546SOL    HW219101   4.042   1.202   7.472 -1.3061 -1.8427 -1.6710
 2547SOL     OW19102   0.444   3.453   2.781 -0.1112 -0.1027  0.0423
 2547SOL    HW119103   0.442   3.365   2.820 -2.0471  0.1593  0.5161
 2547SOL    HW219104   0.537   3.475   2.781 -0.0114 -0.5038 -1.8354
 2548SOL     OW19105   3.863   2.806   0.441 -0.0266  0.1047 -0.5149
 2548SOL    HW119106   3.811   2.772   0.514 -1.5395 -0.0081 -1.6440
 2548SOL    HW219107   3.954   2.792   0.468 -0.2069  2.9150  1.5372
 2549SOL     OW19108   4.099   4.541   1.625  0.2775  0.3802 -0.5607
 2549SOL    HW119109   4.067   4.471   1.682  1.1401 -0.4643 -1.1110
 2549SOL    HW219110   4.096   4.508   1.536  1.6643  0.3335 -0.5984
 2550SOL     OW19111   1.485   1.082   9.014 -0.0780 -0.0486  0.2218
 2550SOL    HW119112   1.504   1.176   9.022  0.3884 -0.0221 -1.0773
 2550SOL    HW219113   1.389   1.089   9.006 -0.2243 -1.0254  1.2236
 2551SOL     OW19114   3.425   0.963   0.364  0.0684  0.3615  0.6233
 2551SOL    HW119115   3.388   0.969   0.276  1.3486  0.7139  0.1186
 2551SOL    HW219116   3.466   0.878   0.351 -1.6953 -0.5614  1.0324
 2552SOL     OW19117   4.075   0.947   8.457 -0.3791  0.1419  0.0172
 2552SOL    HW119118   4.120   0.863   8.444  1.7149  1.0665  1.3239
 2552SOL    HW219119   4.129   0.974   8.531 -1.8143  0.5056  0.9093
 2553SOL     OW19120   1.055   3.192  15.481  0.6588 -0.4358 -0.3649
 2553SOL    HW119121   0.979   3.216  15.428  0.5339 -0.2360 -0.0970
 2553SOL    HW219122   0.993   3.166  15.550 -0.5616 -1.0464 -1.6810
 2554SOL     OW19123   3.816   2.941  11.261  0.1512 -0.6811 -0.6813
 2554SOL    HW119124   3.798   2.857  11.219  0.1590 -0.3955 -1.2555
 2554SOL    HW219125   3.824   2.903  11.349 -0.5990 -0.7897 -0.6611
 2555SOL     OW19126   1.458   1.849   6.505  0.8573 -0.6680  0.1654
 2555SOL    HW119127   1.396   1.836   6.576  0.4306 -0.9774 -0.2662
 2555SOL    HW219128   1.457   1.762   6.466 -0.3039 -0.7718  0.4376
 2556SOL     OW19129   3.885   3.563   5.289 -0.0042  0.3093 -0.3671
 2556SOL    HW119130   3.879   3.468   5.275 -0.4032  0.1184  0.9992
 2556SOL    HW219131   3.810   3.577   5.348  0.0059  0.7456 -0.4593
 2557SOL     OW19132   2.153   3.616  10.072 -0.1383 -0.3426 -0.2737
 2557SOL    HW119133   2.112   3.656   9.995 -0.7637  0.2227  0.3471
 2557SOL    HW219134   2.236   3.663  10.071 -1.1648  1.4373 -1.5225
 2558SOL     OW19135   2.964   4.596   8.520 -0.2698  0.2571  0.6910
 2558SOL    HW119136   2.909   4.638   8.587 -0.0736  2.9374 -0.8165
 2558SOL    HW219137   2.964   4.664   8.453 -0.1183  0.8060  1.2520
 2559SOL     OW19138   1.251   1.813  17.520  0.1792 -0.1603  0.1061
 2559SOL    HW119139   1.195   1.794  17.444 -1.3352 -1.6238  1.5998
 2559SOL    HW219140   1.184   1.812  17.588  0.8409  0.5417  0.7657
 2560SOL     OW19141   3.217   1.272   1.555 -0.0224  0.3148  0.2013
 2560SOL    HW119142   3.192   1.321   1.477 -0.7235 -1.1086 -0.4766
 2560SOL    HW219143   3.264   1.199   1.515  0.1892 -0.6233  2.1671
 2561SOL     OW19144   3.406   1.599  14.032  0.4591 -0.1548  0.1315
 2561SOL    HW119145   3.442   1.684  14.007  3.6814 -1.1260  1.5034
 2561SOL    HW219146   3.479   1.540  14.010 -0.4628 -1.6073  0.9998
 2562SOL     OW19147   2.413   2.111   4.945 -0.2107  0.4402 -0.1928
 2562SOL    HW119148   2.438   2.060   5.022 -0.9201 -0.9067 -0.8650
 2562SOL    HW219149   2.410   2.200   4.980 -0.5070  0.0692  0.7350
 2563SOL     OW19150   4.020   2.169  17.619  0.5075  0.4339  0.3065
 2563SOL    HW119151   3.959   2.214  17.677  1.7628  0.5159  1.5835
 2563SOL    HW219152   4.089   2.236  17.624  0.2956  0.6541  0.2742
 2564SOL     OW19153   2.392   1.037  10.038  0.1923  0.7646  0.6253
 2564SOL    HW119154   2.473   0.985  10.042 -0.0300  0.4181  0.6624
 2564SOL    HW219155   2.324   0.970  10.046  2.4951 -1.5171  1.1113
 2565SOL     OW19156   2.368   4.043   8.307 -0.2845 -0.1594  0.4701
 2565SOL    HW119157   2.369   4.084   8.221  0.5026 -1.3793 -0.1031
 2565SOL    HW219158   2.436   3.976   8.301  1.0621  1.0746  1.9236
 2566SOL     OW19159   2.727   0.101   5.292 -0.4230  0.2873 -0.0342
 2566SOL    HW119160   2.784   0.178   5.295 -0.4514  0.2816  0.6826
 2566SOL    HW219161   2.719   0.081   5.199 -1.3532 -2.0468  0.5311
 2567SOL     OW19162   4.271   3.852  14.269 -0.3483 -0.3868  0.3936
 2567SOL    HW119163   4.235   3.764  14.281  2.1366 -1.2032  1.7740
 2567SOL    HW219164   4.238   3.905  14.341 -1.2033  1.5239 -1.4052
 2568SOL     OW19165   0.841   2.257  11.060 -0.1833 -0.0236  0.0204
 2568SOL    HW119166   0.875   2.282  11.146  0.4047 -3.2880  0.7173
 2568SOL    HW219167   0.748   2.274  11.074 -0.1841  0.7206 -0.8959
 2569SOL     OW19168   1.841   2.761   2.887  0.3092  0.3985  0.1609
 2569SOL    HW119169   1.749   2.750   2.913  0.4296  0.6512  0.7089
 2569SOL    HW219170   1.880   2.676   2.905  1.6800  0.8047 -0.9300
 2570SOL     OW19171   4.006   3.349   7.865 -0.1912  0.1411  0.5966
 2570SOL    HW119172   3.953   3.427   7.852  0.4158  0.4872  0.1678
 2570SOL    HW219173   4.057   3.337   7.784 -2.4148  0.3153 -0.8464
 2571SOL     OW19174   3.457   2.047   3.417  0.4087 -0.4596 -0.4323
 2571SOL    HW119175   3.529   2.044   3.354  0.3456  1.2736 -0.5851
 2571SOL    HW219176   3.430   2.139   3.417 -2.1084 -1.2276  2.2998
 2572SOL     OW19177   0.211   2.016   1.277  0.0328  0.1766 -0.3071
 2572SOL    HW119178   0.267   1.964   1.335  0.4025 -0.2721 -1.0647
 2572SOL    HW219179   0.168   1.951   1.220  1.1634  1.0136 -2.1199
 2573SOL     OW19180   2.284   2.297   8.101  0.2994  0.5078  0.2859
 2573SOL    HW119181   2.342   2.370   8.078  0.9605  0.2396  1.0562
 2573SOL    HW219182   2.324   2.221   8.058  0.4270  0.3815  0.6230
 2574SOL     OW19183   3.516   0.395   3.270 -0.2277 -0.2442  0.5796
 2574SOL    HW119184   3.502   0.466   3.208  0.2730 -1.7329 -1.2766
 2574SOL    HW219185   3.428   0.363   3.291 -0.4339 -0.1544 -0.1599
 2575SOL     OW19186   1.027   0.765   4.464 -0.1812  0.5579 -0.4230
 2575SOL    HW119187   0.984   0.850   4.468  1.6662  1.6109 -3.0448
 2575SOL    HW219188   1.050   0.768   4.371 -1.1195  0.3036 -0.6682
 2576SOL     OW19189   1.868   2.982  14.975  0.3040 -0.6858 -0.5080
 2576SOL    HW119190   1.861   2.915  14.906 -4.0332 -1.0517  0.2823
 2576SOL    HW219191   1.789   2.962  15.025  0.0021 -3.1183 -1.9539
 2577SOL     OW19192   0.180   0.612   2.286  0.0388  0.3506 -0.0221
 2577SOL    HW119193   0.260   0.589   2.333  2.1023  2.9060 -2.2528
 2577SOL    HW219194   0.165   0.536   2.230 -0.3130  1.0856 -0.9412
 2578SOL     OW19195   3.582   1.447   9.311 -0.9003 -0.1477 -0.4803
 2578SOL    HW119196   3.650   1.504   9.277  1.8341 -1.6512  2.4071
 2578SOL    HW219197   3.564   1.392   9.235 -0.8418 -1.0705  0.1654
 2579SOL     OW19198   3.577   3.121   3.442  0.5899 -0.0547  0.1708
 2579SOL    HW119199   3.582   3.200   3.495  1.4064 -0.7871  1.1827
 2579SOL    HW219200   3.654   3.128   3.385 -0.9125 -0.3667 -1.9058
 2580SOL     OW19201   2.114   1.796   9.626 -0.1914 -0.5279  0.2058
 2580SOL    HW119202   2.151   1.865   9.571 -0.7478 -1.6159 -1.5445
 2580SOL    HW219203   2.106   1.851   9.704 -1.1206  0.7771 -0.8145
 2581SOL     OW19204   1.452   0.290   6.620  0.5745  0.1863 -0.3687
 2581SOL    HW119205   1.542   0.295   6.586  1.2064 -0.3181  1.2323
 2581SOL    HW219206   1.394   0.287   6.544  1.1039  1.8726 -0.8417
 2582SOL     OW19207   4.078   1.835   8.018 -0.0635  0.3833  0.7097
 2582SOL    HW119208   4.130   1.779   8.076 -0.4184 -0.9415 -0.2586
 2582SOL    HW219209   4.127   1.917   8.011  0.3544  0.1091  0.3395
 2583SOL     OW19210   0.629   1.087   7.039  0.0825 -0.9196 -0.2126
 2583SOL    HW119211   0.588   1.000   7.042  0.1409 -0.8347  2.9994
 2583SOL    HW219212   0.605   1.117   7.126 -1.0875 -2.0233 -0.1374
 2584SOL     OW19213   1.481   3.525   4.185  0.1029  0.1944  0.2339
 2584SOL    HW119214   1.571   3.554   4.170 -0.4222  0.8194 -1.7321
 2584SOL    HW219215   1.481   3.430   4.181  2.6675  0.2289 -0.4903
 2585SOL     OW19216   2.193   4.424   8.434  0.3171  0.1234  0.2293
 2585SOL    HW119217   2.263   4.359   8.442 -0.8435 -1.3785 -2.2003
 2585SOL    HW219218   2.124   4.367   8.402  0.5579  0.3431 -0.6660
 2586SOL     OW19219   4.520   0.192   3.507 -0.2132 -0.2396  0.0794
 2586SOL    HW119220   4.428   0.169   3.523 -0.1034 -0.7079  0.0198
 2586SOL    HW219221   4.503   0.274   3.459  0.3583 -1.4895 -2.2702
 2587SOL     OW19222   1.433   0.686   7.087 -0.5299 -0.0111  0.1378
 2587SOL    HW119223   1.446   0.768   7.039  0.7597 -0.0374  0.4569
 2587SOL    HW219224   1.519   0.648   7.103 -0.7362 -0.3297  0.5012
 2588SOL     OW19225   0.971   2.786   7.262  0.4880 -0.0894  0.2656
 2588SOL    HW119226   1.003   2.828   7.182  1.0286  2.2108  1.6917
 2588SOL    HW219227   1.051   2.747   7.296  0.9300 -1.4051 -2.3154
 2589SOL     OW19228   3.370   2.066  13.926 -0.1216 -0.0962  0.0874
 2589SOL    HW119229   3.345   2.037  13.838 -0.0330 -0.9209  0.3429
 2589SOL    HW219230   3.434   2.135  13.905 -1.8076  1.2648 -0.5360
 2590SOL     OW19231   0.899   3.583  13.560  0.0233  0.3956 -0.2633
 2590SOL    HW119232   0.924   3.613  13.473 -1.7878  0.5567 -0.7351
 2590SOL    HW219233   0.958   3.629  13.620 -0.1309 -1.0583  1.0126
 2591SOL     OW19234   3.044   3.262   5.974  0.4681  0.8521 -0.0144
 2591SOL    HW119235   3.051   3.168   5.993 -1.1513  0.8317  0.4718
 2591SOL    HW219236   2.962   3.275   6.021  0.0047  2.4257 -1.2862
 2592SOL     OW19237   0.817   3.930   4.771  0.2628 -0.0969 -0.4265
 2592SOL    HW119238   0.799   3.963   4.859  0.2415  1.9180 -1.1947
 2592SOL    HW219239   0.789   3.841   4.793  1.8472 -0.7703 -1.1365
 2593SOL     OW19240   1.182   2.996  10.209 -0.3449  0.8006 -0.3529
 2593SOL    HW119241   1.125   2.929  10.247  1.0652 -0.9387 -1.3149
 2593SOL    HW219242   1.254   2.973  10.267 -2.3549 -3.2841  0.5588
 2594SOL     OW19243   0.827   1.426  17.375 -0.6659  0.2289 -0.1641
 2594SOL    HW119244   0.828   1.354  17.312 -0.8149 -0.6061  0.7920
 2594SOL    HW219245   0.868   1.384  17.451 -0.8165  0.3721 -0.0033
 2595SOL     OW19246   2.363   2.018  15.658  1.1592  0.7592  0.5896
 2595SOL    HW119247   2.315   1.938  15.640  0.4340  1.5711 -1.0703
 2595SOL    HW219248   2.337   2.067  15.580  0.1008 -2.0238 -0.7986
 2596SOL     OW19249   1.644   1.461   0.611 -0.6318  0.4056 -0.1911
 2596SOL    HW119250   1.690   1.378   0.604 -1.0080  0.2907 -1.2814
 2596SOL    HW219251   1.660   1.509   0.529 -1.2464  1.4425  0.2830
 2597SOL     OW19252   2.342   3.708   6.409 -0.1431  0.1727 -0.2325
 2597SOL    HW119253   2.436   3.700   6.392  0.1291  2.0919  0.2853
 2597SOL    HW219254   2.334   3.792   6.455  2.1699  0.1883  0.1748
 2598SOL     OW19255   4.272   0.432  12.261  0.3017  0.2198  0.8454
 2598SOL    HW119256   4.367   0.427  12.264  0.3741  0.5619 -1.2072
 2598SOL    HW219257   4.251   0.369  12.330 -0.7896 -3.4748 -2.8556
 2599SOL     OW19258   1.650   3.931   8.242  0.2671 -0.0353  0.5378
 2599SOL    HW119259   1.702   4.008   8.218 -2.2243  1.6389  0.4171
 2599SOL    HW219260   1.711   3.859   8.226  0.2420  0.1624 -0.4459
 2600SOL     OW19261   1.154   4.507   5.158  0.2141  0.6265 -0.1607
 2600SOL    HW119262   1.150   4.415   5.134  2.6395  0.4458  0.1311
 2600SOL    HW219263   1.249   4.512   5.161  0.4740 -4.2548 -0.4770
 2601SOL     OW19264   3.111   0.222  10.134  0.0491 -0.0940  0.9065
 2601SOL    HW119265   3.046   0.249  10.069  0.4036 -2.9339 -0.6445
 2601SOL    HW219266   3.189   0.215  10.078 -1.5091 -2.3093 -1.0278
 2602SOL     OW19267   1.958   1.789   2.099  0.4885 -0.2725 -0.1691
 2602SOL    HW119268   2.028   1.854   2.105 -1.0646  1.1966  2.3405
 2602SOL    HW219269   1.959   1.770   2.005 -0.3967  0.0531 -0.2448
 2603SOL     OW19270   4.274   1.655  10.993 -0.2284 -0.1868 -0.2381
 2603SOL    HW119271   4.320   1.652  11.077  0.3086  1.7332 -0.4742
 2603SOL    HW219272   4.214   1.580  10.999  2.7777 -2.6157 -0.5542
 2604SOL     OW19273   3.839   4.627   8.442 -0.6572 -0.1945 -0.4468
 2604SOL    HW119274   3.885   4.656   8.364 -0.4939  1.5071  0.2934
 2604SOL    HW219275   3.830   4.712   8.485 -1.6783 -0.2984 -0.4533
 2605SOL     OW19276   1.750   2.764   3.967  0.2844 -0.1120 -0.6224
 2605SOL    HW119277   1.837   2.780   3.930  0.5154  1.1859  0.4580
 2605SOL    HW219278   1.732   2.855   3.990  2.0544 -0.0972  0.6597
 2606SOL     OW19279   4.430   2.277   3.955 -0.6285  0.5883  0.1811
 2606SOL    HW119280   4.342   2.238   3.954  0.6767 -2.4598  2.5715
 2606SOL    HW219281   4.479   2.222   3.894  1.2988 -1.1380  3.3306
 2607SOL     OW19282   4.152   2.116   4.158 -0.2730 -0.4941 -0.3679
 2607SOL    HW119283   4.230   2.069   4.187 -0.5999 -1.1646 -0.5690
 2607SOL    HW219284   4.110   2.040   4.117  1.1637 -1.9996  0.9810
 2608SOL     OW19285   3.562   0.290   8.516 -0.4588 -0.0124 -0.2400
 2608SOL    HW119286   3.490   0.242   8.476 -0.4892  1.2953 -1.7825
 2608SOL    HW219287   3.625   0.223   8.489 -0.6620 -1.0542  1.8727
 2609SOL     OW19288   1.268   1.690  11.169  0.0393 -0.0206 -0.0578
 2609SOL    HW119289   1.293   1.695  11.076 -0.8916 -0.9875 -0.3576
 2609SOL    HW219290   1.219   1.769  11.193  2.5851  1.6474 -0.3326
 2610SOL     OW19291   2.246   4.471  14.903  0.0284 -0.2566 -0.0204
 2610SOL    HW119292   2.329   4.503  14.867  0.4385  0.9592  1.9808
 2610SOL    HW219293   2.218   4.437  14.818 -0.2454  2.2054 -0.9173
 2611SOL     OW19294   1.939   2.410  12.596 -0.1055  0.0202 -0.1233
 2611SOL    HW119295   1.924   2.321  12.628  0.5415  0.8731  2.5525
 2611SOL    HW219296   1.911   2.450  12.678 -1.2622  0.3836 -0.7051
 2612SOL     OW19297   2.298   3.183   6.744 -0.2477 -0.1002 -0.2251
 2612SOL    HW119298   2.249   3.171   6.663 -0.7524  0.2078  0.0329
 2612SOL    HW219299   2.235   3.151   6.809  0.6600 -0.8397  0.2935
 2613SOL     OW19300   1.461   1.560   3.523 -0.1987  0.1462 -0.1059
 2613SOL    HW119301   1.406   1.485   3.543 -1.2751  0.4477 -1.9256
 2613SOL    HW219302   1.540   1.517   3.554 -0.3999 -0.8956 -1.0388
 2614SOL     OW19303   0.811   2.043   8.234  0.3254 -0.0603 -0.5514
 2614SOL    HW119304   0.826   2.129   8.196  1.4103 -1.7358 -3.8714
 2614SOL    HW219305   0.899   2.008   8.220  0.0472 -0.7882 -0.4816
 2615SOL     OW19306   1.059   1.837   6.344  0.4262 -0.3571 -0.0508
 2615SOL    HW119307   0.964   1.846   6.334  0.3066  0.5729  2.0678
 2615SOL    HW219308   1.064   1.762   6.404  2.9799  1.9449  2.5732
 2616SOL     OW19309   3.037   2.224  12.139 -0.6789 -0.0383  0.2630
 2616SOL    HW119310   3.012   2.175  12.061 -0.2461  1.7694 -1.0215
 2616SOL    HW219311   2.987   2.176  12.205 -0.8227  2.3110  1.8473
 2617SOL     OW19312   1.197   1.398   7.839 -0.8456  0.0130  0.3676
 2617SOL    HW119313   1.262   1.342   7.880 -2.7960 -2.1143  0.5679
 2617SOL    HW219314   1.192   1.360   7.752  0.9351  2.1292 -0.6515
 2618SOL     OW19315   0.426   4.637   8.770  0.1687 -0.2814 -0.3562
 2618SOL    HW119316   0.459   4.635   8.680 -2.3303  0.9360 -1.2853
 2618SOL    HW219317   0.495   4.683   8.818 -0.5301  0.1633  0.2110
 2619SOL     OW19318   2.823   1.955   7.642 -0.2495 -0.5075  0.9404
 2619SOL    HW119319   2.735   1.917   7.650 -0.4565 -0.0002  1.1083
 2619SOL    HW219320   2.805   2.039   7.598  2.1246 -0.4052  0.1811
 2620SOL     OW19321   0.658   1.813   4.294 -0.2511  0.3141 -0.1718
 2620SOL    HW119322   0.746   1.784   4.268 -0.4915  1.1270 -1.8257
 2620SOL    HW219323   0.616   1.727   4.292 -1.1243  0.6883  1.6819
 2621SOL     OW19324   3.326   0.509   5.444  0.1029  0.4635  0.7210
 2621SOL    HW119325   3.402   0.545   5.490  2.0187  0.2417 -2.2268
 2621SOL    HW219326   3.357   0.520   5.354  0.3334 -2.1312  0.4907
 2622SOL     OW19327   0.548   0.798  10.545  0.2635 -0.2783  0.1703
 2622SOL    HW119328   0.616   0.769  10.485 -0.7723  0.6418 -1.4391
 2622SOL    HW219329   0.559   0.766  10.634 -0.0651 -0.1334  0.2624
 2623SOL     OW19330   3.695   3.184   2.971 -0.4039 -0.7157  0.1115
 2623SOL    HW119331   3.605   3.187   2.939 -0.4434 -0.7615  0.2171
 2623SOL    HW219332   3.691   3.093   2.941  0.8095 -0.0763 -1.9284
 2624SOL     OW19333   2.170   4.343   0.839  0.0324  0.2374 -0.1945
 2624SOL    HW119334   2.238   4.280   0.814 -0.9573 -1.4664  1.4503
 2624SOL    HW219335   2.135   4.305   0.919  0.6721  2.0449  0.9415
 2625SOL     OW19336   1.588   4.032  12.227 -0.0519 -0.3100  0.0741
 2625SOL    HW119337   1.558   4.030  12.136  0.5454  1.4113 -0.1535
 2625SOL    HW219338   1.674   4.070  12.214 -1.1488  1.4767 -1.9665
 2626SOL     OW19339   1.467   3.950  10.871  0.2978 -0.1165 -0.4624
 2626SOL    HW119340   1.374   3.961  10.891  1.1470  3.4362  1.4946
 2626SOL    HW219341   1.507   3.996  10.945 -0.5184 -0.1353 -0.0095
 2627SOL     OW19342   2.388   0.656  11.214 -0.4293 -0.6002 -0.0481
 2627SOL    HW119343   2.409   0.695  11.129  1.3240 -1.2407  0.1027
 2627SOL    HW219344   2.332   0.581  11.192  1.7177 -2.1603 -0.1332
 2628SOL     OW19345   3.505   2.031   1.748  0.3345  0.2442 -0.3703
 2628SOL    HW119346   3.505   1.983   1.665  2.1436 -0.7776  0.2270
 2628SOL    HW219347   3.588   2.007   1.789 -0.8493 -1.2310  1.1717
 2629SOL     OW19348   4.033   0.073   7.347  0.2793 -0.8386 -0.0354
 2629SOL    HW119349   3.976   0.147   7.329  0.0132 -0.9799  0.2246
 2629SOL    HW219350   4.002   0.035   7.429 -1.7239  1.4081  0.2456
 2630SOL     OW19351   0.495   0.506  16.452  0.2029 -0.1859  0.6793
 2630SOL    HW119352   0.408   0.544  16.463 -0.1657 -1.1046  0.9833
 2630SOL    HW219353   0.538   0.590  16.439  3.5676 -2.1070 -0.5538
 2631SOL     OW19354   2.552   0.805   6.492  0.3269  0.1747 -0.2103
 2631SOL    HW119355   2.463   0.802   6.458  0.6865  0.5240 -1.1798
 2631SOL    HW219356   2.532   0.862   6.566 -1.0547 -0.9549  0.2836
 2632SOL     OW19357   2.112   1.794   6.374 -0.1461 -0.4454  0.7431
 2632SOL    HW119358   2.048   1.864   6.385 -0.9227 -0.8526 -1.1826
 2632SOL    HW219359   2.176   1.850   6.330 -2.2435  1.0221 -0.4484
 2633SOL     OW19360   0.360   3.733   7.133 -0.0507 -0.0883 -0.4405
 2633SOL    HW119361   0.399   3.657   7.089 -2.1790 -0.1931 -2.1305
 2633SOL    HW219362   0.411   3.733   7.214  2.3721  1.2508 -1.9740
 2634SOL     OW19363   1.964   0.753   6.630 -0.0219  0.3295 -0.2516
 2634SOL    HW119364   2.037   0.805   6.662 -0.9977  1.3669  0.2677
 2634SOL    HW219365   1.967   0.779   6.538 -1.3008 -3.1111 -1.2642
 2635SOL     OW19366   3.771   0.320   7.616  0.1828  0.3183 -0.2557
 2635SOL    HW119367   3.723   0.237   7.608 -1.6717  1.3839 -0.3206
 2635SOL    HW219368   3.785   0.328   7.521 -0.2244  1.1462 -0.2469
 2636SOL     OW19369   0.978   3.519  14.186  0.5587 -0.5962 -0.0432
 2636SOL    HW119370   1.042   3.457  14.150  0.0646 -1.6672  0.9621
 2636SOL    HW219371   0.975   3.572  14.106  3.4633  0.9777  0.8937
 2637SOL     OW19372   1.561   1.361  11.533  0.2059 -0.2172  0.6510
 2637SOL    HW119373   1.563   1.455  11.552 -1.4477  0.2456 -1.4439
 2637SOL    HW219374   1.488   1.321  11.580  0.0313 -1.8213 -1.0003
 2638SOL     OW19375   1.508   0.064   5.219 -0.3685  0.4450  0.0861
 2638SOL    HW119376   1.597   0.078   5.250 -0.3075  1.2432 -0.4847
 2638SOL    HW219377   1.518   0.005   5.145  0.4713  0.1951  0.4055
 2639SOL     OW19378   4.101   2.411   6.836 -0.5331 -0.1061  0.3669
 2639SOL    HW119379   4.103   2.423   6.741  1.2243  1.1719  0.5552
 2639SOL    HW219380   4.075   2.319   6.844  0.2083 -0.3007  0.5418
 2640SOL     OW19381   0.113   1.508   7.490  0.1029  0.7413  0.1287
 2640SOL    HW119382   0.158   1.506   7.575  1.3164  0.2154 -0.5205
 2640SOL    HW219383   0.021   1.505   7.516 -0.2639 -0.4312 -1.2629
 2641SOL     OW19384   0.755   2.182   3.835  0.8912  0.4846  0.3328
 2641SOL    HW119385   0.761   2.206   3.928  0.4768  1.6150  0.0628
 2641SOL    HW219386   0.671   2.220   3.807  0.6926 -0.5066 -0.3907
 2642SOL     OW19387   4.070   4.685   2.814  0.6284  0.0925  0.3482
 2642SOL    HW119388   3.992   4.633   2.833 -1.3175  2.6694 -0.5699
 2642SOL    HW219389   4.043   4.720   2.729  1.1633  0.8711  0.5024
 2643SOL     OW19390   3.362   2.816  11.915  0.2915  0.2612  1.0681
 2643SOL    HW119391   3.278   2.772  11.925  0.5477 -0.8876 -1.6761
 2643SOL    HW219392   3.359   2.854  11.827  1.3271 -0.4815  0.7051
 2644SOL     OW19393   3.180   1.969   7.228 -0.3882 -0.0890 -0.4525
 2644SOL    HW119394   3.251   2.030   7.208 -0.2039 -0.0698  0.2616
 2644SOL    HW219395   3.212   1.933   7.311  1.7571 -0.0832 -1.2556
 2645SOL     OW19396   1.736   4.475  13.268 -1.0711 -0.1701 -0.6685
 2645SOL    HW119397   1.754   4.554  13.217  0.6446 -0.1488 -0.0369
 2645SOL    HW219398   1.657   4.451  13.219  0.4096 -3.2751 -1.5012
 2646SOL     OW19399   2.915   1.742   8.243  0.4236 -0.3120  0.4195
 2646SOL    HW119400   2.903   1.822   8.192 -0.0037  0.4080  1.6391
 2646SOL    HW219401   3.008   1.723   8.233  0.2074 -1.4879  0.6283
 2647SOL     OW19402   0.873   3.184  10.073  0.2294  0.2168 -0.3585
 2647SOL    HW119403   0.886   3.249  10.004  1.1350 -0.5229 -0.8741
 2647SOL    HW219404   0.962   3.178  10.107 -0.4616 -0.8233  1.2413
 2648SOL     OW19405   0.907   0.397  11.358 -0.0217  0.5149 -0.1777
 2648SOL    HW119406   0.990   0.357  11.332 -0.4281 -1.5979  1.7763
 2648SOL    HW219407   0.851   0.324  11.385  0.5097  0.4774  0.8365
 2649SOL     OW19408   1.562   3.516   1.049 -0.4312  0.0053  0.4579
 2649SOL    HW119409   1.593   3.597   1.090 -0.5485 -0.8561  2.2759
 2649SOL    HW219410   1.620   3.445   1.077 -0.4580 -0.1015  0.2344
 2650SOL     OW19411   4.263   2.970   2.801  0.4486  0.2935  0.2072
 2650SOL    HW119412   4.354   2.997   2.811 -0.2065  1.9546  1.8310
 2650SOL    HW219413   4.273   2.875   2.806  2.4852  0.5045  0.0314
 2651SOL     OW19414   0.990   1.028  11.927  0.2598  0.7428  0.3031
 2651SOL    HW119415   0.901   1.056  11.944  0.0502  0.4180 -0.2628
 2651SOL    HW219416   1.012   0.992  12.013 -0.4306 -0.9787 -0.2442
 2652SOL     OW19417   1.575   2.608  15.169 -0.0302  0.2461  0.4611
 2652SOL    HW119418   1.649   2.554  15.196 -2.1223 -1.2899  3.1355
 2652SOL    HW219419   1.505   2.544  15.178  0.1148 -0.4338 -3.1940
 2653SOL     OW19420   3.096   1.457   1.731  0.9211 -0.1367 -0.1494
 2653SOL    HW119421   3.115   1.408   1.811 -1.3200 -0.9816 -0.1343
 2653SOL    HW219422   3.145   1.412   1.662  0.4410  0.6849 -1.0331
 2654SOL     OW19423   2.776   4.623  10.320  0.4172 -0.1980 -0.2709
 2654SOL    HW119424   2.841   4.687  10.347 -1.1960  1.0804  0.5506
 2654SOL    HW219425   2.774   4.643  10.227  0.4272  1.0571 -0.0050
 2655SOL     OW19426   3.262   4.576   7.486 -0.4297  0.6752 -0.4650
 2655SOL    HW119427   3.181   4.628   7.489 -1.2548 -0.6126 -0.2965
 2655SOL    HW219428   3.273   4.550   7.394  1.5001 -0.5090  0.1025
 2656SOL     OW19429   2.284   1.717   6.979 -0.4194 -0.0348 -0.0598
 2656SOL    HW119430   2.221   1.715   7.050 -0.2427  2.8567  0.1918
 2656SOL    HW219431   2.365   1.729   7.030 -1.0358  1.4520  0.5776
 2657SOL     OW19432   1.763   0.094   5.210 -0.2755 -0.1888 -0.9914
 2657SOL    HW119433   1.808   0.029   5.156  2.5677  1.9401 -1.1274
 2657SOL    HW219434   1.781   0.075   5.302 -2.1000 -1.3886 -0.8582
 2658SOL     OW19435   0.221   4.037  13.881  0.1889 -0.1520  0.4283
 2658SOL    HW119436   0.142   3.999  13.842 -0.0502  3.2414 -2.3732
 2658SOL    HW219437   0.267   4.036  13.797  1.3254 -1.4845  1.0615
 2659SOL     OW19438   2.437   3.485  15.605  0.1079  0.2260  0.1304
 2659SOL    HW119439   2.460   3.569  15.645  0.7125 -0.2065  0.7072
 2659SOL    HW219440   2.481   3.493  15.521  1.8399  3.4190  1.3236
 2660SOL     OW19441   1.189   4.251   6.764  0.4657 -0.1509 -0.1390
 2660SOL    HW119442   1.249   4.177   6.771  0.5655  0.0076  0.6983
 2660SOL    HW219443   1.106   4.216   6.796 -0.9118  2.0931 -1.2767
 2661SOL     OW19444   0.669   1.469   3.702 -0.3924  0.1783 -0.2845
 2661SOL    HW119445   0.623   1.496   3.782 -1.7518  0.2379 -1.0825
 2661SOL    HW219446   0.635   1.381   3.686  1.1751 -0.5042  0.1041
 2662SOL     OW19447   4.243   0.097   3.497  0.4623  0.4233  0.2281
 2662SOL    HW119448   4.191   0.133   3.425  0.5747  0.0304 -0.0515
 2662SOL    HW219449   4.232   0.004   3.476  1.1175  0.5559 -0.7100
 2663SOL     OW19450   0.305   3.688   0.307 -0.3683  0.2967 -0.3471
 2663SOL    HW119451   0.323   3.625   0.238 -2.5042  1.0664 -1.6139
 2663SOL    HW219452   0.388   3.690   0.355  0.0635  1.5608 -1.1488
 2664SOL     OW19453   4.294   0.883  15.807 -0.1213 -0.0848  0.2811
 2664SOL    HW119454   4.253   0.903  15.892  0.5861  1.2376  0.3136
 2664SOL    HW219455   4.329   0.794  15.811  0.2753 -0.0936 -3.7849
 2665SOL     OW19456   3.178   1.993  11.254  0.2173  0.1806  0.0738
 2665SOL    HW119457   3.087   1.964  11.252  0.1036  0.5330  0.1381
 2665SOL    HW219458   3.208   1.941  11.328  1.2703  0.0523 -0.4346
 2666SOL     OW19459   0.140   2.787   5.956 -0.4339 -0.2035  0.0376
 2666SOL    HW119460   0.143   2.707   5.904 -0.4786 -1.0813  1.3831
 2666SOL    HW219461   0.219   2.830   5.922 -0.0988 -0.8146  0.0537
 2667SOL     OW19462   0.635   0.306  12.639  0.0728  0.3169 -0.3885
 2667SOL    HW119463   0.593   0.356  12.570  0.7258 -0.6888 -1.5051
 2667SOL    HW219464   0.698   0.249  12.595 -1.9426 -1.1244 -1.3790
 2668SOL     OW19465   2.331   1.074   8.598 -0.5321 -0.9180 -0.2492
 2668SOL    HW119466   2.290   1.056   8.682  1.2084 -0.5603  0.6768
 2668SOL    HW219467   2.250   1.098   8.552  0.4579  2.6710 -0.1471
 2669SOL     OW19468   1.936   0.811   3.080 -0.3054  0.4712 -0.1317
 2669SOL    HW119469   1.935   0.897   3.123 -2.1055  0.5284 -0.2728
 2669SOL    HW219470   2.025   0.791   3.109 -0.4842  3.2740  2.3448
 2670SOL     OW19471   1.284   4.483   6.675 -0.2373 -0.2458  0.4910
 2670SOL    HW119472   1.278   4.477   6.580 -2.9232  1.1900  0.5646
 2670SOL    HW219473   1.262   4.393   6.700 -1.8806  0.0835  0.2271
 2671SOL     OW19474   0.498   0.852   1.153  0.7788  0.4196 -0.0763
 2671SOL    HW119475   0.499   0.941   1.188 -0.9266  0.3885  0.0546
 2671SOL    HW219476   0.568   0.813   1.206  0.3038 -0.2776  0.0395
 2672SOL     OW19477   1.935   1.421  10.171  0.5200 -0.2433 -0.2148
 2672SOL    HW119478   1.862   1.452  10.117  1.2543  3.0509  0.6961
 2672SOL    HW219479   1.901   1.404  10.259 -0.4608  0.2910 -0.4833
 2673SOL     OW19480   2.650   2.506   8.824  0.1422  0.2845  0.1377
 2673SOL    HW119481   2.687   2.495   8.737  1.3755  3.3162  0.2667
 2673SOL    HW219482   2.562   2.476   8.803 -0.0055 -0.0288  1.2132
 2674SOL     OW19483   3.122   4.301   5.396  0.1224 -0.1679 -0.3668
 2674SOL    HW119484   3.123   4.248   5.476  0.1810 -1.0300 -0.9362
 2674SOL    HW219485   3.108   4.386   5.437 -0.2232 -0.7841  0.7836
 2675SOL     OW19486   0.992   0.969   5.509  0.3892  0.0133  0.2491
 2675SOL    HW119487   0.975   1.062   5.515 -0.9580 -0.1860 -0.6016
 2675SOL    HW219488   0.975   0.931   5.595  1.1704 -1.3074 -0.1813
 2676SOL     OW19489   3.547   2.718   8.844  0.2211 -0.7271  0.3630
 2676SOL    HW119490   3.617   2.761   8.894 -1.7080  0.6145  1.9182
 2676SOL    HW219491   3.556   2.628   8.875 -0.6036 -0.5958  0.9675
 2677SOL     OW19492   3.658   3.377   3.563 -0.1793 -0.0471  0.3529
 2677SOL    HW119493   3.726   3.335   3.616  1.0900 -1.3567 -2.3118
 2677SOL    HW219494   3.712   3.444   3.521 -0.3869 -0.6434 -0.8703
 2678SOL     OW19495   3.964   4.133   6.073  0.3731  0.2552 -0.0534
 2678SOL    HW119496   3.978   4.054   6.125  0.2679 -1.6704 -2.9416
 2678SOL    HW219497   3.970   4.204   6.137  3.3540 -1.2116  1.3042
 2679SOL     OW19498   1.121   3.121  12.380  0.1200  0.4964  0.5304
 2679SOL    HW119499   1.093   3.181  12.310  2.1196  1.2629  0.3760
 2679SOL    HW219500   1.174   3.171  12.443 -0.7140  2.1394 -0.0588
 2680SOL     OW19501   0.701   2.941   2.956  0.2204 -0.6923 -0.0819
 2680SOL    HW119502   0.759   2.939   3.032  1.8203  0.5683 -1.2625
 2680SOL    HW219503   0.761   2.913   2.886  0.2375 -0.9302  0.0288
 2681SOL     OW19504   3.502   4.532   0.341 -0.7796  0.5857 -0.7268
 2681SOL    HW119505   3.541   4.555   0.257 -0.7844  0.9754 -0.6269
 2681SOL    HW219506   3.475   4.443   0.322  0.4799 -0.0206  0.3474
 2682SOL     OW19507   4.500   2.456   4.796 -0.3253  0.1465  0.2809
 2682SOL    HW119508   4.480   2.432   4.705 -0.4611 -0.3746  0.4497
 2682SOL    HW219509   4.499   2.551   4.781  1.3690 -0.3357 -3.0452
 2683SOL     OW19510   1.798   3.429   4.538 -0.8862  0.3246  0.1306
 2683SOL    HW119511   1.846   3.398   4.461  0.1622  0.1613  0.8423
 2683SOL    HW219512   1.737   3.360   4.563 -1.7540  0.2008 -2.3360
 2684SOL     OW19513   4.526   1.571   4.614  0.2495 -0.1128  0.6987
 2684SOL    HW119514   4.557   1.619   4.537 -2.0239 -0.1139 -0.2436
 2684SOL    HW219515   4.431   1.574   4.601  0.2806  0.4116  0.5895
 2685SOL     OW19516   2.142   1.302  17.422 -0.0315 -0.0276  0.1737
 2685SOL    HW119517   2.144   1.229  17.361  0.0356  1.8167 -2.0429
 2685SOL    HW219518   2.201   1.267  17.488 -1.8496 -1.0814  1.2436
 2686SOL     OW19519   0.057   1.414   0.033 -0.0534  0.0024  0.8522
 2686SOL    HW119520   0.126   1.349   0.018  1.4028  1.5368  0.8826
 2686SOL    HW219521   0.095   1.474  17.680 -0.9460 -1.1542 -0.7578
 2687SOL     OW19522   3.141   3.225   5.491  0.4903 -0.3230  0.4080
 2687SOL    HW119523   3.143   3.129   5.494  0.2505 -0.3564 -0.5210
 2687SOL    HW219524   3.066   3.256   5.542  0.9854  2.8007 -0.7793
 2688SOL     OW19525   3.481   1.886  14.392 -0.1195 -0.1354 -0.4422
 2688SOL    HW119526   3.423   1.947  14.347  3.0236  2.2420 -1.1814
 2688SOL    HW219527   3.434   1.812  14.354  0.5810 -0.2356 -1.0923
 2689SOL     OW19528   4.726   1.781   9.332 -0.2788  0.2762  0.5811
 2689SOL    HW119529   4.696   1.698   9.294 -0.0569  0.8250 -0.7905
 2689SOL    HW219530   4.646   1.819   9.367 -0.0454  0.5626  0.8011
 2690SOL     OW19531   0.098   3.708   4.864  0.2187  0.1258  0.2173
 2690SOL    HW119532   0.071   3.775   4.801  1.7849 -0.2614 -0.8801
 2690SOL    HW219533   0.046   3.632   4.839 -1.7061  1.4883  0.0072
 2691SOL     OW19534   0.925   1.580  10.292  0.0232  0.3279  0.4627
 2691SOL    HW119535   0.961   1.499  10.255  0.1508 -0.0309  1.3861
 2691SOL    HW219536   0.950   1.638  10.219  2.3979  0.6955  1.5568
 2692SOL     OW19537   1.691   3.306   8.831  0.0607  0.3037 -0.0013
 2692SOL    HW119538   1.681   3.237   8.766 -0.1807 -2.0793  2.5743
 2692SOL    HW219539   1.641   3.379   8.796 -0.2941  0.6348  1.2029
 2693SOL     OW19540   0.185   1.990   3.716  0.6354  0.0623  0.1931
 2693SOL    HW119541   0.169   1.914   3.773  2.0940 -0.8684 -0.6353
 2693SOL    HW219542   0.134   1.957   3.642 -0.3068 -0.4586  1.0701
 2694SOL     OW19543   0.590   2.648   6.251  0.5875 -0.8466  0.0095
 2694SOL    HW119544   0.585   2.645   6.156 -0.5922  2.0221 -0.0177
 2694SOL    HW219545   0.500   2.639   6.283  0.6385 -0.5396  0.2355
 2695SOL     OW19546   1.841   3.594  15.614  0.0848 -0.6100 -0.2602
 2695SOL    HW119547   1.898   3.584  15.539 -0.1614 -2.6865 -0.1706
 2695SOL    HW219548   1.863   3.517  15.667  1.6859  0.0015 -0.0614
 2696SOL     OW19549   0.414   3.694  10.799  0.3638  0.5522  0.0203
 2696SOL    HW119550   0.348   3.755  10.767  1.0593  2.4493  2.1530
 2696SOL    HW219551   0.493   3.748  10.798  0.3522  0.6158  1.3976
 2697SOL     OW19552   4.533   0.592   8.130  0.3225 -0.2744 -0.2846
 2697SOL    HW119553   4.543   0.687   8.137 -2.4661  0.1565 -2.0022
 2697SOL    HW219554   4.626   0.570   8.122  0.8426  2.4621 -1.5428
 2698SOL     OW19555   0.356   0.610   2.538 -0.5017  0.1181  0.1304
 2698SOL    HW119556   0.452   0.620   2.535 -0.5542  0.4526 -0.5205
 2698SOL    HW219557   0.333   0.645   2.623  3.0801  1.4147  0.6000
 2699SOL     OW19558   2.449   0.607   3.457 -0.0293 -0.3201  0.2011
 2699SOL    HW119559   2.524   0.548   3.451 -0.4115 -0.7787 -0.1934
 2699SOL    HW219560   2.383   0.546   3.492 -0.7926  0.7540  0.6174
 2700SOL     OW19561   2.876   2.883  15.684 -0.0112  0.2201 -0.1850
 2700SOL    HW119562   2.918   2.825  15.749 -1.4560 -0.1237  0.4320
 2700SOL    HW219563   2.954   2.921  15.643 -1.4819  2.1846 -1.1327
 2701SOL     OW19564   1.451   3.453   8.806  0.0323 -0.3297  0.3403
 2701SOL    HW119565   1.478   3.482   8.718 -0.0432 -0.3521  0.3097
 2701SOL    HW219566   1.420   3.533   8.848 -0.0224 -0.2887  0.2209
 2702SOL     OW19567   3.593   4.627   2.984  0.1851  0.2230 -0.0870
 2702SOL    HW119568   3.568   4.707   2.938  0.4184  0.0894 -0.4512
 2702SOL    HW219569   3.645   4.582   2.917 -0.1641  1.5637 -1.2679
 2703SOL     OW19570   3.717   2.904   4.780  0.3971  0.5102 -0.0092
 2703SOL    HW119571   3.798   2.911   4.729  0.1930  1.0671 -0.2590
 2703SOL    HW219572   3.743   2.862   4.862 -0.1192  2.5780  1.2192
 2704SOL     OW19573   2.268   1.113   6.070 -0.2310  0.1494 -0.0143
 2704SOL    HW119574   2.185   1.076   6.098  1.0238 -2.8329 -0.1845
 2704SOL    HW219575   2.241   1.159   5.990  0.1488  1.8273  0.8313
 2705SOL     OW19576   1.390   0.447  15.363  0.4600  0.1948 -0.1683
 2705SOL    HW119577   1.370   0.447  15.456  0.9530  0.2809 -0.0625
 2705SOL    HW219578   1.379   0.540  15.342  1.1606  0.7539  2.0315
 2706SOL     OW19579   3.984   0.692  11.672  0.4888 -0.3838  0.2562
 2706SOL    HW119580   4.057   0.630  11.663  0.1076 -0.7569 -0.1998
 2706SOL    HW219581   4.028   0.747  11.737 -0.4542  0.5079  0.1374
 2707SOL     OW19582   1.327   3.471   2.959  0.1301  0.1333  0.3145
 2707SOL    HW119583   1.391   3.416   3.004  0.3477  0.0978 -0.0354
 2707SOL    HW219584   1.288   3.402   2.906  2.1263 -1.8404  1.4214
 2708SOL     OW19585   0.800   1.991  13.956 -0.1053 -0.0563  0.0962
 2708SOL    HW119586   0.756   2.037  13.885  1.8962 -0.0592 -1.1683
 2708SOL    HW219587   0.884   2.037  13.948  0.1975 -0.0587  3.5433
 2709SOL     OW19588   4.122   1.860  17.154  0.0736  0.2585  0.2358
 2709SOL    HW119589   4.151   1.840  17.243 -0.8844 -1.6775  0.1167
 2709SOL    HW219590   4.026   1.860  17.156  0.0313 -0.7774 -1.2762
 2710SOL     OW19591   2.758   1.900   3.712  0.0535  0.0673 -0.1259
 2710SOL    HW119592   2.802   1.985   3.710 -1.2538  0.7029 -1.4669
 2710SOL    HW219593   2.666   1.914   3.734 -0.0966  1.3959 -1.6400
 2711SOL     OW19594   2.241   1.202   1.858 -0.0122  0.2471  0.0697
 2711SOL    HW119595   2.185   1.125   1.869 -0.7080  0.8267  0.5336
 2711SOL    HW219596   2.200   1.242   1.781 -0.2452  0.1134  0.1240
 2712SOL     OW19597   2.876   3.247   2.718 -0.4875 -0.0794  0.2217
 2712SOL    HW119598   2.842   3.170   2.764 -1.2463  0.8259  1.1904
 2712SOL    HW219599   2.800   3.304   2.733  0.0440  0.8319 -0.5619
 2713SOL     OW19600   1.945   0.741   5.921 -0.8915  1.0095  1.1020
 2713SOL    HW119601   1.861   0.753   5.966 -1.7191  0.7773 -0.4030
 2713SOL    HW219602   1.931   0.798   5.846  0.9772  0.2326  0.1721
 2714SOL     OW19603   4.036   1.961  13.046 -0.1626 -0.3024 -0.6460
 2714SOL    HW119604   3.954   1.923  13.016 -0.2987 -0.9632  0.5665
 2714SOL    HW219605   4.049   1.920  13.131 -0.8740 -2.0036 -1.3560
 2715SOL     OW19606   0.245   4.317   6.573 -0.3402  0.6960  0.1366
 2715SOL    HW119607   0.241   4.352   6.484  2.4001 -0.5820 -0.4892
 2715SOL    HW219608   0.335   4.340   6.594 -0.4416  0.5005  0.7734
 2716SOL     OW19609   0.120   3.384   4.422 -0.1157 -0.2405 -0.4354
 2716SOL    HW119610   0.036   3.425   4.442 -0.1654 -0.6026  0.1228
 2716SOL    HW219611   0.173   3.420   4.494 -2.0907 -1.2628  1.5537
 2717SOL     OW19612   4.304   4.200   8.440 -0.1232  0.1023  0.2195
 2717SOL    HW119613   4.254   4.275   8.472  0.2631  0.0606  0.9242
 2717SOL    HW219614   4.335   4.157   8.520  0.8522  0.5288  0.0710
 2718SOL     OW19615   3.058   0.966   3.800 -0.5725  0.4620 -0.0522
 2718SOL    HW119616   3.022   1.055   3.795 -1.4663  0.0466 -0.8457
 2718SOL    HW219617   2.997   0.924   3.861  1.0365  1.0343  1.9609
 2719SOL     OW19618   3.273   1.117   2.707  0.5584  0.2103  0.0441
 2719SOL    HW119619   3.274   1.116   2.611  0.3290 -1.5249  0.0601
 2719SOL    HW219620   3.218   1.041   2.728  3.4537 -1.3009  2.1245
 2720SOL     OW19621   0.498   0.283  16.275 -0.6218 -0.0929 -0.2887
 2720SOL    HW119622   0.529   0.360  16.323 -0.3516  0.0269 -0.6533
 2720SOL    HW219623   0.441   0.240  16.338 -0.6894  1.0505  0.4245
 2721SOL     OW19624   2.406   1.201  11.949  0.6832  0.4116 -0.0207
 2721SOL    HW119625   2.441   1.112  11.948  1.0489  0.5566  0.7243
 2721SOL    HW219626   2.473   1.247  11.898 -0.6653  0.9478 -1.3144
 2722SOL     OW19627   3.292   2.387   8.238  0.0964  0.1028 -0.4806
 2722SOL    HW119628   3.320   2.316   8.296 -2.6570  0.3920  1.1866
 2722SOL    HW219629   3.212   2.352   8.199 -0.0804 -2.2509  2.0128
 2723SOL     OW19630   0.766   2.522   6.423  0.0691 -0.3368  0.3878
 2723SOL    HW119631   0.738   2.558   6.339 -1.2795 -1.5092  0.3138
 2723SOL    HW219632   0.802   2.598   6.469  1.2820 -0.5323 -0.2394
 2724SOL     OW19633   2.809   1.810   7.876 -0.3982 -0.0923 -0.7975
 2724SOL    HW119634   2.724   1.799   7.833  0.4567  0.4792 -2.6349
 2724SOL    HW219635   2.859   1.837   7.799  1.0499  1.1736  0.5828
 2725SOL     OW19636   3.913   1.560  13.184  0.1739  0.2635 -0.0163
 2725SOL    HW119637   3.903   1.638  13.130  0.6018 -0.3559 -0.9890
 2725SOL    HW219638   3.996   1.525  13.151  0.5424  0.0297  1.1539
 2726SOL     OW19639   0.189   0.755   8.981  0.2491 -0.3447  0.4921
 2726SOL    HW119640   0.186   0.696   9.056 -1.7174 -0.8006  0.0538
 2726SOL    HW219641   0.250   0.711   8.922 -0.2553 -0.6922  0.2266
 2727SOL     OW19642   4.700   4.065   4.351 -0.4025  0.3102 -0.4608
 2727SOL    HW119643   4.718   4.120   4.427  0.7902  0.4984 -0.8634
 2727SOL    HW219644   4.626   4.010   4.374 -0.3759 -0.1454 -1.4814
 2728SOL     OW19645   2.080   3.734   8.126 -0.1480  0.0061  0.4802
 2728SOL    HW119646   2.082   3.664   8.192  0.6979  1.5508  2.0787
 2728SOL    HW219647   2.149   3.703   8.067  0.1805  0.9297  0.3741
 2729SOL     OW19648   2.298   3.158  13.452  0.8858  0.7874  0.0289
 2729SOL    HW119649   2.268   3.076  13.413 -0.9424  2.7437 -2.6565
 2729SOL    HW219650   2.302   3.214  13.375  1.5507  1.4742  0.5594
 2730SOL     OW19651   4.488   0.402   1.277 -0.5331  0.3000 -0.0497
 2730SOL    HW119652   4.455   0.347   1.348 -1.5809  1.0424  0.0375
 2730SOL    HW219653   4.526   0.341   1.214  0.1698 -0.2401  0.8978
 2731SOL     OW19654   4.603   1.421  11.968 -0.7553 -0.0501  0.2851
 2731SOL    HW119655   4.671   1.489  11.963  0.6436 -1.4202  0.5920
 2731SOL    HW219656   4.546   1.463  12.033 -0.4640  0.5338  0.1634
 2732SOL     OW19657   1.978   0.133   1.884 -0.0734  0.2916  0.4957
 2732SOL    HW119658   1.965   0.227   1.886 -0.0946  0.2959  0.0945
 2732SOL    HW219659   2.071   0.129   1.907  0.2398 -0.5002 -0.9567
 2733SOL     OW19660   0.718   0.985   3.376 -0.0006 -0.0409 -0.3119
 2733SOL    HW119661   0.729   1.037   3.455 -0.7976  0.2550 -0.3917
 2733SOL    HW219662   0.633   0.940   3.377 -1.0172  1.8766 -1.4360
 2734SOL     OW19663   3.269   1.273   3.911  0.1743  0.0579 -0.1403
 2734SOL    HW119664   3.298   1.269   3.820  0.1559  0.9843 -0.1825
 2734SOL    HW219665   3.290   1.187   3.950  0.1643  0.1809  0.1378
 2735SOL     OW19666   2.625   0.142   7.698  0.1194 -0.7176 -0.7440
 2735SOL    HW119667   2.542   0.182   7.673  0.5563  0.6955  0.0725
 2735SOL    HW219668   2.669   0.210   7.749  0.7071  0.3706 -2.7108
 2736SOL     OW19669   2.073   1.034  16.995  0.4608  0.1266  0.0384
 2736SOL    HW119670   2.053   0.957  16.941 -2.3264 -0.8378  2.4584
 2736SOL    HW219671   2.165   1.011  17.003  0.2755  0.0692  2.0425
 2737SOL     OW19672   3.396   3.376   2.224 -0.2104 -0.1995 -0.4642
 2737SOL    HW119673   3.429   3.325   2.150 -1.2001 -0.6571 -0.5977
 2737SOL    HW219674   3.405   3.466   2.194  0.1879  0.7548  2.5529
 2738SOL     OW19675   1.425   2.897  13.220  0.1439  0.2774  0.1108
 2738SOL    HW119676   1.466   2.968  13.171 -0.4259  0.2374 -0.4221
 2738SOL    HW219677   1.341   2.887  13.174 -0.6318  1.4544  1.2500
 2739SOL     OW19678   3.543   3.604  11.064  0.0185  0.6248  0.2257
 2739SOL    HW119679   3.549   3.686  11.015  0.2257  0.9800  0.8409
 2739SOL    HW219680   3.623   3.602  11.115 -0.3766 -0.4572  0.8126
 2740SOL     OW19681   2.750   3.055  16.941  0.4236  0.3257  0.7060
 2740SOL    HW119682   2.786   3.092  17.022  2.8917  1.2931 -0.8243
 2740SOL    HW219683   2.658   3.043  16.963  0.1223 -0.2987 -0.9540
 2741SOL     OW19684   2.829   3.276   6.125 -0.1234  0.1944 -0.2115
 2741SOL    HW119685   2.759   3.313   6.071 -0.9368  0.8145  1.2603
 2741SOL    HW219686   2.771   3.257   6.198 -0.6497 -1.9161 -1.1896
 2742SOL     OW19687   4.494   2.708  10.937 -0.1096 -0.3182 -0.4276
 2742SOL    HW119688   4.565   2.761  10.974  1.1518 -1.7285 -0.8148
 2742SOL    HW219689   4.421   2.754  10.979 -0.3301 -0.5659 -0.5453
 2743SOL     OW19690   1.531   0.453   2.653 -0.4982  0.7176 -0.1125
 2743SOL    HW119691   1.558   0.544   2.645 -0.9991  0.7396 -1.5902
 2743SOL    HW219692   1.549   0.422   2.565  0.5586  2.6550 -0.5784
 2744SOL     OW19693   3.676   1.508  14.634 -0.1545 -0.3359 -0.2547
 2744SOL    HW119694   3.736   1.575  14.601  2.1173 -1.9774  0.5482
 2744SOL    HW219695   3.607   1.519  14.569  0.2185  1.0602 -0.4349
 2745SOL     OW19696   3.268   1.635   0.804  0.0499  0.0315  0.0277
 2745SOL    HW119697   3.196   1.582   0.837 -1.4369  1.3727 -1.0155
 2745SOL    HW219698   3.294   1.680   0.884  1.0124  0.4314 -0.5046
 2746SOL     OW19699   2.499   0.199  16.844 -0.2422 -0.1172 -0.0504
 2746SOL    HW119700   2.425   0.257  16.866  0.2054  0.2907  0.3883
 2746SOL    HW219701   2.453   0.137  16.787  0.4350  0.6632 -1.4681
 2747SOL     OW19702   3.093   3.571   6.024  0.1154 -0.1597 -0.1256
 2747SOL    HW119703   3.188   3.572   6.017  0.0986  0.0298 -0.3379
 2747SOL    HW219704   3.088   3.492   6.078 -1.5537  0.9473  1.3099
 2748SOL     OW19705   3.241   2.768  13.012 -0.3702  0.3586  0.3672
 2748SOL    HW119706   3.185   2.693  12.994 -1.4181  1.2797 -0.1740
 2748SOL    HW219707   3.299   2.739  13.083 -0.9099  2.1056  1.5488
 2749SOL     OW19708   3.008   0.773   4.555 -0.3320 -0.2641  0.7266
 2749SOL    HW119709   3.089   0.722   4.563  0.5644  1.3026  1.6452
 2749SOL    HW219710   2.941   0.706   4.562  0.6054 -1.3500 -0.6477
 2750SOL     OW19711   1.544   2.844  14.018 -0.2371  0.3392 -0.2976
 2750SOL    HW119712   1.606   2.870  13.950 -1.3550 -0.3646 -1.5842
 2750SOL    HW219713   1.584   2.857  14.104 -1.8234 -0.3004  0.5487
 2751SOL     OW19714   4.306   2.413   5.466 -0.3723  0.4786 -0.2065
 2751SOL    HW119715   4.258   2.432   5.546 -0.4773  1.8811 -0.5957
 2751SOL    HW219716   4.271   2.470   5.397  1.3350  1.2215 -0.4606
 2752SOL     OW19717   0.830   1.756   5.660  0.1678 -0.0546 -0.2897
 2752SOL    HW119718   0.920   1.725   5.661 -0.6714 -2.4522  0.1897
 2752SOL    HW219719   0.798   1.737   5.572 -0.0250 -1.3525  0.0603
 2753SOL     OW19720   1.527   1.028  14.569 -0.4044  0.0075 -0.4303
 2753SOL    HW119721   1.574   0.969  14.511  0.1271  1.0316 -1.0485
 2753SOL    HW219722   1.471   0.964  14.612  1.5859 -1.1280  0.4722
 2754SOL     OW19723   2.669   0.092   6.257  0.0136 -0.2464  0.0961
 2754SOL    HW119724   2.651   0.176   6.298 -0.2975  0.1249 -0.8051
 2754SOL    HW219725   2.585   0.078   6.213  0.0605  0.1626 -0.1291
 2755SOL     OW19726   2.369   0.286   7.635 -0.4685  0.2232 -0.3685
 2755SOL    HW119727   2.356   0.235   7.555  0.9730 -0.8579  0.0894
 2755SOL    HW219728   2.386   0.370   7.594 -0.4834  0.8568  0.9354
 2756SOL     OW19729   3.210   0.398  10.332 -0.1445  0.3443  0.3391
 2756SOL    HW119730   3.177   0.384  10.421 -0.5056 -3.1283 -0.3739
 2756SOL    HW219731   3.150   0.342  10.283 -1.0873  3.4984 -2.1721
 2757SOL     OW19732   3.114   1.268   8.868 -0.3417 -0.3532 -0.0407
 2757SOL    HW119733   3.155   1.248   8.952  2.8566  0.8747 -1.2925
 2757SOL    HW219734   3.181   1.223   8.816  0.7967  1.0710  0.1828
 2758SOL     OW19735   3.608   3.734   3.413 -0.3143 -0.2508  0.6180
 2758SOL    HW119736   3.632   3.752   3.322  1.4028 -1.2234  0.8760
 2758SOL    HW219737   3.678   3.679   3.448  0.9130  1.8751  1.5085
 2759SOL     OW19738   1.404   0.776   4.027  0.2312  0.2888  0.1747
 2759SOL    HW119739   1.445   0.854   4.064 -1.4749  0.8753  0.8481
 2759SOL    HW219740   1.412   0.714   4.100  0.1225 -0.0665 -0.1116
 2760SOL     OW19741   1.812   1.552   3.533 -0.1860  0.3808 -0.3546
 2760SOL    HW119742   1.761   1.484   3.578  1.3027 -0.4967  0.0088
 2760SOL    HW219743   1.832   1.618   3.600  0.1812  0.1268 -0.2124
 2761SOL     OW19744   2.762   2.543   3.704 -0.1984  0.1741 -0.1795
 2761SOL    HW119745   2.738   2.543   3.612  1.8566 -1.9850 -0.7000
 2761SOL    HW219746   2.683   2.509   3.748 -0.1599 -0.5127 -0.6439
 2762SOL     OW19747   4.015   1.397   3.984  0.0262 -0.3045 -0.2434
 2762SOL    HW119748   4.045   1.410   3.894  1.2704 -2.0820 -0.0807
 2762SOL    HW219749   3.929   1.438   3.981  0.5708  0.8541  0.1968
 2763SOL     OW19750   4.121   4.541  14.995  0.0106 -0.1135  0.2007
 2763SOL    HW119751   4.036   4.557  14.954  0.3249  3.4375  0.9316
 2763SOL    HW219752   4.109   4.609  15.061 -0.2348  1.6740 -1.6761
 2764SOL     OW19753   0.367   3.668   4.253 -0.2925 -0.3361 -0.3763
 2764SOL    HW119754   0.436   3.618   4.298 -1.1947  2.5218  4.1202
 2764SOL    HW219755   0.385   3.761   4.264 -1.0455  0.0521 -2.5029
 2765SOL     OW19756   2.475   4.591   5.819 -0.3243  0.1350 -0.4180
 2765SOL    HW119757   2.462   4.684   5.800  1.1685  0.6511  1.1151
 2765SOL    HW219758   2.513   4.569   5.733  2.0589 -1.9512  1.1683
 2766SOL     OW19759   2.304   0.128  12.849  0.0793 -0.2137  0.3178
 2766SOL    HW119760   2.396   0.104  12.842  0.3506  0.9654 -0.1631
 2766SOL    HW219761   2.283   0.182  12.773 -0.3284 -2.1317 -0.9331
 2767SOL     OW19762   1.712   2.379   5.579 -0.0780  0.0420 -0.0362
 2767SOL    HW119763   1.674   2.373   5.491  0.5637  1.1321 -0.3944
 2767SOL    HW219764   1.645   2.366   5.646 -0.0194 -1.5356 -0.2804
 2768SOL     OW19765   2.378   2.923   9.292 -0.3663  0.0816  0.1203
 2768SOL    HW119766   2.399   2.919   9.199  1.7184  0.5257  0.5840
 2768SOL    HW219767   2.437   2.860   9.332  2.4170  1.6172 -1.6108
 2769SOL     OW19768   0.001   3.623   5.536 -0.4603  0.5842  0.6168
 2769SOL    HW119769   0.011   3.712   5.569  1.8298  0.2516  0.8250
 2769SOL    HW219770   0.068   3.608   5.470 -2.4430 -1.1449 -1.0145
 2770SOL     OW19771   0.923   3.103  17.467 -0.0278  0.4659 -0.8031
 2770SOL    HW119772   0.963   3.095  17.554  0.5854 -1.0301 -1.2173
 2770SOL    HW219773   0.964   3.183  17.436 -1.0552  0.8041 -1.2998
 2771SOL     OW19774   2.315   4.066  16.450  0.1015  0.3824  0.3232
 2771SOL    HW119775   2.402   4.102  16.465 -0.7488  2.9624 -0.9105
 2771SOL    HW219776   2.261   4.143  16.431 -2.0859 -1.0425  0.6638
 2772SOL     OW19777   2.781   0.769   9.574  0.7614  0.0940 -0.2940
 2772SOL    HW119778   2.708   0.723   9.617  0.0825  1.0706 -0.3953
 2772SOL    HW219779   2.749   0.771   9.484 -2.4491 -0.3212  0.8086
 2773SOL     OW19780   3.081   2.012  16.632  0.7251  0.2354 -0.2826
 2773SOL    HW119781   3.117   2.057  16.708  0.4357  1.1333 -0.6760
 2773SOL    HW219782   2.988   2.024  16.652  0.9408  0.6949  0.4559
 2774SOL     OW19783   3.624   0.069   3.911 -0.0556 -0.4150  0.3060
 2774SOL    HW119784   3.700   0.114   3.873  0.0587  0.6182  1.7576
 2774SOL    HW219785   3.576   0.047   3.832 -0.4966 -0.7292  0.6607
 2775SOL     OW19786   3.572   1.273   5.452 -0.1717 -0.2476 -0.3192
 2775SOL    HW119787   3.573   1.361   5.490 -1.3431 -0.3746  0.0085
 2775SOL    HW219788   3.543   1.289   5.362  1.8676 -0.6827 -1.0494
 2776SOL     OW19789   1.730   3.689   4.122  0.0065 -0.1263 -0.1808
 2776SOL    HW119790   1.823   3.704   4.137  0.2752 -0.5486 -1.4426
 2776SOL    HW219791   1.692   3.773   4.147 -0.1924 -0.6785  1.3504
 2777SOL     OW19792   0.987   4.525  14.646 -0.0251 -0.2910 -0.1981
 2777SOL    HW119793   0.901   4.523  14.689 -0.5162  0.1628 -1.1621
 2777SOL    HW219794   1.024   4.437  14.657 -1.6659 -0.8596  0.8717
 2778SOL     OW19795   2.109   1.322   1.562  0.0430 -0.0156  0.2446
 2778SOL    HW119796   2.122   1.372   1.481  0.3519  1.3067  1.1181
 2778SOL    HW219797   2.141   1.233   1.548  1.1593  0.3264  0.6525
 2779SOL     OW19798   0.446   0.258  12.832  0.0178  0.0314  0.3227
 2779SOL    HW119799   0.512   0.196  12.865  0.1808 -0.5687 -1.1522
 2779SOL    HW219800   0.488   0.284  12.750 -2.8060  2.0624 -0.4840
 2780SOL     OW19801   3.696   1.645   7.948 -0.3934 -0.2832  0.4073
 2780SOL    HW119802   3.679   1.619   8.038  0.1034  0.0118  0.5871
 2780SOL    HW219803   3.726   1.567   7.902 -2.6255 -1.2033  0.5068
 2781SOL     OW19804   4.558   1.244   6.839  0.5065  0.0265 -0.5575
 2781SOL    HW119805   4.640   1.288   6.864  1.2869 -1.4398 -0.5375
 2781SOL    HW219806   4.510   1.311   6.791 -0.6807  0.3234  1.0539
 2782SOL     OW19807   3.213   2.672  17.105  0.1720 -0.0829 -0.1068
 2782SOL    HW119808   3.301   2.691  17.137  0.0689  0.0443  0.1011
 2782SOL    HW219809   3.225   2.687  17.011  0.4907  0.4642  0.0223
 2783SOL     OW19810   2.690   1.828   6.803  0.1125 -0.2363 -0.0848
 2783SOL    HW119811   2.675   1.896   6.737  3.9497 -1.4385 -2.2133
 2783SOL    HW219812   2.774   1.799   6.769  0.7057  2.8468 -1.2523
 2784SOL     OW19813   2.151   2.081   4.831 -0.0788  0.0852  0.5525
 2784SOL    HW119814   2.242   2.094   4.856 -0.0095 -0.8067  0.7446
 2784SOL    HW219815   2.124   2.040   4.913 -0.0492 -0.5835  0.2232
 2785SOL     OW19816   2.057   4.025   1.875  0.2450 -0.2144 -0.0048
 2785SOL    HW119817   2.117   3.951   1.888  1.6599  0.9285 -0.1299
 2785SOL    HW219818   2.102   4.107   1.890  0.0243  0.0482 -0.8169
 2786SOL     OW19819   0.979   1.028   8.535  0.7583  0.0715 -0.0189
 2786SOL    HW119820   1.063   1.009   8.494 -0.1868 -0.3555 -1.7649
 2786SOL    HW219821   1.009   1.086   8.605  0.7670 -0.1613  0.1698
 2787SOL     OW19822   1.092   3.705   9.597  0.6442  0.1044 -0.0594
 2787SOL    HW119823   1.185   3.695   9.615  0.5609 -0.5991 -0.0315
 2787SOL    HW219824   1.094   3.796   9.569  1.2393  1.0911  3.2107
 2788SOL     OW19825   2.359   1.950   2.342 -0.4526  0.4157 -0.2793
 2788SOL    HW119826   2.327   1.984   2.425  4.4056  4.0382  0.1448
 2788SOL    HW219827   2.449   1.983   2.339 -0.2613 -0.2577 -2.0330
 2789SOL     OW19828   2.427   0.804   7.117 -0.9403  0.2918 -0.0882
 2789SOL    HW119829   2.404   0.821   7.208 -0.7593  0.5191 -0.0842
 2789SOL    HW219830   2.476   0.723   7.133 -0.8141  0.2801 -0.5230
 2790SOL     OW19831   0.826   4.514  11.000 -0.2964 -0.1806  0.5262
 2790SOL    HW119832   0.785   4.446  11.052  3.7219 -1.1885  2.3703
 2790SOL    HW219833   0.749   4.571  10.987  0.1567  0.5534  1.0662
 2791SOL     OW19834   2.927   0.892   7.684  0.1677 -0.3977  0.2456
 2791SOL    HW119835   2.953   0.882   7.592 -1.6257  1.9440 -0.5113
 2791SOL    HW219836   3.010   0.882   7.731 -0.5672 -0.2944  1.5601
 2792SOL     OW19837   1.175   3.438   7.369  0.7204  0.0659  0.0998
 2792SOL    HW119838   1.156   3.345   7.381  0.3764 -0.2177 -2.6245
 2792SOL    HW219839   1.083   3.463   7.360  0.8989  0.7027  0.0217
 2793SOL     OW19840   4.004   1.723  14.878 -0.1271  0.0303  0.5941
 2793SOL    HW119841   4.001   1.696  14.787  0.5624  0.0667  0.5558
 2793SOL    HW219842   3.937   1.791  14.877  0.4489  0.5754 -1.2653
 2794SOL     OW19843   0.702   4.150   1.210  0.4609 -0.3598  0.2794
 2794SOL    HW119844   0.661   4.230   1.179 -0.7887 -0.3700  1.9351
 2794SOL    HW219845   0.686   4.091   1.136  2.6516  0.2171 -0.6801
 2795SOL     OW19846   1.444   2.851   7.339  0.1157 -0.5045 -0.5587
 2795SOL    HW119847   1.401   2.876   7.421 -0.3222  0.8656 -1.2141
 2795SOL    HW219848   1.392   2.906   7.280  0.6221  1.8891  1.2368
 2796SOL     OW19849   2.140   1.704   3.474 -0.0179 -0.0668 -0.2905
 2796SOL    HW119850   2.070   1.676   3.534  0.5982 -0.6188  0.1634
 2796SOL    HW219851   2.215   1.659   3.512  1.5511  1.7142 -1.3407
 2797SOL     OW19852   3.321   1.844   8.343  0.5145 -0.3627  0.2748
 2797SOL    HW119853   3.347   1.825   8.433  1.8122 -1.0793 -0.2572
 2797SOL    HW219854   3.281   1.764   8.309  0.4473 -0.3158  0.2420
 2798SOL     OW19855   4.485   0.785  13.491  0.1272  0.8414  0.0065
 2798SOL    HW119856   4.502   0.694  13.468 -0.7049  1.0807 -1.5810
 2798SOL    HW219857   4.567   0.780  13.540  1.1140  2.0874 -1.4959
 2799SOL     OW19858   1.646   3.936   4.178 -0.7149  0.0441  0.0884
 2799SOL    HW119859   1.656   4.028   4.155 -0.3380 -0.2111 -0.7428
 2799SOL    HW219860   1.721   3.937   4.238 -0.6149 -2.2324 -0.0033
 2800SOL     OW19861   2.859   0.215  13.354  0.6492  0.1490 -0.2276
 2800SOL    HW119862   2.952   0.216  13.332  0.6476  0.7896 -0.2127
 2800SOL    HW219863   2.825   0.276  13.288 -1.2882  0.4498  1.0549
 2801SOL     OW19864   2.628   0.446   4.118 -0.0568 -0.2490  0.0102
 2801SOL    HW119865   2.707   0.499   4.110  0.7861 -1.5348 -0.1698
 2801SOL    HW219866   2.568   0.518   4.136  0.2082  0.0090 -0.1476
 2802SOL     OW19867   0.912   4.083   5.695  0.0709  0.2476  0.1186
 2802SOL    HW119868   0.861   4.066   5.774  2.5111  2.0941  2.0827
 2802SOL    HW219869   0.936   4.173   5.715 -0.9251  0.8722 -1.4811
 2803SOL     OW19870   3.267   4.385  12.826 -0.1266 -0.2598  0.0678
 2803SOL    HW119871   3.208   4.459  12.811  0.6881  0.9833  2.9429
 2803SOL    HW219872   3.332   4.430  12.880  0.6305  0.7248 -1.6916
 2804SOL     OW19873   3.126   1.774   6.197  0.4345  0.1011  0.0852
 2804SOL    HW119874   3.151   1.727   6.118 -2.1851 -1.0007 -0.0666
 2804SOL    HW219875   3.031   1.773   6.197  0.4334  0.4667  0.4434
 2805SOL     OW19876   2.841   4.262  12.147 -0.1194  0.0503  0.1236
 2805SOL    HW119877   2.878   4.180  12.179 -0.5239 -0.2437 -0.1664
 2805SOL    HW219878   2.759   4.264  12.196  0.6205 -0.0833  1.3659
 2806SOL     OW19879   0.154   2.721   5.030  0.5049  0.1643 -0.1413
 2806SOL    HW119880   0.121   2.652   5.087  0.7278 -0.5831 -0.9168
 2806SOL    HW219881   0.159   2.672   4.948 -0.7189 -5.1590  2.9665
 2807SOL     OW19882   2.533   3.497  15.341 -0.4242  0.1657 -1.0507
 2807SOL    HW119883   2.506   3.477  15.251 -1.6601 -0.9200 -0.4269
 2807SOL    HW219884   2.589   3.420  15.352  0.8389  1.1071 -0.9016
 2808SOL     OW19885   2.725   1.029   5.742 -0.3925 -0.1318  0.6988
 2808SOL    HW119886   2.649   0.971   5.742  0.6401 -1.4866  0.9115
 2808SOL    HW219887   2.790   0.959   5.747  0.9799  1.1185  0.5145
 2809SOL     OW19888   3.931   1.311   1.081  0.1981  0.3284  0.2084
 2809SOL    HW119889   3.989   1.257   1.029  1.3902  0.1108  1.7748
 2809SOL    HW219890   3.958   1.388   1.030  0.3643  1.4799  2.0321
 2810SOL     OW19891   0.810   0.570   8.053  0.1666 -0.0314  0.9735
 2810SOL    HW119892   0.756   0.497   8.083 -0.3652 -0.8935 -2.0720
 2810SOL    HW219893   0.894   0.533   8.026  1.4361  2.4720  1.4902
 2811SOL     OW19894   1.917   4.353  16.719 -0.5018 -0.1455 -0.0383
 2811SOL    HW119895   1.918   4.272  16.668 -0.3884  0.8845 -1.6604
 2811SOL    HW219896   1.824   4.375  16.720 -0.3191  0.5712  1.4136
 2812SOL     OW19897   3.265   2.213   7.815 -0.0103 -0.2671  0.0341
 2812SOL    HW119898   3.351   2.178   7.837  0.2080 -0.2291 -0.7448
 2812SOL    HW219899   3.286   2.277   7.747  1.8916 -1.3654 -0.4102
 2813SOL     OW19900   2.732   2.927   1.469  0.2557  0.0147 -0.1169
 2813SOL    HW119901   2.821   2.922   1.502 -0.7868  0.4401  2.7174
 2813SOL    HW219902   2.757   2.870   1.396 -0.1057  0.5222 -0.6441
 2814SOL     OW19903   1.432   0.887   7.817 -0.1805 -0.0741  0.2353
 2814SOL    HW119904   1.423   0.881   7.722  2.2416  0.4979 -0.0156
 2814SOL    HW219905   1.418   0.979   7.838 -0.0807 -0.1243  0.5236
 2815SOL     OW19906   4.259   3.768   5.665  0.7082 -0.1688  0.1187
 2815SOL    HW119907   4.282   3.716   5.742  0.0697 -1.3315 -0.4682
 2815SOL    HW219908   4.195   3.708   5.627  1.0307 -1.9104  2.2741
 2816SOL     OW19909   2.037   3.594  15.425  0.1068 -0.3616  0.1759
 2816SOL    HW119910   2.104   3.661  15.435 -1.3988  0.9470  1.5120
 2816SOL    HW219911   1.999   3.613  15.339  0.4252  1.2836  0.4089
 2817SOL     OW19912   2.099   0.935   6.944 -0.3166  0.3617  0.0583
 2817SOL    HW119913   2.176   0.974   6.984  0.2983 -0.4819 -0.3162
 2817SOL    HW219914   2.082   0.867   7.009  2.4205 -0.3802 -0.0362
 2818SOL     OW19915   3.902   0.697   4.087  0.2481  0.3729  0.0540
 2818SOL    HW119916   3.818   0.656   4.069  0.2506  0.7239 -0.7701
 2818SOL    HW219917   3.953   0.617   4.105 -1.1474 -0.4139  0.4716
 2819SOL     OW19918   3.724   0.954  11.539 -0.3844 -0.5366 -0.3852
 2819SOL    HW119919   3.764   0.981  11.457  1.4087  1.1301  1.0589
 2819SOL    HW219920   3.643   1.005  11.537 -1.0451 -1.5806 -0.7837
 2820SOL     OW19921   0.582   0.026  12.906  0.3419  0.0960  0.2029
 2820SOL    HW119922   0.645   4.713  12.847  0.3796 -0.0624  0.3501
 2820SOL    HW219923   0.531   4.677  12.931 -0.0279  1.3171  3.2838
 2821SOL     OW19924   4.442   0.390   3.364 -0.1393  0.6657  0.1104
 2821SOL    HW119925   4.458   0.425   3.277 -0.2176 -3.2677 -1.5085
 2821SOL    HW219926   4.371   0.333   3.335  0.6831 -0.0113 -0.5560
 2822SOL     OW19927   0.768   1.230   0.551  0.1481  0.3058  0.9719
 2822SOL    HW119928   0.779   1.145   0.508  1.0362  0.4950  0.8174
 2822SOL    HW219929   0.857   1.262   0.536 -1.0227  2.4249 -1.4375
 2823SOL     OW19930   3.559   2.430   7.065  0.1918 -0.5273 -0.0751
 2823SOL    HW119931   3.517   2.511   7.034 -0.5806  0.6959  4.0531
 2823SOL    HW219932   3.597   2.396   6.985  0.8305 -0.7284  0.3173
 2824SOL     OW19933   0.706   1.788   4.841 -0.4276  0.5109 -0.5586
 2824SOL    HW119934   0.711   1.878   4.810  0.8698  1.3495  2.1209
 2824SOL    HW219935   0.760   1.796   4.920 -0.7257 -0.9907 -0.1969
 2825SOL     OW19936   2.524   4.160   4.573 -0.7929 -0.0752 -0.2432
 2825SOL    HW119937   2.449   4.113   4.537  0.2668  0.3491 -3.0064
 2825SOL    HW219938   2.577   4.090   4.612 -0.0087  1.2005  0.9810
 2826SOL     OW19939   2.641   0.622   2.598 -0.0727 -0.7202 -0.5246
 2826SOL    HW119940   2.634   0.576   2.514 -0.6836 -1.8504  0.1594
 2826SOL    HW219941   2.568   0.683   2.594  0.9864  0.6476  1.0249
 2827SOL     OW19942   4.448   2.162  14.542 -0.1205 -0.2477 -0.4343
 2827SOL    HW119943   4.453   2.103  14.617  0.0857 -1.8943 -1.7245
 2827SOL    HW219944   4.396   2.233  14.578  0.2981 -0.0398 -0.2434
 2828SOL     OW19945   4.080   1.484   3.131  0.3878 -0.0690  0.0542
 2828SOL    HW119946   3.987   1.463   3.147  0.9709 -2.1017  0.8616
 2828SOL    HW219947   4.091   1.408   3.074  2.5669 -0.2581  0.7182
 2829SOL     OW19948   2.364   2.553   8.434  0.4200  0.8431  0.0134
 2829SOL    HW119949   2.331   2.640   8.409 -0.7500  0.4091  0.0184
 2829SOL    HW219950   2.301   2.491   8.396 -1.8422  3.4188 -0.4413
 2830SOL     OW19951   1.401   4.043  16.070 -0.4235 -0.7762  0.4048
 2830SOL    HW119952   1.363   3.995  15.996  1.7600 -0.1924 -1.1063
 2830SOL    HW219953   1.345   4.017  16.143  0.3567 -1.3201  0.8120
 2831SOL     OW19954   4.082   2.832   3.862 -0.2451  0.0138  0.0324
 2831SOL    HW119955   4.003   2.778   3.867 -1.2665  1.7868  3.4914
 2831SOL    HW219956   4.119   2.840   3.950 -0.8203  0.9011  0.1956
 2832SOL     OW19957   3.832   2.266   4.401  0.0427  0.9288  0.2232
 2832SOL    HW119958   3.756   2.272   4.459  0.2743  0.8578  0.5355
 2832SOL    HW219959   3.785   2.270   4.318  1.2799 -1.9766 -0.6211
 2833SOL     OW19960   0.331   4.680   7.149  0.6882  0.0521  0.6186
 2833SOL    HW119961   0.402   4.694   7.086  0.8201  0.7052  0.9112
 2833SOL    HW219962   0.365   4.605   7.196 -0.2905  0.6066  2.1982
 2834SOL     OW19963   3.916   3.675   2.895  0.1346 -0.1663 -0.1221
 2834SOL    HW119964   3.930   3.770   2.891  0.6875 -0.1959  1.2161
 2834SOL    HW219965   3.867   3.662   2.814 -1.6587 -1.5884  1.1970
 2835SOL     OW19966   3.808   2.078   6.882 -0.4644 -0.5212 -0.0234
 2835SOL    HW119967   3.756   2.052   6.959 -0.7693  1.5919  0.4861
 2835SOL    HW219968   3.762   2.156   6.852 -0.0762 -0.0938  0.4912
 2836SOL     OW19969   2.876   2.644   0.699 -0.6851 -0.5285  0.7734
 2836SOL    HW119970   2.926   2.569   0.667  1.2135  0.4524  1.4120
 2836SOL    HW219971   2.793   2.641   0.651  0.1851  1.6343 -0.9073
 2837SOL     OW19972   3.868   1.929   9.369 -0.1653  0.0354 -0.0947
 2837SOL    HW119973   3.929   1.910   9.441 -0.1713 -0.0144 -0.1027
 2837SOL    HW219974   3.837   2.017   9.389  0.5448  0.6589 -1.7389
 2838SOL     OW19975   0.551   2.438  15.601  0.0336  0.7521  1.0604
 2838SOL    HW119976   0.511   2.351  15.590 -1.9436  1.5621  1.7512
 2838SOL    HW219977   0.524   2.496  15.530 -1.3312  0.5281  1.3785
 2839SOL     OW19978   1.289   3.301   8.948  0.1025  0.7453  0.3241
 2839SOL    HW119979   1.350   3.352   8.895  0.1919  0.2234 -0.0777
 2839SOL    HW219980   1.238   3.268   8.874  1.3545  0.7557 -0.5407
 2840SOL     OW19981   1.852   1.534   7.345 -0.0034 -0.5202 -0.6660
 2840SOL    HW119982   1.772   1.527   7.396 -0.1244 -0.9268 -0.9074
 2840SOL    HW219983   1.871   1.626   7.363 -2.8645 -0.2681  0.9914
 2841SOL     OW19984   4.571   2.063   0.354  0.5502  0.1345  0.1560
 2841SOL    HW119985   4.526   2.033   0.276  0.8952  1.0917 -0.4191
 2841SOL    HW219986   4.499   2.070   0.417 -1.6335  1.1170 -2.4934
 2842SOL     OW19987   0.740   1.189   9.955  0.1468  0.6384 -0.0219
 2842SOL    HW119988   0.797   1.247  10.005 -1.6973  2.7719 -0.3940
 2842SOL    HW219989   0.755   1.212   9.864  0.1228  0.1855 -0.1438
 2843SOL     OW19990   3.011   1.184  11.231  0.7094  0.2628  0.1334
 2843SOL    HW119991   3.055   1.255  11.184  0.7358  1.2762  1.6868
 2843SOL    HW219992   3.086   1.144  11.276  0.1935  1.6887  2.2475
 2844SOL     OW19993   3.090   3.002  10.313  0.8916  0.0990  0.2517
 2844SOL    HW119994   3.117   3.076  10.367  0.4000  0.1740  0.3937
 2844SOL    HW219995   3.104   2.933  10.378 -0.4984 -0.5894 -0.1873
 2845SOL     OW19996   0.469   3.548   9.288  0.2283  0.2270  0.8480
 2845SOL    HW119997   0.541   3.598   9.327  0.0961  1.7813 -0.8780
 2845SOL    HW219998   0.511   3.522   9.206  1.8258 -0.8774  2.0141
 2846SOL     OW19999   0.079   2.405   9.607 -0.2186  0.3748  0.0436
 2846SOL    HW120000   0.135   2.330   9.592 -1.6496 -0.4373 -1.2621
 2846SOL    HW220001   0.068   2.390   9.701 -2.1267  2.1082  0.1104
 2847SOL     OW20002   4.216   0.882  10.166  0.5546 -0.1884  0.0107
 2847SOL    HW120003   4.268   0.824  10.222 -0.8080 -0.4372  0.9910
 2847SOL    HW220004   4.143   0.913  10.219  1.3556  1.0560  0.3835
 2848SOL     OW20005   1.592   2.374   5.811  0.0170  0.0375  0.2500
 2848SOL    HW120006   1.520   2.335   5.762 -1.3742 -0.4570  2.6812
 2848SOL    HW220007   1.550   2.421   5.883  1.7662 -0.5467  1.6515
 2849SOL     OW20008   2.671   1.679   3.547 -0.4185  0.3588  0.1910
 2849SOL    HW120009   2.670   1.763   3.593  0.4892  1.1238 -1.1898
 2849SOL    HW220010   2.756   1.651   3.583  0.5183  0.2195 -2.1713
 2850SOL     OW20011   2.631   3.590  13.002  0.7029 -0.1095  0.0564
 2850SOL    HW120012   2.660   3.508  12.962  0.4386  0.4157 -1.2179
 2850SOL    HW220013   2.578   3.557  13.074 -1.6505  1.2976 -1.0051
 2851SOL     OW20014   3.430   2.468   6.355  0.2973  0.2894 -0.0646
 2851SOL    HW120015   3.415   2.475   6.261 -0.8698 -0.4369  0.0636
 2851SOL    HW220016   3.389   2.384   6.375  1.9092 -0.7173 -1.0081
 2852SOL     OW20017   4.299   4.106   3.917 -0.7258  0.5523 -0.0520
 2852SOL    HW120018   4.262   4.167   3.853 -1.0570  1.6909  1.2234
 2852SOL    HW220019   4.217   4.088   3.964 -0.0803 -1.9023  0.1700
 2853SOL     OW20020   0.235   4.561   3.769 -0.4581  0.2663  0.3794
 2853SOL    HW120021   0.157   4.572   3.715  0.0285 -1.6034 -0.7329
 2853SOL    HW220022   0.202   4.518   3.847 -0.7864  2.6226  1.5093
 2854SOL     OW20023   1.822   3.083  13.319 -0.5842 -0.1177  0.5305
 2854SOL    HW120024   1.828   3.117  13.408 -0.5961  1.5869 -0.1154
 2854SOL    HW220025   1.777   3.153  13.272 -1.5482 -0.2305  1.2905
 2855SOL     OW20026   2.008   2.397   4.034  0.1819  0.2499 -0.0733
 2855SOL    HW120027   1.919   2.420   4.007  0.7347  1.7294 -0.6406
 2855SOL    HW220028   2.037   2.399   3.943 -1.9978 -0.4476 -0.7916
 2856SOL     OW20029   3.041   1.239  15.218  0.6752 -0.2630 -0.1367
 2856SOL    HW120030   3.029   1.235  15.312 -0.5406  1.4527 -0.2098
 2856SOL    HW220031   2.971   1.296  15.184 -0.0903 -0.9747  0.2773
 2857SOL     OW20032   1.621   0.159  10.281 -0.3917  0.0144 -0.8027
 2857SOL    HW120033   1.684   0.181  10.212 -0.1878 -1.4985 -1.0889
 2857SOL    HW220034   1.561   0.107  10.227 -2.6902  0.6606  1.1650
 2858SOL     OW20035   2.247   3.784  15.422  0.6101 -0.1984  0.4159
 2858SOL    HW120036   2.308   3.802  15.351 -0.8115 -0.5341 -0.8992
 2858SOL    HW220037   2.229   3.874  15.449  0.1311  0.6337 -2.6834
 2859SOL     OW20038   0.884   2.627   5.742 -0.5377  0.1858 -0.8992
 2859SOL    HW120039   0.926   2.702   5.702 -0.2344  1.2761  1.4500
 2859SOL    HW220040   0.954   2.564   5.759 -0.6786  0.3598  0.3589
 2860SOL     OW20041   2.980   2.516   6.473 -0.1512 -0.5510 -0.2661
 2860SOL    HW120042   2.980   2.611   6.467 -0.6996 -0.3011  3.4768
 2860SOL    HW220043   2.979   2.497   6.379  2.0750 -0.4392 -0.3096
 2861SOL     OW20044   0.693   0.642   6.940  0.2816  0.1434 -0.5050
 2861SOL    HW120045   0.756   0.685   6.883  0.6667  0.0325 -0.1603
 2861SOL    HW220046   0.657   0.571   6.887  0.3566 -1.0672  1.0748
 2862SOL     OW20047   1.586   2.505   2.845 -0.5524 -0.1686 -0.1340
 2862SOL    HW120048   1.637   2.443   2.897 -1.5772  0.6408  1.8283
 2862SOL    HW220049   1.601   2.478   2.754  1.2404 -0.0789  0.1276
 2863SOL     OW20050   1.784   3.467   2.559 -0.1878  0.1060 -0.4345
 2863SOL    HW120051   1.752   3.556   2.573  1.2632  0.3036  1.5805
 2863SOL    HW220052   1.706   3.415   2.540  1.2421 -2.0789 -0.3016
 2864SOL     OW20053   4.507   1.038  16.542  0.4546 -0.2715 -0.0502
 2864SOL    HW120054   4.560   1.061  16.618 -1.8885  1.6843  1.0207
 2864SOL    HW220055   4.494   0.944  16.552  0.3599 -0.2074  0.4492
 2865SOL     OW20056   0.677   3.415   2.136  0.0404  0.3971  0.1007
 2865SOL    HW120057   0.739   3.417   2.062  0.7834 -0.5351  0.7031
 2865SOL    HW220058   0.599   3.462   2.105 -0.0299 -1.7888 -3.0153
 2866SOL     OW20059   1.291   1.234   6.213  0.3795 -0.1783  0.1248
 2866SOL    HW120060   1.266   1.149   6.177 -1.7421  0.4724  0.0604
 2866SOL    HW220061   1.244   1.235   6.297  0.8875 -2.1667  0.4306
 2867SOL     OW20062   2.748   3.961   7.948 -1.1136 -0.2187  0.3207
 2867SOL    HW120063   2.832   3.931   7.912  0.4574  2.5119  1.6366
 2867SOL    HW220064   2.780   4.001   8.029  1.3642  0.3582 -0.9281
 2868SOL     OW20065   3.859   3.110   2.155  0.2385  0.2856 -0.0064
 2868SOL    HW120066   3.897   3.061   2.083 -0.0474 -0.9726  0.7023
 2868SOL    HW220067   3.874   3.201   2.129 -0.7815  0.6747  0.7207
 2869SOL     OW20068   4.099   3.500   4.751  0.4276 -0.4266 -0.2293
 2869SOL    HW120069   4.168   3.495   4.686 -1.2994  1.4916 -2.2121
 2869SOL    HW220070   4.029   3.517   4.687 -0.0237 -0.6662  0.1954
 2870SOL     OW20071   1.046   1.602   6.168 -0.4817  0.1643  0.1132
 2870SOL    HW120072   1.068   1.684   6.211 -0.7345  0.5674 -0.5304
 2870SOL    HW220073   0.959   1.620   6.132  0.2629  3.4019 -0.0876
 2871SOL     OW20074   0.609   3.654   6.851  0.0913 -0.6081  0.0933
 2871SOL    HW120075   0.654   3.696   6.924 -1.0350  1.5479 -0.4745
 2871SOL    HW220076   0.578   3.732   6.805  0.4141  0.5059  1.7586
 2872SOL     OW20077   2.506   4.636  14.044 -0.5116 -0.8430 -0.0970
 2872SOL    HW120078   2.532   4.697  13.975  0.9358  0.0897  1.2689
 2872SOL    HW220079   2.418   4.620  14.011  0.5862 -0.2027 -3.3381
 2873SOL     OW20080   2.047   3.798   6.426 -0.3439  0.3266 -0.2979
 2873SOL    HW120081   2.109   3.868   6.406 -0.4709 -0.0531 -2.0192
 2873SOL    HW220082   2.106   3.737   6.470 -0.2015  1.4562  1.0884
 2874SOL     OW20083   3.450   3.459   2.827  0.7712 -0.3367  0.1913
 2874SOL    HW120084   3.517   3.423   2.769  3.5433  1.8868  2.0032
 2874SOL    HW220085   3.471   3.552   2.828 -1.7222  0.2372 -0.7610
 2875SOL     OW20086   3.738   4.532   4.679 -0.2976  0.3464 -0.4598
 2875SOL    HW120087   3.757   4.445   4.643 -0.0447  0.3702 -0.3850
 2875SOL    HW220088   3.661   4.522   4.734 -1.0478  2.5017 -1.1206
 2876SOL     OW20089   3.462   0.595   4.655  0.0104 -0.0053 -0.7527
 2876SOL    HW120090   3.434   0.504   4.652 -1.4845  0.3865  1.9325
 2876SOL    HW220091   3.551   0.586   4.619 -0.0165  0.8313 -1.0377
 2877SOL     OW20092   3.956   2.085   1.367 -0.2122  0.0969  0.1014
 2877SOL    HW120093   4.003   2.036   1.299  0.5163 -0.9766  1.3797
 2877SOL    HW220094   3.926   2.012   1.421  2.8373 -1.1560  0.0851
 2878SOL     OW20095   3.961   0.458   6.892 -0.5893  0.3101  0.2100
 2878SOL    HW120096   3.875   0.419   6.878 -0.4149 -0.2205  0.6237
 2878SOL    HW220097   4.013   0.417   6.823 -0.5445 -0.8634  0.9419
 2879SOL     OW20098   0.485   3.114  10.099 -0.4011 -0.1734 -0.5517
 2879SOL    HW120099   0.441   3.119  10.183  2.0316 -1.1946  0.7979
 2879SOL    HW220100   0.414   3.093  10.038 -1.9757  2.8104  0.2612
 2880SOL     OW20101   1.641   1.394  16.384 -0.3121 -0.1001 -0.2520
 2880SOL    HW120102   1.590   1.313  16.392 -1.4487  0.7153  0.6642
 2880SOL    HW220103   1.628   1.421  16.294  0.8581 -2.1710 -1.0373
 2881SOL     OW20104   0.775   4.426  16.677 -0.3521  0.1461 -0.0880
 2881SOL    HW120105   0.800   4.508  16.719 -0.2009  0.7138 -1.2952
 2881SOL    HW220106   0.684   4.415  16.704 -0.3340 -1.5862 -0.7375
 2882SOL     OW20107   1.896   1.713   1.423 -0.3603  0.2250  1.0578
 2882SOL    HW120108   1.842   1.639   1.394  1.3272 -0.7460  0.4093
 2882SOL    HW220109   1.960   1.673   1.482  1.4404  0.0517 -1.0270
 2883SOL     OW20110   0.337   3.058   3.688 -0.6141  0.1738  0.3549
 2883SOL    HW120111   0.344   2.970   3.727  2.0213 -0.6455 -2.0059
 2883SOL    HW220112   0.424   3.092   3.706 -0.1586 -1.0365  0.4337
 2884SOL     OW20113   3.571   4.161   5.855 -0.6661 -0.0809 -0.0766
 2884SOL    HW120114   3.617   4.077   5.855  1.5663  1.1646 -0.8290
 2884SOL    HW220115   3.590   4.185   5.764 -0.4295 -0.0481 -0.0183
 2885SOL     OW20116   2.483   1.073   8.257  0.5315  0.3335  0.5866
 2885SOL    HW120117   2.531   1.037   8.331 -1.6705 -0.5715  1.5707
 2885SOL    HW220118   2.392   1.059   8.280  0.7085  0.5642  1.3949
 2886SOL     OW20119   4.067   0.468   5.485 -0.0343  0.1544  0.2284
 2886SOL    HW120120   4.009   0.413   5.537  0.7548 -0.6629  0.2482
 2886SOL    HW220121   4.151   0.422   5.495  0.5949  1.8449  2.9280
 2887SOL     OW20122   4.329   3.611   0.954  0.0955 -0.6070 -0.0173
 2887SOL    HW120123   4.329   3.532   1.007 -0.0918  0.1550  1.1162
 2887SOL    HW220124   4.316   3.564   0.871  1.0630 -2.7842  1.0682
 2888SOL     OW20125   3.960   0.162   8.568 -0.2125  0.3220  0.5755
 2888SOL    HW120126   3.873   0.161   8.609 -0.0785 -0.5223  0.8319
 2888SOL    HW220127   3.956   0.250   8.531 -0.5906  0.3771  0.7492
 2889SOL     OW20128   1.880   0.136   2.237 -0.1237 -0.0878 -0.2496
 2889SOL    HW120129   1.825   0.103   2.307 -1.5946  1.9408 -0.4565
 2889SOL    HW220130   1.969   0.124   2.271 -0.1538  0.5687  0.0460
 2890SOL     OW20131   3.733   0.738   3.271  0.4492  0.1892  0.1233
 2890SOL    HW120132   3.766   0.657   3.232  0.4105  1.4800 -2.5611
 2890SOL    HW220133   3.817   0.784   3.268  1.3594 -1.4587  0.8779
 2891SOL     OW20134   1.759   1.267   9.183  0.2565  0.3269  0.0245
 2891SOL    HW120135   1.830   1.204   9.194 -0.6653 -0.3344  2.1748
 2891SOL    HW220136   1.746   1.259   9.089  0.0598  0.1990  0.0623
 2892SOL     OW20137   3.085   1.378   5.967  0.2862  1.4654  0.1305
 2892SOL    HW120138   3.041   1.311   5.915  2.6863  1.1332 -1.4837
 2892SOL    HW220139   3.014   1.404   6.026  1.6085  0.0945  2.3066
 2893SOL     OW20140   3.767   0.969   0.240 -0.3976  0.2293 -0.2021
 2893SOL    HW120141   3.849   0.920   0.244 -0.5877 -0.0430  0.3557
 2893SOL    HW220142   3.714   0.892   0.259  2.5125 -2.1253 -1.6920
 2894SOL     OW20143   2.431   1.214  11.159 -0.1089 -0.4787  0.1226
 2894SOL    HW120144   2.411   1.128  11.122 -0.0533 -0.0925 -0.8160
 2894SOL    HW220145   2.351   1.229  11.208  0.9252 -1.4076  2.0950
 2895SOL     OW20146   0.154   1.729   1.372  0.3479  0.0198 -0.3936
 2895SOL    HW120147   0.225   1.723   1.308 -0.4010 -0.0729 -1.2040
 2895SOL    HW220148   0.084   1.682   1.326  0.2321 -0.7262  0.5405
 2896SOL     OW20149   4.674   4.064   9.621  0.4627  0.8810 -0.1350
 2896SOL    HW120150   0.036   4.097   9.627 -0.0556  2.1148  0.7407
 2896SOL    HW220151   4.624   4.140   9.591  1.9831  0.7262 -3.0321
 2897SOL     OW20152   0.929   3.079   3.453 -0.0315  0.7632 -0.0925
 2897SOL    HW120153   1.004   3.098   3.509  0.3039  3.0590 -1.3217
 2897SOL    HW220154   0.940   3.156   3.397  2.4735  0.5715  0.1420
 2898SOL     OW20155   1.537   0.667  17.607 -0.1247  0.1648 -0.0007
 2898SOL    HW120156   1.474   0.739  17.602 -2.2994 -1.5858  2.3520
 2898SOL    HW220157   1.513   0.611  17.680  0.3018  0.5421  0.4295
 2899SOL     OW20158   0.080   2.612   9.312 -0.2166 -0.2291 -0.4075
 2899SOL    HW120159   0.141   2.622   9.239  1.1414 -2.1840  0.4473
 2899SOL    HW220160   0.013   2.558   9.272 -0.5937  0.0624 -0.1697
 2900SOL     OW20161   4.651   2.572  13.068  0.1950  0.1565 -0.0331
 2900SOL    HW120162   4.634   2.490  13.022  6.4041 -0.0289 -2.0028
 2900SOL    HW220163   4.565   2.597  13.101 -0.1749  0.1266 -0.9658
 2901SOL     OW20164   1.340   4.433   7.735 -0.4431 -0.4541  0.0656
 2901SOL    HW120165   1.315   4.429   7.827  1.4774  1.4198  0.6633
 2901SOL    HW220166   1.434   4.420   7.749 -0.4121  2.0311  2.0228
 2902SOL     OW20167   1.868   3.019   7.080  0.2410 -0.6330 -0.5492
 2902SOL    HW120168   1.809   3.094   7.088 -1.4393 -1.9020 -0.9518
 2902SOL    HW220169   1.844   2.963   7.154 -1.7642  2.0322  0.7937
 2903SOL     OW20170   0.988   4.103  14.463  0.1032 -0.7135 -0.0534
 2903SOL    HW120171   1.020   4.177  14.514 -0.4674 -0.6982  0.2915
 2903SOL    HW220172   0.925   4.049  14.511 -2.2068  2.1470  0.1115
 2904SOL     OW20173   4.326   0.163   6.371 -0.0004 -0.1546 -0.1444
 2904SOL    HW120174   4.269   0.090   6.345 -1.4283  1.1774 -0.7701
 2904SOL    HW220175   4.267   0.234   6.395  1.5751  0.0298  3.1146
 2905SOL     OW20176   0.299   1.585   8.126 -0.0738 -0.3504 -0.3577
 2905SOL    HW120177   0.339   1.499   8.141 -5.5230 -2.5378  1.9893
 2905SOL    HW220178   0.342   1.628   8.200  2.5450 -0.3625 -1.8677
 2906SOL     OW20179   0.318   3.490   6.089  0.2190 -0.4324 -0.1495
 2906SOL    HW120180   0.298   3.424   6.022  0.6775 -0.3514 -0.3643
 2906SOL    HW220181   0.234   3.510   6.130  0.3069 -0.4095  0.0161
 2907SOL     OW20182   2.871   1.764  17.670  0.2117 -0.0016  0.1634
 2907SOL    HW120183   2.842   1.696  17.610  1.5317  0.4218 -0.9729
 2907SOL    HW220184   2.818   1.739   0.034  0.3116 -1.6580 -0.3313
 2908SOL     OW20185   0.404   2.517   9.932 -0.0004  0.6115 -0.3077
 2908SOL    HW120186   0.449   2.465   9.999  0.8428 -1.2111 -2.2774
 2908SOL    HW220187   0.379   2.443   9.876  1.3558  0.0588 -0.2105
 2909SOL     OW20188   2.767   1.393  13.602  0.4955 -0.1856  0.4042
 2909SOL    HW120189   2.737   1.387  13.512 -0.3097 -1.7018  0.7781
 2909SOL    HW220190   2.683   1.366  13.639 -0.1771 -1.5172 -2.1137
 2910SOL     OW20191   4.676   3.723   4.154  0.1609  0.0173  0.4575
 2910SOL    HW120192   4.634   3.652   4.106  3.5680  1.1451 -4.1932
 2910SOL    HW220193   4.629   3.801   4.122  1.2013 -0.0460 -1.2078
 2911SOL     OW20194   2.998   3.820  16.655 -0.3178 -0.6028  0.2775
 2911SOL    HW120195   3.074   3.829  16.712 -0.8372  0.5483  0.7954
 2911SOL    HW220196   2.931   3.883  16.683  0.6695  0.8084 -0.5236
 2912SOL     OW20197   4.360   1.565   5.497  0.1196 -0.0168  0.2959
 2912SOL    HW120198   4.352   1.576   5.402 -0.9574  0.1482  0.4098
 2912SOL    HW220199   4.439   1.512   5.500 -0.4771 -0.8194  1.5885
 2913SOL     OW20200   2.729   0.119   2.348 -0.2674  0.6700 -0.2070
 2913SOL    HW120201   2.786   0.184   2.389  0.4686  0.1223 -0.3761
 2913SOL    HW220202   2.678   0.084   2.421  0.4462 -1.3993 -0.7085
 2914SOL     OW20203   2.944   3.093   6.368  0.3348 -0.2778 -0.6585
 2914SOL    HW120204   2.860   3.100   6.323  0.1190  1.1879 -0.0471
 2914SOL    HW220205   2.919   3.114   6.458  1.1692  2.3076 -1.0153
 2915SOL     OW20206   0.598   1.609  14.529  0.1130  0.3953 -0.0335
 2915SOL    HW120207   0.593   1.520  14.565 -0.9418  1.4644  2.5119
 2915SOL    HW220208   0.515   1.649  14.556 -1.5182 -1.9929 -1.5783
 2916SOL     OW20209   1.660   4.122   9.489 -0.0556 -0.0297 -0.0759
 2916SOL    HW120210   1.685   4.136   9.398  0.8531 -0.0426  0.1776
 2916SOL    HW220211   1.573   4.162   9.489 -1.1389 -2.4113  1.4792
 2917SOL     OW20212   3.207   3.042   8.463  0.9196  0.6145  0.1708
 2917SOL    HW120213   3.210   2.992   8.545  2.0608 -0.3943 -0.4790
 2917SOL    HW220214   3.302   3.054   8.456  1.5106 -2.3478  2.9563
 2918SOL     OW20215   2.275   4.518   2.592 -0.2508 -0.0138  0.5248
 2918SOL    HW120216   2.288   4.591   2.532  0.8628 -0.0210  0.7557
 2918SOL    HW220217   2.284   4.577   2.666  0.5599 -0.1506  0.5321
 2919SOL     OW20218   2.163   3.221   6.428 -0.5382  0.2841  0.0312
 2919SOL    HW120219   2.075   3.248   6.455 -0.8640 -0.1201 -0.6210
 2919SOL    HW220220   2.193   3.309   6.407 -0.0176  0.1223  0.1150
 2920SOL     OW20221   3.045   2.839   8.135 -0.3464  0.4836 -0.6993
 2920SOL    HW120222   2.955   2.864   8.156 -0.5606 -0.4271 -0.5242
 2920SOL    HW220223   3.062   2.780   8.208  0.4462 -0.2773 -1.5061
 2921SOL     OW20224   2.590   0.007   3.438  0.0149  0.4868  0.5028
 2921SOL    HW120225   2.592   0.077   3.504  0.0586 -0.5868  1.6504
 2921SOL    HW220226   2.525   0.051   3.384  1.9396  3.1240  0.3802
 2922SOL     OW20227   0.063   3.095   9.805 -0.0565  0.2082  0.3193
 2922SOL    HW120228   0.108   3.169   9.846  0.0763 -0.2892  1.0662
 2922SOL    HW220229   4.707   3.138   9.788  0.0390 -0.0048 -0.6921
 2923SOL     OW20230   0.371   1.433   0.252 -0.3077  0.0457  0.6566
 2923SOL    HW120231   0.425   1.507   0.280  2.3595 -1.7952  0.2990
 2923SOL    HW220232   0.437   1.372   0.221  0.6753  1.6094 -0.3612
 2924SOL     OW20233   0.453   4.282   2.490  0.2787 -0.1347  0.0822
 2924SOL    HW120234   0.451   4.244   2.402 -0.0114  0.9817 -0.3800
 2924SOL    HW220235   0.400   4.358   2.468 -2.2095 -1.9207 -0.0352
 2925SOL     OW20236   1.995   2.293   7.741 -0.1446 -0.0144  0.1104
 2925SOL    HW120237   1.948   2.370   7.708  1.3010  0.7815 -0.0882
 2925SOL    HW220238   2.084   2.304   7.709 -1.2480  2.8610 -1.9241
 2926SOL     OW20239   3.264   4.189   1.517  0.7070 -0.2169  0.0839
 2926SOL    HW120240   3.295   4.267   1.472 -2.0092  1.1814  0.6308
 2926SOL    HW220241   3.311   4.193   1.600  1.2232  0.3919 -0.2432
 2927SOL     OW20242   1.828   2.690   8.519  0.2012  0.4975 -0.2621
 2927SOL    HW120243   1.748   2.638   8.511  0.3310  0.4724 -1.4647
 2927SOL    HW220244   1.787   2.763   8.566  0.1969  0.5330 -0.3208
 2928SOL     OW20245   1.935   0.352   7.650 -0.4220 -1.2085 -0.0473
 2928SOL    HW120246   1.893   0.274   7.686 -3.1398  0.7467  1.0458
 2928SOL    HW220247   1.981   0.391   7.725 -1.5859  1.8899 -0.9551
 2929SOL     OW20248   1.418   3.873   4.869  0.1284  0.1778  0.3922
 2929SOL    HW120249   1.437   3.873   4.775  0.2767 -2.7053  0.4030
 2929SOL    HW220250   1.478   3.942   4.896  3.2024 -1.3881 -2.3139
 2930SOL     OW20251   3.731   0.828   8.156  0.2255  1.0192  0.1483
 2930SOL    HW120252   3.785   0.856   8.230 -0.5760  0.4466  0.9476
 2930SOL    HW220253   3.680   0.757   8.195  0.2453 -0.2066 -2.0722
 2931SOL     OW20254   3.651   3.948   2.235 -0.6283  0.0434 -0.8440
 2931SOL    HW120255   3.698   4.016   2.186 -0.0601 -0.5362 -1.1189
 2931SOL    HW220256   3.659   3.882   2.166 -2.5511 -0.6811 -0.3558
 2932SOL     OW20257   1.973   1.664   5.116  0.0224 -0.2544 -0.0156
 2932SOL    HW120258   1.978   1.753   5.081 -3.0268 -0.0159  0.1106
 2932SOL    HW220259   2.043   1.673   5.180  0.4057 -3.1338 -0.0454
 2933SOL     OW20260   3.130   2.645   7.943 -0.4527 -0.4584 -0.0989
 2933SOL    HW120261   3.117   2.719   8.002  3.9944 -0.1548  0.4975
 2933SOL    HW220262   3.226   2.641   7.934 -0.2762  0.7914  1.2441
 2934SOL     OW20263   0.663   4.256   4.958 -0.0252 -0.3640  0.2680
 2934SOL    HW120264   0.730   4.249   5.026  0.5832  1.2568 -0.1692
 2934SOL    HW220265   0.607   4.184   4.988 -0.5830  0.5288  1.3757
 2935SOL     OW20266   2.569   3.319   4.642  0.3081  0.1727  0.3655
 2935SOL    HW120267   2.519   3.350   4.718  1.5321 -2.3966  2.2027
 2935SOL    HW220268   2.544   3.381   4.574  0.6069 -0.4346 -0.2896
 2936SOL     OW20269   4.357   0.265   8.166 -0.0659 -0.3823 -0.0254
 2936SOL    HW120270   4.359   0.216   8.084  0.4551  0.1864 -0.3521
 2936SOL    HW220271   4.307   0.210   8.227  1.5599 -2.3628 -0.4417
 2937SOL     OW20272   1.502   4.032  11.896  0.2949 -0.0175  0.5453
 2937SOL    HW120273   1.554   4.042  11.817 -1.0351 -0.9576 -0.4330
 2937SOL    HW220274   1.434   4.098  11.885 -0.6030 -1.0470 -0.0515
 2938SOL     OW20275   1.665   0.755   8.513 -0.8519  0.5403  0.2713
 2938SOL    HW120276   1.714   0.758   8.431 -2.2029 -2.2468 -0.6607
 2938SOL    HW220277   1.703   0.831   8.555  1.1527  0.6149 -1.6624
 2939SOL     OW20278   2.566   3.698   8.207  0.5861  0.3312 -0.7570
 2939SOL    HW120279   2.627   3.759   8.247  0.0950  0.8688 -0.8330
 2939SOL    HW220280   2.513   3.763   8.161  0.2487  0.9658  0.5316
 2940SOL     OW20281   2.765   1.853  14.512  0.5761 -0.0950 -0.1457
 2940SOL    HW120282   2.795   1.781  14.569 -0.7843 -0.2064  0.4367
 2940SOL    HW220283   2.674   1.857  14.541  0.4933 -1.0902 -0.2497
 2941SOL     OW20284   2.055   0.811   6.368  0.3318  0.5966  0.1037
 2941SOL    HW120285   2.106   0.734   6.343  2.0543  1.5492  0.7537
 2941SOL    HW220286   2.125   0.872   6.391  2.0003 -0.3070 -2.6217
 2942SOL     OW20287   2.851   4.681   3.972  0.0601 -0.3975  0.0675
 2942SOL    HW120288   2.802   4.639   3.901  0.7308 -0.0565 -0.5977
 2942SOL    HW220289   2.911   4.609   3.988 -0.0694 -0.1258  1.7605
 2943SOL     OW20290   2.508   2.191  13.802  0.1006 -0.0686  0.3311
 2943SOL    HW120291   2.435   2.151  13.850 -0.7670  0.4706 -0.5379
 2943SOL    HW220292   2.573   2.212  13.870  0.0433 -1.6958  0.8739
 2944SOL     OW20293   2.679   3.757  13.718 -0.1480 -0.2584 -0.0903
 2944SOL    HW120294   2.735   3.700  13.664 -1.1134 -1.1468 -0.1538
 2944SOL    HW220295   2.618   3.806  13.661 -1.0106 -0.8393  0.3333
 2945SOL     OW20296   4.552   3.875   2.020  0.1050 -0.2257  0.4179
 2945SOL    HW120297   4.546   3.932   1.943 -1.5806  0.0320  0.7312
 2945SOL    HW220298   4.642   3.887   2.050  0.5285 -2.7401  0.0993
 2946SOL     OW20299   0.708   2.747   0.182 -0.4912  0.4054 -0.0781
 2946SOL    HW120300   0.628   2.789   0.150 -1.5843 -0.0811  2.0507
 2946SOL    HW220301   0.731   2.814   0.246  0.3189  0.1833 -0.1439
 2947SOL     OW20302   0.808   4.438   8.344  0.6500  0.2915 -0.3985
 2947SOL    HW120303   0.836   4.511   8.399 -0.7787  0.5810 -0.0382
 2947SOL    HW220304   0.742   4.483   8.291 -1.3560  2.2314  3.7773
 2948SOL     OW20305   4.299   1.266  16.700  0.2455  0.1110  0.1544
 2948SOL    HW120306   4.337   1.184  16.730  1.9213 -0.1765 -2.7930
 2948SOL    HW220307   4.325   1.265  16.608 -0.1056 -1.1918  0.0659
 2949SOL     OW20308   0.568   3.820   5.325  0.4725 -0.0202  0.0440
 2949SOL    HW120309   0.603   3.731   5.319  0.6583  0.2140 -2.3547
 2949SOL    HW220310   0.609   3.856   5.404 -0.8840  0.2068  0.6536
 2950SOL     OW20311   3.733   3.148   6.620  1.1210 -0.3514 -0.0058
 2950SOL    HW120312   3.724   3.241   6.642  0.6324 -0.2463 -0.6862
 2950SOL    HW220313   3.743   3.114   6.709 -1.1770 -4.0024 -1.1503
 2951SOL     OW20314   0.243   1.948   5.647  0.3316  0.0028  0.0238
 2951SOL    HW120315   0.324   1.921   5.605 -0.2769 -1.0091 -0.5120
 2951SOL    HW220316   0.278   2.004   5.716 -1.4390  2.4100 -1.0419
 2952SOL     OW20317   2.635   3.938   8.338 -0.1310 -0.0223  0.1389
 2952SOL    HW120318   2.656   3.961   8.428  0.3796  3.6274 -0.8921
 2952SOL    HW220319   2.724   3.917   8.308 -0.2870  0.9085 -1.0211
 2953SOL     OW20320   0.032   0.622   7.349  0.2874  0.0584 -0.1846
 2953SOL    HW120321   0.124   0.624   7.376 -0.4403  0.2238  2.2894
 2953SOL    HW220322   0.025   0.694   7.287 -1.5988 -0.1174 -0.1797
 2954SOL     OW20323   4.084   4.579   3.599 -0.8696  0.4056 -0.0331
 2954SOL    HW120324   4.067   4.530   3.519  0.2844  0.6996 -0.4434
 2954SOL    HW220325   3.997   4.588   3.640 -1.1344  1.3409 -0.7935
 2955SOL     OW20326   2.097   4.110   6.037  0.4076  0.6509 -0.3756
 2955SOL    HW120327   2.153   4.113   5.960 -1.4680 -0.8512 -1.7965
 2955SOL    HW220328   2.097   4.202   6.063 -1.3428 -0.0658  2.2065
 2956SOL     OW20329   0.293   4.491   2.418  0.0328 -0.0434  0.1047
 2956SOL    HW120330   0.232   4.417   2.409 -0.3191  0.6889 -3.6590
 2956SOL    HW220331   0.301   4.513   2.325 -0.8486 -1.7962 -0.3971
 2957SOL     OW20332   0.881   1.837  10.583 -0.0985 -0.2351 -0.1301
 2957SOL    HW120333   0.795   1.841  10.624  0.6098 -0.3571  1.3890
 2957SOL    HW220334   0.942   1.891  10.634  0.3560  0.6844 -1.6351
 2958SOL     OW20335   2.820   0.333   2.175  0.0428 -0.1785 -0.6231
 2958SOL    HW120336   2.863   0.290   2.100  1.7270 -1.8628  1.3249
 2958SOL    HW220337   2.763   0.260   2.199  0.6444 -1.1502 -2.1151
 2959SOL     OW20338   2.896   2.977   4.614 -0.4591  0.2024 -0.0040
 2959SOL    HW120339   2.811   3.002   4.577 -0.8972  0.6774  1.3021
 2959SOL    HW220340   2.949   3.052   4.588 -1.7455  1.7588  1.8368
 2960SOL     OW20341   2.554   2.043   0.244 -0.1388 -0.1847  0.5585
 2960SOL    HW120342   2.533   2.129   0.281  1.1832  1.0053 -1.4136
 2960SOL    HW220343   2.628   2.057   0.184  0.7893  0.2869  1.8239
 2961SOL     OW20344   0.367   2.784   4.390 -0.0572 -0.0775  0.3764
 2961SOL    HW120345   0.362   2.834   4.309 -2.4399 -0.5696  0.2033
 2961SOL    HW220346   0.360   2.855   4.453  1.6755 -0.2007  0.7069
 2962SOL     OW20347   0.069   1.202   0.835  0.1711 -0.2076 -0.0125
 2962SOL    HW120348   4.726   1.267   0.831 -0.8407 -1.1996  1.5510
 2962SOL    HW220349   0.129   1.241   0.772 -1.0180  0.6096 -0.6430
 2963SOL     OW20350   4.309   1.108   5.530 -0.1390  0.3387 -0.3978
 2963SOL    HW120351   4.390   1.098   5.579  0.1955 -1.7539 -1.3965
 2963SOL    HW220352   4.301   1.203   5.538 -1.1017  0.3320 -1.2543
 2964SOL     OW20353   0.200   4.695   2.610  0.3494 -0.0844 -0.3323
 2964SOL    HW120354   0.218   4.636   2.538  0.3296  1.4691 -1.6055
 2964SOL    HW220355   0.223   4.633   2.680  0.3483  0.3896  0.0900
 2965SOL     OW20356   0.383   3.428   7.994  0.1179  0.4796 -1.0875
 2965SOL    HW120357   0.393   3.487   7.919 -0.1433 -1.1691 -2.4300
 2965SOL    HW220358   0.474   3.402   8.008 -0.7002 -1.6841  0.0812
 2966SOL     OW20359   1.864   3.884  14.276  0.7317 -0.2243  0.2460
 2966SOL    HW120360   1.811   3.878  14.197  0.8215 -1.1088  0.2514
 2966SOL    HW220361   1.800   3.871  14.346  0.7475  0.4643  0.3851
 2967SOL     OW20362   2.554   0.680   9.692  0.1205 -0.4054  0.1297
 2967SOL    HW120363   2.477   0.692   9.748  1.2962  1.4237  1.3183
 2967SOL    HW220364   2.517   0.619   9.628 -1.5950  2.5886 -1.7471
 2968SOL     OW20365   1.424   0.499   8.166 -0.1266 -0.0796  0.3620
 2968SOL    HW120366   1.481   0.532   8.235 -1.3450  1.1733  0.7693
 2968SOL    HW220367   1.341   0.506   8.214  1.0150  1.7183  2.0575
 2969SOL     OW20368   3.489   0.713   0.328  0.0677  0.4479  0.6393
 2969SOL    HW120369   3.405   0.667   0.332  0.3754 -0.2104 -0.6891
 2969SOL    HW220370   3.539   0.663   0.391  1.6456  0.0113 -0.9593
 2970SOL     OW20371   2.283   0.391   8.094  0.1642  0.0910 -0.1591
 2970SOL    HW120372   2.235   0.308   8.101 -1.5352  1.0834 -0.0664
 2970SOL    HW220373   2.370   0.363   8.066  0.9503  0.6149  1.7812
 2971SOL     OW20374   0.452   3.271  14.401  0.1846 -0.1116  1.0324
 2971SOL    HW120375   0.411   3.340  14.452 -1.7686 -1.9526  1.9312
 2971SOL    HW220376   0.394   3.195  14.392  0.1391 -0.1712  1.9152
 2972SOL     OW20377   3.480   1.144   6.519  0.0502  0.0942 -0.6817
 2972SOL    HW120378   3.459   1.226   6.565  1.2597 -0.0702  0.2001
 2972SOL    HW220379   3.559   1.171   6.471  0.7609  0.9176  0.9251
 2973SOL     OW20380   0.653   0.139   8.774 -0.4450 -0.3895  0.2154
 2973SOL    HW120381   0.619   0.162   8.861  0.0496  1.2238 -0.0166
 2973SOL    HW220382   0.592   0.189   8.719 -1.3154 -0.8060  0.7947
 2974SOL     OW20383   1.417   0.595   9.840 -0.3841  0.2595  0.4873
 2974SOL    HW120384   1.411   0.628   9.929 -1.7485  1.2619  0.0319
 2974SOL    HW220385   1.346   0.644   9.797 -2.1800 -1.6096  1.3105
 2975SOL     OW20386   0.853   2.928   5.744 -0.0812 -0.1759 -0.0928
 2975SOL    HW120387   0.918   2.997   5.730 -2.7480  1.8508 -2.4646
 2975SOL    HW220388   0.875   2.865   5.675 -0.0822 -0.6605  0.3486
 2976SOL     OW20389   3.354   1.203   5.578  0.3013 -0.1125  0.6520
 2976SOL    HW120390   3.434   1.223   5.529 -0.7747  1.0580 -0.6065
 2976SOL    HW220391   3.375   1.248   5.660 -1.3333  1.2469  0.3159
 2977SOL     OW20392   0.538   2.369   5.551  0.2666  0.4166 -0.3194
 2977SOL    HW120393   0.606   2.329   5.605 -0.9781 -0.9520  0.2481
 2977SOL    HW220394   0.513   2.295   5.496  0.5176  0.4326 -0.4551
 2978SOL     OW20395   4.043   0.970   3.904  0.4297 -0.1385  0.1240
 2978SOL    HW120396   4.092   1.039   3.949 -1.4229  0.5473  1.0841
 2978SOL    HW220397   4.095   0.891   3.921  0.6616 -0.2225 -0.9695
 2979SOL     OW20398   3.076   0.104  13.681 -0.0103 -0.4863  0.4245
 2979SOL    HW120399   3.148   0.146  13.636  0.0507 -0.3593  0.6411
 2979SOL    HW220400   3.012   0.170  13.655  0.1072 -0.6028 -0.1579
 2980SOL     OW20401   3.245   1.968   6.337  0.1804 -0.2687  0.4606
 2980SOL    HW120402   3.271   1.885   6.378 -2.3939 -0.6057  1.4453
 2980SOL    HW220403   3.201   1.910   6.275  0.6780 -1.3686  1.1358
 2981SOL     OW20404   0.906   3.528  15.224  0.1850  0.6818  0.2920
 2981SOL    HW120405   0.992   3.564  15.244  0.3761  0.7533 -0.6550
 2981SOL    HW220406   0.916   3.467  15.150 -2.4306  0.8006 -0.1712
 2982SOL     OW20407   1.084   4.665   6.219  0.1065  0.0996  0.1156
 2982SOL    HW120408   1.116   0.017   6.176  1.3835 -0.9211 -0.8138
 2982SOL    HW220409   1.163   4.611   6.218 -0.8999 -1.3202 -3.2199
 2983SOL     OW20410   1.739   0.469   3.340 -0.1045  0.2764 -0.0710
 2983SOL    HW120411   1.769   0.441   3.254 -1.6317 -1.0768 -0.1789
 2983SOL    HW220412   1.716   0.560   3.321 -0.0781 -0.1293 -2.0437
 2984SOL     OW20413   1.339   1.425   7.402  0.4946  0.7568 -0.1324
 2984SOL    HW120414   1.390   1.480   7.341  2.0141  1.2761  1.5946
 2984SOL    HW220415   1.411   1.362   7.411 -1.6284 -1.3365  2.0104
 2985SOL     OW20416   0.736   0.682  12.814  0.5415 -0.5672 -0.3821
 2985SOL    HW120417   0.698   0.735  12.884  0.6694  0.5112 -1.1307
 2985SOL    HW220418   0.659   0.627  12.799  0.2490 -0.2838  0.0941
 2986SOL     OW20419   3.510   0.442   7.483 -0.3503 -0.1493  0.2048
 2986SOL    HW120420   3.516   0.519   7.427 -0.3058 -0.1009  0.2779
 2986SOL    HW220421   3.459   0.472   7.558  0.7646 -0.0847  0.9292
 2987SOL     OW20422   1.384   4.598   2.096  0.0737 -0.0582  0.2666
 2987SOL    HW120423   1.395   4.503   2.095 -0.9666 -0.1759 -0.7982
 2987SOL    HW220424   1.293   4.611   2.123  0.4198 -1.7178  2.2254
 2988SOL     OW20425   0.686   4.300   6.477  0.0746  0.2872 -0.3670
 2988SOL    HW120426   0.736   4.367   6.430 -0.5162  1.3164  0.4772
 2988SOL    HW220427   0.609   4.354   6.493 -0.5076 -0.7862  0.4534
 2989SOL     OW20428   1.427   3.299   5.233  0.1177 -0.3759 -0.8150
 2989SOL    HW120429   1.431   3.338   5.321  0.3817 -0.0590 -0.9719
 2989SOL    HW220430   1.501   3.239   5.232 -0.0758 -0.6927  1.7433
 2990SOL     OW20431   2.132   2.246   1.800 -0.1542 -0.3400 -0.2552
 2990SOL    HW120432   2.155   2.311   1.866 -1.1750  0.0621 -0.3006
 2990SOL    HW220433   2.056   2.280   1.753 -0.4261 -1.7920 -0.8667
 2991SOL     OW20434   0.250   0.984   0.866 -0.1258  0.2665 -0.0313
 2991SOL    HW120435   0.228   0.943   0.782 -2.0524  1.2235  0.0063
 2991SOL    HW220436   0.175   1.044   0.861  1.3433  2.1477  0.4629
 2992SOL     OW20437   4.060   2.152   6.869  0.3172 -0.0110  0.1929
 2992SOL    HW120438   4.096   2.152   6.958  2.3558  0.8219 -0.6294
 2992SOL    HW220439   3.975   2.115   6.891  0.0892  0.9246  0.8578
 2993SOL     OW20440   3.913   3.002   3.697  0.3748  0.0698 -0.1161
 2993SOL    HW120441   3.974   2.954   3.753 -0.4903 -0.9096 -0.0250
 2993SOL    HW220442   3.889   2.930   3.639  1.5817 -0.6458  0.2715
 2994SOL     OW20443   3.316   4.142   5.967 -0.0485 -0.0774  0.3431
 2994SOL    HW120444   3.292   4.213   5.908  0.1662  0.9191  1.4616
 2994SOL    HW220445   3.410   4.133   5.954 -0.2956  0.4288 -1.8028
 2995SOL     OW20446   2.963   1.071  17.652  0.1844  0.3185  0.0630
 2995SOL    HW120447   2.907   1.001  17.618  0.2919 -0.2861  1.1329
 2995SOL    HW220448   2.971   1.030   0.027 -0.0616 -0.5896 -0.3513
 2996SOL     OW20449   1.746   3.301   6.743  0.1732  0.3976 -0.0239
 2996SOL    HW120450   1.791   3.359   6.804 -0.5446  1.0424 -0.1046
 2996SOL    HW220451   1.735   3.219   6.790  0.9686  0.9872  1.1806
 2997SOL     OW20452   4.558   0.628   5.880 -0.4198 -0.6433  0.0284
 2997SOL    HW120453   4.502   0.683   5.935 -1.8130 -0.4571 -1.5664
 2997SOL    HW220454   4.502   0.553   5.864 -0.5720 -0.6254  0.4864
 2998SOL     OW20455   3.982   0.559   2.371  0.1354  0.5584 -0.5746
 2998SOL    HW120456   3.991   0.600   2.285 -2.7585  1.3319 -0.5016
 2998SOL    HW220457   3.898   0.514   2.372  0.2204  0.4915  2.9055
 2999SOL     OW20458   3.948   2.970   7.352  0.1620 -0.1682 -0.0358
 2999SOL    HW120459   3.944   2.997   7.444  1.0145  0.3367 -0.1440
 2999SOL    HW220460   3.883   2.900   7.361  2.6804 -1.8263  5.5625
 3000SOL     OW20461   0.656   1.657  10.700 -0.2988 -0.3643  0.3589
 3000SOL    HW120462   0.623   1.686  10.785 -1.9348  0.0851 -0.4253
 3000SOL    HW220463   0.577   1.608  10.680 -0.0327 -0.8705  0.5428
 3001SOL     OW20464   2.582   4.375  17.019  0.4246 -0.4156  0.1542
 3001SOL    HW120465   2.527   4.445  17.054  2.2789  1.8687 -1.4371
 3001SOL    HW220466   2.658   4.429  16.994  0.7725 -1.4128 -0.9855
 3002SOL     OW20467   4.377   2.945   6.550 -0.0795 -0.2799 -0.0261
 3002SOL    HW120468   4.427   2.878   6.503  0.8790 -0.0951  0.7450
 3002SOL    HW220469   4.433   3.022   6.540  3.0017 -2.7721 -2.1823
 3003SOL     OW20470   1.740   0.300  15.948 -0.0792 -0.8415 -0.0726
 3003SOL    HW120471   1.716   0.209  15.965  0.5864 -1.1597 -0.8106
 3003SOL    HW220472   1.671   0.343  15.999 -0.4296 -1.0477 -0.3790
 3004SOL     OW20473   0.266   1.292   0.669 -0.3207  0.0319 -0.5712
 3004SOL    HW120474   0.355   1.274   0.700  0.3939  1.4632 -1.7671
 3004SOL    HW220475   0.281   1.282   0.575 -0.5456  1.3254 -0.7467
 3005SOL     OW20476   0.033   1.232  12.670  0.2978 -0.5447 -0.2775
 3005SOL    HW120477   0.032   1.173  12.595 -0.9305 -1.9089  0.8251
 3005SOL    HW220478   0.079   1.308  12.635  3.0630 -0.6507  3.1029
 3006SOL     OW20479   4.413   3.286   5.885  0.0254  0.4737  0.0057
 3006SOL    HW120480   4.318   3.294   5.872  0.0669  3.1571  1.2005
 3006SOL    HW220481   4.458   3.325   5.810 -1.0450 -2.0867 -1.9433
 3007SOL     OW20482   2.388   0.884   6.218  0.5865 -0.0809 -0.7424
 3007SOL    HW120483   2.353   0.949   6.157  0.8678  1.2118  0.4684
 3007SOL    HW220484   2.340   0.906   6.298  2.5943  0.6013  0.2903
 3008SOL     OW20485   4.495   3.545   6.114  0.8348  0.2477 -0.6341
 3008SOL    HW120486   4.572   3.538   6.171 -0.6175  1.7105  1.5018
 3008SOL    HW220487   4.460   3.455   6.120 -0.0716  0.6894  0.6707
 3009SOL     OW20488   4.423   1.163   7.428 -0.1211  0.7611  0.0633
 3009SOL    HW120489   4.423   1.132   7.337  1.4363 -1.6191  0.8509
 3009SOL    HW220490   4.447   1.080   7.469 -0.7762 -0.0388 -1.1676
 3010SOL     OW20491   1.531   2.622   8.309  0.0596  0.1164 -0.0436
 3010SOL    HW120492   1.496   2.589   8.391  0.0086 -0.8007 -0.4384
 3010SOL    HW220493   1.514   2.716   8.322 -1.8736 -0.0761 -1.2115
 3011SOL     OW20494   3.297   2.106   8.368 -0.0389 -0.1219  0.1121
 3011SOL    HW120495   3.293   2.023   8.321  1.5453 -0.8317  1.2756
 3011SOL    HW220496   3.388   2.113   8.396 -0.1509  1.3278  0.1350
 3012SOL     OW20497   3.928   4.435  17.405 -0.3335  0.2743  0.1010
 3012SOL    HW120498   3.870   4.366  17.437  1.7100 -0.9969  1.0284
 3012SOL    HW220499   4.011   4.407  17.442 -0.6290  1.7164  1.8713
 3013SOL     OW20500   3.996   4.423  10.451  0.0057 -0.2312  0.3295
 3013SOL    HW120501   4.091   4.415  10.447 -0.5057 -5.6051 -1.3225
 3013SOL    HW220502   3.967   4.332  10.442 -2.1050  0.7486 -2.6305
 3014SOL     OW20503   2.316   3.832  13.789  0.2395  0.2416  0.0892
 3014SOL    HW120504   2.370   3.769  13.837 -2.5256 -2.4242 -0.2716
 3014SOL    HW220505   2.322   3.916  13.835 -0.7490  0.0476  0.5694
 3015SOL     OW20506   2.800   3.460   3.151  0.5186 -0.0749 -0.4447
 3015SOL    HW120507   2.868   3.478   3.086  0.4151 -3.0410 -1.3954
 3015SOL    HW220508   2.725   3.494   3.100  0.1889  0.5724  0.4737
 3016SOL     OW20509   1.460   3.671  15.836  0.1817  0.0347 -0.5116
 3016SOL    HW120510   1.405   3.709  15.768  3.4928  0.8167 -2.7248
 3016SOL    HW220511   1.475   3.585  15.797 -0.0415 -1.0475  1.7447
 3017SOL     OW20512   0.441   0.524   4.373 -0.0763 -0.3405 -0.4893
 3017SOL    HW120513   0.488   0.529   4.290 -0.5328 -1.4106 -0.8069
 3017SOL    HW220514   0.360   0.561   4.339 -1.6494  0.3391  3.9113
 3018SOL     OW20515   1.791   2.087  11.065  0.0049 -0.1769  0.0295
 3018SOL    HW120516   1.795   2.007  11.118 -0.8655  0.7679  1.5304
 3018SOL    HW220517   1.712   2.129  11.099  0.5057  1.6356 -1.0568
 3019SOL     OW20518   2.859   2.736   8.392 -0.5594  0.1074 -0.7127
 3019SOL    HW120519   2.930   2.671   8.387 -1.2936 -0.8156  1.1378
 3019SOL    HW220520   2.796   2.688   8.445  0.3713  0.8736  1.1201
 3020SOL     OW20521   0.149   4.275   4.899  0.2430  0.0166  0.7732
 3020SOL    HW120522   0.178   4.255   4.810  2.2751  0.0513  1.4423
 3020SOL    HW220523   0.071   4.327   4.878  0.1695 -0.5778 -0.4499
 3021SOL     OW20524   0.251   0.732   7.661 -0.1458  0.7063 -0.0705
 3021SOL    HW120525   0.231   0.703   7.750  0.6582  1.7173  0.4315
 3021SOL    HW220526   0.251   0.827   7.668 -0.8603  0.7872 -1.2299
 3022SOL     OW20527   1.924   2.286  14.081  0.1484 -0.1638  0.2129
 3022SOL    HW120528   1.978   2.212  14.108 -1.4953 -1.1710  0.7526
 3022SOL    HW220529   1.838   2.269  14.119  1.2011  2.5647  3.8639
 3023SOL     OW20530   4.490   2.164   4.473 -0.4502  0.7502 -0.1561
 3023SOL    HW120531   4.466   2.256   4.477  1.1445  1.1118  1.1631
 3023SOL    HW220532   4.585   2.177   4.481 -0.5087  1.5051 -0.6736
 3024SOL     OW20533   0.489   1.970   2.573  0.0750  0.6778  0.1433
 3024SOL    HW120534   0.538   2.020   2.508 -3.1657 -0.5315 -3.2804
 3024SOL    HW220535   0.480   1.883   2.532 -0.1177 -0.0579  1.7379
 3025SOL     OW20536   1.281   1.612   0.225  0.3690 -0.6767 -0.0280
 3025SOL    HW120537   1.334   1.542   0.188 -1.1339 -1.2612 -1.0909
 3025SOL    HW220538   1.199   1.575   0.259 -0.9799  0.9427 -1.5288
 3026SOL     OW20539   1.119   0.446   5.885 -0.2101 -0.0951 -0.3925
 3026SOL    HW120540   1.025   0.461   5.874 -0.2474  1.1369  1.7271
 3026SOL    HW220541   1.147   0.475   5.799  0.6189  2.2340  0.6601
 3027SOL     OW20542   3.666   0.794  16.327 -0.3646 -0.0769 -0.1053
 3027SOL    HW120543   3.642   0.704  16.348  0.5608 -0.4111 -0.4442
 3027SOL    HW220544   3.584   0.843  16.325  0.1484  0.7218 -1.6346
 3028SOL     OW20545   0.980   4.073   4.311  0.0926  0.1150  0.0442
 3028SOL    HW120546   1.035   4.015   4.258 -0.5868  1.4906 -2.1282
 3028SOL    HW220547   0.995   4.036   4.398 -1.5353  0.4058  0.4348
 3029SOL     OW20548   3.355   2.280   3.363  0.2085 -0.2058  0.2448
 3029SOL    HW120549   3.424   2.312   3.304  0.8978  0.7241  1.5662
 3029SOL    HW220550   3.284   2.308   3.306  0.4873  0.1081  0.0516
 3030SOL     OW20551   1.614   2.408   6.467  0.7045 -0.2941 -0.3973
 3030SOL    HW120552   1.697   2.404   6.515 -0.6174 -0.8913  1.7862
 3030SOL    HW220553   1.618   2.318   6.435  0.0210 -0.2133 -0.7167
 3031SOL     OW20554   0.171   1.702   5.769 -0.5644 -0.3084  0.1783
 3031SOL    HW120555   0.183   1.789   5.731 -1.2137  0.4945  1.8279
 3031SOL    HW220556   0.231   1.721   5.842 -0.8475 -0.6867  0.5056
 3032SOL     OW20557   4.062   2.149   8.036 -0.4179 -0.0133 -0.1378
 3032SOL    HW120558   3.999   2.149   8.108  0.0377  2.2848  0.2685
 3032SOL    HW220559   4.009   2.200   7.975 -2.2174 -1.2194  0.4346
 3033SOL     OW20560   2.504   1.626   0.546  0.0756  0.3052 -0.2752
 3033SOL    HW120561   2.537   1.691   0.484  0.4200 -1.2128 -1.6725
 3033SOL    HW220562   2.589   1.606   0.586  0.8876  1.3788 -1.4776
 3034SOL     OW20563   4.358   1.891   7.830  0.3690 -0.4009  0.8616
 3034SOL    HW120564   4.323   1.803   7.842  1.1965 -0.8388 -0.0447
 3034SOL    HW220565   4.326   1.937   7.908 -0.2563 -1.4713  1.2361
 3035SOL     OW20566   3.700   0.146   8.339 -0.5284  0.0253  0.4970
 3035SOL    HW120567   3.778   0.169   8.288 -1.1514  1.1331  0.0563
 3035SOL    HW220568   3.665   0.078   8.281  1.2611 -0.0583 -0.4896
 3036SOL     OW20569   2.204   1.210  11.299  0.3892 -0.0990  0.1193
 3036SOL    HW120570   2.196   1.122  11.334  0.0789 -0.1672 -0.1299
 3036SOL    HW220571   2.111   1.216  11.279  0.5514  0.3316 -0.4893
 3037SOL     OW20572   1.020   4.317   9.768 -0.6421 -0.1606 -0.0215
 3037SOL    HW120573   1.042   4.342   9.858 -0.4189  0.0940 -0.1478
 3037SOL    HW220574   0.970   4.396   9.747  0.8031  0.4963 -0.9751
 3038SOL     OW20575   1.779   3.847   1.771 -0.0961  0.1927 -0.2463
 3038SOL    HW120576   1.767   3.928   1.821 -0.0098  0.0462  0.0128
 3038SOL    HW220577   1.849   3.876   1.714 -0.0049  1.6297  0.5887
 3039SOL     OW20578   3.744   3.901   0.109  0.3243 -0.3634  0.0106
 3039SOL    HW120579   3.816   3.850   0.145  0.8638 -0.6995 -1.5738
 3039SOL    HW220580   3.798   3.951   0.049  1.0492 -2.0449 -0.7293
 3040SOL     OW20581   1.452   1.762   0.031  0.1124 -0.6124  0.3776
 3040SOL    HW120582   1.374   1.780  17.690  0.0941  1.3393  1.0981
 3040SOL    HW220583   1.421   1.708   0.103  0.7718  0.6079  1.5680
 3041SOL     OW20584   3.844   1.386   2.393  0.4771 -0.2948  0.1273
 3041SOL    HW120585   3.805   1.305   2.363  0.5637  0.3066 -1.6210
 3041SOL    HW220586   3.841   1.367   2.487 -1.2189 -4.2221 -0.7181
 3042SOL     OW20587   3.926   4.554  15.857  0.8419  0.3169 -0.2846
 3042SOL    HW120588   3.934   4.459  15.845 -0.1061  0.3514 -1.1899
 3042SOL    HW220589   3.832   4.573  15.858  0.6472 -0.5986 -1.2910
 3043SOL     OW20590   0.718   4.030   4.452 -0.2345 -0.3926  0.3150
 3043SOL    HW120591   0.733   4.113   4.497 -0.6527  0.6702 -1.4897
 3043SOL    HW220592   0.796   4.021   4.397 -1.2324 -1.1395 -0.9714
 3044SOL     OW20593   0.688   2.222   5.741  0.8140  0.2210 -0.1811
 3044SOL    HW120594   0.770   2.235   5.788  1.1625  3.3706 -1.6381
 3044SOL    HW220595   0.717   2.153   5.682  1.5048  0.1892  0.2019
 3045SOL     OW20596   2.430   2.838  16.046  0.6556 -0.0575 -0.4037
 3045SOL    HW120597   2.492   2.831  15.974  1.9157  0.2082  0.6640
 3045SOL    HW220598   2.446   2.756  16.093  1.5830  0.5858  0.3986
 3046SOL     OW20599   1.128   3.852   1.382 -0.5486  0.2803 -0.5568
 3046SOL    HW120600   1.137   3.942   1.353  1.2294 -0.2964 -1.7867
 3046SOL    HW220601   1.048   3.844   1.331 -0.9297  0.4088  0.0155
 3047SOL     OW20602   1.132   0.085   5.168  0.2265  0.1279  0.1715
 3047SOL    HW120603   1.043   0.118   5.178  0.8532  2.1904 -1.1500
 3047SOL    HW220604   1.113   4.720   5.150 -1.0176 -0.0453  2.3786
 3048SOL     OW20605   4.463   3.532   4.156  0.1237  0.5345  0.1284
 3048SOL    HW120606   4.545   3.482   4.160 -0.9435 -1.2050  0.3185
 3048SOL    HW220607   4.397   3.463   4.161 -0.7732  1.3105 -0.9873
 3049SOL     OW20608   3.662   2.629   4.132 -0.0052  0.0537  0.0420
 3049SOL    HW120609   3.681   2.680   4.211  1.6997 -1.4161  0.5767
 3049SOL    HW220610   3.567   2.613   4.138 -0.4367  2.3922 -0.7838
 3050SOL     OW20611   3.837   2.386   9.012 -0.0030  0.4964  0.0294
 3050SOL    HW120612   3.895   2.447   9.057  1.7038 -0.3411 -1.0567
 3050SOL    HW220613   3.849   2.413   8.921 -1.1549  1.7128  0.2408
 3051SOL     OW20614   3.958   4.424   8.581  0.4191 -0.1882 -0.3862
 3051SOL    HW120615   4.049   4.413   8.554  1.1509  2.7022  0.8004
 3051SOL    HW220616   3.924   4.488   8.518  0.0440 -1.3470 -1.3456
 3052SOL     OW20617   1.830   4.069   0.379  0.3940  0.5807  0.2083
 3052SOL    HW120618   1.836   4.158   0.414  0.1935 -0.0466  1.8328
 3052SOL    HW220619   1.891   4.032   0.443  1.2149  3.6208  1.2198
 3053SOL     OW20620   2.729   3.986   7.468  0.1564  0.2303 -0.3616
 3053SOL    HW120621   2.752   3.910   7.521 -0.8493  0.3108  0.1838
 3053SOL    HW220622   2.664   3.947   7.409 -0.0528 -0.4223  0.3043
 3054SOL     OW20623   2.731   0.101   2.816  0.2418 -0.2505 -0.2829
 3054SOL    HW120624   2.773   0.141   2.892 -1.0370 -2.6834  1.6952
 3054SOL    HW220625   2.753   0.010   2.839 -1.3984 -0.8123 -0.9043
 3055SOL     OW20626   3.454   1.938   8.040 -0.5167  0.7988  0.7209
 3055SOL    HW120627   3.516   1.967   8.107 -0.8112  1.4292  0.7201
 3055SOL    HW220628   3.497   1.975   7.963  2.1872 -0.4972  1.6213
 3056SOL     OW20629   1.076   4.649   1.985  0.0183  0.2455 -0.1515
 3056SOL    HW120630   1.125   4.694   2.053  1.2809 -0.0853 -0.8514
 3056SOL    HW220631   0.989   4.676   2.014 -0.6356  0.3519 -2.2076
 3057SOL     OW20632   3.769   2.672   3.286 -0.5583 -0.3904  0.2329
 3057SOL    HW120633   3.728   2.725   3.218  0.7705  0.1131 -0.1751
 3057SOL    HW220634   3.852   2.647   3.246 -0.1956  0.6244  0.3364
 3058SOL     OW20635   2.909   4.213   5.193 -0.2145 -0.4050 -0.3832
 3058SOL    HW120636   2.947   4.221   5.105 -0.4748  3.3151 -0.1466
 3058SOL    HW220637   2.971   4.266   5.243 -1.4158  0.0392  0.6369
 3059SOL     OW20638   0.941   0.975   7.255 -0.5772  0.2851 -0.3177
 3059SOL    HW120639   0.856   0.955   7.216  0.3069  1.5145 -2.8656
 3059SOL    HW220640   1.002   0.924   7.203 -1.2847 -1.7406  0.8347
 3060SOL     OW20641   0.557   2.002   6.330 -0.3560 -0.1809  0.1236
 3060SOL    HW120642   0.473   1.961   6.350  0.7891 -0.5877  4.0956
 3060SOL    HW220643   0.519   2.087   6.307  1.5613  1.0170  1.3460
 3061SOL     OW20644   3.202   3.828  16.836 -0.6936  0.4466  0.1453
 3061SOL    HW120645   3.211   3.923  16.842 -1.3368  0.5906 -1.4312
 3061SOL    HW220646   3.271   3.803  16.898  1.6706 -0.6249 -2.9046
 3062SOL     OW20647   3.898   4.495   2.803  0.0676 -0.0960  0.0223
 3062SOL    HW120648   3.958   4.437   2.757 -0.0778 -1.4266  1.5117
 3062SOL    HW220649   3.817   4.479   2.754  0.5234 -0.6519 -0.5429
 3063SOL     OW20650   2.368   3.478   4.312  0.6430 -0.3180 -0.2261
 3063SOL    HW120651   2.332   3.496   4.226 -0.0465  0.9747  0.3287
 3063SOL    HW220652   2.352   3.384   4.328  1.7999  0.0229  3.0536
 3064SOL     OW20653   4.145   4.545   7.324 -0.3412 -0.1968  0.0630
 3064SOL    HW120654   4.119   4.636   7.338  2.8670  0.7999 -0.3216
 3064SOL    HW220655   4.238   4.561   7.309 -0.2884 -1.6188 -1.0496
 3065SOL     OW20656   1.101   0.487  12.580 -0.3064  0.5806 -0.3430
 3065SOL    HW120657   1.189   0.524  12.582  1.2185 -3.0745  0.2840
 3065SOL    HW220658   1.070   0.503  12.669 -3.0002  1.7344 -1.4838
 3066SOL     OW20659   3.187   0.683  11.799  0.0932 -0.2278 -0.3207
 3066SOL    HW120660   3.109   0.714  11.752  0.0111  1.6746  1.0584
 3066SOL    HW220661   3.153   0.598  11.828 -1.6697 -0.4244 -2.8785
 3067SOL     OW20662   3.086   3.816  15.455 -0.5023 -0.4043  0.5703
 3067SOL    HW120663   3.120   3.893  15.408 -0.8851 -0.8416 -0.4323
 3067SOL    HW220664   3.078   3.760  15.377  0.5975 -2.3691  1.8750
 3068SOL     OW20665   2.187   4.127   6.935 -0.1243 -0.7108  0.4242
 3068SOL    HW120666   2.100   4.119   6.895  0.5494 -1.7547 -0.8274
 3068SOL    HW220667   2.171   4.115   7.028 -3.5588  1.1867  0.0823
 3069SOL     OW20668   3.403   3.630   6.121 -0.4340 -0.3251  0.3969
 3069SOL    HW120669   3.417   3.551   6.172 -1.7609  0.7068  2.3569
 3069SOL    HW220670   3.351   3.681   6.183 -1.7187 -0.9798 -0.1359
 3070SOL     OW20671   4.234   3.239  16.626  0.0188 -0.3961  0.1293
 3070SOL    HW120672   4.277   3.182  16.563  1.5665  0.7157  0.1650
 3070SOL    HW220673   4.310   3.271  16.675 -0.9505 -0.2604  1.5355
 3071SOL     OW20674   4.480   2.380  14.006  0.4552 -0.1820 -0.3341
 3071SOL    HW120675   4.451   2.407  14.094  1.4570  0.5163 -0.2166
 3071SOL    HW220676   4.575   2.391  14.008  0.5952 -1.0740 -2.7214
 3072SOL     OW20677   0.178   0.650  15.340 -0.4901  0.1241  0.3021
 3072SOL    HW120678   0.183   0.703  15.261 -0.3504  0.3661  0.4717
 3072SOL    HW220679   0.096   0.603  15.331 -1.3661  1.8638 -0.8316
 3073SOL     OW20680   1.363   4.329   9.098 -0.2774 -0.1530  0.1891
 3073SOL    HW120681   1.419   4.251   9.095 -1.3297 -0.8842 -0.2451
 3073SOL    HW220682   1.403   4.368   9.176  0.2266  0.3573 -0.3216
 3074SOL     OW20683   1.798   0.823   8.240  0.0152 -0.3558 -0.8708
 3074SOL    HW120684   1.731   0.892   8.234 -0.5752 -0.9552 -1.1284
 3074SOL    HW220685   1.771   0.764   8.170 -1.3677  1.4692 -1.9032
 3075SOL     OW20686   4.142   4.606   5.823 -0.3016  0.1149 -0.4861
 3075SOL    HW120687   4.138   4.701   5.817  0.4053  0.0493 -1.9870
 3075SOL    HW220688   4.071   4.572   5.768  0.4429  1.4331 -2.2592
 3076SOL     OW20689   1.715   2.550   4.658  0.0137 -0.1565 -0.0190
 3076SOL    HW120690   1.810   2.561   4.665 -0.0998  1.4102 -0.8532
 3076SOL    HW220691   1.706   2.583   4.568 -1.6705  0.6099  0.4321
 3077SOL     OW20692   0.214   3.326   7.305 -0.3554  0.1898  0.1926
 3077SOL    HW120693   0.189   3.417   7.319 -1.9187 -0.1176 -0.6322
 3077SOL    HW220694   0.242   3.313   7.396  0.7459 -0.5041 -0.2384
 3078SOL     OW20695   3.066   3.397   6.270  0.2797 -0.2042  0.3315
 3078SOL    HW120696   3.117   3.318   6.252  2.6466  1.3822  0.1048
 3078SOL    HW220697   2.984   3.373   6.226  0.8129 -0.8040 -0.3469
 3079SOL     OW20698   0.528   1.918  10.606 -0.0497  0.3069  0.0501
 3079SOL    HW120699   0.480   1.856  10.551 -0.2327  2.0683 -1.8004
 3079SOL    HW220700   0.547   1.876  10.690 -0.5210 -1.5409 -0.7533
 3080SOL     OW20701   1.533   3.834   6.402  0.0209  0.2404 -0.0012
 3080SOL    HW120702   1.512   3.762   6.463  2.3287  0.1264  0.6970
 3080SOL    HW220703   1.622   3.855   6.432 -0.2528 -0.5552  1.4032
 3081SOL     OW20704   1.708   3.732   8.866  0.1396  0.1168 -0.2383
 3081SOL    HW120705   1.673   3.821   8.871  2.5633  1.0446  0.4889
 3081SOL    HW220706   1.727   3.715   8.774 -1.5421  2.5163 -1.0038
 3082SOL     OW20707   4.238   2.785   1.876  0.4655 -0.8157 -0.1086
 3082SOL    HW120708   4.291   2.706   1.887  1.0750 -0.4234 -0.2542
 3082SOL    HW220709   4.222   2.794   1.782  2.5578 -1.7543 -0.5404
 3083SOL     OW20710   1.483   3.423   9.873 -0.3557 -0.3216  0.5108
 3083SOL    HW120711   1.480   3.404   9.966 -2.3247  1.0167  0.7410
 3083SOL    HW220712   1.390   3.429   9.851 -0.4180 -0.1692  0.8203
 3084SOL     OW20713   4.331   3.026   0.525  0.3039  0.1516 -0.5189
 3084SOL    HW120714   4.380   2.993   0.600 -1.0716 -1.1256 -0.1707
 3084SOL    HW220715   4.306   3.116   0.547 -0.4199 -0.3971  0.9516
 3085SOL     OW20716   1.093   0.573   7.304  0.3303 -0.2104  0.6766
 3085SOL    HW120717   1.110   0.644   7.365 -1.5992 -0.3543  1.3977
 3085SOL    HW220718   1.039   0.511   7.353  0.0510  0.0055  0.6475
 3086SOL     OW20719   3.356   3.064   5.015 -0.1426  0.7997 -0.3138
 3086SOL    HW120720   3.357   3.109   4.931 -2.1648  1.7786  0.1979
 3086SOL    HW220721   3.426   3.116   5.053  0.4435  0.0630 -0.3730
 3087SOL     OW20722   4.174   0.625   5.268 -0.2216 -0.0131  0.6433
 3087SOL    HW120723   4.121   0.694   5.309 -2.3051 -0.3477 -1.4710
 3087SOL    HW220724   4.138   0.558   5.327  0.2349 -0.1498  0.7676
 3088SOL     OW20725   3.466   0.932  10.215 -0.3200  0.5815  0.1945
 3088SOL    HW120726   3.491   0.884  10.136  2.9644 -1.7863  2.6565
 3088SOL    HW220727   3.449   0.850  10.260  0.8013  1.0918  1.5465
 3089SOL     OW20728   3.097   0.471   6.794  0.2547  1.0145 -0.3962
 3089SOL    HW120729   3.159   0.511   6.734  0.5974  2.1090  0.6891
 3089SOL    HW220730   3.145   0.388   6.795 -3.5558 -1.1514  1.9795
 3090SOL     OW20731   1.565   0.969  13.099  0.3472 -0.1849 -0.2081
 3090SOL    HW120732   1.654   0.966  13.134  0.2072 -0.6425  0.0919
 3090SOL    HW220733   1.581   0.940  13.009  2.3794 -1.4214  0.5585
 3091SOL     OW20734   0.504   2.373   8.039  0.5427 -0.0348 -0.7852
 3091SOL    HW120735   0.449   2.410   8.109  0.8064 -1.0352 -0.0557
 3091SOL    HW220736   0.452   2.377   7.959  0.0370 -2.6809 -0.5654
 3092SOL     OW20737   3.007   3.110   9.486  0.0126  0.6894  0.0966
 3092SOL    HW120738   3.063   3.186   9.503 -2.0651  2.1322  0.4767
 3092SOL    HW220739   3.041   3.089   9.400 -1.6072 -0.2712 -0.3073
 3093SOL     OW20740   1.051   2.748   3.244  0.7161  0.4407  0.2312
 3093SOL    HW120741   1.062   2.654   3.253 -0.4921  0.3104  0.3267
 3093SOL    HW220742   0.975   2.773   3.296 -0.4317  0.3153 -1.3897
 3094SOL     OW20743   2.437   1.953   1.441  0.8700  0.3363  0.3098
 3094SOL    HW120744   2.407   2.007   1.515  1.0936 -1.7777  1.9186
 3094SOL    HW220745   2.380   1.983   1.370  1.9772  0.6871 -0.4312
 3095SOL     OW20746   1.855   3.065   8.833  0.2099  0.2712 -0.1802
 3095SOL    HW120747   1.926   3.003   8.848 -1.1533 -1.4064 -0.7104
 3095SOL    HW220748   1.899   3.149   8.818  0.1598  0.5154  1.0056
 3096SOL     OW20749   4.600   4.709   4.976  0.1395  0.5515 -0.1202
 3096SOL    HW120750   4.648   4.725   5.058  1.4527  0.0315 -0.7943
 3096SOL    HW220751   4.584   0.072   4.952  0.1769  0.4659 -0.4616
 3097SOL     OW20752   0.055   1.141  15.120  0.2404  0.1768  0.2361
 3097SOL    HW120753   0.085   1.202  15.053 -1.3223 -0.0208 -0.6493
 3097SOL    HW220754   0.106   1.067  15.087  0.1135 -0.5305  1.6276
 3098SOL     OW20755   1.374   0.833   3.053  0.2590  0.1299  0.0771
 3098SOL    HW120756   1.446   0.772   3.038  2.2470  2.3614  0.5477
 3098SOL    HW220757   1.346   0.810   3.141 -0.2730 -1.2029 -0.4533
 3099SOL     OW20758   0.609   2.698   8.795  0.4245 -0.1292  0.3818
 3099SOL    HW120759   0.631   2.655   8.878  1.7251 -0.3900 -0.1057
 3099SOL    HW220760   0.622   2.789   8.823  1.3829 -0.4252  0.8831
 3100SOL     OW20761   1.756   4.483   5.219 -0.6159  0.8321 -0.4384
 3100SOL    HW120762   1.739   4.426   5.144  0.9356  1.7678 -1.4778
 3100SOL    HW220763   1.832   4.531   5.187  0.9260  0.8297  3.1977
 3101SOL     OW20764   1.334   3.952   5.776 -0.1674 -0.4515 -0.1175
 3101SOL    HW120765   1.362   4.020   5.715  0.9053 -1.4798 -0.7769
 3101SOL    HW220766   1.292   4.014   5.835  1.2420  1.7239 -1.4160
 3102SOL     OW20767   0.631   0.352  10.647 -0.4981  0.0147 -0.5318
 3102SOL    HW120768   0.664   0.344  10.558  0.5333  0.5859 -0.1971
 3102SOL    HW220769   0.713   0.372  10.692 -1.9613  3.2790  0.7460
 3103SOL     OW20770   0.085   3.812   7.894 -0.4509 -0.6233  0.0310
 3103SOL    HW120771   0.055   3.901   7.914  0.4949 -0.3639  0.3198
 3103SOL    HW220772   0.051   3.807   7.804  1.7910 -1.9215 -0.7499
 3104SOL     OW20773   2.613   1.238   9.035  0.4616 -0.2328  0.2771
 3104SOL    HW120774   2.622   1.162   9.092 -2.1340  0.3846  1.4996
 3104SOL    HW220775   2.654   1.304   9.091  0.4774 -0.9498  1.1060
 3105SOL     OW20776   1.163   0.860   5.317 -0.6451  0.2621  0.8710
 3105SOL    HW120777   1.230   0.835   5.381  1.4618 -2.7696 -2.4916
 3105SOL    HW220778   1.098   0.854   5.387  0.1957  1.5803  1.7761
 3106SOL     OW20779   4.098   0.926   8.165  0.5549 -0.7572 -0.1235
 3106SOL    HW120780   4.178   0.973   8.188 -0.3342 -0.1002  1.6252
 3106SOL    HW220781   4.064   0.925   8.254  0.2502 -0.3508 -0.2356
 3107SOL     OW20782   1.264   3.117  10.555  0.2518 -0.3339  0.0714
 3107SOL    HW120783   1.331   3.153  10.497 -1.6125  0.5677 -1.5142
 3107SOL    HW220784   1.256   3.033  10.509 -1.2187 -0.3873  0.4205
 3108SOL     OW20785   3.945   1.396   6.459  0.0138 -0.2314 -1.0177
 3108SOL    HW120786   3.951   1.385   6.554  1.1242 -0.9913 -1.1837
 3108SOL    HW220787   3.989   1.479   6.439 -0.9473  0.8924  1.5024
 3109SOL     OW20788   1.854   1.917   9.635  0.1788 -0.1593 -0.2515
 3109SOL    HW120789   1.949   1.906   9.634  0.3944  1.4716  1.4387
 3109SOL    HW220790   1.837   1.830   9.600  2.3419  0.8474 -3.7986
 3110SOL     OW20791   4.023   4.154   3.478  0.6645 -0.5841 -0.2153
 3110SOL    HW120792   3.936   4.135   3.513  0.5481  1.5910  0.6819
 3110SOL    HW220793   4.060   4.066   3.472  2.4738  0.1664 -0.0293
 3111SOL     OW20794   3.004   2.918  10.860  0.2641 -0.2553  0.6806
 3111SOL    HW120795   3.001   2.841  10.918 -1.2778 -1.0825 -0.5175
 3111SOL    HW220796   3.031   2.870  10.782  1.9063 -0.2088  1.2059
 3112SOL     OW20797   3.019   0.386   8.231 -0.6297 -0.4380 -0.5694
 3112SOL    HW120798   3.060   0.348   8.309  1.9207 -1.0515 -2.2110
 3112SOL    HW220799   2.965   0.449   8.278 -0.2122  0.0463 -0.7372
 3113SOL     OW20800   3.544   0.014  17.297 -0.2200 -0.0002  0.6469
 3113SOL    HW120801   3.568   0.106  17.310 -2.4869  0.5433  0.8845
 3113SOL    HW220802   3.451   0.023  17.275 -1.0778 -0.2276  4.2289
 3114SOL     OW20803   2.730   3.754   9.086 -0.8794 -0.2141  0.4833
 3114SOL    HW120804   2.700   3.836   9.046  2.0110  0.2088 -0.8216
 3114SOL    HW220805   2.778   3.799   9.156  1.4674 -0.2999 -1.0766
 3115SOL     OW20806   3.961   3.860  16.882 -0.0453  0.2791  0.0719
 3115SOL    HW120807   4.032   3.802  16.854  0.5620  0.5360  1.0642
 3115SOL    HW220808   3.956   3.915  16.805 -1.3619  0.1396  0.0524
 3116SOL     OW20809   0.865   4.540   7.273 -0.2924 -0.3708  0.1339
 3116SOL    HW120810   0.873   4.604   7.202  0.0472  0.4406  0.9079
 3116SOL    HW220811   0.929   4.484   7.230  0.8013  1.5991 -0.7916
 3117SOL     OW20812   3.599   1.892  12.970  0.2596  0.6669 -0.3128
 3117SOL    HW120813   3.587   1.888  13.065 -3.3367  1.8854 -0.7115
 3117SOL    HW220814   3.603   1.987  12.959 -0.4608  0.7372  0.0098
 3118SOL     OW20815   3.200   2.461  12.120  0.0074  0.1499  0.5015
 3118SOL    HW120816   3.285   2.455  12.164  0.3830  1.3821 -0.0428
 3118SOL    HW220817   3.176   2.371  12.140  0.6829  0.2141  1.6094
 3119SOL     OW20818   2.323   1.823   1.777  0.3602  0.2629  0.1833
 3119SOL    HW120819   2.348   1.901   1.727  0.5033  0.6199  0.8203
 3119SOL    HW220820   2.389   1.819   1.845  1.2690  0.8094 -0.6697
 3120SOL     OW20821   3.118   1.747   3.234  0.5043  0.4796 -0.5930
 3120SOL    HW120822   3.157   1.788   3.311 -0.6256 -0.0012  0.2349
 3120SOL    HW220823   3.165   1.784   3.159  3.4391 -0.4485  0.8380
 3121SOL     OW20824   0.337   0.736   0.935 -0.2083  0.4565  0.0075
 3121SOL    HW120825   0.412   0.749   0.992 -0.1772  1.0409 -0.1604
 3121SOL    HW220826   0.295   0.821   0.952  3.6552  2.1266  1.0894
 3122SOL     OW20827   3.472   4.168  12.894 -0.4490  0.0292 -0.0132
 3122SOL    HW120828   3.455   4.213  12.977  1.3901  3.0348 -1.2438
 3122SOL    HW220829   3.435   4.230  12.832  0.6345 -0.0370 -0.7152
 3123SOL     OW20830   4.072   1.485   2.605 -0.1396 -0.5990  0.0740
 3123SOL    HW120831   4.139   1.427   2.569  1.8199  0.6115  1.8337
 3123SOL    HW220832   4.084   1.563   2.551  1.2327 -0.8587  0.0090
 3124SOL     OW20833   0.342   2.459   6.399  0.1533 -0.1175 -0.1724
 3124SOL    HW120834   0.329   2.520   6.326  0.3091  0.6388  0.4397
 3124SOL    HW220835   0.269   2.480   6.457  0.1760  1.1206 -0.6010
 3125SOL     OW20836   3.127   3.153  13.126  0.6155 -0.3029 -0.4313
 3125SOL    HW120837   3.129   3.172  13.220 -0.3060 -0.1669 -0.4359
 3125SOL    HW220838   3.048   3.100  13.121  1.1274 -1.3175  1.9614
 3126SOL     OW20839   0.441   4.272  15.099  0.1504 -0.1119  0.7296
 3126SOL    HW120840   0.510   4.333  15.073 -0.5941 -0.0557 -1.1130
 3126SOL    HW220841   0.492   4.222  15.163 -0.8331 -0.3343  1.3550
 3127SOL     OW20842   0.952   2.192   7.576  0.4084  0.4982  0.2696
 3127SOL    HW120843   0.964   2.273   7.526 -0.6430  0.9131  0.6733
 3127SOL    HW220844   1.005   2.132   7.524  1.5931  0.5683  1.3940
 3128SOL     OW20845   1.409   1.988   5.528 -0.1223  0.3398 -0.3348
 3128SOL    HW120846   1.376   2.046   5.459  0.7488 -1.3018 -2.1293
 3128SOL    HW220847   1.475   1.937   5.481  2.1344  1.1692  1.9226
 3129SOL     OW20848   0.050   0.556  12.965  0.1943  0.1598  0.0430
 3129SOL    HW120849   0.114   0.485  12.974  1.4517  1.2771 -0.0454
 3129SOL    HW220850   4.725   0.550  13.045 -0.0769 -1.2098 -0.2409
 3130SOL     OW20851   4.267   4.608   4.074  0.0845 -0.4201  0.5807
 3130SOL    HW120852   4.258   4.645   3.986  0.7113  1.0725  1.1443
 3130SOL    HW220853   4.321   4.531   4.056 -0.8267 -0.8432 -0.3482
 3131SOL     OW20854   1.880   2.507  10.556  0.8320  0.4550 -0.4566
 3131SOL    HW120855   1.815   2.555  10.505  1.4947  2.0191  0.1651
 3131SOL    HW220856   1.919   2.456  10.485  0.3994  0.8902 -1.0008
 3132SOL     OW20857   4.582   1.573   0.945 -0.2011  0.1687  0.9466
 3132SOL    HW120858   4.580   1.496   0.888 -1.4334 -0.3760  1.7087
 3132SOL    HW220859   4.572   1.650   0.889  1.5971 -0.0980  0.2782
 3133SOL     OW20860   2.380   4.349   3.184  0.0077  0.1791 -0.0340
 3133SOL    HW120861   2.373   4.305   3.099  0.6496  1.5376 -0.7919
 3133SOL    HW220862   2.451   4.297   3.221 -1.0025  0.0046  1.6609
 3134SOL     OW20863   3.592   0.742   9.035  0.3746 -0.5178  0.2094
 3134SOL    HW120864   3.580   0.790   8.953  1.6476 -0.2923  0.1589
 3134SOL    HW220865   3.510   0.695   9.053 -0.1981  0.2058 -0.5348
 3135SOL     OW20866   3.188   4.392  11.392  0.2752 -0.3442  0.4127
 3135SOL    HW120867   3.262   4.442  11.357 -0.8320  0.6030 -0.5655
 3135SOL    HW220868   3.229   4.347  11.466  1.1800 -1.7520 -0.9554
 3136SOL     OW20869   3.143   0.704   4.044  0.1082  0.7968 -0.4597
 3136SOL    HW120870   3.210   0.734   4.105  0.5043  1.4292 -1.2057
 3136SOL    HW220871   3.200   0.669   3.976  0.3475  0.1289  0.0799
 3137SOL     OW20872   2.458   4.032  10.142  0.2345 -0.0374 -0.1672
 3137SOL    HW120873   2.501   3.950  10.116 -1.2036 -0.7101 -0.4896
 3137SOL    HW220874   2.516   4.044  10.216  0.4861  2.4700 -0.7864
 3138SOL     OW20875   3.103   2.591   8.309 -0.2043  0.0169 -0.3073
 3138SOL    HW120876   3.065   2.570   8.223 -0.2202  2.8002 -0.9975
 3138SOL    HW220877   3.181   2.536   8.305  1.3733  2.3707 -2.0557
 3139SOL     OW20878   2.771   1.936   1.457  0.2446 -0.1609  0.0720
 3139SOL    HW120879   2.679   1.951   1.436  0.7974  0.9440 -1.5880
 3139SOL    HW220880   2.772   1.913   1.550 -1.6106  3.0425  0.8808
 3140SOL     OW20881   2.092   2.808   6.257  0.4024 -0.2776 -0.2913
 3140SOL    HW120882   2.064   2.727   6.214  0.3858  0.9623 -2.5608
 3140SOL    HW220883   2.184   2.796   6.233  1.3034  1.7731  2.0801
 3141SOL     OW20884   4.446   4.439   1.560  0.2268  0.1011  0.4342
 3141SOL    HW120885   4.461   4.532   1.578  0.5112  0.0235  0.6046
 3141SOL    HW220886   4.476   4.435   1.470 -1.8133  0.6316 -0.2576
 3142SOL     OW20887   3.379   4.275  13.175 -0.0142 -0.2646  0.0714
 3142SOL    HW120888   3.294   4.231  13.181 -0.7195  1.1370  0.2566
 3142SOL    HW220889   3.387   4.309  13.265  0.6252  0.4628 -0.2569
 3143SOL     OW20890   0.192   4.153   4.629  0.3550  0.0260  0.1280
 3143SOL    HW120891   0.105   4.181   4.601  0.8013  0.4512 -0.8268
 3143SOL    HW220892   0.183   4.061   4.654  1.8903 -0.1561  0.0447
 3144SOL     OW20893   2.594   0.167   3.961  0.1649 -0.8284 -0.8285
 3144SOL    HW120894   2.603   0.242   4.020 -2.3322 -1.6939  0.6902
 3144SOL    HW220895   2.629   0.094   4.012  1.1643 -0.1033 -0.4826
 3145SOL     OW20896   2.449   1.546   5.710 -0.2628 -0.1868  0.4134
 3145SOL    HW120897   2.386   1.607   5.672  1.1497  2.3244  2.0896
 3145SOL    HW220898   2.405   1.464   5.732 -0.2791 -0.4265 -0.4986
 3146SOL     OW20899   2.287   2.197   7.547  0.2877  0.4268 -0.0197
 3146SOL    HW120900   2.227   2.221   7.476 -0.9944  0.7236  1.1644
 3146SOL    HW220901   2.316   2.110   7.519 -2.1365  0.1139 -1.5617
 3147SOL     OW20902   0.755   1.155   0.133 -0.9428 -0.0902 -0.3403
 3147SOL    HW120903   0.784   1.069   0.163 -0.1788  0.6283  0.9722
 3147SOL    HW220904   0.835   1.206   0.148 -0.2770 -0.7529 -1.6502
 3148SOL     OW20905   4.610   0.565   7.123 -0.1842  0.3174 -0.7825
 3148SOL    HW120906   4.642   0.585   7.211  0.7511  2.6503 -1.6355
 3148SOL    HW220907   4.598   0.471   7.118 -1.4549  0.4690 -0.5004
 3149SOL     OW20908   0.811   3.317   4.183  0.7023 -0.4119 -0.1206
 3149SOL    HW120909   0.783   3.333   4.273 -1.5770 -1.5832 -0.6097
 3149SOL    HW220910   0.728   3.313   4.135  0.0115  0.7839  0.9707
 3150SOL     OW20911   0.948   0.188   8.179  0.1972 -0.3061  0.2310
 3150SOL    HW120912   0.993   0.201   8.262 -1.5889  1.2156  0.9807
 3150SOL    HW220913   0.891   0.265   8.177 -0.1786 -0.6175 -1.0813
 3151SOL     OW20914   3.999   3.388   9.070 -0.1375 -0.2396 -0.1726
 3151SOL    HW120915   4.003   3.465   9.014 -0.5334 -0.3680 -0.3780
 3151SOL    HW220916   3.904   3.380   9.074 -0.0388 -1.5347 -0.4095
 3152SOL     OW20917   3.399   2.537   3.011  0.3062 -0.1151  0.7951
 3152SOL    HW120918   3.373   2.629   3.012 -0.0002 -0.1693 -1.1136
 3152SOL    HW220919   3.384   2.517   2.918 -0.8521 -0.4902  1.0771
 3153SOL     OW20920   1.839   0.056  10.423 -0.0842  0.1617  0.2378
 3153SOL    HW120921   1.815   4.704  10.471  0.4293  0.3984  0.8932
 3153SOL    HW220922   1.754   0.097  10.407 -0.6165 -1.4213 -0.9125
 3154SOL     OW20923   2.432   3.372   7.858 -0.4986 -0.3090  0.0171
 3154SOL    HW120924   2.466   3.390   7.945 -1.3187  0.2315  0.2203
 3154SOL    HW220925   2.371   3.302   7.883 -2.5512  1.0713 -1.1623
 3155SOL     OW20926   0.946   3.375   0.057  0.4410 -0.5670  0.1110
 3155SOL    HW120927   0.859   3.372   0.097  0.6818 -1.5101  0.5642
 3155SOL    HW220928   0.958   3.282   0.038 -1.0417 -0.4743 -1.2526
 3156SOL     OW20929   4.694   2.549   3.255  0.4182 -0.2076  0.1660
 3156SOL    HW120930   4.617   2.601   3.279  0.9967  1.0708 -0.7060
 3156SOL    HW220931   4.698   2.565   3.160  0.0826 -1.6149 -0.0826
 3157SOL     OW20932   3.693   4.316   6.137 -0.2200  0.1033  0.7029
 3157SOL    HW120933   3.735   4.249   6.083 -0.9255  0.9238 -0.8809
 3157SOL    HW220934   3.616   4.347   6.089 -0.0730 -0.8118 -0.1271
 3158SOL     OW20935   1.091   0.790   8.978 -0.1908 -0.0251 -0.6133
 3158SOL    HW120936   1.142   0.715   9.009  1.5403  1.7050  0.7191
 3158SOL    HW220937   1.044   0.809   9.059  0.3303 -0.2357 -0.2610
 3159SOL     OW20938   1.665   1.327   7.778  0.3466 -0.2205 -0.8663
 3159SOL    HW120939   1.731   1.258   7.773  1.5395  0.7804  0.8743
 3159SOL    HW220940   1.599   1.279   7.827  1.1627 -0.0697  0.3901
 3160SOL     OW20941   2.725   3.469   3.427  0.2023  0.0329 -0.2637
 3160SOL    HW120942   2.675   3.393   3.457 -3.5419  2.5311 -0.1254
 3160SOL    HW220943   2.742   3.443   3.337 -0.3658  1.6349 -0.8294
 3161SOL     OW20944   4.554   0.444   0.464  0.0602  0.3143 -0.0663
 3161SOL    HW120945   4.633   0.491   0.435  0.9003 -0.2780  1.2583
 3161SOL    HW220946   4.569   0.435   0.558  0.2367  0.0886 -0.1169
 3162SOL     OW20947   1.032   0.502   9.189  0.4028  0.1349 -0.5591
 3162SOL    HW120948   1.126   0.514   9.207 -0.0040  0.2401  1.4361
 3162SOL    HW220949   1.020   0.452   9.108 -1.0373 -0.6365  0.1307
 3163SOL     OW20950   3.360   2.908   7.017 -0.0847 -0.1292  0.3928
 3163SOL    HW120951   3.414   2.903   7.096 -2.5408 -1.9264  1.9462
 3163SOL    HW220952   3.404   2.851   6.954  1.5735  3.6669 -1.8907
 3164SOL     OW20953   4.296   3.266   7.425 -0.6700 -0.2296  0.0728
 3164SOL    HW120954   4.279   3.196   7.362  0.2403 -0.0576 -0.3532
 3164SOL    HW220955   4.390   3.279   7.425 -0.9793  2.0485  1.9851
 3165SOL     OW20956   4.595   2.524  10.251 -0.5315 -0.6461  0.0147
 3165SOL    HW120957   4.612   2.603  10.200 -1.7254 -1.3707 -1.4949
 3165SOL    HW220958   4.663   2.538  10.317  0.3202  0.9628 -1.2029
 3166SOL     OW20959   2.141   1.470   9.129 -0.1485 -0.8872 -0.1938
 3166SOL    HW120960   2.058   1.494   9.169  0.1577  0.9778 -0.6707
 3166SOL    HW220961   2.182   1.531   9.191 -1.9205 -0.6797  0.7783
 3167SOL     OW20962   4.710   3.049   7.588  0.2979 -0.2765  0.4782
 3167SOL    HW120963   4.660   3.085   7.515  1.1652 -0.9671 -0.4500
 3167SOL    HW220964   4.663   2.969   7.612  1.2502 -0.9530  0.0771
 3168SOL     OW20965   1.495   2.384   1.634  0.6350 -0.9010  0.3557
 3168SOL    HW120966   1.558   2.449   1.602 -0.8721  0.6222  0.4836
 3168SOL    HW220967   1.535   2.298   1.623  1.5027 -0.4803  0.1720
 3169SOL     OW20968   3.379   1.912   6.712  0.6179  0.5846  0.6995
 3169SOL    HW120969   3.396   1.835   6.659 -2.1318  0.8937 -0.6612
 3169SOL    HW220970   3.373   1.863   6.793  0.9559  0.5409  0.6973
 3170SOL     OW20971   2.087   3.845  13.581 -0.2852 -0.0176 -0.3667
 3170SOL    HW120972   2.149   3.824  13.652 -1.3402 -1.3205  0.1754
 3170SOL    HW220973   2.119   3.916  13.527  0.4778 -1.7494 -2.1913
 3171SOL     OW20974   0.205   1.464  16.028 -0.3754  0.2154 -0.2781
 3171SOL    HW120975   0.171   1.467  15.939  0.4852  0.9459 -0.5774
 3171SOL    HW220976   0.207   1.370  16.047 -0.0059  0.3546  0.3689
 3172SOL     OW20977   2.435   0.596   2.013  0.3714  0.0234  0.3525
 3172SOL    HW120978   2.485   0.663   2.059 -1.6274  0.1290  2.3735
 3172SOL    HW220979   2.407   0.645   1.936  1.3953  0.7913  0.4707
 3173SOL     OW20980   2.001   3.414   7.466  0.4172  0.5203 -0.6178
 3173SOL    HW120981   1.920   3.429   7.416  1.1090 -0.7963 -2.1057
 3173SOL    HW220982   1.964   3.374   7.545  3.0030  0.2915  0.4705
 3174SOL     OW20983   4.530   3.421  13.715  0.1422 -0.0242  0.3748
 3174SOL    HW120984   4.624   3.403  13.725  0.0639  0.0350  1.1800
 3174SOL    HW220985   4.501   3.435  13.805 -1.2856  0.8302 -0.2242
 3175SOL     OW20986   1.389   4.687   3.684  1.0129  0.2088  0.1181
 3175SOL    HW120987   1.413   4.690   3.591  0.6338  1.7041  0.0741
 3175SOL    HW220988   1.453   0.009   3.734 -0.7882  1.3666  1.2990
 3176SOL     OW20989   1.969   4.516   2.318 -0.2484 -0.2505 -0.0211
 3176SOL    HW120990   2.011   4.431   2.330  0.4658  0.0829 -0.1834
 3176SOL    HW220991   1.886   4.503   2.365 -0.0788 -1.7017 -0.1209
 3177SOL     OW20992   3.034   2.194   3.882 -0.5647 -0.0550 -0.1532
 3177SOL    HW120993   3.064   2.158   3.798 -2.1978 -1.7041 -0.0350
 3177SOL    HW220994   3.010   2.285   3.866  1.7307  0.5510 -0.1676
 3178SOL     OW20995   3.554   2.178   5.848 -0.2277 -0.3659  0.1683
 3178SOL    HW120996   3.578   2.088   5.828  2.0722  0.3387 -0.1690
 3178SOL    HW220997   3.532   2.177   5.942 -1.3224  2.2401 -0.0571
 3179SOL     OW20998   2.158   1.839  15.164 -0.1478  0.0642 -0.5656
 3179SOL    HW120999   2.142   1.815  15.073  0.7879 -2.8363  0.0614
 3179SOL    HW221000   2.167   1.760  15.216  0.2492  0.5098  0.0478
 3180SOL     OW21001   1.198   4.468  11.674  0.2256  0.0472 -0.5073
 3180SOL    HW121002   1.253   4.487  11.598  2.1403 -1.1943  0.5597
 3180SOL    HW221003   1.176   4.558  11.700  0.3087  0.2619 -1.1872
 3181SOL     OW21004   2.396   2.952   5.100  0.5002 -0.1682 -0.1184
 3181SOL    HW121005   2.305   2.929   5.119  0.6227 -1.0818 -0.6167
 3181SOL    HW221006   2.382   3.013   5.027 -0.4645 -2.3398 -1.7459
 3182SOL     OW21007   1.504   1.981  11.208  0.0926 -0.2758 -0.2171
 3182SOL    HW121008   1.564   1.958  11.279 -1.0205 -0.8994  0.5245
 3182SOL    HW221009   1.424   1.961  11.257 -1.5310  2.0479 -1.9293
 3183SOL     OW21010   1.616   3.006   2.201 -0.5602 -0.4468  0.5484
 3183SOL    HW121011   1.669   3.086   2.210  1.0027 -1.5287  0.9989
 3183SOL    HW221012   1.595   3.007   2.107  3.2357  1.1600 -0.2944
 3184SOL     OW21013   2.860   2.141   2.239 -0.0134 -0.1428  0.1243
 3184SOL    HW121014   2.930   2.108   2.295 -0.4078  1.0649  1.3178
 3184SOL    HW221015   2.900   2.208   2.183  0.9992 -1.7592 -1.0780
 3185SOL     OW21016   3.420   1.845   2.387 -0.2663 -0.0860 -0.0027
 3185SOL    HW121017   3.494   1.787   2.371  0.2620  0.4977  0.3578
 3185SOL    HW221018   3.390   1.858   2.297  2.2841  0.9256 -0.7000
 3186SOL     OW21019   4.673   4.649   5.946  0.4257 -0.1077 -0.2939
 3186SOL    HW121020   0.002   4.575   5.970  0.0138 -0.0361  0.9240
 3186SOL    HW221021   4.589   4.624   5.985  0.5478 -0.7951 -0.4570
 3187SOL     OW21022   1.528   1.182   2.254 -0.3069 -0.2769  0.1142
 3187SOL    HW121023   1.576   1.259   2.286 -2.4048  2.0730 -2.4424
 3187SOL    HW221024   1.596   1.115   2.263 -1.0159 -1.0281 -0.0434
 3188SOL     OW21025   3.874   4.196   2.311  0.4817 -0.2048 -0.0564
 3188SOL    HW121026   3.843   4.199   2.402  3.9945 -1.3280  1.1954
 3188SOL    HW221027   3.875   4.291   2.297  0.5671 -0.0705  0.8553
 3189SOL     OW21028   1.177   2.721   2.687  0.4925  0.2785 -0.2790
 3189SOL    HW121029   1.190   2.771   2.606  1.0926 -0.9779 -0.9683
 3189SOL    HW221030   1.247   2.656   2.676 -0.2921 -0.5753 -0.2116
 3190SOL     OW21031   2.685   2.861  14.688  0.0543  0.3155 -0.4959
 3190SOL    HW121032   2.710   2.815  14.768 -2.1020  0.2470  0.1567
 3190SOL    HW221033   2.759   2.847  14.629 -1.6130  2.7507 -3.1755
 3191SOL     OW21034   3.054   1.392   6.397 -0.6990 -0.1256  0.2476
 3191SOL    HW121035   3.124   1.350   6.346  0.7479  1.8816  0.5911
 3191SOL    HW221036   2.984   1.330   6.375 -0.8770 -0.1137  0.7894
 3192SOL     OW21037   4.713   0.806   5.666  0.3031  0.0015 -0.0179
 3192SOL    HW121038   0.071   0.823   5.705 -0.3718  1.0382  1.0246
 3192SOL    HW221039   4.685   0.721   5.700  1.4503 -0.4959 -0.3289
 3193SOL     OW21040   4.721   4.268   5.605  0.1106 -0.0304  0.1066
 3193SOL    HW121041   0.063   4.203   5.592  0.0949 -0.5525  2.5833
 3193SOL    HW221042   4.660   4.242   5.536  1.3799  1.1526 -1.4566
 3194SOL     OW21043   4.720   3.188   8.567 -0.5727  0.2715  0.2047
 3194SOL    HW121044   4.663   3.175   8.643  1.4446 -0.4746  1.6127
 3194SOL    HW221045   4.663   3.172   8.492  0.8255 -1.0926 -0.5614
 3195SOL     OW21046   2.801   2.406   7.655  0.0559 -0.0140 -0.2810
 3195SOL    HW121047   2.737   2.454   7.709  0.3169 -1.4306  1.2869
 3195SOL    HW221048   2.834   2.339   7.714 -0.7542 -0.4565 -0.3265
 3196SOL     OW21049   0.608   4.450   2.840  0.1425 -0.2394  0.3984
 3196SOL    HW121050   0.620   4.383   2.908 -0.9388  0.9622  1.7618
 3196SOL    HW221051   0.668   4.408   2.778  1.7151  2.9036 -0.2433
 3197SOL     OW21052   4.180   2.004   0.306 -0.0365 -0.3855 -0.0144
 3197SOL    HW121053   4.109   1.977   0.364 -0.1347 -1.1453 -0.4867
 3197SOL    HW221054   4.210   1.918   0.278  0.6831 -0.2725  0.4195
 3198SOL     OW21055   3.325   3.254   0.069  0.4480  0.1763  0.1465
 3198SOL    HW121056   3.358   3.223   0.154  0.4199  0.3615  0.2260
 3198SOL    HW221057   3.354   3.345   0.076 -0.7422  0.6597 -1.1783
 3199SOL     OW21058   2.641   0.467   5.654  0.0398  0.0068  0.2972
 3199SOL    HW121059   2.626   0.508   5.739  0.3808  0.8719 -0.0630
 3199SOL    HW221060   2.682   0.534   5.598  0.0729  0.0199  0.3373
 3200SOL     OW21061   2.613   1.869   8.149  0.4628 -0.7531  0.0805
 3200SOL    HW121062   2.567   1.911   8.222 -0.3883  0.3259 -1.0862
 3200SOL    HW221063   2.699   1.905   8.170 -0.5193  0.2861  2.3900
 3201SOL     OW21064   0.878   0.279   2.655 -0.9713  0.0338 -0.0890
 3201SOL    HW121065   0.840   0.225   2.724 -1.3014 -0.1335 -0.3948
 3201SOL    HW221066   0.808   0.277   2.589 -0.1196 -0.8644 -0.9748
 3202SOL     OW21067   2.696   2.095  17.375 -0.0325  0.0345 -0.0639
 3202SOL    HW121068   2.699   2.145  17.294  0.6539  0.5117  0.2489
 3202SOL    HW221069   2.616   2.125  17.418  0.5165  1.3252  0.0429
 3203SOL     OW21070   3.591   0.975   5.719  0.4209  0.7644 -0.0822
 3203SOL    HW121071   3.515   0.964   5.662  0.4651 -0.0431  0.0157
 3203SOL    HW221072   3.547   1.019   5.791 -0.7816  0.4683 -0.6355
 3204SOL     OW21073   1.586   1.559  16.598  0.1030  0.0684  0.0870
 3204SOL    HW121074   1.599   1.519  16.511 -1.5208 -0.3394  0.0349
 3204SOL    HW221075   1.617   1.648  16.582 -1.3339  0.6859  0.7848
 3205SOL     OW21076   2.523   0.045  10.294 -0.0504  0.0941  0.0896
 3205SOL    HW121077   2.609   0.004  10.299 -0.4546 -0.7782 -0.0716
 3205SOL    HW221078   2.486   0.007  10.214  1.9089  0.6976 -1.1239
 3206SOL     OW21079   1.503   3.617  14.899  0.0442  0.2030  0.1225
 3206SOL    HW121080   1.516   3.561  14.975  0.3082  1.3263  0.8937
 3206SOL    HW221081   1.408   3.625  14.895  0.0776  1.2299  1.5334
 3207SOL     OW21082   0.779   3.781   1.648  0.2337  0.2549  0.5584
 3207SOL    HW121083   0.727   3.759   1.725  0.6094 -0.5870  0.5739
 3207SOL    HW221084   0.748   3.721   1.580 -0.4799  2.0418 -0.6902
 3208SOL     OW21085   0.565   1.408   5.313  0.2403 -0.5567 -0.4791
 3208SOL    HW121086   0.606   1.339   5.260  1.1333 -0.4488  0.0793
 3208SOL    HW221087   0.475   1.385   5.289  0.1514  0.8389 -1.4379
 3209SOL     OW21088   1.758   0.125   2.965 -0.8100 -0.2450  0.2249
 3209SOL    HW121089   1.853   0.115   2.972 -0.7086  1.9182  2.1550
 3209SOL    HW221090   1.756   0.158   2.875  0.1122  1.6268  0.8711
 3210SOL     OW21091   2.160   2.880   1.569 -0.3966 -0.3192  0.5400
 3210SOL    HW121092   2.084   2.856   1.515 -0.0920 -0.4054  0.1466
 3210SOL    HW221093   2.150   2.820   1.642  1.4354 -1.9197 -0.5323
 3211SOL     OW21094   2.873   0.814   1.661  0.0121 -0.3874  0.2811
 3211SOL    HW121095   2.861   0.817   1.756 -1.3256  0.4173  0.0815
 3211SOL    HW221096   2.912   0.902   1.660  0.8459 -0.7629 -0.0982
 3212SOL     OW21097   3.590   3.127   2.227 -0.0619 -0.5459  0.6671
 3212SOL    HW121098   3.678   3.120   2.190 -0.0427  2.2461  0.1282
 3212SOL    HW221099   3.599   3.070   2.303  2.0757  1.3768  1.8878
 3213SOL     OW21100   1.543   3.082  11.714 -0.3841  0.2472  0.2138
 3213SOL    HW121101   1.556   3.177  11.722  2.6413  0.1116 -3.0162
 3213SOL    HW221102   1.597   3.050  11.786  0.2200  2.7676  0.8752
 3214SOL     OW21103   2.283   3.174   4.245 -0.0819 -0.7096  0.2826
 3214SOL    HW121104   2.218   3.190   4.177  0.2403  0.6597  0.2933
 3214SOL    HW221105   2.227   3.172   4.323  1.2118  0.9584  1.2546
 3215SOL     OW21106   3.278   0.204   4.283  0.0247  0.6292 -0.2540
 3215SOL    HW121107   3.347   0.179   4.345 -0.3690 -0.8691 -0.4191
 3215SOL    HW221108   3.308   0.155   4.206 -1.3733  0.1168 -0.4722
 3216SOL     OW21109   3.317   3.202   9.492  0.0362  0.1166 -0.1015
 3216SOL    HW121110   3.385   3.172   9.552  0.1693  1.8184  0.5952
 3216SOL    HW221111   3.270   3.259   9.552  1.4004  0.5411  0.5658
 3217SOL     OW21112   2.505   0.691   2.863  0.1191  0.6241 -0.4885
 3217SOL    HW121113   2.514   0.784   2.882 -0.8492  0.5822  0.1863
 3217SOL    HW221114   2.595   0.663   2.879 -0.6818 -1.8163 -0.2586
 3218SOL     OW21115   1.342   1.181  12.985 -0.1161 -0.0897 -0.2595
 3218SOL    HW121116   1.270   1.225  12.940 -0.4498 -1.9997 -1.5336
 3218SOL    HW221117   1.317   1.202  13.076 -0.8769  2.5699 -1.0789
 3219SOL     OW21118   3.676   0.896   4.662  0.0853  0.8504 -0.0236
 3219SOL    HW121119   3.721   0.854   4.735  0.7603 -0.0796 -0.9685
 3219SOL    HW221120   3.587   0.867   4.678  0.9590 -0.9532  1.5212
 3220SOL     OW21121   4.472   3.894   2.775 -0.1018  0.2098 -0.1917
 3220SOL    HW121122   4.504   3.838   2.704 -0.0201 -0.6960  0.5730
 3220SOL    HW221123   4.379   3.872   2.768 -0.3743  0.6230  2.3806
 3221SOL     OW21124   2.183   1.630   3.814 -0.0605  0.7665  0.5203
 3221SOL    HW121125   2.244   1.624   3.741  1.4010  2.4253  1.5895
 3221SOL    HW221126   2.146   1.543   3.800  0.2762  0.4139  1.8064
 3222SOL     OW21127   0.428   4.220  17.367  0.3526 -0.0639 -0.1590
 3222SOL    HW121128   0.483   4.217  17.445 -0.0237  2.9526  0.2494
 3222SOL    HW221129   0.342   4.232  17.405 -1.7018 -4.5100 -3.3929
 3223SOL     OW21130   1.424   1.629   6.350 -0.0546 -0.1097 -0.5822
 3223SOL    HW121131   1.372   1.559   6.390 -0.9694  1.1296  0.3841
 3223SOL    HW221132   1.393   1.622   6.260  0.2419 -2.5084 -0.5027
 3224SOL     OW21133   1.808   1.672   9.543 -0.3763 -0.0439  0.2063
 3224SOL    HW121134   1.775   1.583   9.557 -1.4374  0.2670 -0.3425
 3224SOL    HW221135   1.777   1.691   9.455 -1.7086 -1.5961  0.3205
 3225SOL     OW21136   0.651   4.291   5.428  0.3531 -0.2946 -0.1838
 3225SOL    HW121137   0.555   4.290   5.429  0.3685 -0.1422  0.9224
 3225SOL    HW221138   0.670   4.346   5.504  0.4050 -0.5296 -0.0270
 3226SOL     OW21139   1.169   2.436   4.750 -0.3947  0.3394  0.0798
 3226SOL    HW121140   1.132   2.446   4.838 -2.0114 -0.0068 -0.5611
 3226SOL    HW221141   1.205   2.347   4.753  2.0073  1.2921 -0.5892
 3227SOL     OW21142   2.426   2.249   3.224  0.1353  0.0221 -0.2729
 3227SOL    HW121143   2.483   2.310   3.177  0.7091  2.4466  3.5786
 3227SOL    HW221144   2.457   2.162   3.198 -1.7253 -1.4097  2.3798
 3228SOL     OW21145   0.933   4.465  17.460 -0.0253 -0.0322  0.0164
 3228SOL    HW121146   0.981   4.470  17.542  0.4782 -0.2637 -0.2631
 3228SOL    HW221147   0.979   4.387  17.428 -1.2046  0.6804 -3.4199
 3229SOL     OW21148   3.724   0.592   0.913 -0.0558  0.5573  0.0454
 3229SOL    HW121149   3.760   0.678   0.933 -1.5702  0.3912  3.3595
 3229SOL    HW221150   3.637   0.609   0.949 -0.5650  0.5259 -1.1549
 3230SOL     OW21151   4.353   2.241   8.466  0.8922  0.5909 -0.3080
 3230SOL    HW121152   4.332   2.330   8.492 -0.7707 -0.1536  0.8951
 3230SOL    HW221153   4.303   2.196   8.534  0.1262  2.0600  0.0872
 3231SOL     OW21154   4.083   3.766   0.662 -0.3438 -0.2962  0.0465
 3231SOL    HW121155   4.173   3.773   0.631 -0.6671  0.6235 -0.6819
 3231SOL    HW221156   4.042   3.848   0.636 -2.5351 -0.9393  1.4238
 3232SOL     OW21157   3.337   0.671   9.112 -0.0461  0.6131 -0.5856
 3232SOL    HW121158   3.346   0.633   9.199 -0.7436 -1.0633 -1.2412
 3232SOL    HW221159   3.265   0.625   9.069 -0.4923 -1.7470  2.6745
 3233SOL     OW21160   4.002   1.946   8.834 -0.0357  0.0133 -0.6902
 3233SOL    HW121161   3.993   1.854   8.809  1.0259 -0.4601  0.6882
 3233SOL    HW221162   3.966   1.982   8.753 -1.8159 -0.4397 -0.1022
 3234SOL     OW21163   3.960   1.195  16.950  0.3948  0.4361  0.1314
 3234SOL    HW121164   3.911   1.249  17.013 -0.8896  0.4059 -0.8569
 3234SOL    HW221165   3.899   1.128  16.919  1.4670 -1.0249  1.1808
 3235SOL     OW21166   4.539   3.434   2.258  0.0013 -0.6249 -0.4784
 3235SOL    HW121167   4.570   3.457   2.170  2.3377  0.4276  0.6280
 3235SOL    HW221168   4.618   3.388   2.286  1.1734  1.9878  0.5073
 3236SOL     OW21169   3.599   4.031  14.664  0.3132 -0.2859  0.1701
 3236SOL    HW121170   3.695   4.030  14.659  0.1536 -1.2837 -3.2568
 3236SOL    HW221171   3.570   4.094  14.729 -0.6077 -0.2792 -0.2528
 3237SOL     OW21172   0.465   0.670   8.903  0.1257  0.2728  0.2489
 3237SOL    HW121173   0.505   0.618   8.973  1.4541  0.3007 -0.4793
 3237SOL    HW221174   0.450   0.609   8.831  0.0053  0.7050 -0.0938
 3238SOL     OW21175   3.742   1.565  10.410  0.4129  0.6927  0.0780
 3238SOL    HW121176   3.687   1.546  10.486  1.2839 -2.0799 -0.0077
 3238SOL    HW221177   3.684   1.602  10.344 -0.8112  0.9872  1.3209
 3239SOL     OW21178   2.862   4.385   0.104  0.6024 -0.1404 -0.3134
 3239SOL    HW121179   2.782   4.349   0.141  0.5530  1.8833  1.5342
 3239SOL    HW221180   2.830   4.403   0.015 -1.0148 -0.2486  0.2422
 3240SOL     OW21181   1.950   0.667  14.959  0.0831 -0.0310 -0.5132
 3240SOL    HW121182   2.038   0.697  14.981 -0.6550 -0.1961  2.6325
 3240SOL    HW221183   1.925   0.648  15.049 -1.5033 -1.1863 -1.1922
 3241SOL     OW21184   2.719   2.315  12.034 -0.1366  0.3691 -0.2169
 3241SOL    HW121185   2.688   2.233  11.996 -2.2068  2.4160 -2.9854
 3241SOL    HW221186   2.798   2.341  11.987 -0.4496  1.1109 -0.3316
 3242SOL     OW21187   4.424   3.157   4.885  0.0638 -0.0791  0.0747
 3242SOL    HW121188   4.467   3.241   4.904  0.5987 -0.1200 -0.9492
 3242SOL    HW221189   4.334   3.188   4.873  0.5695  0.6888 -1.6589
 3243SOL     OW21190   0.558   1.235   4.232  0.0068  0.3412  0.1644
 3243SOL    HW121191   0.521   1.164   4.284  2.1015 -1.6103 -1.0116
 3243SOL    HW221192   0.631   1.265   4.285  1.3202 -1.0653 -0.8643
 3244SOL     OW21193   0.601   3.140   5.527  0.1707 -0.2057  0.2625
 3244SOL    HW121194   0.632   3.207   5.588  2.1699  0.0178 -1.0022
 3244SOL    HW221195   0.509   3.143   5.555 -0.1236  2.3915 -1.0080
 3245SOL     OW21196   1.074   4.259  17.379 -0.6601  0.7101  0.2614
 3245SOL    HW121197   1.062   4.229  17.289 -1.4061  0.4013  0.4620
 3245SOL    HW221198   1.139   4.196  17.412 -1.7012  1.1869  3.2631
 3246SOL     OW21199   4.267   0.154  14.249  0.6500  0.0478  0.0689
 3246SOL    HW121200   4.304   0.069  14.275  0.5321 -0.5200 -1.6206
 3246SOL    HW221201   4.294   0.149  14.157  0.2375 -0.2377 -0.0377
 3247SOL     OW21202   0.633   2.477  11.324  0.7130 -0.0795  0.0411
 3247SOL    HW121203   0.595   2.487  11.411 -0.3102 -1.5016 -0.2546
 3247SOL    HW221204   0.722   2.444  11.340  0.6260  0.6188  1.9601
 3248SOL     OW21205   0.943   0.257   9.029  0.6829  0.0167  0.0463
 3248SOL    HW121206   0.915   0.318   8.961  0.8895  1.0300  0.8730
 3248SOL    HW221207   1.018   0.214   8.987  1.6002  2.4975 -0.8948
 3249SOL     OW21208   4.276   1.968  15.810 -0.2134  0.2843 -0.1352
 3249SOL    HW121209   4.258   1.915  15.732 -2.6587  1.8276 -0.6125
 3249SOL    HW221210   4.241   1.913  15.880  0.6918 -0.3114 -0.1468
 3250SOL     OW21211   0.367   3.227   6.865 -0.4936 -0.0581  0.2000
 3250SOL    HW121212   0.313   3.244   6.942  2.4077 -1.1721  2.4823
 3250SOL    HW221213   0.374   3.319   6.839  1.5556 -0.3073 -0.0600
 3251SOL     OW21214   0.149   0.307   4.400  0.0589  0.2623  0.5226
 3251SOL    HW121215   0.154   0.312   4.305  2.0732 -2.2295  0.5007
 3251SOL    HW221216   0.136   0.215   4.421  0.0703 -0.4434 -2.5762
 3252SOL     OW21217   2.643   1.172   5.387  0.0479 -0.0784  0.0788
 3252SOL    HW121218   2.577   1.206   5.448 -1.3769 -3.4971  0.4139
 3252SOL    HW221219   2.709   1.238   5.408 -0.1331 -0.0984  0.6971
 3253SOL     OW21220   3.064   0.626   7.794 -1.1591  0.5732  0.5203
 3253SOL    HW121221   3.102   0.713   7.805  0.6006 -0.0515 -0.7470
 3253SOL    HW221222   2.977   0.640   7.831  0.1176  2.4508  2.7752
 3254SOL     OW21223   2.714   0.164  14.424  0.0271 -0.2800  0.6706
 3254SOL    HW121224   2.716   0.076  14.462 -0.0577  0.9863  3.5859
 3254SOL    HW221225   2.621   0.152  14.405 -0.1088 -0.2488  1.3006
 3255SOL     OW21226   1.104   3.190   7.041  0.3612 -0.0939 -0.4947
 3255SOL    HW121227   1.100   3.212   7.134 -0.7051  1.2609 -0.8605
 3255SOL    HW221228   1.096   3.277   7.001 -0.0703 -0.1080 -0.4343
 3256SOL     OW21229   3.646   2.957   2.414  0.2116 -0.0287 -0.0018
 3256SOL    HW121230   3.706   2.888   2.387 -0.6250 -1.0319  0.6670
 3256SOL    HW221231   3.598   2.925   2.491 -0.9204 -2.7137 -1.8122
 3257SOL     OW21232   1.260   3.312  15.641  0.1248  0.3801 -0.3360
 3257SOL    HW121233   1.212   3.312  15.724 -0.8095  1.7751 -0.8706
 3257SOL    HW221234   1.198   3.259  15.591  1.0485  0.5757 -1.6944
 3258SOL     OW21235   0.173   0.404   3.914  0.4843  0.0298  0.0127
 3258SOL    HW121236   0.245   0.407   3.852  0.2614  2.9733 -0.1086
 3258SOL    HW221237   0.159   0.311   3.933 -1.7723  0.4537  0.4857
 3259SOL     OW21238   1.637   1.299  16.712 -0.4832  0.3897  0.4302
 3259SOL    HW121239   1.613   1.390  16.695  0.0854  0.3046 -0.8735
 3259SOL    HW221240   1.710   1.291  16.650 -0.3176  1.8569  0.4292
 3260SOL     OW21241   2.279   2.797   6.674 -0.3463 -0.0165  0.1530
 3260SOL    HW121242   2.272   2.873   6.616 -0.4775  0.2820  0.5668
 3260SOL    HW221243   2.354   2.758   6.629 -0.7069  0.5269 -0.9218
 3261SOL     OW21244   2.411   4.293   7.531  0.1029 -0.1529  0.2318
 3261SOL    HW121245   2.504   4.317   7.536 -0.3196  1.1646  1.7186
 3261SOL    HW221246   2.401   4.246   7.448  1.5947 -0.4948  0.2302
 3262SOL     OW21247   1.022   4.178   5.369  0.0915 -0.8162 -0.4734
 3262SOL    HW121248   1.030   4.158   5.463 -0.1665  0.9505 -0.0867
 3262SOL    HW221249   1.031   4.273   5.365  0.6572 -0.8326  0.3202
 3263SOL     OW21250   0.515   4.045   3.347 -0.4140  0.4016 -0.2532
 3263SOL    HW121251   0.475   4.127   3.320  1.5913  2.4547  3.0330
 3263SOL    HW221252   0.482   3.996   3.272 -1.2291 -0.2053  0.4913
 3264SOL     OW21253   0.234   2.659   9.552  1.0165  0.4420 -1.1496
 3264SOL    HW121254   0.193   2.579   9.583  0.6908  1.6208  1.5228
 3264SOL    HW221255   0.190   2.678   9.469 -0.1413  3.9008  0.2383
 3265SOL     OW21256   1.161   2.231   0.957 -0.4780  0.4960  0.1610
 3265SOL    HW121257   1.170   2.294   1.028  0.3468  0.4167  0.1249
 3265SOL    HW221258   1.150   2.152   1.010  0.0081  1.6826  2.0210
 3266SOL     OW21259   2.397   2.639   2.362 -0.0350  1.0942 -0.3281
 3266SOL    HW121260   2.477   2.604   2.324  0.4605  0.1988  1.5413
 3266SOL    HW221261   2.439   2.684   2.435 -0.9669 -0.6804  1.2877
 3267SOL     OW21262   1.670   2.529   9.220 -0.1387 -0.3675 -0.0626
 3267SOL    HW121263   1.574   2.528   9.220 -0.1718  2.0392 -0.2705
 3267SOL    HW221264   1.688   2.499   9.309 -0.4286  0.8211  0.3997
 3268SOL     OW21265   3.902   1.425   0.479  0.0936  0.2472  0.0693
 3268SOL    HW121266   3.894   1.370   0.401  0.8599  1.8063 -1.1062
 3268SOL    HW221267   3.818   1.466   0.459 -1.4234 -3.1048 -0.5046
 3269SOL     OW21268   1.116   0.361   2.183  0.1093  0.2525 -0.1584
 3269SOL    HW121269   1.170   0.327   2.111 -1.3884  1.0183 -1.6463
 3269SOL    HW221270   1.177   0.431   2.208  0.6991  0.8569 -3.2112
 3270SOL     OW21271   2.210   0.584  12.524 -0.0920  0.2104 -0.0380
 3270SOL    HW121272   2.240   0.600  12.613 -0.8966  1.5995 -0.0052
 3270SOL    HW221273   2.229   0.492  12.506 -0.5674  0.2067 -0.5360
 3271SOL     OW21274   2.141   0.656   5.015 -0.8958  0.1908  0.1455
 3271SOL    HW121275   2.152   0.572   5.061 -0.1450  0.0003 -0.3969
 3271SOL    HW221276   2.220   0.705   5.038 -1.2876  1.0458 -0.3744
 3272SOL     OW21277   2.095   3.897   2.769 -0.6101  0.7210  0.5046
 3272SOL    HW121278   2.042   3.890   2.849 -1.5907  2.2086 -0.0072
 3272SOL    HW221279   2.180   3.895   2.812 -0.1655  0.1083 -0.4045
 3273SOL     OW21280   2.338   2.774   5.732 -0.0745 -0.0155 -0.6465
 3273SOL    HW121281   2.304   2.842   5.790 -0.3961  2.0510 -3.2652
 3273SOL    HW221282   2.259   2.734   5.694 -0.0131  1.3964 -2.2179
 3274SOL     OW21283   3.362   2.219   6.413  0.4542 -0.3510 -0.5020
 3274SOL    HW121284   3.394   2.174   6.492 -2.4182 -1.3374  0.0642
 3274SOL    HW221285   3.316   2.143   6.378  0.6982  0.1656 -1.9319
 3275SOL     OW21286   4.480   1.952   9.788 -0.1933 -0.1501 -0.0642
 3275SOL    HW121287   4.500   1.892   9.860 -1.6952  0.3668  0.7825
 3275SOL    HW221288   4.563   1.998   9.775 -1.7555  2.9948  1.0028
 3276SOL     OW21289   1.942   3.674   5.337 -0.4311  0.1186 -0.5451
 3276SOL    HW121290   1.976   3.695   5.424 -1.7752 -0.9727  0.2503
 3276SOL    HW221291   1.958   3.580   5.327  2.4177  0.6173 -0.5194
 3277SOL     OW21292   1.658   2.711  14.861  0.0761  0.2782 -0.1302
 3277SOL    HW121293   1.750   2.700  14.837 -0.0620 -2.3679  0.4988
 3277SOL    HW221294   1.661   2.770  14.936  0.1663  2.3824 -1.7965
 3278SOL     OW21295   0.368   1.264  15.211 -0.3616 -0.2425 -0.0013
 3278SOL    HW121296   0.447   1.235  15.166  0.9285 -0.8652  2.6161
 3278SOL    HW221297   0.406   1.319  15.280  3.7569 -2.3393 -0.5901
 3279SOL     OW21298   1.229   3.229  12.623  0.6029  0.1330 -0.2868
 3279SOL    HW121299   1.299   3.232  12.689  0.2399 -0.4621  0.1295
 3279SOL    HW221300   1.155   3.209  12.681  0.1054  4.0383  0.4171
 3280SOL     OW21301   0.717   2.617   3.914  0.3389 -0.5209 -0.1400
 3280SOL    HW121302   0.805   2.654   3.924 -1.3456  3.2627  0.6006
 3280SOL    HW221303   0.715   2.589   3.823  0.3935 -0.6196 -0.1108
 3281SOL     OW21304   2.144   0.591   1.429  0.6970 -0.1815  0.4129
 3281SOL    HW121305   2.101   0.521   1.379 -2.4613  1.5225  0.7748
 3281SOL    HW221306   2.229   0.550   1.443  2.1712  2.0594 -2.0343
 3282SOL     OW21307   1.935   1.345   4.170 -0.4761  0.7251  0.1414
 3282SOL    HW121308   1.927   1.440   4.167  1.1784  0.8908  0.5067
 3282SOL    HW221309   1.944   1.311   4.081  0.5626 -0.6729  0.7710
 3283SOL     OW21310   0.574   4.681  15.083 -0.3168 -0.8579  0.2452
 3283SOL    HW121311   0.555   4.600  15.131  0.8723 -1.6892 -0.6777
 3283SOL    HW221312   0.498   4.694  15.026 -1.3072 -2.2991  1.2510
 3284SOL     OW21313   0.927   1.688  12.450 -0.3570  0.3512 -0.0141
 3284SOL    HW121314   1.011   1.727  12.427 -1.0456  0.6884 -2.0021
 3284SOL    HW221315   0.867   1.712  12.379 -1.1371  0.1825  0.5960
 3285SOL     OW21316   2.827   4.667   5.795 -0.1021 -0.1213  0.9254
 3285SOL    HW121317   2.812   4.656   5.701  0.1892  0.9538  0.7516
 3285SOL    HW221318   2.922   4.656   5.798 -0.1328 -0.2257  1.5604
 3286SOL     OW21319   3.632   0.773   6.984  0.1070  0.2470 -0.5173
 3286SOL    HW121320   3.584   0.846   6.945  0.1453 -0.2062 -1.4154
 3286SOL    HW221321   3.663   0.811   7.066  0.1385 -0.3374 -0.2573
 3287SOL     OW21322   1.273   1.243   5.006  0.1775  0.1236  0.0666
 3287SOL    HW121323   1.354   1.200   5.031  0.6957  1.7295  1.1765
 3287SOL    HW221324   1.288   1.246   4.911 -1.9779  0.8559 -0.2800
 3288SOL     OW21325   4.159   4.717   3.849  0.3163  0.3212 -0.5691
 3288SOL    HW121326   4.157   4.653   3.778 -1.4920  1.0692 -1.1657
 3288SOL    HW221327   4.102   0.060   3.822 -0.5845  0.1468  0.8568
 3289SOL     OW21328   2.777   0.976   7.949  0.4202 -0.2930 -0.2336
 3289SOL    HW121329   2.843   0.979   7.879 -0.5882 -0.3485 -1.1988
 3289SOL    HW221330   2.822   1.010   8.026  0.8599  1.9488 -1.4774
 3290SOL     OW21331   1.165   4.582   8.700  0.5945 -0.0766  0.0309
 3290SOL    HW121332   1.084   4.597   8.749  0.1041 -0.9238 -0.5306
 3290SOL    HW221333   1.187   4.499   8.742  1.0147  0.1352  0.2318
 3291SOL     OW21334   1.262   1.047   2.146  0.0447  0.2783  0.4719
 3291SOL    HW121335   1.194   1.053   2.213 -2.1310  3.5321 -2.0587
 3291SOL    HW221336   1.326   1.109   2.182  2.3881 -2.1694  0.5645
 3292SOL     OW21337   0.134   2.005  16.184  0.0890 -0.1605  0.4678
 3292SOL    HW121338   0.198   1.949  16.141  0.7042 -0.1457  1.3590
 3292SOL    HW221339   0.053   1.989  16.136  1.2462  1.6109 -2.0863
 3293SOL     OW21340   3.969   0.815   4.339  0.4127 -0.1388 -0.5649
 3293SOL    HW121341   4.058   0.851   4.344  0.2844  0.0538  0.3779
 3293SOL    HW221342   3.949   0.792   4.248 -0.3296  0.6469 -0.5975
 3294SOL     OW21343   1.724   2.282   4.720 -0.2257  0.2057  0.6067
 3294SOL    HW121344   1.814   2.302   4.742  0.4937 -0.4931 -1.7156
 3294SOL    HW221345   1.707   2.360   4.667 -1.1550  0.2761  1.0118
 3295SOL     OW21346   0.265   4.328   5.993 -0.1770 -0.1233  0.0346
 3295SOL    HW121347   0.189   4.286   5.953 -0.0963  1.0162 -1.3150
 3295SOL    HW221348   0.244   4.421   5.995 -0.1350 -0.1345  1.0066
 3296SOL     OW21349   2.356   4.176   9.425 -0.0037  0.0799  0.3909
 3296SOL    HW121350   2.304   4.125   9.487 -2.1539  0.9678 -0.6775
 3296SOL    HW221351   2.401   4.235   9.486  0.8161 -0.9429  0.7708
 3297SOL     OW21352   1.975   3.274  13.954 -0.0656 -0.2433 -0.0835
 3297SOL    HW121353   1.890   3.274  13.909 -0.3654 -0.6990  0.4834
 3297SOL    HW221354   1.973   3.214  14.029  0.5355 -1.5445 -1.0998
 3298SOL     OW21355   0.062   2.033   6.684 -0.5983 -0.1475  0.0100
 3298SOL    HW121356   0.042   2.079   6.766 -3.1267 -1.8053  0.3062
 3298SOL    HW221357   0.145   1.992   6.708 -1.4374 -0.6891  1.9473
 3299SOL     OW21358   0.968   0.910   3.251 -0.4098  0.6536 -0.1392
 3299SOL    HW121359   0.884   0.915   3.298 -0.4689 -3.3258  0.1652
 3299SOL    HW221360   1.030   0.924   3.323  0.0463  2.0179 -0.7950
 3300SOL     OW21361   4.076   4.191   5.324 -0.4915 -0.1499  1.0712
 3300SOL    HW121362   4.016   4.254   5.284 -0.9019  0.3364  2.4557
 3300SOL    HW221363   4.161   4.220   5.292 -1.4755 -2.4107 -3.6476
 3301SOL     OW21364   1.323   4.088   1.374 -0.1670  0.2742  0.1257
 3301SOL    HW121365   1.245   4.134   1.406  0.0040  0.1535  0.7142
 3301SOL    HW221366   1.370   4.122   1.450 -0.7011 -0.2656  0.7047
 3302SOL     OW21367   2.807   2.055  13.848  0.5096 -0.1444  0.2437
 3302SOL    HW121368   2.783   2.144  13.872  0.9176 -0.1485  0.6413
 3302SOL    HW221369   2.902   2.060  13.840  0.5561 -0.7546  0.4161
 3303SOL     OW21370   4.145   1.641   7.295  0.4965  0.5017 -0.3257
 3303SOL    HW121371   4.210   1.582   7.257  1.0748  1.2456 -0.5030
 3303SOL    HW221372   4.180   1.655   7.383 -1.9092  0.6218  0.6120
 3304SOL     OW21373   3.138   3.903   2.884  0.3091 -0.3601 -0.0949
 3304SOL    HW121374   3.070   3.836   2.892  0.0748 -0.0467  0.6119
 3304SOL    HW221375   3.207   3.851   2.925  0.2442  1.1486  1.9482
 3305SOL     OW21376   0.620   3.853   9.161  0.0051 -0.3611  0.1812
 3305SOL    HW121377   0.526   3.861   9.177 -0.1514 -1.9163 -0.0312
 3305SOL    HW221378   0.647   3.782   9.219  0.5463 -0.4163 -0.1365
 3306SOL     OW21379   3.008   1.691   6.692 -0.0949  0.2896 -0.0263
 3306SOL    HW121380   3.025   1.728   6.606  0.2024  0.4376  0.0950
 3306SOL    HW221381   2.958   1.612   6.673  3.1753 -2.0387  0.8884
 3307SOL     OW21382   0.144   0.813   8.580 -0.1334 -0.0696 -0.4434
 3307SOL    HW121383   0.065   0.838   8.628 -2.4806 -1.3287 -3.6244
 3307SOL    HW221384   0.185   0.899   8.588 -1.5308  0.6385 -1.0359
 3308SOL     OW21385   3.051   4.354  12.592  0.4677 -0.3904  0.5783
 3308SOL    HW121386   2.987   4.321  12.655 -1.0440  1.7261  0.1338
 3308SOL    HW221387   3.076   4.435  12.636  2.4237 -0.8195  0.2370
 3309SOL     OW21388   2.463   4.635   7.659 -0.0745  0.2664 -0.0551
 3309SOL    HW121389   2.544   4.684   7.648 -0.0101  0.2372  0.2766
 3309SOL    HW221390   2.444   4.607   7.570 -0.2998 -2.1207  0.7318
 3310SOL     OW21391   3.762   4.204  14.820 -0.5088 -0.1204  0.4387
 3310SOL    HW121392   3.815   4.124  14.823 -1.0399 -0.5002 -0.5298
 3310SOL    HW221393   3.804   4.256  14.890 -0.0129  1.5437 -1.0784
 3311SOL     OW21394   3.289   3.833   8.154  0.9535 -0.2583 -0.2457
 3311SOL    HW121395   3.293   3.879   8.238 -0.3640 -0.2199 -0.2037
 3311SOL    HW221396   3.270   3.745   8.185 -2.6605  0.2298 -0.9994
 3312SOL     OW21397   2.221   2.518   6.513 -0.1596 -0.2460  0.0380
 3312SOL    HW121398   2.198   2.509   6.605  1.9837  1.6061  0.7627
 3312SOL    HW221399   2.317   2.521   6.513 -0.1686  0.0667  0.3306
 3313SOL     OW21400   2.163   3.873   7.263 -0.6216 -0.5725 -0.3264
 3313SOL    HW121401   2.142   3.780   7.265 -2.3185 -0.2365 -2.4372
 3313SOL    HW221402   2.205   3.888   7.178 -0.4407 -0.2042 -0.1729
 3314SOL     OW21403   0.264   0.395   9.077 -0.2285  0.2131  0.0544
 3314SOL    HW121404   0.216   0.324   9.121  1.3553 -0.3391  0.9009
 3314SOL    HW221405   0.196   0.462   9.084 -0.3800 -0.0214  0.9379
 3315SOL     OW21406   3.742   1.450  14.323 -0.0846 -0.3753  0.2932
 3315SOL    HW121407   3.664   1.420  14.277 -0.1234 -1.0986  0.8377
 3315SOL    HW221408   3.797   1.375  14.345  0.8654  0.5866  1.2332
 3316SOL     OW21409   2.137   1.094  17.255  0.7120  0.0776  0.1504
 3316SOL    HW121410   2.102   1.084  17.166 -3.1752 -0.8279  1.8016
 3316SOL    HW221411   2.103   1.014  17.296  0.6910 -1.0727 -2.1015
 3317SOL     OW21412   4.489   0.303   2.035 -0.7665  0.4924 -0.0854
 3317SOL    HW121413   4.447   0.223   2.005  1.3401 -0.6413 -0.0732
 3317SOL    HW221414   4.484   0.356   1.955 -0.8902  0.1686 -0.2927
 3318SOL     OW21415   2.847   1.160   7.248 -0.1986 -0.0371  0.3316
 3318SOL    HW121416   2.765   1.197   7.217 -0.3379 -1.1726 -0.6395
 3318SOL    HW221417   2.832   1.148   7.342  2.1484  0.3918  0.7721
 3319SOL     OW21418   0.790   2.316  11.863  0.0157  0.2428  0.6649
 3319SOL    HW121419   0.791   2.387  11.927  0.1840  0.9643 -0.1398
 3319SOL    HW221420   0.882   2.293  11.879  0.0122  0.2369  0.6767
 3320SOL     OW21421   4.635   1.463  15.415  0.0464  0.7017  0.1355
 3320SOL    HW121422   4.591   1.449  15.499 -0.9507 -0.7738 -0.6261
 3320SOL    HW221423   4.701   1.394  15.408 -0.7544 -0.3211  2.8560
 3321SOL     OW21424   1.985   0.716   3.724 -0.1127 -0.2128  0.4820
 3321SOL    HW121425   1.971   0.706   3.818 -0.2159  2.4912  0.7412
 3321SOL    HW221426   1.936   0.640   3.693  1.9364 -1.7413  0.9832
 3322SOL     OW21427   4.300   0.229   8.545 -0.1331  0.4081  0.1579
 3322SOL    HW121428   4.266   0.217   8.456  1.5605  0.1305 -0.4483
 3322SOL    HW221429   4.348   0.146   8.545 -2.8474 -1.1566 -1.7311
 3323SOL     OW21430   3.882   2.714   6.324 -0.3940 -0.1395  0.4818
 3323SOL    HW121431   3.871   2.714   6.229  3.3979 -0.0912  0.0645
 3323SOL    HW221432   3.948   2.780   6.342 -0.6109  0.5036 -1.1045
 3324SOL     OW21433   4.158   2.252   6.162 -0.2552 -0.0246 -0.2281
 3324SOL    HW121434   4.078   2.199   6.156 -0.4847  0.2800  0.1455
 3324SOL    HW221435   4.125   2.342   6.155 -0.2517 -0.0597 -0.7388
 3325SOL     OW21436   0.730   2.342   4.508 -0.0921  0.0456 -0.4231
 3325SOL    HW121437   0.660   2.277   4.512 -1.6146  1.5290 -2.6282
 3325SOL    HW221438   0.802   2.308   4.456 -0.1090  0.2008 -0.5453
 3326SOL     OW21439   3.491   2.135   2.054  0.1826 -0.2550 -0.1301
 3326SOL    HW121440   3.564   2.073   2.044  2.3050  1.9276  2.1103
 3326SOL    HW221441   3.541   2.209   2.019  1.5478 -0.4054  1.5105
 3327SOL     OW21442   4.025   3.128   4.007 -0.1069  0.0036  0.3019
 3327SOL    HW121443   3.964   3.150   4.076 -0.9404 -1.0983 -0.0766
 3327SOL    HW221444   4.031   3.034   4.024  1.7927 -0.0237 -0.5032
 3328SOL     OW21445   1.256   3.662   1.756 -0.3676 -0.5435  0.2365
 3328SOL    HW121446   1.169   3.659   1.716 -0.2675  1.4562 -0.0947
 3328SOL    HW221447   1.301   3.734   1.712  2.2897 -1.1182  2.0087
 3329SOL     OW21448   2.027   0.586  15.744  0.4068 -0.2610  0.7186
 3329SOL    HW121449   2.008   0.657  15.682  1.7401 -1.0523 -0.5918
 3329SOL    HW221450   2.119   0.604  15.766  0.7861 -2.0446  0.5988
 3330SOL     OW21451   1.196   3.696   7.950 -0.1256  0.5847 -0.1881
 3330SOL    HW121452   1.287   3.724   7.957  0.6371 -1.6031 -1.4648
 3330SOL    HW221453   1.154   3.779   7.975 -2.3539 -0.7068  0.3625
 3331SOL     OW21454   0.386   0.679   8.526 -0.0621 -0.4833  0.0241
 3331SOL    HW121455   0.391   0.756   8.584  0.1684 -0.6301  0.2005
 3331SOL    HW221456   0.294   0.657   8.538 -0.7796  2.9523  0.9219
 3332SOL     OW21457   4.031   4.039   7.732 -0.0675  0.0243 -0.3948
 3332SOL    HW121458   3.996   3.952   7.712 -1.5723  0.3409  0.8011
 3332SOL    HW221459   4.075   4.051   7.648  0.9414  1.0567  0.2850
 3333SOL     OW21460   0.391   0.138   9.549 -0.3902 -0.0079  0.2729
 3333SOL    HW121461   0.415   0.221   9.590 -0.3925  0.7884 -1.3850
 3333SOL    HW221462   0.321   0.175   9.496  2.8512  2.3451 -2.3792
 3334SOL     OW21463   0.004   0.523   0.131  0.2483 -0.5687 -0.0694
 3334SOL    HW121464   0.042   0.518   0.219  2.1508 -1.1619 -0.9284
 3334SOL    HW221465   4.677   0.601   0.125  0.7746 -0.0886  1.4325
 3335SOL     OW21466   1.275   2.610   6.222  0.2989 -0.7330  0.0162
 3335SOL    HW121467   1.247   2.519   6.217 -0.7346 -0.3114 -1.9179
 3335SOL    HW221468   1.197   2.664   6.203 -0.1515 -1.3650  0.0702
 3336SOL     OW21469   2.689   4.714  11.441  0.6002  0.4392  0.1520
 3336SOL    HW121470   2.731   0.072  11.441  0.2027  0.6347  2.2035
 3336SOL    HW221471   2.607   0.003  11.487 -0.4103 -0.0028 -1.4786
 3337SOL     OW21472   1.256   0.508  16.203 -0.8412  0.3593  0.6903
 3337SOL    HW121473   1.161   0.522  16.205 -0.7045  1.6769 -2.0350
 3337SOL    HW221474   1.289   0.579  16.148 -0.4035  0.2893  0.8682
 3338SOL     OW21475   2.844   1.155  14.645  0.5610 -0.2054 -0.7042
 3338SOL    HW121476   2.908   1.219  14.613 -1.6784  3.4076  1.9219
 3338SOL    HW221477   2.904   1.127  14.714  1.5087  0.7462 -1.1444
 3339SOL     OW21478   1.364   0.172   7.297  0.0093 -0.3220 -0.3146
 3339SOL    HW121479   1.432   0.169   7.231  1.5648  1.4821  1.1886
 3339SOL    HW221480   1.324   0.257   7.279  2.3317  1.3249  2.3896
 3340SOL     OW21481   2.277   3.748   7.765 -0.1384  0.1956  0.3706
 3340SOL    HW121482   2.236   3.834   7.756  1.1327  0.5249 -2.2098
 3340SOL    HW221483   2.365   3.782   7.782 -0.3642  0.8972  0.1368
 3341SOL     OW21484   3.283   4.301   3.545  0.1142 -0.1076  0.1905
 3341SOL    HW121485   3.293   4.216   3.502 -1.2392 -0.8356  1.3023
 3341SOL    HW221486   3.296   4.355   3.467  2.9534 -0.8131  0.1621
 3342SOL     OW21487   2.032   1.825   1.794  0.3233  0.2936 -0.4020
 3342SOL    HW121488   2.025   1.891   1.726  1.6758 -0.3073 -1.0992
 3342SOL    HW221489   2.117   1.782   1.784  0.6700  0.5979  1.2544
 3343SOL     OW21490   4.445   2.962   7.556  0.1389  0.7696  0.7964
 3343SOL    HW121491   4.397   2.908   7.493 -1.6996  1.5093  1.5352
 3343SOL    HW221492   4.389   2.936   7.630 -0.3374  0.4755  0.3365
 3344SOL     OW21493   0.964   4.295  15.051 -0.5963  0.7589 -0.3946
 3344SOL    HW121494   1.020   4.371  15.037  0.8951 -0.3629 -0.4972
 3344SOL    HW221495   0.950   4.273  14.959  1.6914  1.4918 -0.9203
 3345SOL     OW21496   0.404   0.375   2.029  0.1022  0.4749  0.5354
 3345SOL    HW121497   0.436   0.455   2.070 -2.6584  1.3581  0.9472
 3345SOL    HW221498   0.413   0.398   1.936 -2.8030  2.6445  0.8222
 3346SOL     OW21499   2.913   2.262  11.839  0.4019  0.7565  0.2262
 3346SOL    HW121500   2.921   2.170  11.863 -2.0709  0.4782 -0.0384
 3346SOL    HW221501   2.877   2.262  11.750  1.3480 -0.5442 -0.1641
 3347SOL     OW21502   4.600   0.015   1.508 -0.0408  0.0284  0.4256
 3347SOL    HW121503   4.581   4.696   1.589  0.5902 -1.6589 -0.4001
 3347SOL    HW221504   4.686   0.048   1.534  0.7638 -2.1438  0.5716
 3348SOL     OW21505   1.315   1.202   0.122  0.1105  0.0551  0.1544
 3348SOL    HW121506   1.339   1.288   0.088  2.3233 -0.9298 -0.7646
 3348SOL    HW221507   1.341   1.221   0.213  1.3470  2.1883 -0.6407
 3349SOL     OW21508   1.187   1.265   5.379 -0.1119  0.3091  0.5886
 3349SOL    HW121509   1.218   1.236   5.293 -0.2947  0.3081  0.5213
 3349SOL    HW221510   1.113   1.322   5.355  0.0836  0.9284  1.4496
 3350SOL     OW21511   1.668   0.981  14.272 -0.3226 -0.6001 -0.2733
 3350SOL    HW121512   1.715   0.919  14.328  0.2642  0.5872  0.5469
 3350SOL    HW221513   1.716   1.064  14.280  0.3485 -0.9367 -0.7965
 3351SOL     OW21514   2.633   2.650   5.929 -0.3791  0.2700 -0.1134
 3351SOL    HW121515   2.711   2.618   5.975 -0.8131  1.9658  1.8520
 3351SOL    HW221516   2.674   2.669   5.845 -1.2598  0.1294 -0.5691
 3352SOL     OW21517   3.822   0.075  14.875  0.1695  0.3036  0.1428
 3352SOL    HW121518   3.784   0.036  14.954  0.1176  2.9093  1.4013
 3352SOL    HW221519   3.833   4.720  14.828  0.9045 -0.2185  1.2200
 3353SOL     OW21520   1.228   2.271  17.289  0.0497  0.2014  0.0921
 3353SOL    HW121521   1.161   2.232  17.346 -0.0153  1.0494  0.5971
 3353SOL    HW221522   1.288   2.197  17.285 -0.0820 -0.0236  2.2807
 3354SOL     OW21523   2.562   2.543  14.549 -0.0051 -0.2537 -0.0571
 3354SOL    HW121524   2.490   2.547  14.486  0.6413  1.0772 -0.6947
 3354SOL    HW221525   2.587   2.451  14.536 -0.9186 -0.4355 -0.5094
 3355SOL     OW21526   0.938   1.363   5.326  0.4738 -0.0378 -0.1553
 3355SOL    HW121527   0.952   1.445   5.278  3.5054 -0.9362 -0.7886
 3355SOL    HW221528   0.922   1.307   5.250  0.9669  1.2098 -1.1825
 3356SOL     OW21529   1.555   1.012   1.590 -0.3159  0.4427 -0.3797
 3356SOL    HW121530   1.558   0.937   1.531  0.3290  0.1453  0.0341
 3356SOL    HW221531   1.464   1.004   1.621 -0.5139  1.0566 -0.7994
 3357SOL     OW21532   0.905   4.233   1.593 -0.0233 -0.0405  0.7376
 3357SOL    HW121533   0.844   4.306   1.590  0.9031  0.8008  2.6700
 3357SOL    HW221534   0.858   4.171   1.537  0.0425  0.6604 -0.0958
 3358SOL     OW21535   1.203   4.137  13.451  0.8999  0.2520 -0.3880
 3358SOL    HW121536   1.261   4.159  13.524 -1.1063  0.1624  1.2287
 3358SOL    HW221537   1.139   4.077  13.488  1.4301 -1.4985 -2.3066
 3359SOL     OW21538   3.908   1.768  14.619 -0.1056  0.6444 -0.0331
 3359SOL    HW121539   3.859   1.813  14.689  0.0170 -0.0781  0.5160
 3359SOL    HW221540   3.839   1.766  14.553 -0.6891  2.5279  0.4972
 3360SOL     OW21541   1.886   2.776   2.364 -0.5422 -0.6653  0.2813
 3360SOL    HW121542   1.829   2.820   2.427 -0.3846 -1.3359  0.8951
 3360SOL    HW221543   1.892   2.693   2.411 -0.1290 -0.3358  0.8139
 3361SOL     OW21544   3.778   1.681   4.484  0.6954  0.1685 -0.0606
 3361SOL    HW121545   3.805   1.625   4.557  1.0447 -1.0497 -1.1187
 3361SOL    HW221546   3.781   1.615   4.414  0.9513 -0.5560  0.6273
 3362SOL     OW21547   1.993   1.324  10.607 -0.0653 -0.1654 -0.1657
 3362SOL    HW121548   1.980   1.229  10.602  0.7959 -0.3892  1.8901
 3362SOL    HW221549   2.054   1.331  10.680  0.6363 -0.9009 -0.6839
 3363SOL     OW21550   1.080   2.576   3.567  0.9745 -0.0225 -0.1068
 3363SOL    HW121551   1.007   2.636   3.551  0.8466 -0.6443 -1.8852
 3363SOL    HW221552   1.047   2.505   3.622 -1.1925 -0.3920 -1.8510
 3364SOL     OW21553   1.518   4.138   7.332  0.3378 -0.1039 -0.1718
 3364SOL    HW121554   1.509   4.231   7.311  0.8792  0.8745  3.9506
 3364SOL    HW221555   1.499   4.146   7.425 -2.5777 -1.5944 -0.6427
 3365SOL     OW21556   4.669   0.478   6.287 -0.6867 -0.5064  0.2899
 3365SOL    HW121557   4.640   0.465   6.377 -2.0996  0.6766 -0.0026
 3365SOL    HW221558   4.715   0.560   6.305  1.1886 -1.1677 -1.3886
 3366SOL     OW21559   1.089   1.137   4.027 -0.4063  0.3306 -0.0926
 3366SOL    HW121560   1.117   1.047   4.045  1.2811  0.5879 -1.3449
 3366SOL    HW221561   1.013   1.115   3.973  1.3503 -0.8520 -2.1205
 3367SOL     OW21562   0.873   1.304   8.506 -0.4050 -0.1936 -0.1398
 3367SOL    HW121563   0.866   1.210   8.488  1.2391  0.4232 -3.9693
 3367SOL    HW221564   0.832   1.298   8.592 -0.5995  1.3768 -0.1196
 3368SOL     OW21565   3.093   0.365   5.524 -0.0414 -0.3605  0.3988
 3368SOL    HW121566   3.088   0.394   5.615 -1.7636 -3.2459  1.2150
 3368SOL    HW221567   3.173   0.406   5.492  0.1839 -0.8098  0.3888
 3369SOL     OW21568   1.244   2.642  11.610  0.1204  0.2506 -0.0043
 3369SOL    HW121569   1.161   2.628  11.656  0.2224 -4.7972 -1.2827
 3369SOL    HW221570   1.235   2.727  11.567 -1.0932  0.6701  1.0429
 3370SOL     OW21571   3.775   2.537   1.101  0.7259 -0.1439 -0.0737
 3370SOL    HW121572   3.716   2.486   1.157 -1.1009  1.6146 -0.3646
 3370SOL    HW221573   3.760   2.626   1.131  0.2139  0.1430 -1.1901
 3371SOL     OW21574   2.090   3.478   3.661 -0.5331 -0.2477 -0.1770
 3371SOL    HW121575   2.022   3.503   3.599  0.2909  0.1466 -0.9211
 3371SOL    HW221576   2.148   3.551   3.636 -1.1392 -0.6100 -2.6437
 3372SOL     OW21577   2.220   0.627   5.351  0.2288 -0.2259  0.0182
 3372SOL    HW121578   2.308   0.637   5.316 -0.6210 -0.3663 -2.1797
 3372SOL    HW221579   2.179   0.559   5.297 -3.0102  0.6616  1.3258
 3373SOL     OW21580   0.975   1.559   9.991 -0.2919 -0.1733 -0.2595
 3373SOL    HW121581   1.067   1.564   9.965 -0.2067 -1.6126 -0.2448
 3373SOL    HW221582   0.976   1.479  10.044  1.0955  1.0895  1.6218
 3374SOL     OW21583   3.754   2.451   8.570  0.1589 -0.3169  0.1100
 3374SOL    HW121584   3.686   2.389   8.596 -0.6920  0.4365 -0.3147
 3374SOL    HW221585   3.827   2.396   8.600 -0.6400 -1.1681  0.4966
 3375SOL     OW21586   2.352   3.780  10.491  0.1734  0.1299 -0.1485
 3375SOL    HW121587   2.277   3.811  10.439 -0.0778  0.7512  0.5920
 3375SOL    HW221588   2.416   3.849  10.474  1.3121 -0.7564  0.5368
 3376SOL     OW21589   3.406   2.523   5.581 -0.0466 -0.0648  0.0819
 3376SOL    HW121590   3.333   2.534   5.520  0.4582 -1.3704 -0.7404
 3376SOL    HW221591   3.425   2.430   5.568 -1.6672 -0.5177  0.9515
 3377SOL     OW21592   4.081   1.165  17.621 -0.2737 -0.0832  0.0298
 3377SOL    HW121593   4.153   1.102  17.628 -0.4382 -0.3137 -0.3401
 3377SOL    HW221594   4.010   1.109  17.652 -0.9694  0.1663 -1.1217
 3378SOL     OW21595   0.200   4.152   3.707  0.3748 -0.0744 -0.1451
 3378SOL    HW121596   0.152   4.195   3.778 -0.1656  0.2984 -0.7378
 3378SOL    HW221597   0.215   4.230   3.653  1.5510 -0.2007  0.0091
 3379SOL     OW21598   2.654   3.132   8.897  0.1428  0.4451 -0.0770
 3379SOL    HW121599   2.572   3.087   8.877  1.4181 -1.5052 -0.9960
 3379SOL    HW221600   2.697   3.131   8.811  0.2706 -1.5547 -0.0033
 3380SOL     OW21601   3.863   0.458   3.131  0.4570 -0.1309 -0.1546
 3380SOL    HW121602   3.876   0.484   3.040  1.2824  2.0219  0.5608
 3380SOL    HW221603   3.881   0.364   3.131 -0.0292 -0.2283  1.5346
 3381SOL     OW21604   4.584   3.275   7.406  0.1672  0.0899  0.0491
 3381SOL    HW121605   4.624   3.351   7.448  1.1935 -0.4451  0.0433
 3381SOL    HW221606   4.631   3.269   7.324  0.3737 -0.8152  0.2314
 3382SOL     OW21607   0.677   0.871   8.890  0.5248 -0.3484  0.0809
 3382SOL    HW121608   0.608   0.806   8.873 -0.5973  1.1605 -1.2129
 3382SOL    HW221609   0.743   0.833   8.831  2.2564  0.4575  1.5208
 3383SOL     OW21610   1.702   1.898   0.009  0.1972 -0.2542  0.1118
 3383SOL    HW121611   1.625   1.844   0.025  1.1273 -1.3162  1.0012
 3383SOL    HW221612   1.755   1.832  17.675 -1.1991 -1.1543 -0.2136
 3384SOL     OW21613   1.902   3.590   4.777 -0.0925  0.1760 -0.4391
 3384SOL    HW121614   1.863   3.677   4.771 -0.2921  0.2826  2.5453
 3384SOL    HW221615   1.877   3.547   4.695 -0.8314  0.5760 -0.4287
 3385SOL     OW21616   1.187   4.725   7.876 -0.3057  0.1925 -0.5426
 3385SOL    HW121617   1.109   0.008   7.931 -0.1198 -1.1793 -0.0118
 3385SOL    HW221618   1.200   4.636   7.907  0.5560  1.0182  1.4638
 3386SOL     OW21619   3.918   1.620   8.948  0.2711  0.0908  0.8393
 3386SOL    HW121620   3.912   1.677   8.872  0.6871 -0.5124  0.3538
 3386SOL    HW221621   3.928   1.535   8.904  0.3155  0.2779  0.4862
 3387SOL     OW21622   1.299   0.293  16.386  0.3121 -0.1010 -0.7912
 3387SOL    HW121623   1.218   0.301  16.436  0.9252 -0.8584  0.3534
 3387SOL    HW221624   1.291   0.361  16.319  2.2780  0.2289 -0.6823
 3388SOL     OW21625   0.138   1.627   3.648 -0.4946  0.6747  0.1223
 3388SOL    HW121626   0.202   1.592   3.586 -0.2506  0.5444  0.4509
 3388SOL    HW221627   0.111   1.542   3.681  1.7410 -0.1519 -0.1899
 3389SOL     OW21628   4.043   3.219   5.493 -0.3794  0.0685 -0.5460
 3389SOL    HW121629   4.062   3.128   5.470  0.3503 -0.2137  1.2263
 3389SOL    HW221630   4.129   3.247   5.523 -1.7001  0.2748  3.0004
 3390SOL     OW21631   2.854   0.508   5.986 -0.0875 -0.5604 -0.3734
 3390SOL    HW121632   2.870   0.464   6.069  1.0454 -0.5178 -0.5681
 3390SOL    HW221633   2.764   0.478   5.979  0.5314 -2.2720 -1.0814
 3391SOL     OW21634   4.677   4.030   6.414  0.7420  0.1265  0.7003
 3391SOL    HW121635   4.694   4.020   6.507  2.0310  1.9851  0.6466
 3391SOL    HW221636   4.601   3.972   6.403 -0.7767  2.1737  0.4729
 3392SOL     OW21637   1.840   1.536   4.441 -0.2453 -0.5883  0.0466
 3392SOL    HW121638   1.896   1.558   4.515  0.2233 -0.8646 -0.2267
 3392SOL    HW221639   1.902   1.542   4.369  1.6298 -3.5414  1.4083
 3393SOL     OW21640   0.386   0.297   4.092  0.1613 -0.4500  0.1538
 3393SOL    HW121641   0.344   0.212   4.103 -0.1045 -0.0461  2.3132
 3393SOL    HW221642   0.308   0.341   4.059 -1.5800 -2.3023  1.8125
 3394SOL     OW21643   4.212   0.298   2.136  0.3475 -0.0332 -0.2650
 3394SOL    HW121644   4.269   0.348   2.077 -2.6386  2.9512 -0.5693
 3394SOL    HW221645   4.266   0.296   2.215 -1.3296  0.6267  0.8990
 3395SOL     OW21646   4.369   0.184  11.496 -0.6686  0.3141 -0.1730
 3395SOL    HW121647   4.438   0.119  11.495 -0.1837  0.8043  2.0396
 3395SOL    HW221648   4.348   0.174  11.588 -4.3128  1.0312 -0.9031
 3396SOL     OW21649   2.643   3.255   8.276  0.3940  0.1261 -0.2634
 3396SOL    HW121650   2.664   3.294   8.191  0.6294  0.4102 -0.0729
 3396SOL    HW221651   2.711   3.292   8.332 -0.3700 -2.2602  2.2312
 3397SOL     OW21652   2.640   2.311  10.846 -0.2410 -0.1702  0.4902
 3397SOL    HW121653   2.665   2.382  10.905  0.0831  1.4139 -1.5624
 3397SOL    HW221654   2.717   2.258  10.868 -0.6188 -0.4618  1.1250
 3398SOL     OW21655   1.672   4.421  11.681  0.2401  0.3685 -0.1071
 3398SOL    HW121656   1.685   4.403  11.774  2.7783  1.2537 -0.2990
 3398SOL    HW221657   1.761   4.438  11.652 -0.0155  1.7244 -0.0797
 3399SOL     OW21658   0.644   0.207   9.079  0.4641 -0.0485  0.4364
 3399SOL    HW121659   0.625   0.201   9.173  1.5717  0.1734  0.6701
 3399SOL    HW221660   0.739   0.216   9.076  0.5086 -0.6795 -0.1175
 3400SOL     OW21661   2.580   2.061   6.623 -0.1248 -0.3655  0.5133
 3400SOL    HW121662   2.612   2.146   6.595  0.2874 -0.2276  1.4182
 3400SOL    HW221663   2.518   2.030   6.557  2.1291  0.2231 -1.8621
 3401SOL     OW21664   2.640   0.049   3.142  0.7290  0.1004 -0.5289
 3401SOL    HW121665   2.695   4.698   3.145 -0.5184 -0.7866 -0.8570
 3401SOL    HW221666   2.679   0.096   3.216  0.2965 -1.0807  0.4520
 3402SOL     OW21667   0.346   3.763   1.872  0.7071  0.0554  0.1567
 3402SOL    HW121668   0.324   3.847   1.913 -0.0434  1.2227 -2.5943
 3402SOL    HW221669   0.266   3.711   1.873  0.8356 -0.2577 -4.0912
 3403SOL     OW21670   0.087   0.152   6.440 -0.4035 -0.2498 -0.6427
 3403SOL    HW121671   0.017   0.208   6.406  0.5462  0.6004 -1.2065
 3403SOL    HW221672   0.084   0.079   6.378 -0.0284 -0.1405 -0.7902
 3404SOL     OW21673   2.819   4.714  10.056 -0.0307  0.1163  0.0746
 3404SOL    HW121674   2.817   4.623  10.027  0.8545  0.2337 -0.3610
 3404SOL    HW221675   2.864   0.039   9.989  0.1562 -1.5616 -1.1324
 3405SOL     OW21676   0.523   3.729   6.520  0.8175  0.1115 -0.0841
 3405SOL    HW121677   0.438   3.701   6.554 -0.2226  0.7864 -2.1055
 3405SOL    HW221678   0.565   3.644   6.532 -1.5837 -1.0577  0.1225
 3406SOL     OW21679   0.331   0.195   7.875  0.3107  0.2051  0.2768
 3406SOL    HW121680   0.357   0.106   7.853  0.3619 -0.2876  2.3979
 3406SOL    HW221681   0.379   0.245   7.808 -1.6542 -0.2823 -1.4914
 3407SOL     OW21682   4.388   3.189  12.214  0.0665 -0.6715 -0.1441
 3407SOL    HW121683   4.342   3.106  12.223  1.1681 -1.0400  2.0771
 3407SOL    HW221684   4.323   3.238  12.264  0.3444  0.6442 -1.0474
 3408SOL     OW21685   3.252   1.235  14.557 -0.0181 -0.7364  0.4608
 3408SOL    HW121686   3.278   1.220  14.648 -0.4944  0.0930  0.7397
 3408SOL    HW221687   3.164   1.271  14.571  0.2969  0.0576  0.3964
 3409SOL     OW21688   2.350   2.788   6.100 -0.0421 -0.0314  0.4062
 3409SOL    HW121689   2.418   2.855   6.106 -0.5070  0.5872 -1.3092
 3409SOL    HW221690   2.399   2.709   6.080  2.1719  1.4213  0.1081
 3410SOL     OW21691   4.362   3.944   0.115  0.3282 -0.1973 -0.3831
 3410SOL    HW121692   4.359   3.895   0.032 -2.9480 -1.7851  0.6770
 3410SOL    HW221693   4.410   4.024   0.096 -2.6344  1.0762 -2.5474
 3411SOL     OW21694   3.506   3.513   3.763 -0.4681  0.5198  0.5681
 3411SOL    HW121695   3.434   3.544   3.708  0.2636  0.3931 -0.4682
 3411SOL    HW221696   3.555   3.479   3.688  0.3237  0.8927  0.9080
 3412SOL     OW21697   0.764   0.818   7.142  0.2625 -0.9165  0.3700
 3412SOL    HW121698   0.737   0.740   7.093 -0.9271 -1.0292  1.1957
 3412SOL    HW221699   0.681   0.864   7.152 -0.0327 -1.0702 -1.2993
 3413SOL     OW21700   4.302   3.863   2.126 -0.4754 -0.5038  0.4931
 3413SOL    HW121701   4.389   3.858   2.087  0.2362 -2.4909  2.3337
 3413SOL    HW221702   4.257   3.932   2.078 -1.2224 -0.8850  0.6306
 3414SOL     OW21703   3.664   1.081   4.938  0.0967  0.4325 -0.2196
 3414SOL    HW121704   3.636   1.061   5.027 -1.8324 -0.2437 -0.9825
 3414SOL    HW221705   3.754   1.109   4.958  1.0137 -1.7330 -1.3736
 3415SOL     OW21706   0.696   0.775   3.597 -0.1214  0.3466  0.1972
 3415SOL    HW121707   0.747   0.827   3.535 -1.0393 -0.5002 -1.2590
 3415SOL    HW221708   0.655   0.843   3.651 -0.8133  0.4632 -0.4781
 3416SOL     OW21709   3.948   4.343   7.298 -0.7787 -0.1487  0.1623
 3416SOL    HW121710   4.017   4.408   7.312 -0.4149 -0.0632 -2.0698
 3416SOL    HW221711   3.886   4.405   7.261 -2.1549 -0.2655  2.3174
 3417SOL     OW21712   2.909   0.205   1.956 -0.0901 -0.0316 -0.1670
 3417SOL    HW121713   2.958   0.125   1.937  1.5174  0.6666  1.0282
 3417SOL    HW221714   2.920   0.255   1.875 -0.9176 -3.8305 -2.6221
 3418SOL     OW21715   4.431   4.162   2.133  0.0607  0.2577  0.4740
 3418SOL    HW121716   4.492   4.130   2.067 -1.7154 -1.1000 -0.5215
 3418SOL    HW221717   4.348   4.159   2.085 -0.8776  0.4580  2.0825
 3419SOL     OW21718   4.594   2.033   8.387  0.1737  0.3408  0.0058
 3419SOL    HW121719   4.538   2.110   8.392 -2.6160 -1.7633  0.7381
 3419SOL    HW221720   4.583   2.018   8.293  0.5737  1.1224 -0.1656
 3420SOL     OW21721   1.269   1.743  11.630  0.3564 -0.5986 -0.4155
 3420SOL    HW121722   1.295   1.651  11.642  0.1851 -0.5257  0.5571
 3420SOL    HW221723   1.304   1.767  11.545 -3.0813  0.8589 -1.3870
 3421SOL     OW21724   0.034   2.992   3.954 -0.0307 -0.2215  0.1312
 3421SOL    HW121725   4.719   2.947   3.882  0.6553 -0.2489 -0.2491
 3421SOL    HW221726   0.045   3.079   3.915  1.2376  0.1056  1.2154
 3422SOL     OW21727   1.397   3.522  16.069  0.0075 -0.0272  0.4214
 3422SOL    HW121728   1.441   3.439  16.089  1.4842  0.7145  0.2536
 3422SOL    HW221729   1.446   3.554  15.993  0.5814 -1.2813  0.2697
 3423SOL     OW21730   4.320   0.616   6.321  0.3710  0.0413 -0.1469
 3423SOL    HW121731   4.254   0.636   6.387  0.6920 -0.8112  0.4402
 3423SOL    HW221732   4.398   0.646   6.367  1.1952 -1.3195 -0.6379
 3424SOL     OW21733   2.639   0.619   7.180  0.2708  0.3131  0.3798
 3424SOL    HW121734   2.681   0.562   7.244 -1.1136 -0.1056  0.8993
 3424SOL    HW221735   2.679   0.578   7.103 -1.7729  0.6944 -0.9005
 3425SOL     OW21736   0.949   3.880  11.934  0.5450  0.4700  0.0605
 3425SOL    HW121737   0.978   3.966  11.902  1.6911 -0.3894 -1.1844
 3425SOL    HW221738   0.922   3.833  11.855  1.7821 -0.1960  0.0352
 3426SOL     OW21739   2.016   3.381   5.662  0.4265  0.8099  0.1590
 3426SOL    HW121740   1.985   3.470   5.646 -0.1606  0.6124  0.2041
 3426SOL    HW221741   2.094   3.379   5.606 -1.1842  2.3091 -2.1072
 3427SOL     OW21742   2.941   4.082  17.688 -0.4190  0.0712  0.1229
 3427SOL    HW121743   2.851   4.095   0.006 -0.6205 -1.7551  0.3121
 3427SOL    HW221744   2.939   4.034  17.605  0.2566  0.3757 -0.0652
 3428SOL     OW21745   1.811   0.727  14.003  0.2965  0.2085  0.1627
 3428SOL    HW121746   1.848   0.758  14.086  0.6873 -0.1911  0.1331
 3428SOL    HW221747   1.734   0.784  14.002  1.0304  1.1700 -1.1967
 3429SOL     OW21748   0.675   4.210   7.986 -0.3023 -0.1994  0.0155
 3429SOL    HW121749   0.770   4.196   7.986 -0.1037  1.0702  1.2958
 3429SOL    HW221750   0.645   4.146   8.050  0.2621  0.2736  0.7557
 3430SOL     OW21751   3.807   0.281   1.636  0.0334 -0.2242 -0.0679
 3430SOL    HW121752   3.742   0.213   1.657  0.2337 -0.9133 -1.6802
 3430SOL    HW221753   3.796   0.281   1.541  0.8605 -0.4589 -0.1642
 3431SOL     OW21754   0.947   0.419   0.645 -0.6456  0.9566 -0.3034
 3431SOL    HW121755   0.853   0.428   0.632 -1.2062 -0.9631  2.4453
 3431SOL    HW221756   0.969   0.507   0.676 -0.6458  0.9171 -0.1899
 3432SOL     OW21757   2.994   1.361   5.147 -0.0041  0.4245  0.0873
 3432SOL    HW121758   2.921   1.300   5.135 -1.1024  1.6306  0.4926
 3432SOL    HW221759   2.949   1.445   5.158 -0.1863  0.7540 -3.0840
 3433SOL     OW21760   1.712   4.475   7.460 -0.5475  0.6341  0.0297
 3433SOL    HW121761   1.673   4.458   7.546 -0.1196 -1.5928 -0.2267
 3433SOL    HW221762   1.747   4.563   7.476 -0.0931  0.3233  0.7646
 3434SOL     OW21763   3.679   3.549   7.024 -0.7405  0.4920  0.5544
 3434SOL    HW121764   3.610   3.495   7.063  0.0480 -2.0831 -1.6128
 3434SOL    HW221765   3.714   3.588   7.104  2.2425 -1.1959  0.0794
 3435SOL     OW21766   3.391   1.349   7.849  0.2024 -0.7314 -0.2317
 3435SOL    HW121767   3.478   1.361   7.810  0.5289 -2.0237  0.0711
 3435SOL    HW221768   3.377   1.439   7.877  0.7865 -0.3891 -1.0135
 3436SOL     OW21769   0.399   0.115   3.105  0.3297 -0.2187  0.2118
 3436SOL    HW121770   0.362   0.042   3.056  1.9449 -2.2017  1.9627
 3436SOL    HW221771   0.462   0.078   3.167  0.5863 -0.5715 -0.2644
 3437SOL     OW21772   2.152   0.465   9.435 -0.1978 -0.8935 -0.1816
 3437SOL    HW121773   2.233   0.481   9.484 -0.6486  1.2821 -0.1407
 3437SOL    HW221774   2.143   0.560   9.425 -1.5198 -1.1050 -0.8788
 3438SOL     OW21775   3.022   4.246   4.877  0.6301 -0.0723 -0.3839
 3438SOL    HW121776   3.006   4.219   4.787 -0.2723 -1.5046  0.1993
 3438SOL    HW221777   3.003   4.339   4.877 -1.2300 -0.4496 -3.4625
 3439SOL     OW21778   2.510   4.148   5.723  0.5514 -0.1868  0.1131
 3439SOL    HW121779   2.545   4.204   5.655 -1.0951  1.7533  0.8677
 3439SOL    HW221780   2.580   4.155   5.788 -0.9777 -0.3534  1.7902
 3440SOL     OW21781   2.175   3.143   5.427 -0.0685 -0.0801  0.3643
 3440SOL    HW121782   2.137   3.175   5.345  2.3350 -0.5975 -0.9453
 3440SOL    HW221783   2.097   3.116   5.476 -1.0479  0.0649 -1.1127
 3441SOL     OW21784   1.330   4.438   1.834  0.1074  0.3164 -0.2331
 3441SOL    HW121785   1.418   4.464   1.860 -0.2405  3.3268 -2.0981
 3441SOL    HW221786   1.311   4.479   1.750 -0.6845 -2.4551 -1.4162
 3442SOL     OW21787   4.586   0.463   8.998 -0.0410  0.4249  0.6766
 3442SOL    HW121788   4.591   0.377   8.956  1.9021  1.5636 -1.3846
 3442SOL    HW221789   4.495   0.455   9.027 -0.0208  1.7125  1.0665
 3443SOL     OW21790   3.279   4.389   8.837 -0.0107  0.4868  0.4964
 3443SOL    HW121791   3.266   4.459   8.773  1.4640 -0.6668 -1.0864
 3443SOL    HW221792   3.365   4.354   8.812 -0.4332  0.7386 -1.3494
 3444SOL     OW21793   1.391   2.048   8.976  0.4035 -0.4885  0.2273
 3444SOL    HW121794   1.423   2.061   8.887 -1.4071 -2.2393 -0.6955
 3444SOL    HW221795   1.400   2.136   9.011  1.7825  0.5765 -2.8129
 3445SOL     OW21796   2.736   2.565   6.773 -0.3863 -0.1269 -0.2537
 3445SOL    HW121797   2.672   2.506   6.733  1.6416 -1.9037 -0.8355
 3445SOL    HW221798   2.692   2.581   6.857 -0.1835 -0.3548 -0.1038
 3446SOL     OW21799   4.152   3.089   4.712 -0.1259  0.2443 -0.1942
 3446SOL    HW121800   4.134   3.133   4.629  3.3767  2.1109  0.0385
 3446SOL    HW221801   4.133   3.163   4.770  2.8122 -0.9981  2.3802
 3447SOL     OW21802   0.109   3.074   6.043  0.0281 -0.7555 -0.4159
 3447SOL    HW121803   0.176   3.074   6.111  1.5475 -4.8482 -1.9289
 3447SOL    HW221804   0.150   3.014   5.980 -0.6195 -0.2224 -1.3411
 3448SOL     OW21805   2.556   0.352   4.889 -0.4992  0.0542 -0.5212
 3448SOL    HW121806   2.473   0.399   4.887 -1.4531 -1.5894  0.8855
 3448SOL    HW221807   2.595   0.383   4.970 -0.8506 -2.5436  0.6432
 3449SOL     OW21808   0.597   0.768   6.064 -0.3283 -0.3473 -0.5084
 3449SOL    HW121809   0.601   0.672   6.072 -1.6433 -0.2768  1.0875
 3449SOL    HW221810   0.503   0.780   6.062 -0.3203 -0.0111  0.9615
 3450SOL     OW21811   0.946   3.979   6.851  0.3343  0.3299  0.0016
 3450SOL    HW121812   0.970   3.968   6.759 -0.8694  1.3925 -0.4403
 3450SOL    HW221813   1.020   3.950   6.904 -0.9992 -0.1005  1.6365
 3451SOL     OW21814   4.477   3.412   3.551  0.3702 -0.0950 -0.6325
 3451SOL    HW121815   4.463   3.366   3.634  0.8001 -0.4116 -0.7365
 3451SOL    HW221816   4.527   3.347   3.502 -2.4990 -1.7079 -1.4153
 3452SOL     OW21817   4.554   0.345  12.996 -0.2659  0.1043 -0.1153
 3452SOL    HW121818   4.622   0.376  12.936 -1.4406 -1.3379 -2.1975
 3452SOL    HW221819   4.489   0.313  12.933  0.5757  2.1878 -2.0399
 3453SOL     OW21820   0.665   4.709   6.625 -0.0448  0.0046 -0.1458
 3453SOL    HW121821   0.642   4.715   6.533  1.8682 -0.8233 -0.6662
 3453SOL    HW221822   0.759   4.695   6.627  0.0267  0.3134 -1.6644
 3454SOL     OW21823   4.570   1.898   5.697 -0.3232  0.5237  0.1016
 3454SOL    HW121824   4.492   1.940   5.659 -0.1209 -0.3278 -1.2925
 3454SOL    HW221825   4.627   1.893   5.620 -0.1284 -0.8025  0.3317
 3455SOL     OW21826   2.261   0.565   0.843 -1.0177  0.1910 -0.1033
 3455SOL    HW121827   2.285   0.626   0.913  0.8171 -1.6052  0.7930
 3455SOL    HW221828   2.237   0.494   0.902 -0.3713  0.7680  0.8508
 3456SOL     OW21829   0.279   4.710   9.739  0.0853  0.0777 -0.1333
 3456SOL    HW121830   0.309   0.038   9.667  0.1253  0.9281  0.5404
 3456SOL    HW221831   0.260   4.629   9.691  0.9490 -0.4850  0.4648
 3457SOL     OW21832   3.458   1.144  15.583 -0.5503 -0.1615  0.9176
 3457SOL    HW121833   3.455   1.215  15.648  2.9332 -0.3048  1.2839
 3457SOL    HW221834   3.475   1.068  15.639 -1.0954 -0.4097  0.7344
 3458SOL     OW21835   3.233   1.603   6.008  0.1767  0.3076 -0.1827
 3458SOL    HW121836   3.177   1.528   5.987 -0.2646  0.5283  0.2083
 3458SOL    HW221837   3.287   1.562   6.075  1.6868  0.8181 -1.0882
 3459SOL     OW21838   2.777   0.656   6.642 -0.3505  0.4259 -0.1956
 3459SOL    HW121839   2.687   0.690   6.648 -1.5636 -2.6161 -0.9041
 3459SOL    HW221840   2.787   0.629   6.734  1.7897 -0.9982 -0.8554
 3460SOL     OW21841   2.096   2.947  13.456 -0.0292  0.2406 -0.2991
 3460SOL    HW121842   2.022   2.960  13.515  0.7235  0.7649  0.5269
 3460SOL    HW221843   2.061   2.897  13.382 -1.2759  0.4202  0.1706
 3461SOL     OW21844   0.469   2.538   4.831 -0.1452 -0.0329 -0.4555
 3461SOL    HW121845   0.495   2.583   4.750 -1.0248 -2.2883 -1.9852
 3461SOL    HW221846   0.382   2.577   4.829  0.3636  1.1879  0.8606
 3462SOL     OW21847   4.551   1.692  16.405 -0.4658  0.2990 -0.2743
 3462SOL    HW121848   4.469   1.726  16.369 -0.9977 -1.4073 -0.6663
 3462SOL    HW221849   4.618   1.691  16.336  0.0645  1.0988  0.2325
 3463SOL     OW21850   3.690   4.088   3.349  0.6688  0.5090  0.2825
 3463SOL    HW121851   3.751   4.061   3.280 -2.0838  0.0677 -2.0149
 3463SOL    HW221852   3.665   4.178   3.327 -0.0483  0.1342 -0.4629
 3464SOL     OW21853   2.594   4.642   0.107 -0.0482 -0.1784 -0.0794
 3464SOL    HW121854   2.584   4.570   0.169  0.7694 -0.3540 -0.1539
 3464SOL    HW221855   2.547   4.721   0.133  0.8961  0.5070 -0.4467
 3465SOL     OW21856   2.457   4.586   2.856  0.3584  0.6968 -0.0408
 3465SOL    HW121857   2.509   4.508   2.837 -0.2897  0.0498  0.8563
 3465SOL    HW221858   2.534   4.637   2.881  0.1604  0.9747  0.0028
 3466SOL     OW21859   2.984   0.692   8.639 -0.3842  0.3721  0.3674
 3466SOL    HW121860   3.013   0.784   8.642  0.7023  0.0144  1.0869
 3466SOL    HW221861   3.057   0.645   8.598 -0.5963 -0.2970  0.7492
 3467SOL     OW21862   0.338   4.493   2.760 -0.8173  0.0521  0.6195
 3467SOL    HW121863   0.297   4.417   2.718  0.9875 -0.2776 -0.5441
 3467SOL    HW221864   0.430   4.468   2.759 -0.1963  2.3331  2.1380
 3468SOL     OW21865   1.423   3.572   8.555  0.2183  0.2152 -0.1242
 3468SOL    HW121866   1.330   3.569   8.533  0.0141  0.4434  0.6823
 3468SOL    HW221867   1.446   3.665   8.548  2.6617 -0.2173  1.8695
 3469SOL     OW21868   2.627   2.348  14.904  0.0091 -0.1372 -0.3294
 3469SOL    HW121869   2.719   2.338  14.927 -0.0902 -3.0141 -1.0724
 3469SOL    HW221870   2.607   2.430  14.949 -0.7181 -0.1044 -0.7064
 3470SOL     OW21871   2.410   4.004   6.855 -0.0880  0.2742  0.1824
 3470SOL    HW121872   2.336   4.061   6.877  0.2254 -0.1129  2.2241
 3470SOL    HW221873   2.389   3.924   6.902 -0.8811 -0.2211 -1.0326
 3471SOL     OW21874   3.820   1.210   0.742 -0.0040  0.0793  0.2445
 3471SOL    HW121875   3.905   1.194   0.783  0.1010 -0.3744 -0.1555
 3471SOL    HW221876   3.836   1.299   0.710 -2.6599  0.7165  0.6856
 3472SOL     OW21877   3.938   3.289   5.255 -0.0953  0.2385 -0.1315
 3472SOL    HW121878   4.030   3.283   5.232  0.1499 -2.6954  1.5863
 3472SOL    HW221879   3.947   3.276   5.349  2.1847  0.6069 -0.3122
 3473SOL     OW21880   3.815   3.753  12.896 -0.0831  0.4291 -0.2112
 3473SOL    HW121881   3.774   3.838  12.884  0.7139  0.7327 -0.7276
 3473SOL    HW221882   3.847   3.755  12.986  1.1904  0.8654 -0.6839
 3474SOL     OW21883   1.002   3.563  12.892 -0.0844  0.1139  0.0667
 3474SOL    HW121884   1.091   3.585  12.917  1.0918 -0.9706 -3.0953
 3474SOL    HW221885   0.973   3.499  12.957  1.4545 -2.2816 -1.6195
 3475SOL     OW21886   2.870   0.143   8.348 -0.0556  0.6411  0.4531
 3475SOL    HW121887   2.782   0.121   8.317 -0.4325  2.1329  0.4497
 3475SOL    HW221888   2.916   0.138   8.264 -0.9748  0.0696 -0.0229
 3476SOL     OW21889   1.690   3.793   0.471 -0.1142  0.4662  0.1402
 3476SOL    HW121890   1.625   3.751   0.415 -1.3651 -2.1251  3.5228
 3476SOL    HW221891   1.765   3.806   0.413 -1.0730 -0.7714 -1.3682
 3477SOL     OW21892   1.711   2.407   8.943 -0.2682 -0.1853  0.3519
 3477SOL    HW121893   1.750   2.483   8.986  1.0262 -0.2927 -0.6313
 3477SOL    HW221894   1.649   2.372   9.008  1.0559 -0.7826  1.2928
 3478SOL     OW21895   4.044   3.302   8.607  0.5789  0.3204 -0.1869
 3478SOL    HW121896   4.084   3.233   8.659  0.8554 -0.5656 -1.5809
 3478SOL    HW221897   4.104   3.327   8.537 -1.7196 -0.6443 -2.5103
 3479SOL     OW21898   1.835   0.505   5.406 -0.0996 -0.4134  0.1377
 3479SOL    HW121899   1.860   0.521   5.497 -0.9654  0.7560  0.1633
 3479SOL    HW221900   1.889   0.431   5.378 -1.1431 -0.2183 -2.4412
 3480SOL     OW21901   4.290   1.797   1.083  0.0159  0.0886  0.0223
 3480SOL    HW121902   4.288   1.804   0.988  2.5782 -1.4872 -0.1390
 3480SOL    HW221903   4.379   1.832   1.094  0.0370 -0.1263  0.5588
 3481SOL     OW21904   4.483   1.734   7.630 -0.2592  0.5737 -0.0317
 3481SOL    HW121905   4.534   1.699   7.702 -0.9344  0.0511  0.1936
 3481SOL    HW221906   4.453   1.815   7.671 -1.0837  0.1419  0.2188
 3482SOL     OW21907   3.282   4.221   7.183  0.9499  0.0422 -0.0511
 3482SOL    HW121908   3.314   4.136   7.214  1.8106  0.6986  0.8377
 3482SOL    HW221909   3.315   4.277   7.252  0.4136 -0.7665  0.8629
 3483SOL     OW21910   2.239   1.673   2.739 -0.7136  0.1212 -0.0327
 3483SOL    HW121911   2.165   1.725   2.768 -2.8696 -1.1829 -3.1509
 3483SOL    HW221912   2.192   1.590   2.732  0.3227 -0.6523  2.2270
 3484SOL     OW21913   0.689   3.585   0.243  0.1133 -0.4432  0.4758
 3484SOL    HW121914   0.677   3.516   0.178  1.9002  0.7593 -1.1383
 3484SOL    HW221915   0.760   3.634   0.202 -0.1438  0.4998  1.1388
 3485SOL     OW21916   4.630   1.830   8.131  0.1478 -0.3896  0.5574
 3485SOL    HW121917   4.710   1.858   8.174  1.0148 -0.6962 -0.8522
 3485SOL    HW221918   4.595   1.903   8.079 -3.0978 -0.9906  1.8859
 3486SOL     OW21919   2.087   2.115  11.872 -0.1291 -0.4325  0.1058
 3486SOL    HW121920   2.072   2.087  11.962  0.0654  0.5660  0.4557
 3486SOL    HW221921   2.059   2.206  11.879  2.4165  0.4045 -0.5905
 3487SOL     OW21922   4.104   3.622  14.720  0.5753 -0.1064 -0.3331
 3487SOL    HW121923   4.032   3.673  14.757  0.8708  0.2979 -0.3206
 3487SOL    HW221924   4.180   3.641  14.775 -0.0386  3.1668 -0.6599
 3488SOL     OW21925   2.000   1.151  10.943 -0.3873  0.3141 -0.0625
 3488SOL    HW121926   2.049   1.206  10.881  2.2897 -0.6439  1.1642
 3488SOL    HW221927   2.008   1.206  11.021  1.2255 -0.5241  0.3668
 3489SOL     OW21928   3.448   0.593   6.101  0.0755  0.5613 -0.1899
 3489SOL    HW121929   3.456   0.550   6.016  0.4388  2.1654 -0.9701
 3489SOL    HW221930   3.364   0.637   6.096  0.3243  1.1094  0.4264
 3490SOL     OW21931   3.804   3.594   1.398 -0.3118 -0.3817  0.1970
 3490SOL    HW121932   3.835   3.547   1.321 -3.1655  0.6280 -1.5363
 3490SOL    HW221933   3.774   3.515   1.443 -2.8954  0.5785  0.1435
 3491SOL     OW21934   3.400   1.524   2.677  0.2571 -0.1904  0.2951
 3491SOL    HW121935   3.439   1.518   2.590  0.0337  4.3848 -0.1129
 3491SOL    HW221936   3.378   1.618   2.676 -0.6400 -0.3965  0.2668
 3492SOL     OW21937   0.560   2.715   7.115  0.0396  0.0769  0.2367
 3492SOL    HW121938   0.577   2.809   7.113  0.3921 -0.0136 -0.8075
 3492SOL    HW221939   0.466   2.711   7.131 -0.1486  0.4664 -0.7979
 3493SOL     OW21940   1.523   0.066   4.534  0.0966  0.4477  0.2102
 3493SOL    HW121941   1.524   4.726   4.601  1.8461  0.9846  0.7174
 3493SOL    HW221942   1.484   0.139   4.581  2.2462  1.6452  0.1002
 3494SOL     OW21943   2.509   0.883   3.481 -0.1449 -0.2568  0.2485
 3494SOL    HW121944   2.491   0.790   3.471 -1.1317 -0.0029 -0.2679
 3494SOL    HW221945   2.520   0.902   3.574 -0.1954  0.6201  0.0700
 3495SOL     OW21946   4.107   4.463   1.367  0.4100 -0.2742  0.2185
 3495SOL    HW121947   4.193   4.499   1.390 -0.1210  1.1853 -0.1394
 3495SOL    HW221948   4.134   4.402   1.298  0.6906 -1.4030  1.3134
 3496SOL     OW21949   1.093   1.043  15.846  0.0228  1.1172  0.8722
 3496SOL    HW121950   1.101   0.949  15.859  1.8909  1.0041 -1.1802
 3496SOL    HW221951   1.011   1.075  15.886 -0.1342  1.0135  0.6332
 3497SOL     OW21952   0.219   1.036   5.338 -0.0507  0.0192 -0.8798
 3497SOL    HW121953   0.235   1.062   5.429  1.2617  0.7874 -1.3312
 3497SOL    HW221954   0.243   0.944   5.350 -0.0498 -0.2392 -2.8556
 3498SOL     OW21955   3.169   2.355  11.839 -0.2997 -0.5550 -0.6102
 3498SOL    HW121956   3.085   2.310  11.828 -0.1829 -0.8915 -0.1208
 3498SOL    HW221957   3.169   2.367  11.934 -0.1007  1.9341 -0.9106
 3499SOL     OW21958   4.611   1.964   4.695  0.1263  0.1020 -0.0918
 3499SOL    HW121959   4.577   2.023   4.628 -2.0629 -1.2627 -0.1989
 3499SOL    HW221960   4.537   1.904   4.707  1.3636 -1.6744 -1.4010
 3500SOL     OW21961   3.027   4.215  17.180 -0.1502  0.0808 -0.4625
 3500SOL    HW121962   3.079   4.257  17.112 -0.2050  1.8607  0.6006
 3500SOL    HW221963   3.015   4.126  17.145 -2.4809  0.3325 -0.3272
 3501SOL     OW21964   4.226   3.561   6.841 -0.6778  0.2036  0.3913
 3501SOL    HW121965   4.214   3.524   6.753  1.9237  1.4025 -0.4402
 3501SOL    HW221966   4.156   3.511   6.884 -1.0093 -1.5972 -2.1796
 3502SOL     OW21967   2.315   1.828   6.072 -0.4495 -0.0345 -0.2628
 3502SOL    HW121968   2.303   1.909   6.122 -0.9757 -0.5658  0.4720
 3502SOL    HW221969   2.280   1.856   5.987 -0.3284  0.8503 -0.0191
 3503SOL     OW21970   2.368   1.720   4.070  0.4429 -0.1388  0.0735
 3503SOL    HW121971   2.463   1.708   4.061  0.5323  0.8119 -0.1948
 3503SOL    HW221972   2.347   1.662   3.997 -1.8464  1.2027 -0.2990
 3504SOL     OW21973   1.259   0.990  15.170 -0.1432 -0.2410 -0.3203
 3504SOL    HW121974   1.271   1.036  15.253  1.1439  1.4045 -1.4278
 3504SOL    HW221975   1.347   0.997  15.133  1.0974  0.1767  2.7090
 3505SOL     OW21976   4.027   4.255   8.327 -0.0431 -0.5510 -0.0062
 3505SOL    HW121977   4.058   4.321   8.265 -0.7719  1.2348  1.5427
 3505SOL    HW221978   3.937   4.287   8.336  0.4733  2.2797 -4.5790
 3506SOL     OW21979   2.158   0.740   2.191  0.3454 -0.3252  0.9847
 3506SOL    HW121980   2.155   0.781   2.277 -1.0538  1.3572  0.1558
 3506SOL    HW221981   2.161   0.646   2.207 -0.8224 -0.4687  0.4002
 3507SOL     OW21982   2.534   0.695  17.521 -0.3871 -0.5142 -0.5234
 3507SOL    HW121983   2.618   0.741  17.524  0.6234 -2.3480 -1.0622
 3507SOL    HW221984   2.551   0.630  17.589  1.4997  1.8028  1.2487
 3508SOL     OW21985   2.050   0.388   2.264  1.2241  0.2023 -0.2838
 3508SOL    HW121986   2.068   0.411   2.355  1.9258 -0.2394 -0.3123
 3508SOL    HW221987   1.954   0.384   2.265  1.1931  0.4701 -2.0519
 3509SOL     OW21988   1.362   0.023   8.765  0.5663 -0.2155  0.0256
 3509SOL    HW121989   1.299   4.682   8.742  0.8142 -0.0322 -1.1948
 3509SOL    HW221990   1.407   4.719   8.843  2.4168  1.9951 -0.1514
 3510SOL     OW21991   0.411   0.756   6.432 -0.2094 -0.1028  0.1822
 3510SOL    HW121992   0.393   0.850   6.430 -2.2634 -0.4996  1.2243
 3510SOL    HW221993   0.501   0.761   6.398 -0.6150  0.0209 -0.8806
 3511SOL     OW21994   0.205   1.805   2.357 -0.0718 -0.1384  0.9779
 3511SOL    HW121995   0.295   1.778   2.373 -0.1094 -0.8895 -0.0883
 3511SOL    HW221996   0.222   1.871   2.289  0.5828 -1.3847 -0.0510
 3512SOL     OW21997   3.039   2.385   5.323  0.0983 -0.0641  0.3888
 3512SOL    HW121998   3.108   2.407   5.385 -0.0668  0.0919  0.5150
 3512SOL    HW221999   3.095   2.326   5.272 -1.1339 -1.0473  0.1503
 3513SOL     OW22000   0.180   4.166   6.787  0.1353 -0.0592 -0.6003
 3513SOL    HW122001   0.176   4.209   6.702  1.5511  0.9550 -0.1437
 3513SOL    HW222002   0.233   4.093   6.757  0.2355  0.5918 -1.9842
 3514SOL     OW22003   1.056   3.069   0.008  0.1500  0.5895 -0.0070
 3514SOL    HW122004   1.105   3.096   0.085  1.2679  1.2562 -0.9393
 3514SOL    HW222005   1.072   2.975   0.003  0.5519  0.5526  2.1484
 3515SOL     OW22006   1.400   3.677   4.430 -0.1238  0.5329 -0.1831
 3515SOL    HW122007   1.307   3.686   4.448 -0.2073 -1.4805  0.4528
 3515SOL    HW222008   1.399   3.628   4.348 -1.5200  4.2657 -2.3587
 3516SOL     OW22009   3.021   0.577  14.426 -0.1912  0.0317  0.1258
 3516SOL    HW122010   2.995   0.490  14.396  1.4945 -0.6299  0.6078
 3516SOL    HW222011   3.064   0.622  14.353  0.4240  0.4043  0.7180
 3517SOL     OW22012   2.423   0.305   5.168  0.0005 -0.3384  0.6601
 3517SOL    HW122013   2.501   0.254   5.148  1.5544  2.1047  0.5616
 3517SOL    HW222014   2.372   0.293   5.088  1.2951  0.6340 -0.3024
 3518SOL     OW22015   4.540   0.795  11.802  1.0587 -0.0793  0.2867
 3518SOL    HW122016   4.530   0.747  11.720  0.0354  0.2673  0.2103
 3518SOL    HW222017   4.630   0.826  11.791  0.6854  1.0502  0.3731
 3519SOL     OW22018   4.088   2.539   3.509  0.0336  0.4345  0.3502
 3519SOL    HW122019   4.037   2.481   3.454  2.8820 -1.3692 -0.4105
 3519SOL    HW222020   4.041   2.545   3.592  2.5499  0.3450  1.8068
 3520SOL     OW22021   4.058   2.976  10.253  0.1653  0.4094 -0.1755
 3520SOL    HW122022   4.111   2.917  10.307  0.5788  0.7803 -0.1786
 3520SOL    HW222023   4.108   3.058  10.252  0.1310  0.4671  2.3387
 3521SOL     OW22024   1.559   2.088   6.471  0.5751  0.0239 -0.3637
 3521SOL    HW122025   1.504   2.010   6.482  1.5283 -0.6491 -0.3716
 3521SOL    HW222026   1.647   2.054   6.489  0.0102 -0.2642  1.7695
 3522SOL     OW22027   2.120   4.042   9.087 -0.3069 -0.2359  0.2645
 3522SOL    HW122028   2.176   3.977   9.044  0.3762  1.6344 -1.7021
 3522SOL    HW222029   2.179   4.117   9.098 -0.8336  0.1245  0.5899
 3523SOL     OW22030   0.425   1.602   2.790  0.3143  0.0089 -0.3088
 3523SOL    HW122031   0.357   1.633   2.730  1.8325  1.9994 -1.0072
 3523SOL    HW222032   0.472   1.683   2.807 -0.2657 -0.0919  1.7652
 3524SOL     OW22033   3.462   3.215   2.001 -0.0501  0.0550  0.2673
 3524SOL    HW122034   3.479   3.134   1.953  2.0028  0.8114 -0.2893
 3524SOL    HW222035   3.509   3.185   2.079  0.5283  0.5400  0.1056
 3525SOL     OW22036   1.989   1.904  11.389  0.1510  0.4554 -0.2993
 3525SOL    HW122037   2.011   1.913  11.482 -2.5114 -1.1948  0.4902
 3525SOL    HW222038   2.066   1.949  11.354  0.5399 -0.3783 -0.5306
 3526SOL     OW22039   0.820   2.512   5.398  0.2086  0.1199  0.3398
 3526SOL    HW122040   0.835   2.552   5.312  0.3957  1.3131  0.9260
 3526SOL    HW222041   0.886   2.560   5.448  0.7926 -1.0220  0.6524
 3527SOL     OW22042   3.296   3.618   3.583  0.3982  0.2080 -0.3634
 3527SOL    HW122043   3.297   3.691   3.521  1.0292  0.3689 -0.1602
 3527SOL    HW222044   3.285   3.538   3.531  3.0891 -0.2175 -0.3054
 3528SOL     OW22045   0.902   2.993  11.280  0.2010  0.2528 -0.5654
 3528SOL    HW122046   0.941   2.905  11.274 -0.1511 -0.0775  2.1987
 3528SOL    HW222047   0.975   3.039  11.238  0.5360 -0.9847 -1.3459
 3529SOL     OW22048   1.383   4.336   9.498  0.7086 -0.1510  0.1178
 3529SOL    HW122049   1.379   4.369   9.408 -2.3143  1.5344  0.8532
 3529SOL    HW222050   1.421   4.403   9.555 -0.9623  0.9539 -0.0459
 3530SOL     OW22051   0.353   2.786   3.733  0.1214 -0.1963  0.0564
 3530SOL    HW122052   0.414   2.735   3.680 -0.5353 -1.3855  0.4332
 3530SOL    HW222053   0.384   2.762   3.820  1.1884  2.3865  0.3687
 3531SOL     OW22054   0.176   2.645  17.160  0.0615  0.3104  0.2945
 3531SOL    HW122055   0.227   2.565  17.172 -1.3004 -1.3210 -5.0538
 3531SOL    HW222056   0.239   2.704  17.201  0.3512 -0.3918  0.8487
 3532SOL     OW22057   3.393   0.187  10.197  0.0384 -0.0772  0.0243
 3532SOL    HW122058   3.312   0.180  10.248 -0.8081  0.6193 -1.2466
 3532SOL    HW222059   3.368   0.169  10.107 -1.7060  1.9179  0.0988
 3533SOL     OW22060   1.364   0.565   6.440  0.0974  0.0270 -0.5520
 3533SOL    HW122061   1.443   0.588   6.488  0.6426 -1.2083 -0.8502
 3533SOL    HW222062   1.399   0.502   6.377 -1.1257 -2.5745  1.3711
 3534SOL     OW22063   1.297   1.316   1.507  0.0610  0.0169  0.3911
 3534SOL    HW122064   1.275   1.404   1.535 -1.8279 -0.8311  1.5487
 3534SOL    HW222065   1.219   1.293   1.456  1.2875 -0.6313 -1.1812
 3535SOL     OW22066   2.995   3.548   8.610  0.2791 -0.5248  0.2384
 3535SOL    HW122067   2.971   3.456   8.625 -3.3458  0.6427  1.4359
 3535SOL    HW222068   3.088   3.544   8.632  0.1533 -0.4611  0.7922
 3536SOL     OW22069   1.614   3.334  12.449  0.1335  0.3708 -0.3855
 3536SOL    HW122070   1.622   3.250  12.494  1.3074 -0.9197 -3.0238
 3536SOL    HW222071   1.527   3.329  12.409  0.3368  1.2892 -0.9344
 3537SOL     OW22072   4.033   3.305  10.924 -0.4026 -0.1731 -0.3982
 3537SOL    HW122073   4.056   3.251  10.848  0.8016  1.2973 -1.0817
 3537SOL    HW222074   3.940   3.288  10.936 -0.9552  2.5541 -0.9072
 3538SOL     OW22075   0.333   4.262   3.332 -0.1564 -0.6098 -0.1331
 3538SOL    HW122076   0.269   4.332   3.340  0.3709  0.0624 -1.8882
 3538SOL    HW222077   0.281   4.182   3.321  1.4547 -1.3232 -2.6327
 3539SOL     OW22078   0.728   2.439   3.200 -0.0460 -0.2078 -0.1733
 3539SOL    HW122079   0.759   2.491   3.274 -0.1569 -0.9912  0.4154
 3539SOL    HW222080   0.748   2.353   3.236  1.4134  0.3309  0.2894
 3540SOL     OW22081   2.261   1.113   7.843 -0.6144  0.0843  0.3558
 3540SOL    HW122082   2.251   1.175   7.914 -0.1882  0.3494  0.1801
 3540SOL    HW222083   2.240   1.033   7.892  1.4226 -0.0142  1.0535
 3541SOL     OW22084   0.672   4.303   9.720  0.2952  0.2118  0.0495
 3541SOL    HW122085   0.663   4.277   9.628 -2.1011  0.9528  0.0739
 3541SOL    HW222086   0.738   4.370   9.702  2.4086 -1.9816 -0.3062
 3542SOL     OW22087   1.927   0.068   4.689 -0.1521  0.4740 -0.2860
 3542SOL    HW122088   1.875   4.727   4.648 -0.3685  0.9740 -0.8452
 3542SOL    HW222089   1.895   0.148   4.647 -1.3970  0.2569  0.2387
 3543SOL     OW22090   1.369   3.877   2.353 -0.1816 -0.7591  0.0424
 3543SOL    HW122091   1.427   3.949   2.379  0.7927 -1.5579  0.0828
 3543SOL    HW222092   1.282   3.915   2.350  0.0131 -0.2665  0.7119
 3544SOL     OW22093   3.979   4.599   4.132 -0.4379  0.2329  0.2190
 3544SOL    HW122094   3.937   4.656   4.067 -2.4717 -0.0087  1.3347
 3544SOL    HW222095   4.071   4.610   4.106 -0.5176  1.1724  0.3319
 3545SOL     OW22096   2.302   2.607   7.094 -0.2079  0.1472  0.3938
 3545SOL    HW122097   2.215   2.569   7.088 -0.2158  0.2776 -0.3581
 3545SOL    HW222098   2.275   2.687   7.048  0.2438 -1.8350 -3.3645
 3546SOL     OW22099   4.373   1.778   3.010  0.1691 -0.5757 -0.0588
 3546SOL    HW122100   4.455   1.785   3.058  0.2036 -3.3855  0.2841
 3546SOL    HW222101   4.374   1.687   2.981 -1.5932 -1.1635  1.7702
 3547SOL     OW22102   3.592   2.382   1.239 -0.8396  0.0829 -0.1707
 3547SOL    HW122103   3.622   2.311   1.181  1.4245  0.1319  0.9428
 3547SOL    HW222104   3.508   2.344   1.264 -0.7672  0.8502  1.1679
 3548SOL     OW22105   4.619   3.180   9.615 -0.1511  0.3789 -0.5778
 3548SOL    HW122106   4.644   3.103   9.565 -0.4591  0.8911 -1.5062
 3548SOL    HW222107   4.695   3.236   9.600  0.2705  0.5240  1.9568
 3549SOL     OW22108   0.162   1.463   4.644  0.0710 -0.4974  0.1474
 3549SOL    HW122109   0.165   1.555   4.671 -1.0201 -0.6485  0.7750
 3549SOL    HW222110   0.072   1.436   4.661  0.8821 -2.3489  1.4676
 3550SOL     OW22111   1.815   3.392   9.886 -0.2412 -0.1551  0.6271
 3550SOL    HW122112   1.817   3.395   9.981  2.0182 -1.0944  0.6041
 3550SOL    HW222113   1.900   3.352   9.870 -0.1528  0.8739 -1.5089
 3551SOL     OW22114   1.822   1.986   6.497  0.7444  0.0091  0.6683
 3551SOL    HW122115   1.816   1.965   6.590 -0.0967 -1.0103  0.3804
 3551SOL    HW222116   1.806   1.903   6.451  0.3342 -0.6053  1.9307
 3552SOL     OW22117   3.046   4.366   3.662 -0.2512  0.3738  0.1331
 3552SOL    HW122118   3.010   4.387   3.576 -1.6757  2.2363  1.1914
 3552SOL    HW222119   3.136   4.347   3.635  0.0692  0.1369  1.3275
 3553SOL     OW22120   1.437   3.733   9.971  0.4874 -0.3142  0.2179
 3553SOL    HW122121   1.465   3.724  10.062  0.2865  2.0854  0.5416
 3553SOL    HW222122   1.427   3.828   9.961  3.3307 -0.0342  0.0651
 3554SOL     OW22123   3.758   2.344   2.997 -0.4267 -0.2474  0.3122
 3554SOL    HW122124   3.723   2.414   2.943  0.6430  0.4266  0.4838
 3554SOL    HW222125   3.836   2.380   3.040 -0.7534  2.0304 -1.0143
 3555SOL     OW22126   0.274   3.817   7.620  0.2298  0.5188  0.0356
 3555SOL    HW122127   0.340   3.855   7.678  1.3346 -1.6857  0.2235
 3555SOL    HW222128   0.217   3.891   7.600 -0.8113 -0.4612 -0.5779
 3556SOL     OW22129   2.240   4.602   2.997 -0.7300  0.2588  0.2388
 3556SOL    HW122130   2.320   4.577   2.951 -0.9707 -0.8297  0.4222
 3556SOL    HW222131   2.264   4.587   3.088 -0.4181  0.5489  0.2036
 3557SOL     OW22132   2.351   1.151   1.124 -0.3528 -0.1214  0.3445
 3557SOL    HW122133   2.268   1.128   1.166 -0.9624 -0.4057 -1.0290
 3557SOL    HW222134   2.375   1.232   1.169  3.3678 -1.3592  0.5652
 3558SOL     OW22135   3.938   3.086   2.432 -0.2419 -1.3100 -0.1872
 3558SOL    HW122136   4.011   3.041   2.389  0.0429 -1.5432  0.5289
 3558SOL    HW222137   3.890   3.112   2.354 -1.7565 -3.6727 -0.0387
 3559SOL     OW22138   4.354   3.171   9.377 -0.1119  0.2833 -0.1038
 3559SOL    HW122139   4.422   3.188   9.312 -0.1914 -1.4804 -0.6465
 3559SOL    HW222140   4.284   3.236   9.373  0.4812  0.9087 -0.2529
 3560SOL     OW22141   0.390   1.518  10.979 -0.0574  0.2939  0.1458
 3560SOL    HW122142   0.454   1.453  11.007  0.5072  0.6428 -0.3301
 3560SOL    HW222143   0.326   1.457  10.943 -1.1124  0.9357  0.9332
 3561SOL     OW22144   1.095   1.380   7.219 -0.3141  0.0927  0.0452
 3561SOL    HW122145   1.001   1.384   7.198 -0.7134 -0.0730  1.7265
 3561SOL    HW222146   1.089   1.394   7.314  0.8183  1.0873 -0.0342
 3562SOL     OW22147   3.180   3.753   5.248  0.1236  0.4701  0.2130
 3562SOL    HW122148   3.099   3.704   5.265  1.2816 -1.0736  1.2337
 3562SOL    HW222149   3.203   3.756   5.341 -0.4076 -1.7606  0.4275
 3563SOL     OW22150   2.728   4.048   4.209  0.1030  0.6490  0.4759
 3563SOL    HW122151   2.781   4.012   4.138  1.5911 -0.9526  2.4220
 3563SOL    HW222152   2.755   4.003   4.289  0.8591  2.0531  1.0112
 3564SOL     OW22153   4.658   3.855   3.859 -0.0799 -0.2557  0.2938
 3564SOL    HW122154   4.663   3.823   3.769  0.3661 -0.9112  0.5542
 3564SOL    HW222155   4.566   3.844   3.884 -0.2296  1.2887  0.4279
 3565SOL     OW22156   2.722   1.712  11.332  0.1494  0.0384 -0.1371
 3565SOL    HW122157   2.751   1.632  11.377  2.2100 -0.5534 -2.5229
 3565SOL    HW222158   2.752   1.686  11.245 -0.3634 -0.1773 -0.2473
 3566SOL     OW22159   1.687   0.893   8.975  0.1145 -0.2992 -0.0167
 3566SOL    HW122160   1.638   0.848   8.906  0.1993  0.0346 -0.2971
 3566SOL    HW222161   1.636   0.974   8.971 -0.6505 -0.8287 -0.7970
 3567SOL     OW22162   1.271   4.080  12.388  0.0861 -0.2266 -0.5410
 3567SOL    HW122163   1.321   4.147  12.435 -1.4471  0.1452  0.5257
 3567SOL    HW222164   1.198   4.133  12.356  0.8294  0.8852 -0.4022
 3568SOL     OW22165   1.791   0.146   9.230  0.1709  0.1086  0.3870
 3568SOL    HW122166   1.853   0.214   9.202  0.9937 -0.6592  0.3284
 3568SOL    HW222167   1.840   0.105   9.301 -4.1548 -1.8541  2.2341
 3569SOL     OW22168   2.662   2.231   5.590  0.0432 -0.3932 -0.4195
 3569SOL    HW122169   2.692   2.239   5.499  1.0778 -1.2358 -0.1557
 3569SOL    HW222170   2.735   2.183   5.628  1.0218  0.9936 -0.5282
 3570SOL     OW22171   4.051   4.072   5.565 -0.0694  0.4011  0.6872
 3570SOL    HW122172   4.070   4.107   5.477 -0.5988  1.9514  1.1838
 3570SOL    HW222173   4.080   3.983   5.545 -1.1827  0.2526 -0.2530
 3571SOL     OW22174   2.865   2.014   4.000 -0.0056  0.0565  0.0371
 3571SOL    HW122175   2.891   2.093   3.953 -1.9598 -0.3717 -1.7221
 3571SOL    HW222176   2.778   2.004   3.963  0.2783 -0.2636 -0.5524
 3572SOL     OW22177   1.281   0.153  14.827 -0.2907  0.1607 -0.2127
 3572SOL    HW122178   1.186   0.148  14.818 -0.0022 -0.3433 -2.7925
 3572SOL    HW222179   1.317   0.104  14.753 -0.0979 -2.6770  1.7747
 3573SOL     OW22180   2.177   0.245   1.351 -0.2363 -0.4408 -0.5465
 3573SOL    HW122181   2.106   0.189   1.319 -1.1529 -0.2780  1.2386
 3573SOL    HW222182   2.238   0.220   1.281 -0.0001  0.0047 -0.5010
 3574SOL     OW22183   0.788   1.843   6.369  0.0264 -0.7713 -0.4037
 3574SOL    HW122184   0.783   1.798   6.452  1.5577 -0.8782 -0.3695
 3574SOL    HW222185   0.698   1.874   6.376  0.1064 -1.5043  3.4525
 3575SOL     OW22186   0.170   4.705  13.580  0.4615 -0.0632 -0.3665
 3575SOL    HW122187   0.223   0.022  13.514 -0.6785  1.5586 -0.2033
 3575SOL    HW222188   0.187   4.614  13.556  1.2208  0.0810 -0.3590
 3576SOL     OW22189   3.459   0.080   4.469 -0.7170  0.8573  0.4209
 3576SOL    HW122190   3.541   0.061   4.514  0.4072  0.4206 -1.8244
 3576SOL    HW222191   3.398   0.060   4.540 -1.0990  1.4178  0.2467
 3577SOL     OW22192   3.217   4.286   1.956 -0.5975 -0.4883  0.0070
 3577SOL    HW122193   3.282   4.246   1.898  2.0121  2.1998  1.0821
 3577SOL    HW222194   3.152   4.307   1.888 -1.7210 -2.3418  0.5218
 3578SOL     OW22195   1.962   0.438   1.805  0.1312 -0.0473  0.0754
 3578SOL    HW122196   1.964   0.505   1.873 -1.6247 -0.5707  0.6336
 3578SOL    HW222197   2.056   0.440   1.784  0.7343 -2.7722  2.5386
 3579SOL     OW22198   2.930   1.690   7.491 -0.1242 -0.4311 -0.0853
 3579SOL    HW122199   3.016   1.695   7.533 -1.4356  0.4107  2.5243
 3579SOL    HW222200   2.963   1.703   7.402 -0.2730 -0.3306 -0.1256
 3580SOL     OW22201   0.753   2.487   0.108  0.4404  0.6551  0.2403
 3580SOL    HW122202   0.714   2.561   0.154  3.7093  2.4855  0.0135
 3580SOL    HW222203   0.779   2.430   0.181 -2.2476 -2.4752 -1.2469
 3581SOL     OW22204   4.726   2.355   4.878  0.3085 -0.4240 -0.0064
 3581SOL    HW122205   4.653   2.402   4.838  1.2076  1.4008  0.5095
 3581SOL    HW222206   4.682   2.282   4.922  0.1607 -0.2433  0.1482
 3582SOL     OW22207   4.219   1.039   1.349  0.0744  0.0107 -0.0499
 3582SOL    HW122208   4.255   1.127   1.362  3.0444 -1.3408  0.9600
 3582SOL    HW222209   4.298   0.984   1.341 -0.5210 -1.0907  1.5077
 3583SOL     OW22210   0.393   2.784  17.266  0.1713  0.2797  0.1472
 3583SOL    HW122211   0.465   2.730  17.234  0.1335 -0.4418  1.2688
 3583SOL    HW222212   0.428   2.796  17.354 -0.2982  3.6687 -0.1252
 3584SOL     OW22213   2.411   0.161   5.834 -1.0644 -0.2203  0.6539
 3584SOL    HW122214   2.402   0.254   5.854  1.5638  0.4685 -1.3664
 3584SOL    HW222215   2.462   0.180   5.755 -1.7239  2.6507  0.9046
 3585SOL     OW22216   3.954   0.781   2.970 -0.3336 -0.1406  0.3078
 3585SOL    HW122217   4.035   0.818   2.935  0.0145  1.6895  3.0925
 3585SOL    HW222218   3.919   0.863   3.006  1.2184  1.2376 -1.3426
 3586SOL     OW22219   2.421   1.440  17.532  0.2917  0.1568 -0.0465
 3586SOL    HW122220   2.374   1.474  17.608 -0.8826 -1.0214 -0.2522
 3586SOL    HW222221   2.389   1.506  17.471 -1.3726  0.0483  0.7279
 3587SOL     OW22222   0.778   0.451   5.171 -0.1028 -0.2636 -0.3153
 3587SOL    HW122223   0.773   0.378   5.109 -3.1975 -1.5271  1.4234
 3587SOL    HW222224   0.856   0.501   5.144  0.9178 -1.4490  0.4617
 3588SOL     OW22225   0.496   4.308   8.269  0.2407  0.0141  0.2491
 3588SOL    HW122226   0.556   4.233   8.263 -1.8443 -1.8163  2.3052
 3588SOL    HW222227   0.476   4.314   8.363 -3.4664  0.2358 -0.5670
 3589SOL     OW22228   0.693   0.489   3.596  0.9621 -0.0849  0.9068
 3589SOL    HW122229   0.713   0.483   3.503 -0.4449 -0.9065  0.6455
 3589SOL    HW222230   0.748   0.565   3.609 -0.2082  0.8927  0.1489
 3590SOL     OW22231   3.880   1.047   8.042 -0.5629 -0.4152  0.4658
 3590SOL    HW122232   3.960   1.005   8.075  0.1084  0.6536  0.2101
 3590SOL    HW222233   3.823   0.984   8.086 -2.1318 -0.1146 -1.1372
 3591SOL     OW22234   4.377   3.104   2.418  0.0067  0.7184 -0.0384
 3591SOL    HW122235   4.369   3.036   2.484  0.1452  0.1292 -0.6347
 3591SOL    HW222236   4.473   3.110   2.408  0.0313 -1.2837 -0.8573
 3592SOL     OW22237   2.285   0.161  13.849 -0.4334 -0.3532  0.3460
 3592SOL    HW122238   2.322   0.249  13.841 -1.9787  0.4044  1.4784
 3592SOL    HW222239   2.366   0.109  13.850  0.1296  0.4741 -2.3868
 3593SOL     OW22240   4.272   2.890   9.438  0.0434 -0.2715 -0.5100
 3593SOL    HW122241   4.310   2.903   9.525 -0.9703 -1.2236  0.0716
 3593SOL    HW222242   4.293   2.975   9.399  0.3052  0.7949  1.9141
 3594SOL     OW22243   3.715   0.484  15.874 -0.4887  0.3138  0.1352
 3594SOL    HW122244   3.693   0.533  15.953 -2.2072  0.0836 -0.2085
 3594SOL    HW222245   3.657   0.530  15.813  0.4351  0.8146 -0.3802
 3595SOL     OW22246   4.496   0.491   1.792 -0.0243  0.3399 -0.0416
 3595SOL    HW122247   4.477   0.577   1.829 -1.9125 -0.9085  1.9179
 3595SOL    HW222248   4.448   0.489   1.709 -2.2676  1.5233  1.2112
 3596SOL     OW22249   1.886   3.693   5.671 -0.1495  0.5422  0.0600
 3596SOL    HW122250   1.907   3.737   5.754  2.7487 -1.2488  0.2619
 3596SOL    HW222251   1.960   3.729   5.622 -1.6899  1.8068 -1.3405
 3597SOL     OW22252   3.445   1.837   4.104  0.0565 -0.1309  0.8220
 3597SOL    HW122253   3.396   1.757   4.084  0.5375  0.0807 -1.1807
 3597SOL    HW222254   3.419   1.881   4.023  1.3292  0.4667  0.7336
 3598SOL     OW22255   3.395   3.685   2.399 -0.9092 -0.1420  0.7208
 3598SOL    HW122256   3.408   3.740   2.476 -0.9947 -0.4277  0.9392
 3598SOL    HW222257   3.379   3.746   2.327 -0.9608 -1.0099 -0.0138
 3599SOL     OW22258   2.975   0.723   3.172 -0.0443  0.1727  0.0580
 3599SOL    HW122259   3.006   0.810   3.146 -1.2396  0.8071  0.7581
 3599SOL    HW222260   2.978   0.733   3.267  0.0685  2.5150 -0.1739
 3600SOL     OW22261   3.332   3.741   4.026 -0.1823 -0.4318 -0.1463
 3600SOL    HW122262   3.416   3.768   3.987  0.5874 -2.5194  0.0555
 3600SOL    HW222263   3.278   3.783   3.959  1.5840  0.9247 -0.7343
 3601SOL     OW22264   1.469   3.291   3.086 -0.5146 -0.0429 -0.5363
 3601SOL    HW122265   1.418   3.217   3.119  0.0990 -0.2343 -0.0130
 3601SOL    HW222266   1.531   3.297   3.158 -1.5509  0.1977  0.3418
 3602SOL     OW22267   1.274   3.684  14.040 -0.3515  0.4808 -0.1128
 3602SOL    HW122268   1.185   3.711  14.016 -0.5601 -0.4821 -0.4002
 3602SOL    HW222269   1.300   3.754  14.100 -0.1187  0.5283 -0.2733
 3603SOL     OW22270   0.908   2.847   7.890  0.5275 -0.7236 -0.0910
 3603SOL    HW122271   0.952   2.872   7.972 -1.0633 -1.3330  0.9507
 3603SOL    HW222272   0.880   2.931   7.853  1.9574  0.3740  1.2788
 3604SOL     OW22273   3.908   1.484   8.198  0.1610  0.2975  0.0106
 3604SOL    HW122274   3.816   1.459   8.200 -0.1099  1.1018 -1.9094
 3604SOL    HW222275   3.924   1.493   8.291  1.2878  2.4897 -0.4092
 3605SOL     OW22276   3.966   3.280   0.467 -0.1404  0.0811  0.9149
 3605SOL    HW122277   4.019   3.256   0.543 -1.3281 -0.4201  1.5825
 3605SOL    HW222278   4.033   3.329   0.418  0.2128 -2.5797 -1.2792
 3606SOL     OW22279   3.548   1.629   1.444  0.7368 -0.2617 -0.7412
 3606SOL    HW122280   3.640   1.602   1.449  0.0683 -2.3904  0.0749
 3606SOL    HW222281   3.504   1.555   1.485 -0.5261  0.9128  0.0050
 3607SOL     OW22282   4.074   0.707   6.701 -0.1448 -0.6140 -0.5305
 3607SOL    HW122283   3.985   0.731   6.726  0.3716 -0.7242  1.3798
 3607SOL    HW222284   4.094   0.623   6.742  1.8946 -0.9162 -2.1174
 3608SOL     OW22285   2.238   1.907   8.924  0.3018  0.2935  0.6922
 3608SOL    HW122286   2.219   1.813   8.916  1.7381 -0.0092  0.8436
 3608SOL    HW222287   2.209   1.938   8.838 -0.5931  1.1126  1.2914
 3609SOL     OW22288   3.382   3.304   3.053  0.4789  0.4644  0.2927
 3609SOL    HW122289   3.378   3.367   2.982 -0.6855  0.7888  0.6445
 3609SOL    HW222290   3.451   3.334   3.112 -0.1932 -0.2952  1.4790
 3610SOL     OW22291   1.553   0.490   0.928  0.0707 -0.2647 -0.3776
 3610SOL    HW122292   1.577   0.583   0.930  2.5592 -0.9643  3.7677
 3610SOL    HW222293   1.619   0.454   0.988  1.5727 -0.5362 -2.2114
 3611SOL     OW22294   3.943   0.126   2.294  0.0400  0.5777 -0.0800
 3611SOL    HW122295   4.001   0.195   2.260  0.8967 -0.9706 -1.7462
 3611SOL    HW222296   3.861   0.175   2.301 -0.2164  0.3213 -1.1978
 3612SOL     OW22297   3.507   4.024   2.800 -0.3690  0.1536  0.1399
 3612SOL    HW122298   3.441   4.064   2.744  0.8164  1.9825  0.0346
 3612SOL    HW222299   3.563   4.098   2.823 -2.4040  1.4311  0.9421
 3613SOL     OW22300   1.738   1.918   1.513 -0.4204 -0.3546  0.4912
 3613SOL    HW122301   1.785   1.868   1.446 -0.7727  0.2705 -0.2180
 3613SOL    HW222302   1.781   1.887   1.593 -2.1090 -1.1182  1.1075
 3614SOL     OW22303   1.933   4.678   5.063 -0.1413  0.2685  0.2090
 3614SOL    HW122304   1.987   0.015   5.018 -2.2896  1.6176 -0.4116
 3614SOL    HW222305   1.986   4.598   5.055  0.0967  0.2023  2.5141
 3615SOL     OW22306   2.987   2.850   9.632 -0.1284 -0.5991  0.7028
 3615SOL    HW122307   2.997   2.813   9.544 -0.3261 -0.1231  0.4761
 3615SOL    HW222308   3.000   2.944   9.620  0.1305 -0.5577  1.2903
 3616SOL     OW22309   4.348   4.246   5.981 -0.2606 -0.1364  0.1850
 3616SOL    HW122310   4.430   4.198   5.993  1.4711  2.2668 -2.0996
 3616SOL    HW222311   4.313   4.196   5.908  0.9272  1.8332 -1.7341
 3617SOL     OW22312   2.244   1.979   6.894 -0.3491 -0.2048 -0.0597
 3617SOL    HW122313   2.189   1.977   6.972  0.5523  1.1641  0.6000
 3617SOL    HW222314   2.274   1.888   6.899  2.3962  0.8459  2.5091
 3618SOL     OW22315   0.432   0.797   8.269 -0.4641  0.0938 -0.3302
 3618SOL    HW122316   0.409   0.751   8.350 -0.3523  3.4228  1.5889
 3618SOL    HW222317   0.412   0.889   8.285 -3.6554 -0.8785  1.3704
 3619SOL     OW22318   2.944   0.840   6.258  0.1601 -0.0775 -0.2766
 3619SOL    HW122319   2.856   0.865   6.287  0.6003  1.6600 -0.4509
 3619SOL    HW222320   2.977   0.812   6.343 -0.1997 -1.6657 -0.6490
 3620SOL     OW22321   0.454   3.898   7.791 -0.3970  0.1242 -0.8619
 3620SOL    HW122322   0.444   3.910   7.885 -0.0149 -2.9693 -0.4406
 3620SOL    HW222323   0.535   3.949   7.787  1.3516 -2.6418 -0.3856
 3621SOL     OW22324   3.454   1.723   7.849 -0.1481  0.2084 -0.3439
 3621SOL    HW122325   3.432   1.783   7.920  1.9300  0.8072 -0.2044
 3621SOL    HW222326   3.542   1.690   7.869 -1.1589 -1.9591  0.5024
 3622SOL     OW22327   3.286   0.203   8.443  0.0968  0.4439  0.3651
 3622SOL    HW122328   3.295   0.298   8.450 -1.1859  0.7289 -1.7293
 3622SOL    HW222329   3.191   0.189   8.449  0.2104 -0.0601  1.0150
 3623SOL     OW22330   2.185   1.154   5.825 -0.0005 -0.0450  0.6741
 3623SOL    HW122331   2.112   1.215   5.818 -1.0067 -1.0993  1.9945
 3623SOL    HW222332   2.149   1.067   5.807 -0.8775  0.4415  0.0814
 3624SOL     OW22333   2.881   2.919  16.498 -0.1080  0.8228  0.0872
 3624SOL    HW122334   2.962   2.907  16.447 -0.3047 -0.7567  0.1524
 3624SOL    HW222335   2.876   2.831  16.536 -0.8486  1.0031  0.3905
 3625SOL     OW22336   1.213   2.601   9.062  0.2102 -0.7753  0.3758
 3625SOL    HW122337   1.242   2.644   8.981  1.5613  0.2225  1.3676
 3625SOL    HW222338   1.132   2.575   9.020 -0.7457 -0.8237  2.2660
 3626SOL     OW22339   1.367   2.430  12.714 -0.9604 -0.7290 -0.5738
 3626SOL    HW122340   1.399   2.517  12.688 -3.0729  0.1398 -0.2791
 3626SOL    HW222341   1.445   2.375  12.712 -0.5993 -0.2542  1.0567
 3627SOL     OW22342   4.435   1.688   9.630 -0.0905 -0.0916  0.0404
 3627SOL    HW122343   4.412   1.702   9.722  2.0694 -1.1579  0.7447
 3627SOL    HW222344   4.529   1.706   9.633  0.0496 -0.4849 -1.9276
 3628SOL     OW22345   3.090   4.597   4.391  0.1631  0.1072  0.8133
 3628SOL    HW122346   3.111   4.614   4.299 -0.1512  1.0189  0.9093
 3628SOL    HW222347   2.998   4.623   4.392  0.2138  0.2471  2.5799
 3629SOL     OW22348   3.910   3.112  13.483  0.3378 -0.3235  0.0465
 3629SOL    HW122349   3.851   3.108  13.559  1.4843 -2.7885  0.8043
 3629SOL    HW222350   3.850   3.119  13.409 -0.2829  1.3651  0.7059
 3630SOL     OW22351   4.576   2.906   5.490  0.3565  0.4809 -0.8198
 3630SOL    HW122352   4.514   2.970   5.525  0.2778  0.7646 -1.4939
 3630SOL    HW222353   4.519   2.829   5.497  0.0405  0.8613  0.7451
 3631SOL     OW22354   4.410   3.154  17.076 -0.2489 -0.0842 -0.3516
 3631SOL    HW122355   4.464   3.075  17.079 -0.9850 -0.5611  0.3429
 3631SOL    HW222356   4.472   3.221  17.105  1.4769 -2.2478  0.9112
 3632SOL     OW22357   0.301   0.827   5.605  0.1418 -0.1464  0.0416
 3632SOL    HW122358   0.276   0.917   5.625  0.0328  0.4370 -2.7206
 3632SOL    HW222359   0.376   0.818   5.663  0.0893  0.1184  0.1505
 3633SOL     OW22360   0.255   1.174   3.070  0.6352 -0.2872  0.0129
 3633SOL    HW122361   0.345   1.189   3.042  0.2861  1.3291 -0.2917
 3633SOL    HW222362   0.250   1.080   3.055  0.1740 -0.5488  1.7881
 3634SOL     OW22363   2.759   4.575   6.340 -0.2898  0.2828  0.2059
 3634SOL    HW122364   2.738   4.668   6.345  0.2436  0.4583 -0.8200
 3634SOL    HW222365   2.794   4.579   6.251  2.1645 -1.7426  1.0782
 3635SOL     OW22366   2.437   4.156  13.586 -0.1956  0.4412 -0.0293
 3635SOL    HW122367   2.368   4.125  13.644  1.2864 -0.1806  1.3715
 3635SOL    HW222368   2.424   4.095  13.513  0.9335  0.3701 -0.1680
 3636SOL     OW22369   3.419   4.017   7.916 -0.5532  0.0940  0.0249
 3636SOL    HW122370   3.508   4.034   7.947 -0.7906  0.7506  0.3534
 3636SOL    HW222371   3.391   3.965   7.991 -0.1032 -0.9231 -0.5092
 3637SOL     OW22372   3.604   4.655   6.283 -0.5977  0.1546  0.3073
 3637SOL    HW122373   3.569   4.568   6.303 -0.3140 -0.5410 -2.2615
 3637SOL    HW222374   3.565   4.707   6.354  0.2926  0.5413  0.5164
 3638SOL     OW22375   2.059   2.618   1.806 -0.0699  0.4564  0.0647
 3638SOL    HW122376   1.980   2.648   1.761 -0.0465 -0.4837 -0.6201
 3638SOL    HW222377   2.118   2.694   1.808 -0.1941  0.5716 -0.4690
 3639SOL     OW22378   2.980   4.235   2.568 -0.0587  0.0530 -0.0036
 3639SOL    HW122379   2.960   4.185   2.489  3.0151  0.8064 -1.2667
 3639SOL    HW222380   2.896   4.225   2.612  0.8816 -0.1534  1.7425
 3640SOL     OW22381   2.776   2.644  14.411  0.5116 -0.2174  0.2689
 3640SOL    HW122382   2.705   2.628  14.473 -1.1185 -2.3183 -2.0992
 3640SOL    HW222383   2.820   2.718  14.452 -1.4829  0.9742  0.2490
 3641SOL     OW22384   1.337   3.789   9.352 -0.3745 -0.3391  0.0278
 3641SOL    HW122385   1.242   3.800   9.347 -0.2284  0.9543  0.0138
 3641SOL    HW222386   1.345   3.759   9.443 -0.3870  0.1248  0.1858
 3642SOL     OW22387   0.544   4.323   6.821 -0.8127 -0.2759  0.0840
 3642SOL    HW122388   0.553   4.319   6.916 -0.9608  0.8211  0.1447
 3642SOL    HW222389   0.598   4.246   6.805 -3.3972 -2.1410  0.3652
 3643SOL     OW22390   0.136   2.081   2.432 -0.6149  0.0919  0.0974
 3643SOL    HW122391   0.193   2.051   2.361  2.2353  0.4924  2.2277
 3643SOL    HW222392   0.053   2.061   2.388 -0.3414 -2.2477  0.6096
 3644SOL     OW22393   4.316   1.298   2.243  0.3842  0.4615 -0.1269
 3644SOL    HW122394   4.339   1.272   2.154 -3.0505  0.4847 -1.0169
 3644SOL    HW222395   4.222   1.312   2.235  0.1109 -0.6865  1.1240
 3645SOL     OW22396   4.435   0.438   7.866 -0.0235 -0.0898 -0.4523
 3645SOL    HW122397   4.408   0.490   7.941 -1.1377  2.3878 -2.5518
 3645SOL    HW222398   4.347   0.439   7.828  0.7729 -1.6473 -2.3860
 3646SOL     OW22399   4.331   2.961   1.348  0.3845  0.3554 -0.3416
 3646SOL    HW122400   4.383   3.003   1.416 -0.3983  1.4844 -0.4355
 3646SOL    HW222401   4.358   2.870   1.359  0.1811  0.4031  0.5476
 3647SOL     OW22402   0.735   4.105  11.588 -0.1818  0.2176 -0.1471
 3647SOL    HW122403   0.733   4.192  11.548  1.0107  1.1607  1.8482
 3647SOL    HW222404   0.826   4.102  11.619  0.0587 -0.7466 -0.9544
 3648SOL     OW22405   2.946   3.481   2.474 -0.4182 -0.1954  0.2894
 3648SOL    HW122406   3.041   3.478   2.473 -0.4795 -2.0923  0.2065
 3648SOL    HW222407   2.921   3.394   2.505  1.7556 -1.2289 -0.8726
 3649SOL     OW22408   2.490   1.694   2.662 -0.1455  0.1610 -0.1697
 3649SOL    HW122409   2.501   1.788   2.651  3.7228 -0.1895  0.5720
 3649SOL    HW222410   2.403   1.694   2.702 -2.0112 -0.3714 -4.2608
 3650SOL     OW22411   4.582   2.676   7.404  1.1356  0.0689 -0.3870
 3650SOL    HW122412   4.578   2.759   7.451 -2.0287 -1.8265  2.6933
 3650SOL    HW222413   4.541   2.612   7.462  2.4843  0.5805  1.1294
 3651SOL     OW22414   1.439   4.684   8.056 -0.1260 -0.6050 -0.4193
 3651SOL    HW122415   1.434   0.005   8.138 -0.8988 -1.1505 -0.1371
 3651SOL    HW222416   1.352   4.644   8.053 -0.8693  0.9211  1.3607
 3652SOL     OW22417   4.575   4.429   8.974 -0.2855 -0.3059  0.1600
 3652SOL    HW122418   4.548   4.479   9.051 -1.8068  1.2214 -1.3530
 3652SOL    HW222419   4.518   4.355   8.993 -1.2304  0.7091  1.2914
 3653SOL     OW22420   0.871   2.883  17.165 -0.1054 -0.4711  0.2679
 3653SOL    HW122421   0.929   2.812  17.190  2.8821  1.4846 -1.0719
 3653SOL    HW222422   0.846   2.869  17.074  0.7052  0.3328 -0.0822
 3654SOL     OW22423   2.113   2.622   5.534 -0.1767 -0.3653  0.3605
 3654SOL    HW122424   2.092   2.531   5.556  1.1329 -0.5999  0.6213
 3654SOL    HW222425   2.177   2.604   5.466  1.8390  2.2924  1.5422
 3655SOL     OW22426   2.182   2.418   6.796 -0.2551 -0.0671  0.2606
 3655SOL    HW122427   2.197   2.459   6.882  1.6749  1.1374 -0.6591
 3655SOL    HW222428   2.255   2.357   6.805 -0.7981 -0.8182 -0.4530
 3656SOL     OW22429   3.311   2.003  14.169 -0.5319  0.1785  0.4595
 3656SOL    HW122430   3.225   2.042  14.157  0.1076  1.5677  0.4092
 3656SOL    HW222431   3.338   2.011  14.077 -0.5380  1.6756  0.5927
 3657SOL     OW22432   0.936   0.512   8.295 -0.1756 -0.4401  0.0813
 3657SOL    HW122433   0.887   0.585   8.256 -0.4780 -1.5079 -1.5131
 3657SOL    HW222434   0.874   0.480   8.361 -0.3032 -1.1102 -0.3705
 3658SOL     OW22435   2.849   3.409   7.281  0.1796 -0.2897 -0.1862
 3658SOL    HW122436   2.762   3.422   7.319  1.7416 -0.2302  3.3583
 3658SOL    HW222437   2.859   3.314   7.284 -1.2209 -0.3947  0.8540
 3659SOL     OW22438   2.411   1.862   8.385  0.5052 -0.4687  0.5970
 3659SOL    HW122439   2.327   1.882   8.344  0.8706  0.2263  0.1863
 3659SOL    HW222440   2.388   1.778   8.424 -0.5068 -0.6886 -0.4885
 3660SOL     OW22441   0.445   0.932   4.980  0.1325  0.0445 -0.4468
 3660SOL    HW122442   0.540   0.932   4.965  0.6947  2.9428  3.0549
 3660SOL    HW222443   0.435   0.886   5.064 -2.7719  0.7126 -0.4429
 3661SOL     OW22444   1.279   4.397   8.841 -0.3269 -0.0140 -0.2113
 3661SOL    HW122445   1.353   4.359   8.794 -2.4140 -1.3970 -2.3627
 3661SOL    HW222446   1.295   4.366   8.930  1.0742  0.4488 -0.2997
 3662SOL     OW22447   0.766   1.900   7.409 -0.6520 -0.6780 -0.3958
 3662SOL    HW122448   0.695   1.905   7.473  0.1050 -0.4760  0.4207
 3662SOL    HW222449   0.827   1.845   7.457 -1.4448 -1.0083  0.2256
 3663SOL     OW22450   2.490   1.745   7.123 -0.5840  0.0185 -0.3949
 3663SOL    HW122451   2.556   1.679   7.144 -1.4562 -1.0173 -0.8490
 3663SOL    HW222452   2.541   1.825   7.120 -1.4873  0.5033 -2.4707
 3664SOL     OW22453   1.715   2.945   1.602  0.0881 -0.2415  0.5003
 3664SOL    HW122454   1.774   3.016   1.629 -0.7390 -0.4130  2.7700
 3664SOL    HW222455   1.676   2.985   1.525 -0.6911 -1.3188  0.3417
 3665SOL     OW22456   0.137   0.973   5.924  0.1357 -0.2486  0.6314
 3665SOL    HW122457   0.134   0.957   6.019 -0.3417 -1.3301  0.4377
 3665SOL    HW222458   0.054   1.013   5.901 -0.0929 -1.5902 -0.9228
 3666SOL     OW22459   3.391   1.710   6.534  0.2338  0.2787  0.6617
 3666SOL    HW122460   3.466   1.672   6.488  1.1280 -1.7375  3.7815
 3666SOL    HW222461   3.347   1.632   6.569 -0.4313 -0.2784 -1.4565
 3667SOL     OW22462   0.555   4.038   5.097 -0.1957  0.7543  0.1762
 3667SOL    HW122463   0.581   4.016   5.186  1.5932  0.9517 -0.2795
 3667SOL    HW222464   0.530   3.948   5.076 -0.0530  0.3436  1.7673
 3668SOL     OW22465   4.595   1.596  10.212  0.4644 -0.0149  0.8545
 3668SOL    HW122466   4.580   1.555  10.297 -0.4814  1.5002  1.4129
 3668SOL    HW222467   4.642   1.531  10.159  1.8139 -0.4434  2.5875
 3669SOL     OW22468   1.740   2.276   1.096  0.5270  0.8084 -0.1427
 3669SOL    HW122469   1.708   2.367   1.089  0.2088  0.8813  2.4356
 3669SOL    HW222470   1.668   2.234   1.049 -0.9915  0.6965  2.2792
 3670SOL     OW22471   1.128   0.786  15.816 -0.3194 -0.1106 -0.3279
 3670SOL    HW122472   1.195   0.744  15.872 -1.4617 -0.3709  0.8474
 3670SOL    HW222473   1.084   0.705  15.792  1.6265 -1.5802  0.9567
 3671SOL     OW22474   2.905   3.984  14.155  0.1168  0.1286 -0.8613
 3671SOL    HW122475   2.953   3.941  14.084 -0.8595 -2.8124  0.2792
 3671SOL    HW222476   2.945   4.072  14.158 -0.4200  0.2935  1.3586
 3672SOL     OW22477   4.493   0.927  12.785 -0.1000  0.0460 -0.2646
 3672SOL    HW122478   4.536   0.874  12.851  0.3427  0.6721 -0.0527
 3672SOL    HW222479   4.446   0.988  12.842 -0.6624 -0.3557 -0.2911
 3673SOL     OW22480   2.828   3.756  14.303  0.0141 -0.1461 -0.2926
 3673SOL    HW122481   2.873   3.831  14.263  1.8664 -0.1426  1.7445
 3673SOL    HW222482   2.735   3.777  14.299 -0.2958 -1.6726 -1.0251
 3674SOL     OW22483   2.966   0.083   8.119 -0.1272 -0.0662  0.1599
 3674SOL    HW122484   2.951   0.003   8.070  1.7139 -0.3546  0.0908
 3674SOL    HW222485   3.003   0.137   8.049 -0.8664  0.5035  0.2116
 3675SOL     OW22486   0.353   2.932   8.831 -0.1640 -0.1095 -0.6301
 3675SOL    HW122487   0.284   2.896   8.887  0.3348  0.3018  0.2443
 3675SOL    HW222488   0.431   2.926   8.887 -0.1088 -0.6007 -0.7556
 3676SOL     OW22489   1.008   2.812  10.316  0.1016  0.1599 -0.9752
 3676SOL    HW122490   1.035   2.799  10.407 -2.0143 -2.1335 -0.6861
 3676SOL    HW222491   0.912   2.808  10.316  0.1047 -0.0876  0.2934
 3677SOL     OW22492   2.242   2.272  15.747  0.3823  0.0888  0.2808
 3677SOL    HW122493   2.154   2.241  15.725 -0.5151  2.4266  0.5621
 3677SOL    HW222494   2.279   2.191  15.783  1.2954 -0.1067 -1.0713
 3678SOL     OW22495   1.368   4.428   2.690 -0.1458 -0.1410  0.3860
 3678SOL    HW122496   1.412   4.443   2.774  0.4977 -1.0438  0.2022
 3678SOL    HW222497   1.284   4.474   2.701 -0.3565 -0.5438  0.4579
 3679SOL     OW22498   0.764   3.578   8.129  0.4540  0.2433 -0.2299
 3679SOL    HW122499   0.858   3.564   8.142  0.1930 -1.2265  0.0363
 3679SOL    HW222500   0.720   3.494   8.141  2.3840 -0.7563 -0.1580
 3680SOL     OW22501   2.243   3.458   5.046  0.2744  0.7514  0.4991
 3680SOL    HW122502   2.154   3.470   5.080 -0.8690 -2.6256 -1.3493
 3680SOL    HW222503   2.260   3.370   5.081 -1.1714  0.6331  0.9126
 3681SOL     OW22504   3.323   4.140  14.540  0.0788 -0.3215 -0.1587
 3681SOL    HW122505   3.265   4.114  14.612 -1.2679  0.4432 -0.9586
 3681SOL    HW222506   3.376   4.061  14.543  0.6049  0.1372  2.5412
 3682SOL     OW22507   3.471   1.241   7.581 -0.1565  0.0022  0.4443
 3682SOL    HW122508   3.402   1.191   7.538 -0.2171 -0.9157  1.6040
 3682SOL    HW222509   3.533   1.171   7.599 -0.0252 -0.2559 -1.0472
 3683SOL     OW22510   1.455   3.568  10.988 -0.0045 -0.0518 -0.0858
 3683SOL    HW122511   1.376   3.610  10.954 -0.7048 -1.4952 -0.2672
 3683SOL    HW222512   1.520   3.636  11.000 -0.6743  0.5222  0.2564
 3684SOL     OW22513   2.226   4.048   5.297  0.1422 -0.1562 -0.3112
 3684SOL    HW122514   2.175   4.106   5.353 -0.0054 -0.6800  0.0928
 3684SOL    HW222515   2.167   3.979   5.267  2.5119 -0.6956 -3.7904
 3685SOL     OW22516   1.725   1.569   7.967 -0.0170  0.8162  0.3596
 3685SOL    HW122517   1.707   1.642   7.908  2.1953 -0.6678 -2.1471
 3685SOL    HW222518   1.729   1.490   7.913 -2.0667  0.2699  0.9992
 3686SOL     OW22519   2.883   2.517   3.017 -0.5076  1.0228 -0.0607
 3686SOL    HW122520   2.919   2.445   3.069 -0.4977  0.7885 -0.3915
 3686SOL    HW222521   2.852   2.570   3.090 -0.5146  0.2204  0.5265
 3687SOL     OW22522   2.931   2.517   1.562  0.2852 -0.0988  0.2183
 3687SOL    HW122523   3.024   2.502   1.545 -0.3743 -1.3304 -2.4876
 3687SOL    HW222524   2.926   2.514   1.657 -0.1644 -1.1553  0.1617
 3688SOL     OW22525   3.602   0.068   6.047  0.0157  0.0648  0.5277
 3688SOL    HW122526   3.541   0.135   6.078 -0.1559 -0.4248  1.2441
 3688SOL    HW222527   3.619   0.008   6.119  0.3058 -0.4869 -0.0037
 3689SOL     OW22528   0.171   1.930  13.051  0.4964 -0.2226 -0.1459
 3689SOL    HW122529   0.127   1.845  13.054  1.9723 -1.0175 -1.4977
 3689SOL    HW222530   0.108   1.993  13.086  0.7868  1.6895 -3.1376
 3690SOL     OW22531   3.869   0.297  14.613  0.3221 -0.0985  0.1339
 3690SOL    HW122532   3.886   0.361  14.543  0.0669 -2.6372 -2.2235
 3690SOL    HW222533   3.958   0.302  14.650 -0.1894  1.9164  1.1037
 3691SOL     OW22534   3.769   4.399   0.230  0.0289 -0.2196 -0.0157
 3691SOL    HW122535   3.804   4.476   0.274  1.4620 -0.2597 -1.1044
 3691SOL    HW222536   3.738   4.436   0.147  0.3749 -1.2009 -0.5845
 3692SOL     OW22537   4.683   1.881  10.731 -0.3939  0.1052 -0.0225
 3692SOL    HW122538   4.647   1.798  10.761 -2.7217  0.8256 -0.8264
 3692SOL    HW222539   0.049   1.858  10.727 -0.0240  1.5303  0.4337
 3693SOL     OW22540   1.888   0.453   1.395 -0.2239  0.0324 -0.7658
 3693SOL    HW122541   1.838   0.473   1.474 -0.0246  0.0570 -0.6456
 3693SOL    HW222542   1.898   0.358   1.401  0.5732  0.3052  2.0757
 3694SOL     OW22543   2.821   2.181   3.652  0.0310  0.2374 -0.4415
 3694SOL    HW122544   2.881   2.227   3.593 -0.9055  0.3898 -1.2737
 3694SOL    HW222545   2.737   2.220   3.628 -0.1696 -0.5203 -0.9672
 3695SOL     OW22546   3.529   0.803  11.807  0.1081 -0.0642  0.2436
 3695SOL    HW122547   3.609   0.752  11.819 -0.7929 -1.3938  0.6276
 3695SOL    HW222548   3.546   0.880  11.862 -0.7617 -0.7871  1.5364
 3696SOL     OW22549   2.190   1.216  12.562  0.2957 -0.1816  0.9060
 3696SOL    HW122550   2.143   1.144  12.605  2.5211 -1.5600  1.0156
 3696SOL    HW222551   2.276   1.175  12.567  0.1459 -0.7365 -1.3707
 3697SOL     OW22552   3.699   3.390   1.533 -0.1406 -0.3206 -0.0649
 3697SOL    HW122553   3.618   3.339   1.525  0.2577 -1.2277  1.6892
 3697SOL    HW222554   3.768   3.325   1.549  0.8165  0.9429  0.9244
 3698SOL     OW22555   0.045   3.866   4.634 -0.0392  0.4112 -0.2505
 3698SOL    HW122556   4.680   3.880   4.650 -0.5692 -2.3089 -0.8878
 3698SOL    HW222557   0.040   3.823   4.549  0.3904  0.7723 -0.4598
 3699SOL     OW22558   3.822   3.375   5.699  0.0684  0.6650  0.0565
 3699SOL    HW122559   3.848   3.389   5.790 -2.7793 -0.1710  0.9865
 3699SOL    HW222560   3.888   3.310   5.675 -0.0168  0.6457 -0.1242
 3700SOL     OW22561   4.616   2.622   9.544  0.2346 -0.3234 -0.2367
 3700SOL    HW122562   4.589   2.625   9.452  0.9282 -1.3832 -0.4802
 3700SOL    HW222563   4.640   2.530   9.558  2.0108  0.5156  2.2510
 3701SOL     OW22564   4.337   3.103   9.636  0.9612  0.2803  0.3674
 3701SOL    HW122565   4.423   3.141   9.655  2.0356 -0.9242 -2.0843
 3701SOL    HW222566   4.338   3.123   9.543  3.3876 -0.5923  0.2121
 3702SOL     OW22567   3.181   0.176   5.954 -0.2235  0.0206 -0.0377
 3702SOL    HW122568   3.119   0.210   5.890  1.0131 -0.7353 -1.6357
 3702SOL    HW222569   3.262   0.227   5.945 -0.7350  0.6340 -1.1488
 3703SOL     OW22570   0.506   3.370   3.702 -0.2589 -0.0979 -0.5362
 3703SOL    HW122571   0.547   3.300   3.752 -1.2979 -0.4283 -0.1574
 3703SOL    HW222572   0.570   3.395   3.636  1.1621 -0.7180  0.6099
 3704SOL     OW22573   1.928   0.887  17.266 -0.0784  0.1937  0.0339
 3704SOL    HW122574   1.862   0.853  17.326 -0.5748  0.8063 -0.1745
 3704SOL    HW222575   1.912   0.852  17.179  1.3061 -1.3343  0.3817
 3705SOL     OW22576   3.378   1.193   3.632  0.1052 -0.2443 -0.5610
 3705SOL    HW122577   3.370   1.188   3.537 -1.3785 -2.9123 -0.2864
 3705SOL    HW222578   3.397   1.102   3.652 -0.3843 -0.2334 -0.0557
 3706SOL     OW22579   2.332   2.546  17.451 -0.0165  0.1808 -0.9674
 3706SOL    HW122580   2.282   2.466  17.438 -1.7611  0.7399  2.2929
 3706SOL    HW222581   2.279   2.610  17.404  0.6174 -0.5487 -2.6695
 3707SOL     OW22582   3.927   3.770  12.223  0.5709 -0.6073 -0.0926
 3707SOL    HW122583   3.886   3.761  12.310  1.9292 -0.2654  0.5805
 3707SOL    HW222584   3.885   3.856  12.210  0.1746 -0.7358  0.3166
 3708SOL     OW22585   2.747   3.115   3.849 -0.1681 -0.2711  0.1143
 3708SOL    HW122586   2.691   3.157   3.914  0.8369  1.8184 -0.3723
 3708SOL    HW222587   2.797   3.060   3.910 -1.5123 -1.0435  0.5124
 3709SOL     OW22588   1.935   2.309   6.732  0.1464  0.3176 -0.2059
 3709SOL    HW122589   2.009   2.359   6.766 -0.0004  1.3835 -1.4604
 3709SOL    HW222590   1.973   2.225   6.708 -0.8739 -0.9624  2.7147
 3710SOL     OW22591   1.302   3.533  10.367 -0.4608 -0.0565  0.4284
 3710SOL    HW122592   1.226   3.482  10.393  1.2794 -2.0732  1.5739
 3710SOL    HW222593   1.302   3.511  10.274  1.6482 -0.7426  0.5740
 3711SOL     OW22594   1.445   3.392  10.158  0.2927  0.1819  0.4524
 3711SOL    HW122595   1.447   3.337  10.236  0.1510 -1.7570 -0.8849
 3711SOL    HW222596   1.517   3.448  10.187  0.8463 -0.2046 -0.1516
 3712SOL     OW22597   1.885   4.584   3.891  0.5260 -0.1813  0.0916
 3712SOL    HW122598   1.898   4.678   3.904  1.7670 -0.3483 -0.0185
 3712SOL    HW222599   1.931   4.553   3.969  0.4362  0.7186  0.5064
 3713SOL     OW22600   1.327   2.678   4.428  0.5542  0.9114 -0.1263
 3713SOL    HW122601   1.276   2.695   4.349 -0.7926  2.7985  1.1531
 3713SOL    HW222602   1.264   2.707   4.494 -0.6479 -1.0962 -0.4157
 3714SOL     OW22603   1.768   0.022  13.155 -0.4429  0.1162  0.4920
 3714SOL    HW122604   1.862   0.039  13.167 -0.2780  1.1027 -2.1577
 3714SOL    HW222605   1.750   0.057  13.068 -0.2763  0.6739  0.6838
 3715SOL     OW22606   0.081   1.615   6.236 -0.3041 -0.0438 -0.1277
 3715SOL    HW122607   0.141   1.551   6.274 -0.5851  0.1612  0.6704
 3715SOL    HW222608   0.146   1.652   6.177 -1.7028 -1.8262 -2.8014
 3716SOL     OW22609   1.487   0.529   8.824 -0.0428 -0.4144 -0.1789
 3716SOL    HW122610   1.509   0.497   8.911 -2.4940 -1.8286 -0.0833
 3716SOL    HW222611   1.538   0.471   8.767 -2.9845 -1.5779 -1.6455
 3717SOL     OW22612   4.387   3.740  11.612  0.4710  0.0159  0.5305
 3717SOL    HW122613   4.418   3.828  11.630  0.3520  0.0427  0.6045
 3717SOL    HW222614   4.459   3.713  11.555 -0.7429 -0.0147 -1.0230
 3718SOL     OW22615   2.301   2.984   7.820 -0.3761 -0.7754  0.0208
 3718SOL    HW122616   2.266   3.066   7.855  0.7192  0.0851 -0.9038
 3718SOL    HW222617   2.315   2.939   7.903  0.2170 -0.1867  0.2478
 3719SOL     OW22618   0.434   2.789   5.277 -0.1485 -0.6043  0.4936
 3719SOL    HW122619   0.476   2.704   5.265  1.6785  0.6121 -1.8281
 3719SOL    HW222620   0.497   2.825   5.340  1.3325  0.2130 -1.4399
 3720SOL     OW22621   1.130   2.296   2.276  0.0816 -0.1941 -0.2958
 3720SOL    HW122622   1.175   2.335   2.350 -1.5020 -0.9841  1.0807
 3720SOL    HW222623   1.197   2.288   2.208  0.0382 -2.0050 -0.1314
 3721SOL     OW22624   2.558   2.019   1.096  0.3055 -0.0182 -0.3792
 3721SOL    HW122625   2.463   2.022   1.108  0.6157 -0.7024  2.1192
 3721SOL    HW222626   2.584   1.932   1.126 -2.7854 -0.8777 -0.1896
 3722SOL     OW22627   0.077   3.725   6.001  0.2147 -0.1263  0.8421
 3722SOL    HW122628   4.714   3.724   6.030  0.5721  0.9868  1.9759
 3722SOL    HW222629   0.066   3.708   5.907  2.0371  1.7680  0.3036
 3723SOL     OW22630   0.279   3.447   9.439 -0.3397  0.2500  0.1468
 3723SOL    HW122631   0.346   3.478   9.378  0.0162 -0.4579  0.1893
 3723SOL    HW222632   0.339   3.456   9.513 -1.4407  1.2721  0.9235
 3724SOL     OW22633   1.709   3.825   3.088  0.3077  0.4806 -0.5022
 3724SOL    HW122634   1.664   3.746   3.059  0.8058  0.7166 -1.9002
 3724SOL    HW222635   1.640   3.869   3.138  2.4421  0.2149  2.6571
 3725SOL     OW22636   0.700   2.064   0.613  0.2433  0.2810 -0.0581
 3725SOL    HW122637   0.763   2.126   0.578  0.4404  0.0273 -0.1432
 3725SOL    HW222638   0.724   1.982   0.570  2.4266  0.3895  0.9591
 3726SOL     OW22639   1.741   2.370  11.748  0.1026 -0.2286 -0.5571
 3726SOL    HW122640   1.789   2.335  11.823  1.3970  0.7809 -0.9260
 3726SOL    HW222641   1.802   2.338  11.682  0.4604 -3.7861  1.4922
 3727SOL     OW22642   2.885   4.004   6.053  0.0509 -0.4324  0.5328
 3727SOL    HW122643   2.963   3.965   6.093  1.9873  2.6112 -0.2476
 3727SOL    HW222644   2.871   3.945   5.979  0.4566 -1.5993  1.3797
 3728SOL     OW22645   0.887   4.122   6.145  0.1090 -0.5467 -0.2605
 3728SOL    HW122646   0.923   4.194   6.093  0.5602  0.0703  0.9099
 3728SOL    HW222647   0.945   4.099   6.217 -0.4365 -0.8681  0.0658
 3729SOL     OW22648   1.135   4.036   6.360 -0.0319  0.2957  0.2977
 3729SOL    HW122649   1.208   4.082   6.318  0.6558 -0.7355  0.3405
 3729SOL    HW222650   1.159   3.954   6.315  3.4337  1.1804  0.5228
 3730SOL     OW22651   2.979   3.395  14.542  0.6603  0.7263  0.1857
 3730SOL    HW122652   2.996   3.332  14.612  3.1441  0.4842 -0.6305
 3730SOL    HW222653   3.050   3.373  14.482  0.6776  0.3145  0.3556
 3731SOL     OW22654   1.287   4.232   2.125 -0.6129 -0.5442  0.1368
 3731SOL    HW122655   1.362   4.173   2.132  0.2797  0.6190  0.3649
 3731SOL    HW222656   1.269   4.227   2.031  3.3456  0.0250 -0.6526
 3732SOL     OW22657   3.931   4.145   0.182  0.0231 -0.1172  0.2304
 3732SOL    HW122658   3.965   4.180   0.264 -1.7218  0.8294  0.5363
 3732SOL    HW222659   3.839   4.170   0.189 -0.2617 -0.6270 -1.7231
 3733SOL     OW22660   0.020   3.278   7.743  0.4952 -0.0388  0.1590
 3733SOL    HW122661   4.695   3.224   7.683  0.7882 -0.6366  0.4380
 3733SOL    HW222662   0.089   3.215   7.765  0.4271 -0.0007  0.4790
 3734SOL     OW22663   2.488   2.730   4.929  0.2754 -0.1568  0.5977
 3734SOL    HW122664   2.580   2.707   4.918  0.3326  1.0424 -1.4129
 3734SOL    HW222665   2.498   2.808   4.983 -1.5290  1.2987 -1.1908
 3735SOL     OW22666   2.165   3.990   9.861  0.3285  0.4455 -0.0770
 3735SOL    HW122667   2.158   3.950   9.947  0.7123  0.9192  0.1741
 3735SOL    HW222668   2.118   4.072   9.874 -0.7229 -0.0462 -0.8043
 3736SOL     OW22669   2.468   2.376   6.429  0.1081  0.7661 -0.2581
 3736SOL    HW122670   2.509   2.300   6.388 -0.3238  0.7660 -0.6778
 3736SOL    HW222671   2.445   2.434   6.357 -0.9577  1.5591  0.7049
 3737SOL     OW22672   4.061   3.570   9.428  0.1805 -0.5507  0.1703
 3737SOL    HW122673   4.108   3.499   9.385  2.7222  1.4869 -0.3770
 3737SOL    HW222674   3.974   3.529   9.437  0.6315 -1.8607 -1.5873
 3738SOL     OW22675   3.538   4.617   7.907 -0.0593 -0.1955  0.1227
 3738SOL    HW122676   3.584   4.593   7.987  0.5563 -0.3558 -0.2740
 3738SOL    HW222677   3.573   4.703   7.886  1.9117 -0.9787  0.1115
 3739SOL     OW22678   0.953   3.179   2.686  0.5301  0.2037 -0.3778
 3739SOL    HW122679   0.954   3.087   2.711  3.9476 -0.3931 -2.6574
 3739SOL    HW222680   0.888   3.221   2.742  1.0225 -0.1825  0.4782
 3740SOL     OW22681   0.734   0.277   5.380  0.0031 -0.5196 -0.5491
 3740SOL    HW122682   0.750   0.334   5.305  1.2438 -0.4003 -0.1840
 3740SOL    HW222683   0.641   0.291   5.399  0.0253 -1.0043 -0.0884
 3741SOL     OW22684   1.775   2.441   1.853 -0.4049  0.1052  0.2178
 3741SOL    HW122685   1.717   2.512   1.824  0.6351  1.5131  1.6073
 3741SOL    HW222686   1.819   2.493   1.920 -1.2781  1.5734 -0.3447
 3742SOL     OW22687   1.555   3.425  15.836 -0.5716  0.3251  0.0923
 3742SOL    HW122688   1.626   3.396  15.893 -0.3539 -3.2764 -1.9494
 3742SOL    HW222689   1.536   3.347  15.783  0.6069  0.4972 -0.6036
 3743SOL     OW22690   2.121   1.475   7.292 -0.2641  0.2763  1.1315
 3743SOL    HW122691   2.026   1.489   7.296 -0.3399  0.2945 -1.0017
 3743SOL    HW222692   2.128   1.387   7.328 -0.2847 -0.6019 -1.0419
 3744SOL     OW22693   4.208   3.973  14.522 -0.5507 -0.3452  0.0104
 3744SOL    HW122694   4.297   3.939  14.524 -1.2176 -1.9873  2.0602
 3744SOL    HW222695   4.195   3.991  14.615 -1.8508  1.4962 -0.5257
 3745SOL     OW22696   3.669   2.165   4.156  0.0101  1.1903 -0.0234
 3745SOL    HW122697   3.697   2.089   4.105 -2.5359 -1.3073  2.3147
 3745SOL    HW222698   3.575   2.175   4.138 -0.4874 -1.4317  1.1806
 3746SOL     OW22699   1.515   3.450  12.702 -0.0761 -0.7346 -0.3311
 3746SOL    HW122700   1.538   3.402  12.622  1.5562 -2.5237  1.2047
 3746SOL    HW222701   1.488   3.536  12.670 -0.4363 -0.6683  0.1513
 3747SOL     OW22702   3.489   0.047   8.830  0.1227  0.1379 -0.1302
 3747SOL    HW122703   3.544   4.712   8.878  0.5119 -0.5597 -1.4714
 3747SOL    HW222704   3.409   0.010   8.866  0.1266 -0.9345 -1.2131
 3748SOL     OW22705   3.715   1.670   6.972  0.0214  0.0385 -0.0172
 3748SOL    HW122706   3.772   1.675   6.896  1.4160  2.0387  1.1522
 3748SOL    HW222707   3.635   1.632   6.934 -0.5954  1.8080 -0.5216
 3749SOL     OW22708   1.551   3.808  10.472  0.6474  0.2454  0.1260
 3749SOL    HW122709   1.459   3.833  10.470  0.2951 -0.9744  0.9469
 3749SOL    HW222710   1.567   3.792  10.565 -0.5127 -2.2717 -0.1169
 3750SOL     OW22711   0.848   3.797  12.891  0.5243  0.0654  0.0772
 3750SOL    HW122712   0.892   3.713  12.889 -1.5772 -1.0465  0.4691
 3750SOL    HW222713   0.797   3.780  12.812  0.4237 -2.1810  0.6369
 3751SOL     OW22714   1.018   0.121  14.817 -0.9918  0.2568  0.2312
 3751SOL    HW122715   0.951   0.057  14.792 -2.3285  0.9778  1.9223
 3751SOL    HW222716   0.986   0.130  14.907  1.6565  2.2092  0.9804
 3752SOL     OW22717   1.692   2.999   9.926 -0.3284  0.4603 -0.2743
 3752SOL    HW122718   1.771   3.047   9.902  0.1854  0.5968  1.6422
 3752SOL    HW222719   1.681   2.923   9.869 -0.7153 -1.0959  1.8546
 3753SOL     OW22720   0.514   4.136  15.713 -0.2388  0.2083  0.0888
 3753SOL    HW122721   0.473   4.071  15.770 -0.4176  0.1857 -0.0635
 3753SOL    HW222722   0.441   4.191  15.684  0.8054  1.3748 -0.3140
 3754SOL     OW22723   4.315   0.702   7.175 -0.0098 -0.2412  0.2256
 3754SOL    HW122724   4.343   0.618   7.210  1.1286 -1.1648 -2.8429
 3754SOL    HW222725   4.220   0.690   7.167  0.0243 -0.6525  0.4363
 3755SOL     OW22726   3.852   1.754   0.789  0.2394  0.1617 -0.7175
 3755SOL    HW122727   3.757   1.742   0.791  0.1073  1.1410 -1.0985
 3755SOL    HW222728   3.856   1.736   0.695  0.6231 -0.3704 -0.6039
 3756SOL     OW22729   3.360   2.525   6.088  0.7809  0.6011 -0.0151
 3756SOL    HW122730   3.307   2.451   6.059  2.2364 -0.6626  0.5432
 3756SOL    HW222731   3.419   2.540   6.014 -0.8177 -0.5562 -1.5454
 3757SOL     OW22732   0.707   2.348  15.792  0.4273 -0.1457 -0.1604
 3757SOL    HW122733   0.672   2.394  15.715 -0.4850  0.4507  0.6174
 3757SOL    HW222734   0.799   2.371  15.781  0.3669  0.1399 -0.0776
 3758SOL     OW22735   2.055   2.921   2.888  0.2484 -0.1799  0.3469
 3758SOL    HW122736   2.020   2.998   2.933  0.9050 -0.3034  1.0753
 3758SOL    HW222737   1.987   2.855   2.893 -0.4069  0.5404  0.9352
 3759SOL     OW22738   4.338   3.738   9.137  0.4326  0.1836  0.0819
 3759SOL    HW122739   4.306   3.784   9.059 -0.0389 -0.5978 -0.1820
 3759SOL    HW222740   4.422   3.783   9.140 -0.5162  1.9927 -0.0312
 3760SOL     OW22741   2.543   1.192   6.249 -0.1445 -0.4333 -0.1730
 3760SOL    HW122742   2.513   1.266   6.302  1.1526 -0.2665  0.3358
 3760SOL    HW222743   2.482   1.190   6.175 -0.5801  0.2345  0.1675
 3761SOL     OW22744   0.179   4.383   7.870  0.6091  0.1297 -0.2126
 3761SOL    HW122745   0.138   4.461   7.906 -1.8300 -2.2247  2.1036
 3761SOL    HW222746   0.238   4.421   7.804 -0.2782 -0.7606 -1.5108
 3762SOL     OW22747   1.088   1.897   5.942 -0.2090 -0.0666 -0.1328
 3762SOL    HW122748   1.126   1.850   5.867 -0.6176  0.3185 -0.5886
 3762SOL    HW222749   1.161   1.905   6.003 -0.8133  0.6223  0.5098
 3763SOL     OW22750   1.073   1.948   5.221  0.7225  0.2991  0.0807
 3763SOL    HW122751   1.117   1.869   5.252  2.9759  2.3740  2.1416
 3763SOL    HW222752   1.082   2.009   5.295  0.3467 -0.3659  0.6767
 3764SOL     OW22753   0.305   0.591  15.587  0.6231  0.0366 -0.2431
 3764SOL    HW122754   0.343   0.506  15.565 -0.2463 -0.1522 -0.9898
 3764SOL    HW222755   0.244   0.597  15.514 -1.1313  1.6631  1.3571
 3765SOL     OW22756   3.834   2.379   4.099 -0.1021 -0.3365 -0.0528
 3765SOL    HW122757   3.782   2.459   4.095  0.9010  0.4011  1.6976
 3765SOL    HW222758   3.775   2.304   4.105  0.6632 -0.9849 -0.6737
 3766SOL     OW22759   0.037   1.361  13.698 -0.1170 -0.3889 -1.1130
 3766SOL    HW122760   0.120   1.386  13.657 -0.0262 -1.0926 -1.3571
 3766SOL    HW222761   0.036   1.266  13.707  2.5039 -0.2983  0.1550
 3767SOL     OW22762   3.399   2.493   1.959  0.0155 -0.3429  0.4998
 3767SOL    HW122763   3.484   2.477   2.000  0.6113 -0.2332 -0.6863
 3767SOL    HW222764   3.389   2.426   1.891  0.4312 -0.9174  1.0150
 3768SOL     OW22765   4.197   2.793   5.482 -0.4862  0.0286 -0.0672
 3768SOL    HW122766   4.235   2.758   5.402 -1.2615  0.9523 -0.8455
 3768SOL    HW222767   4.116   2.743   5.476  0.7695 -2.3831  3.2038
 3769SOL     OW22768   3.325   3.773   0.064 -1.0386  0.1628  0.0212
 3769SOL    HW122769   3.383   3.830   0.114 -1.6325  1.5878 -0.8812
 3769SOL    HW222770   3.242   3.785   0.109 -1.1794  1.7364 -0.6437
 3770SOL     OW22771   0.011   3.134   1.993  0.2031  0.4757 -0.2989
 3770SOL    HW122772   4.721   3.041   1.977 -0.1822  0.3237  1.0029
 3770SOL    HW222773   4.651   3.158   2.021  0.6576  0.1704  1.3647
 3771SOL     OW22774   1.897   4.170  12.298 -0.3610 -0.3636  0.0101
 3771SOL    HW122775   1.959   4.192  12.229  0.8083 -1.6619  0.6450
 3771SOL    HW222776   1.952   4.119  12.358 -1.1828  0.0858  1.1592
 3772SOL     OW22777   1.952   0.861   2.797  0.1096  0.5636  0.2700
 3772SOL    HW122778   1.859   0.859   2.820  0.1030  1.0874  0.2860
 3772SOL    HW222779   1.976   0.777   2.836  0.5234  0.4959 -0.1240
 3773SOL     OW22780   3.661   2.579   5.457  0.2902  0.4990  0.4014
 3773SOL    HW122781   3.635   2.596   5.367  1.5620  0.1092 -0.0257
 3773SOL    HW222782   3.588   2.614   5.509  1.2888 -0.1376  2.2357
 3774SOL     OW22783   4.173   4.519   7.818  0.5018  0.8644 -0.6231
 3774SOL    HW122784   4.255   4.537   7.864 -1.7173  0.2023  3.4966
 3774SOL    HW222785   4.184   4.424   7.811 -0.5674  0.7253 -0.3320
 3775SOL     OW22786   3.218   3.932   5.799 -0.4451 -0.5443  0.0167
 3775SOL    HW122787   3.251   3.982   5.874 -0.3243  1.9483 -1.7433
 3775SOL    HW222788   3.164   3.865   5.842  0.8290 -0.9198  1.0578
 3776SOL     OW22789   3.311   0.203  12.050 -0.0881 -0.1868 -0.2222
 3776SOL    HW122790   3.293   0.113  12.077 -0.7955  0.0421  0.0888
 3776SOL    HW222791   3.263   0.212  11.968  1.1537  0.6461 -0.8434
 3777SOL     OW22792   0.637   1.970   1.309  0.4813  0.5485 -0.0821
 3777SOL    HW122793   0.568   1.974   1.243  2.2139 -1.0413 -1.9822
 3777SOL    HW222794   0.655   1.877   1.320  0.9364  0.4758 -1.3854
 3778SOL     OW22795   0.100   4.261   2.109  0.4352  0.3380 -0.2370
 3778SOL    HW122796   0.069   4.299   2.027 -0.6229 -0.3618 -0.1651
 3778SOL    HW222797   0.184   4.225   2.079 -0.6217 -2.1308 -0.2704
 3779SOL     OW22798   1.635   1.924   5.401  0.1607  0.2751  0.0598
 3779SOL    HW122799   1.605   1.930   5.310 -2.2087 -0.1062  0.8346
 3779SOL    HW222800   1.728   1.903   5.395  0.0544  0.0396 -0.8450
 3780SOL     OW22801   1.075   1.180   2.779 -0.0470  0.1099 -0.1012
 3780SOL    HW122802   1.062   1.110   2.843  3.1607  1.8836  2.4360
 3780SOL    HW222803   1.129   1.140   2.711  0.2830 -0.2895  0.3944
 3781SOL     OW22804   3.197   1.703  14.863  0.1831 -0.0603 -0.6568
 3781SOL    HW122805   3.267   1.649  14.826  0.8442  0.3187  0.0408
 3781SOL    HW222806   3.237   1.786  14.889  2.0340 -1.2070  0.1647
 3782SOL     OW22807   0.918   3.876  15.548 -0.0829 -0.3547 -0.5808
 3782SOL    HW122808   0.880   3.793  15.578 -1.0267  0.7315  1.3107
 3782SOL    HW222809   0.872   3.935  15.608 -0.3387 -0.4081 -0.7222
 3783SOL     OW22810   0.196   3.169   8.798 -0.0820  0.8799 -0.4635
 3783SOL    HW122811   0.261   3.098   8.790  0.2744  1.2695 -1.0632
 3783SOL    HW222812   0.182   3.197   8.708  0.1601  0.7754 -0.5351
 3784SOL     OW22813   3.876   1.708   8.404  0.9002 -0.3209 -0.2613
 3784SOL    HW122814   3.902   1.753   8.324 -1.2973 -0.0757 -0.8472
 3784SOL    HW222815   3.793   1.678   8.368  0.8528 -0.5350  0.0248
 3785SOL     OW22816   0.555   2.392   6.551 -0.1584  0.0813  0.0128
 3785SOL    HW122817   0.479   2.412   6.497  1.8973 -0.1031 -2.9335
 3785SOL    HW222818   0.620   2.449   6.510 -2.4345  1.9793 -0.9220
 3786SOL     OW22819   1.533   2.585   8.593 -0.1675  0.3907 -0.4596
 3786SOL    HW122820   1.576   2.507   8.626  0.7276  0.9767 -0.2344
 3786SOL    HW222821   1.531   2.642   8.671 -0.1064 -1.8053  1.1391
 3787SOL     OW22822   1.753   2.424   3.430 -0.3833 -0.3367 -0.5758
 3787SOL    HW122823   1.722   2.348   3.479  0.2582 -1.2594 -1.6049
 3787SOL    HW222824   1.846   2.409   3.416 -0.5144 -3.1995  1.5346
 3788SOL     OW22825   4.713   1.451   4.321 -0.0500  0.1948  0.1485
 3788SOL    HW122826   0.077   1.470   4.342  0.3312  0.0979 -1.4025
 3788SOL    HW222827   4.660   1.526   4.346 -1.7058 -0.4119 -1.5147
 3789SOL     OW22828   2.032   0.260   7.002  0.1718  0.0537 -0.1860
 3789SOL    HW122829   1.957   0.308   7.037 -0.0398  1.4361 -2.5391
 3789SOL    HW222830   1.996   0.172   7.011 -0.7729  0.6357  1.7542
 3790SOL     OW22831   1.239   1.530  10.319 -0.1164 -0.2755 -0.6615
 3790SOL    HW122832   1.276   1.608  10.360  3.1403 -1.7605 -0.8098
 3790SOL    HW222833   1.177   1.501  10.387  1.5435 -0.5416  0.7312
 3791SOL     OW22834   1.159   0.715  15.482 -0.1113  0.1016  0.4687
 3791SOL    HW122835   1.140   0.662  15.559 -1.6489  0.3556  0.2490
 3791SOL    HW222836   1.117   0.799  15.499 -0.8616 -0.0652 -0.5759
 3792SOL     OW22837   2.392   2.881   3.151 -0.2056 -0.2335 -0.2651
 3792SOL    HW122838   2.379   2.905   3.243 -2.2289  2.6366 -1.3162
 3792SOL    HW222839   2.349   2.796   3.140  1.6917 -1.2025 -0.3741
 3793SOL     OW22840   3.508   3.208  12.265  0.4438  0.3018  0.3185
 3793SOL    HW122841   3.499   3.302  12.277 -2.7048 -0.0727  0.9916
 3793SOL    HW222842   3.458   3.204  12.183 -0.1324  0.1209  0.6795
 3794SOL     OW22843   0.491   3.984   8.077 -0.9436  0.1441  0.5092
 3794SOL    HW122844   0.581   3.963   8.105 -0.2071 -0.1233 -2.0658
 3794SOL    HW222845   0.440   3.919   8.124 -0.5183 -0.5730 -0.0275
 3795SOL     OW22846   1.228   2.933   1.972  0.5275  0.8151 -0.1986
 3795SOL    HW122847   1.214   3.025   1.992  1.0806  0.9623 -0.4811
 3795SOL    HW222848   1.136   2.911   1.988  0.2157  2.7278  0.6716
 3796SOL     OW22849   1.862   3.321   1.497  0.1418  0.1698  0.4143
 3796SOL    HW122850   1.953   3.331   1.469  0.6855  0.5230  2.2843
 3796SOL    HW222851   1.862   3.247   1.557  0.3870 -1.4559 -1.5983
 3797SOL     OW22852   1.256   2.324   2.963  0.3862 -0.4508 -0.1429
 3797SOL    HW122853   1.336   2.280   2.933 -0.0818 -0.0138 -2.0342
 3797SOL    HW222854   1.238   2.260   3.031  0.0760 -0.0430  0.1534
 3798SOL     OW22855   2.282   3.993   9.617 -0.4408 -0.3930 -0.1967
 3798SOL    HW122856   2.356   4.031   9.664  0.1899 -1.1648 -0.5684
 3798SOL    HW222857   2.225   3.985   9.693 -2.9998  0.8398 -1.9762
 3799SOL     OW22858   1.266   2.539  15.790 -0.1342  0.6629  0.3782
 3799SOL    HW122859   1.304   2.601  15.729  3.3371 -0.5912  1.2821
 3799SOL    HW222860   1.301   2.459  15.751  0.2694  0.5898  0.8976
 3800SOL     OW22861   0.549   4.257   3.688 -0.4183  0.2590  0.3964
 3800SOL    HW122862   0.529   4.243   3.780 -2.2151 -0.8070 -0.1543
 3800SOL    HW222863   0.510   4.177   3.654  0.6627  0.6951 -1.9243
 3801SOL     OW22864   0.555   1.154   8.521  0.0767 -0.8295 -0.0615
 3801SOL    HW122865   0.530   1.179   8.610  2.3723 -3.0112  1.1957
 3801SOL    HW222866   0.477   1.148   8.466  1.2181 -0.2365 -1.7318
 3802SOL     OW22867   4.221   0.104   4.197  0.1040  0.0516 -0.5592
 3802SOL    HW122868   4.308   0.088   4.233  0.5252 -0.2337 -1.7224
 3802SOL    HW222869   4.225   0.035   4.132  0.0047 -0.0610 -0.4455
 3803SOL     OW22870   0.665   0.466   3.283  0.0191  0.3927  0.1340
 3803SOL    HW122871   0.746   0.502   3.319 -0.8023 -0.3790  2.7894
 3803SOL    HW222872   0.688   0.449   3.192  1.3996  0.3188  0.4959
 3804SOL     OW22873   3.076   1.632   5.007  0.4351  0.4009  0.5230
 3804SOL    HW122874   3.105   1.719   4.977 -0.6088  0.2587 -0.8548
 3804SOL    HW222875   3.088   1.587   4.924  3.7162  2.9611 -0.4348
 3805SOL     OW22876   0.644   2.951  12.081  0.0660  0.3512  0.0299
 3805SOL    HW122877   0.609   2.944  12.170 -1.0513 -1.0655 -0.5256
 3805SOL    HW222878   0.734   2.975  12.105  0.1047 -0.5883  0.8366
 3806SOL     OW22879   1.745   4.144  10.461 -0.1061  0.3358  0.0862
 3806SOL    HW122880   1.785   4.061  10.434 -1.2658 -0.1191 -0.2028
 3806SOL    HW222881   1.822   4.187  10.499 -0.2492  1.9769 -1.5172
 3807SOL     OW22882   4.435   2.420   4.546 -0.1970 -0.0282 -0.5566
 3807SOL    HW122883   4.482   2.503   4.547  0.2103 -0.2804  1.1684
 3807SOL    HW222884   4.401   2.427   4.457  1.9506  2.2414 -1.1871
 3808SOL     OW22885   1.484   1.288  14.464  0.0806 -0.5791  0.1637
 3808SOL    HW122886   1.425   1.237  14.409 -0.6516  1.3649 -0.8727
 3808SOL    HW222887   1.510   1.209  14.510  2.1770 -0.5398 -0.9701
 3809SOL     OW22888   4.556   1.714  10.908  0.4145  0.0058 -0.0369
 3809SOL    HW122889   4.472   1.731  10.951  0.7110 -2.0919  1.3522
 3809SOL    HW222890   4.616   1.702  10.982  2.1170  0.6667 -1.2888
 3810SOL     OW22891   3.172   1.305   4.240  0.0359  0.2932 -0.0397
 3810SOL    HW122892   3.225   1.228   4.260  0.4379 -0.0452 -2.4677
 3810SOL    HW222893   3.241   1.369   4.226 -1.2031  2.1511  2.3294
 3811SOL     OW22894   1.762   2.494   3.889  0.2082  0.1578  0.6378
 3811SOL    HW122895   1.761   2.585   3.918  2.6137  0.4774 -0.3334
 3811SOL    HW222896   1.684   2.499   3.834 -0.6742  0.5338  1.9249
 3812SOL     OW22897   2.463   1.065   1.912  0.3181 -0.5005 -0.3726
 3812SOL    HW122898   2.413   1.145   1.895  1.0289  0.3988  1.7904
 3812SOL    HW222899   2.388   1.006   1.920 -0.2569  0.5512  2.2221
 3813SOL     OW22900   4.527   1.116   7.971 -0.2272 -0.7080 -0.1565
 3813SOL    HW122901   4.454   1.145   7.917  0.2105 -0.0594 -0.4076
 3813SOL    HW222902   4.577   1.051   7.921 -1.2546 -2.8526  1.6026
 3814SOL     OW22903   4.402   1.319   8.527  0.3487  0.3558 -0.3817
 3814SOL    HW122904   4.457   1.248   8.494  0.5286  1.5444 -2.6779
 3814SOL    HW222905   4.470   1.385   8.531 -0.5978  1.3856 -1.2341
 3815SOL     OW22906   1.033   3.696   1.622  0.1618 -0.2475  0.3622
 3815SOL    HW122907   1.053   3.733   1.535 -0.1540  0.3123  0.5310
 3815SOL    HW222908   0.951   3.739   1.644  0.2051 -0.4637  0.9325
 3816SOL     OW22909   4.343   2.641   0.591 -0.2502  0.2754  0.5611
 3816SOL    HW122910   4.321   2.549   0.601  0.2037  0.2249  1.0894
 3816SOL    HW222911   4.265   2.674   0.545  0.2341 -1.5175 -1.5652
 3817SOL     OW22912   3.426   0.498   4.088  0.0045  0.2463 -0.4696
 3817SOL    HW122913   3.344   0.505   4.138 -1.1540 -0.3388 -2.2567
 3817SOL    HW222914   3.482   0.451   4.150 -0.2013 -1.8436 -1.8538
 3818SOL     OW22915   2.201   1.725   5.676 -0.1465 -0.5109 -0.1115
 3818SOL    HW122916   2.156   1.799   5.718 -0.6324  0.1605 -1.7875
 3818SOL    HW222917   2.291   1.757   5.670 -0.5800  0.3861 -2.0497
 3819SOL     OW22918   0.294   3.597   2.624 -0.2187  0.3839 -0.3836
 3819SOL    HW122919   0.376   3.619   2.581 -0.1864  0.1887 -0.4246
 3819SOL    HW222920   0.331   3.537   2.689  0.5670  1.2822 -0.0152
 3820SOL     OW22921   0.324   1.902   8.902 -0.2366 -0.6320  0.3726
 3820SOL    HW122922   0.273   1.883   8.980  0.9499 -1.0465  1.0571
 3820SOL    HW222923   0.325   1.997   8.894  2.5687 -0.8973 -2.8274
 3821SOL     OW22924   0.003   1.893   3.349  0.2258 -0.4960  0.0679
 3821SOL    HW122925   0.068   1.845   3.400  0.0733  1.7758  2.4399
 3821SOL    HW222926   4.719   1.976   3.396  1.3547  0.8496 -2.0497
 3822SOL     OW22927   3.217   4.267   2.255  0.0415  0.5438  0.1369
 3822SOL    HW122928   3.223   4.248   2.162  1.2033  1.6607 -0.0136
 3822SOL    HW222929   3.282   4.208   2.294 -1.3305 -0.4057  0.9928
 3823SOL     OW22930   3.958   1.321   6.730  0.1178 -0.3500 -0.3405
 3823SOL    HW122931   3.917   1.282   6.808  1.6416  0.1463  0.7154
 3823SOL    HW222932   4.044   1.284   6.711 -0.0230 -0.9554  0.2018
 3824SOL     OW22933   2.665   4.149   6.841 -0.2958  0.1849 -0.3345
 3824SOL    HW122934   2.615   4.218   6.798  1.5877  0.5843 -1.8677
 3824SOL    HW222935   2.594   4.096   6.877  0.0357  1.3117  1.9752
 3825SOL     OW22936   3.583   4.408   7.028 -0.2631 -0.5939  0.0673
 3825SOL    HW122937   3.617   4.430   7.115 -0.5637 -0.6952  0.2117
 3825SOL    HW222938   3.489   4.393   7.039 -0.1240 -2.0551 -0.7676
 3826SOL     OW22939   2.679   1.661   7.336  0.3409 -0.2680 -0.0625
 3826SOL    HW122940   2.761   1.671   7.384 -0.4656  1.9654  0.8532
 3826SOL    HW222941   2.634   1.588   7.379 -0.4101 -0.0504 -0.4785
 3827SOL     OW22942   1.648   3.214   2.560  0.4847  0.5871  0.1854
 3827SOL    HW122943   1.733   3.235   2.598  0.6916  0.5691 -0.2705
 3827SOL    HW222944   1.594   3.216   2.638  0.4290  0.2392  0.1561
 3828SOL     OW22945   1.655   0.816   3.886 -0.1483  0.2194 -0.0488
 3828SOL    HW122946   1.638   0.787   3.797 -0.3305 -1.3729  0.5018
 3828SOL    HW222947   1.583   0.772   3.930 -0.1838 -0.2169 -0.5438
 3829SOL     OW22948   4.001   0.703   9.325 -0.5459 -0.4746 -0.0391
 3829SOL    HW122949   4.082   0.661   9.352  0.4636  0.9254 -0.9052
 3829SOL    HW222950   3.948   0.676   9.400 -2.2316  0.4238 -0.8890
 3830SOL     OW22951   3.686   2.338  12.769  0.1050 -0.0763  0.1209
 3830SOL    HW122952   3.677   2.395  12.693 -0.3429 -1.2903 -0.7422
 3830SOL    HW222953   3.716   2.403  12.832  0.6743  0.0199 -0.2469
 3831SOL     OW22954   3.211   3.741  12.990  0.6866  0.0720 -0.0151
 3831SOL    HW122955   3.200   3.834  12.968 -0.0282  0.7452  3.1641
 3831SOL    HW222956   3.155   3.696  12.927  0.5913 -1.4724  1.1781
 3832SOL     OW22957   2.329   0.857  17.683 -0.4000 -0.2891  0.6214
 3832SOL    HW122958   2.339   0.763  17.671 -0.2641 -0.2217  0.1914
 3832SOL    HW222959   2.414   0.884  17.649  0.4085 -1.3837  1.7893
 3833SOL     OW22960   1.034   4.402   7.109 -0.5590  0.1599 -0.6162
 3833SOL    HW122961   1.006   4.390   7.019 -2.6304  0.6646 -0.0326
 3833SOL    HW222962   1.126   4.422   7.089 -0.2734  1.0304  1.5542
 3834SOL     OW22963   2.387   0.816   1.462 -0.4870 -0.2660  0.2076
 3834SOL    HW122964   2.452   0.805   1.393 -0.5250  1.2062 -0.0594
 3834SOL    HW222965   2.421   0.760   1.532 -1.7484  0.7887  1.6765
 3835SOL     OW22966   0.378   4.407   4.197 -0.3591  0.6293 -0.2151
 3835SOL    HW122967   0.377   4.314   4.178  0.8408  0.9255 -1.7418
 3835SOL    HW222968   0.451   4.430   4.255  0.1278 -1.1662 -0.1335
 3836SOL     OW22969   2.418   1.008   6.940 -0.2274  0.1066  0.5103
 3836SOL    HW122970   2.462   1.087   6.973 -1.8004  1.3268 -0.3349
 3836SOL    HW222971   2.427   0.950   7.016  0.5267  1.7966  1.7318
 3837SOL     OW22972   1.549   4.445   8.044  0.5211  0.3815 -0.1564
 3837SOL    HW122973   1.538   4.443   7.949  1.4073  1.8794 -0.2911
 3837SOL    HW222974   1.520   4.534   8.063  0.6430  0.7478 -1.6687
 3838SOL     OW22975   2.539   4.383  13.725  0.0994  0.4926  0.5356
 3838SOL    HW122976   2.504   4.301  13.690  1.4863 -0.2735  0.9494
 3838SOL    HW222977   2.622   4.390  13.677  0.4667  2.0432  1.3810
 3839SOL     OW22978   3.806   3.911   8.265 -0.0906 -0.1038  0.0830
 3839SOL    HW122979   3.900   3.907   8.280 -0.3570  0.0784  1.8238
 3839SOL    HW222980   3.776   3.925   8.355  0.4896 -1.8470  0.5335
 3840SOL     OW22981   3.287   0.142   7.663  0.0520 -0.0196 -0.3611
 3840SOL    HW122982   3.272   0.236   7.670 -1.4990 -0.1594 -1.6887
 3840SOL    HW222983   3.298   0.131   7.568 -3.0780  0.1427 -0.7207
 3841SOL     OW22984   4.428   0.237  11.786  0.4762  0.1501  0.1961
 3841SOL    HW122985   4.507   0.197  11.750 -0.2946  1.0411 -2.4526
 3841SOL    HW222986   4.379   0.167  11.829 -1.0521  0.7852 -0.4961
 3842SOL     OW22987   1.580   3.733  10.731 -0.0777 -0.7139  0.1793
 3842SOL    HW122988   1.655   3.780  10.768 -0.4784 -0.2468  0.3931
 3842SOL    HW222989   1.514   3.801  10.747  0.7605 -0.0403  0.7558
 3843SOL     OW22990   1.012   2.037   7.321  0.6800 -0.5656  0.0205
 3843SOL    HW122991   0.929   2.004   7.355  0.8105 -4.5252 -3.4824
 3843SOL    HW222992   0.990   2.051   7.228  1.0623  1.9386  0.3063
 3844SOL     OW22993   1.070   0.266  14.102 -0.1189  0.3461  0.1039
 3844SOL    HW122994   1.003   0.199  14.119  2.0054 -1.6142  0.7011
 3844SOL    HW222995   1.128   0.211  14.050 -1.3401 -0.6701 -0.1812
 3845SOL     OW22996   0.907   4.243   6.607 -0.2493 -0.3157 -0.5215
 3845SOL    HW122997   0.977   4.216   6.547 -1.0455 -3.5020 -0.0374
 3845SOL    HW222998   0.831   4.241   6.550  0.3446  0.1488 -1.3303
 3846SOL     OW22999   2.619   4.517   0.455 -0.3392  0.0741 -0.8691
 3846SOL    HW123000   2.532   4.557   0.464 -0.2969 -0.1226  0.3992
 3846SOL    HW223001   2.661   4.550   0.534  0.2487 -0.8647 -0.7892
 3847SOL     OW23002   4.140   4.440   8.131 -0.4277  0.5304  0.3798
 3847SOL    HW123003   4.224   4.456   8.087 -0.3661 -0.3937  0.1651
 3847SOL    HW223004   4.115   4.371   8.070  0.0536  1.7951 -1.2749
 3848SOL     OW23005   1.065   0.486   4.086 -0.1713 -0.0107 -0.3344
 3848SOL    HW123006   1.146   0.451   4.123  0.0899  1.0841  0.1385
 3848SOL    HW223007   1.027   0.403   4.057 -3.6446  0.5775  2.5031
 3849SOL     OW23008   1.450   3.446   9.586 -0.0323 -0.0721 -0.1141
 3849SOL    HW123009   1.429   3.352   9.588 -1.8776  0.3477 -0.1409
 3849SOL    HW223010   1.380   3.478   9.530  0.6136 -0.6204 -1.2647
 3850SOL     OW23011   4.243   2.545   8.937 -0.1881  0.1429  0.1059
 3850SOL    HW123012   4.297   2.498   8.873  0.4998  0.3064  0.5663
 3850SOL    HW223013   4.310   2.600   8.978  0.1037  0.3629 -0.6655
 3851SOL     OW23014   0.727   3.329  17.530 -0.2295 -0.4480 -0.5903
 3851SOL    HW123015   0.703   3.405  17.478 -0.5600 -0.1949 -0.0769
 3851SOL    HW223016   0.796   3.292  17.475 -1.1885 -0.6744 -1.6417
 3852SOL     OW23017   2.365   1.697   1.295  0.1644  0.5993  0.8375
 3852SOL    HW123018   2.446   1.711   1.246 -0.7030 -1.6167 -1.2176
 3852SOL    HW223019   2.368   1.779   1.345 -1.9439 -0.3193  2.4480
 3853SOL     OW23020   4.690   1.690   4.835 -0.1754  0.0454  0.7024
 3853SOL    HW123021   0.016   1.697   4.756 -0.1547  0.0872  0.7200
 3853SOL    HW223022   4.627   1.623   4.808 -0.9398  1.0772 -0.0945
 3854SOL     OW23023   4.601   4.693  13.627  0.0928  0.2954  0.0849
 3854SOL    HW123024   4.689   4.717  13.596  0.2341  0.6543  0.7790
 3854SOL    HW223025   4.558   4.672  13.544  2.6629  0.3240 -1.2755
 3855SOL     OW23026   4.161   4.194   2.982  0.4608  0.3882 -0.7183
 3855SOL    HW123027   4.212   4.220   2.905 -1.7766  0.3914 -2.2121
 3855SOL    HW223028   4.210   4.251   3.041  1.8579 -1.6077  0.0464
 3856SOL     OW23029   3.271   1.645   1.994 -0.3780  0.1813  0.3979
 3856SOL    HW123030   3.267   1.643   1.898 -1.4691  0.1866  0.4422
 3856SOL    HW223031   3.365   1.661   1.997 -0.1685 -1.1266  0.8525
 3857SOL     OW23032   1.689   1.221  10.634 -0.3027 -0.3543  0.0362
 3857SOL    HW123033   1.641   1.156  10.685 -1.8114  0.8132  0.1035
 3857SOL    HW223034   1.724   1.271  10.708  1.5325 -1.9790  0.2566
 3858SOL     OW23035   0.223   4.699  12.082  0.9234 -0.2922 -0.0328
 3858SOL    HW123036   0.253   0.000  11.995  2.2450  0.1092  0.5632
 3858SOL    HW223037   0.249   0.044  12.139 -0.7214  0.5008 -0.2991
 3859SOL     OW23038   1.451   3.414   3.510  0.3400 -0.4127 -0.0732
 3859SOL    HW123039   1.512   3.477   3.473  1.5327 -1.9511 -0.7480
 3859SOL    HW223040   1.433   3.445   3.599 -2.5119  0.0206 -0.8044
 3860SOL     OW23041   3.521   3.243   5.137 -0.1748  0.1857  0.3321
 3860SOL    HW123042   3.499   3.319   5.083  0.2914  0.1554  0.1005
 3860SOL    HW223043   3.466   3.264   5.213  1.2362  1.8808  0.8609
 3861SOL     OW23044   2.667   1.192   2.014  0.1942  0.4041  0.4746
 3861SOL    HW123045   2.597   1.147   1.966  0.5043  0.1330  0.2730
 3861SOL    HW223046   2.615   1.248   2.071 -3.2623 -1.2552 -1.0401
 3862SOL     OW23047   1.960   3.257   3.450 -0.6059 -0.5280 -0.2091
 3862SOL    HW123048   1.912   3.179   3.422  0.1745 -1.1190  0.1286
 3862SOL    HW223049   2.045   3.240   3.409  0.5145  2.5581  0.8359
 3863SOL     OW23050   4.627   2.868   1.184  0.4639  0.1992  0.2711
 3863SOL    HW123051   4.597   2.957   1.165  0.2318  0.1510  0.4095
 3863SOL    HW223052   4.678   2.880   1.264 -0.9569 -1.9188  1.4805
 3864SOL     OW23053   2.816   0.267   9.487  0.4147  0.3651  0.2042
 3864SOL    HW123054   2.830   0.351   9.530 -0.8559  0.3970  0.5498
 3864SOL    HW223055   2.902   0.225   9.486 -0.4826 -1.5145  2.0493
 3865SOL     OW23056   3.845   0.311   7.344 -0.2617 -0.0849 -0.0393
 3865SOL    HW123057   3.891   0.367   7.282  0.3358  1.2129  1.5710
 3865SOL    HW223058   3.760   0.296   7.303 -1.3476  0.4946  1.9894
 3866SOL     OW23059   4.561   1.857  13.264 -0.1810  1.0181 -0.3502
 3866SOL    HW123060   4.501   1.800  13.216  0.2088 -0.0995  0.4888
 3866SOL    HW223061   4.523   1.945  13.267  0.3936  1.2776 -0.6012
 3867SOL     OW23062   3.725   3.019   4.171  0.0813  0.1848 -0.0565
 3867SOL    HW123063   3.727   2.972   4.087  0.4056  0.8768 -0.4359
 3867SOL    HW223064   3.706   3.105   4.133  0.1896 -0.6204 -1.9545
 3868SOL     OW23065   3.949   2.309   4.857 -0.7681  0.0348 -0.2423
 3868SOL    HW123066   3.885   2.373   4.889 -1.8528 -0.2739 -1.7817
 3868SOL    HW223067   3.948   2.310   4.761  0.4538  2.1727 -0.2297
 3869SOL     OW23068   0.199   3.908   6.357  0.5805  0.1084 -0.6061
 3869SOL    HW123069   0.108   3.921   6.383  0.7598  0.3913 -0.1317
 3869SOL    HW223070   0.185   3.909   6.262  0.7371  0.9831 -0.6170
 3870SOL     OW23071   2.042   0.023  17.191  0.3483  0.0636 -0.3051
 3870SOL    HW123072   2.082   0.073  17.120 -1.2923  3.0913  0.8791
 3870SOL    HW223073   2.064   0.084  17.262 -1.8139 -1.5183  1.7458
 3871SOL     OW23074   4.044   3.638   0.150 -0.6958 -0.3343 -0.2465
 3871SOL    HW123075   4.045   3.732   0.132  0.6022 -0.8012 -2.6649
 3871SOL    HW223076   3.968   3.619   0.095 -0.9835  0.1425 -0.0116
 3872SOL     OW23077   3.984   1.950   0.923  0.0444 -0.0387  0.2412
 3872SOL    HW123078   3.940   1.866   0.907 -1.1419  0.6050  0.1264
 3872SOL    HW223079   3.939   2.007   0.860  1.9963  2.3755  1.0352
 3873SOL     OW23080   3.108   1.518  15.473 -0.3000  0.2493  0.6921
 3873SOL    HW123081   3.066   1.579  15.413 -3.0913 -1.7555  0.6395
 3873SOL    HW223082   3.163   1.458  15.424  0.4178 -0.1627  1.9836
 3874SOL     OW23083   0.424   4.472   7.348 -0.2882 -0.0506 -0.5599
 3874SOL    HW123084   0.430   4.543   7.412 -0.2701  1.1909 -1.9351
 3874SOL    HW223085   0.401   4.401   7.407 -0.3954 -0.7803 -1.4869
 3875SOL     OW23086   3.070   4.431  16.538 -0.1543  0.5789  0.4141
 3875SOL    HW123087   3.045   4.523  16.536 -1.4286  0.2242 -0.0416
 3875SOL    HW223088   3.003   4.398  16.478  2.3840  0.3928 -2.3325
 3876SOL     OW23089   1.201   4.514   9.255  0.1176 -0.3521 -0.4529
 3876SOL    HW123090   1.182   4.574   9.183 -2.1384  1.7739  1.9360
 3876SOL    HW223091   1.297   4.512   9.249  0.1738 -1.1501  0.5609
 3877SOL     OW23092   4.709   1.276  16.059  0.1314  0.2302 -0.2708
 3877SOL    HW123093   4.665   1.210  16.006 -0.7542 -0.6236  1.5407
 3877SOL    HW223094   4.654   1.352  16.038 -1.0841 -0.2382  1.2805
 3878SOL     OW23095   4.627   2.335  11.931 -0.5925 -0.4100 -0.0320
 3878SOL    HW123096   4.697   2.374  11.983 -0.7935  1.2708 -1.0257
 3878SOL    HW223097   4.628   2.250  11.974 -0.6884  0.0959  0.9619
 3879SOL     OW23098   1.925   2.010   0.114 -0.6349  0.5354  0.6713
 3879SOL    HW123099   1.845   2.000   0.063 -0.9456 -0.9523  1.4455
 3879SOL    HW223100   1.898   1.976   0.200  1.4179  1.7464  1.8044
 3880SOL     OW23101   3.475   4.484   4.798  0.4134  0.5808 -0.1225
 3880SOL    HW123102   3.451   4.410   4.742  3.0566 -1.5841  1.5834
 3880SOL    HW223103   3.507   4.432   4.872 -0.9022 -0.6512 -0.4104
 3881SOL     OW23104   4.545   3.833   6.981  0.0419 -0.6472  0.1187
 3881SOL    HW123105   4.477   3.898   7.000  1.8780  1.2486  0.1626
 3881SOL    HW223106   4.556   3.779   7.059 -0.8214 -0.4934  0.3458
 3882SOL     OW23107   2.196   4.709  11.685 -0.3862  0.2577  0.0608
 3882SOL    HW123108   2.164   0.069  11.665 -2.0779 -0.1856  0.8630
 3882SOL    HW223109   2.287   4.722  11.656  0.3247  0.4920  2.3348
 3883SOL     OW23110   2.543   4.073   1.023  0.6671  0.4890  0.5956
 3883SOL    HW123111   2.594   4.083   1.103  0.9853  1.0186  0.3287
 3883SOL    HW223112   2.590   4.000   0.984 -1.6003 -0.4075 -0.4275
 3884SOL     OW23113   4.528   0.340  12.029  0.2071 -0.0548 -0.8045
 3884SOL    HW123114   4.525   0.436  12.033  1.9491 -0.0534  0.2394
 3884SOL    HW223115   4.502   0.317  11.939 -2.3693 -0.2376 -0.0188
 3885SOL     OW23116   1.106   0.500   6.673 -0.5170 -0.2759 -0.2058
 3885SOL    HW123117   1.036   0.562   6.693 -0.1116  0.7091 -1.8273
 3885SOL    HW223118   1.144   0.531   6.591 -1.0645 -0.2248 -0.4389
 3886SOL     OW23119   1.919   4.290   7.682  0.1602  0.2114 -0.4005
 3886SOL    HW123120   1.971   4.296   7.762 -1.3600 -0.6516  0.6544
 3886SOL    HW223121   1.980   4.324   7.618  1.3564 -0.2214  0.5130
 3887SOL     OW23122   0.768   2.349  11.599 -0.0795 -0.6030 -0.1992
 3887SOL    HW123123   0.753   2.317  11.688  2.2724 -2.9210 -0.6194
 3887SOL    HW223124   0.683   2.394  11.595 -0.1481 -0.6830  0.3213
 3888SOL     OW23125   0.023   0.175   4.689  0.4444 -0.7562  0.1136
 3888SOL    HW123126   0.072   0.127   4.755  2.1365 -3.0118 -2.8227
 3888SOL    HW223127   0.083   0.241   4.653  1.1462 -1.4414  0.0380
 3889SOL     OW23128   3.363   3.742   5.038  0.1855  0.1933  0.2624
 3889SOL    HW123129   3.292   3.792   4.998 -1.1901 -0.5444  1.7837
 3889SOL    HW223130   3.321   3.731   5.123 -0.8968  1.7748 -0.0739
 3890SOL     OW23131   2.168   2.391   5.739  0.3922  0.2571 -0.1388
 3890SOL    HW123132   2.258   2.422   5.753  0.0889  0.2394  1.9031
 3890SOL    HW223133   2.147   2.373   5.831 -0.2061  0.3151 -0.2686
 3891SOL     OW23134   3.550   4.605   8.198 -0.1317  0.2510 -0.1110
 3891SOL    HW123135   3.560   4.521   8.243 -1.6660 -1.2191 -2.4914
 3891SOL    HW223136   3.464   4.602   8.157 -0.2266  1.4224  0.0154
 3892SOL     OW23137   4.397   4.715   4.688 -0.3190 -0.2877  0.1058
 3892SOL    HW123138   4.398   4.663   4.769  1.9215 -1.6044 -0.7850
 3892SOL    HW223139   4.404   0.079   4.714 -0.5797 -0.5274  1.0469
 3893SOL     OW23140   4.042   1.875   4.037 -0.2951 -0.4164 -0.3111
 3893SOL    HW123141   3.964   1.878   4.093 -1.4814  2.8618 -2.1503
 3893SOL    HW223142   3.991   1.917   3.967 -0.8857  0.0675  0.4050
 3894SOL     OW23143   2.550   0.904  11.267  0.1055 -0.2728 -0.4298
 3894SOL    HW123144   2.598   0.985  11.248  0.6830 -0.5390 -0.1176
 3894SOL    HW223145   2.550   0.858  11.183  1.2623 -0.1837 -0.4809
 3895SOL     OW23146   0.779   2.015   5.581 -0.1079 -0.4132  0.0042
 3895SOL    HW123147   0.703   2.023   5.524 -0.8148 -2.6804  0.6419
 3895SOL    HW223148   0.777   1.925   5.613 -1.9344 -0.2449  0.3206
 3896SOL     OW23149   0.608   3.738  15.921  0.1116 -0.3299 -0.4025
 3896SOL    HW123150   0.646   3.674  15.862  2.4920 -0.9650  1.8279
 3896SOL    HW223151   0.611   3.683  15.999 -0.9394  2.3016  1.5188
 3897SOL     OW23152   2.037   3.056  17.295 -0.0699 -0.0032 -0.0982
 3897SOL    HW123153   2.011   3.146  17.276 -0.0114  0.1828  0.7031
 3897SOL    HW223154   1.956   3.007  17.283  0.2437 -0.1796 -1.4671
 3898SOL     OW23155   1.581   3.184   8.523 -0.5675 -0.0801 -0.2385
 3898SOL    HW123156   1.646   3.116   8.507  0.4861  0.8835 -0.0756
 3898SOL    HW223157   1.495   3.146   8.507 -0.8295  0.9657 -1.3186
 3899SOL     OW23158   1.169   2.480   1.799  0.5063  0.2699 -0.2913
 3899SOL    HW123159   1.086   2.513   1.835  0.7779  1.4374 -0.7227
 3899SOL    HW223160   1.165   2.515   1.709 -1.6535 -1.9167 -1.0622
 3900SOL     OW23161   4.245   2.250   0.803  0.1434 -0.2318 -0.1024
 3900SOL    HW123162   4.301   2.197   0.860  0.3606 -0.1773 -0.2655
 3900SOL    HW223163   4.183   2.182   0.775 -0.6845  0.8642 -0.9324
 3901SOL     OW23164   3.005   4.476   5.579  0.1425 -0.3863  0.0374
 3901SOL    HW123165   2.929   4.441   5.626 -0.6864  1.1387 -0.1743
 3901SOL    HW223166   2.979   4.567   5.563  1.7623  0.1681  0.4960
 3902SOL     OW23167   3.841   0.733  11.444  0.3735  0.4005  0.9662
 3902SOL    HW123168   3.865   0.715  11.534  0.0406 -1.4763  0.6786
 3902SOL    HW223169   3.791   0.814  11.452 -0.5021 -0.2723  2.2971
 3903SOL     OW23170   3.513   2.377   4.879 -0.0301  0.3215 -0.0584
 3903SOL    HW123171   3.460   2.339   4.809 -0.4809  0.3238  0.2860
 3903SOL    HW223172   3.452   2.411   4.944  1.3304  0.9986  0.8651
 3904SOL     OW23173   2.053   0.949   6.105 -0.4766  0.1193  0.0039
 3904SOL    HW123174   2.032   0.883   6.039  1.2538  0.0824 -0.5095
 3904SOL    HW223175   2.013   0.911   6.183  2.0077 -0.4306  1.0178
 3905SOL     OW23176   3.794   1.317  17.126  0.3213  0.5910  0.0526
 3905SOL    HW123177   3.848   1.395  17.135  0.4055  0.7282 -1.5872
 3905SOL    HW223178   3.713   1.336  17.174  1.1951 -0.0925  1.7894
 3906SOL     OW23179   3.156   1.703   7.868  0.3448  0.2312  0.0940
 3906SOL    HW123180   3.148   1.752   7.950  0.3769  0.4535 -0.0375
 3906SOL    HW223181   3.234   1.737   7.823 -0.4287 -0.4809 -1.7634
 3907SOL     OW23182   4.190   0.468   8.688  0.4554 -0.1691  0.1380
 3907SOL    HW123183   4.240   0.396   8.650  2.0377 -0.1486  2.1514
 3907SOL    HW223184   4.179   0.435   8.778 -3.7421  3.1835  0.8314
 3908SOL     OW23185   4.649   1.657   7.839  0.1476 -0.6609 -0.1118
 3908SOL    HW123186   4.638   1.566   7.866  0.9836 -1.2444 -1.7132
 3908SOL    HW223187   4.721   1.693   7.891  0.3566 -0.6348 -0.4221
 3909SOL     OW23188   1.930   4.297   5.846 -0.3416  0.0292 -0.1288
 3909SOL    HW123189   1.972   4.333   5.768 -1.3265 -2.7616 -1.9547
 3909SOL    HW223190   1.983   4.342   5.912 -0.0391  0.6608 -0.8142
 3910SOL     OW23191   1.785   3.848  10.849 -0.6449 -0.1555  0.1035
 3910SOL    HW123192   1.764   3.776  10.910  0.1189 -0.0421  0.5005
 3910SOL    HW223193   1.753   3.927  10.893  1.1216  0.4380  0.3254
 3911SOL     OW23194   0.047   0.474  14.946 -0.1779  0.6992 -0.5600
 3911SOL    HW123195   4.719   0.485  15.023 -0.1790  1.7034 -0.7022
 3911SOL    HW223196   4.704   0.462  14.883 -0.2359  2.8464 -0.8887
 3912SOL     OW23197   2.006   2.458   3.720  0.4390 -0.7832 -0.1975
 3912SOL    HW123198   1.980   2.430   3.632  0.3807  2.7063 -1.2859
 3912SOL    HW223199   1.962   2.541   3.736  0.7390 -0.6684  0.0490
 3913SOL     OW23200   1.791   4.491   9.595 -0.7591 -0.2400 -0.8641
 3913SOL    HW123201   1.860   4.426   9.584 -0.5566 -0.4054  1.3050
 3913SOL    HW223202   1.723   4.469   9.532 -1.6988 -0.9685  0.4116
 3914SOL     OW23203   2.450   2.629   5.215  0.3081  0.3295 -0.3504
 3914SOL    HW123204   2.528   2.684   5.206  0.0561  0.9023  0.9396
 3914SOL    HW223205   2.474   2.564   5.149 -1.6226 -0.6926 -0.0514
 3915SOL     OW23206   4.596   4.333  14.028  0.1175  0.2007  0.4243
 3915SOL    HW123207   4.616   4.244  13.999  3.2291  0.9843  0.1822
 3915SOL    HW223208   4.676   4.352  14.078 -0.4379  1.8019  0.6873
 3916SOL     OW23209   0.671   4.248   2.999 -0.3702  0.1292 -0.0180
 3916SOL    HW123210   0.657   4.153   2.990 -1.5773  0.4239 -1.1381
 3916SOL    HW223211   0.761   4.239   2.969 -0.7041 -2.3181 -0.3248
 3917SOL     OW23212   4.018   3.761   7.913 -0.0939  0.5822 -0.3456
 3917SOL    HW123213   4.046   3.786   7.825 -0.7888 -0.0073 -0.7373
 3917SOL    HW223214   3.923   3.749   7.900  0.4285  0.2615 -4.0821
 3918SOL     OW23215   2.940   3.900  15.684  0.3989 -0.3708  0.1798
 3918SOL    HW123216   3.004   3.889  15.614  0.8998  1.0386  0.3997
 3918SOL    HW223217   2.874   3.843  15.646  0.6741 -0.4783 -0.1261
 3919SOL     OW23218   3.215   2.169  12.388 -0.1173  0.5976 -0.0400
 3919SOL    HW123219   3.174   2.178  12.302 -0.1744  1.6124  0.0907
 3919SOL    HW223220   3.269   2.091  12.376 -0.3874  0.7978 -2.4590
 3920SOL     OW23221   4.041   2.278   1.868 -0.1152 -0.4205  0.1382
 3920SOL    HW123222   3.951   2.249   1.878 -0.2732  0.4029  1.1084
 3920SOL    HW223223   4.039   2.340   1.795 -1.4901 -0.3624  0.2382
 3921SOL     OW23224   1.933   4.605  11.652  0.0613 -0.1994  0.2240
 3921SOL    HW123225   1.910   4.627  11.561  0.3418  3.6189  1.0630
 3921SOL    HW223226   2.025   4.632  11.657  0.0815 -0.4705  1.2090
 3922SOL     OW23227   0.193   0.679   5.366  0.1565  0.2080 -0.6640
 3922SOL    HW123228   0.209   0.727   5.447 -0.3476 -0.7997  0.0316
 3922SOL    HW223229   0.105   0.712   5.347 -0.4896 -0.3695  1.3361
 3923SOL     OW23230   0.850   0.191   4.332 -0.1389  0.0218  0.8563
 3923SOL    HW123231   0.756   0.208   4.320 -0.3780 -1.4093  0.7302
 3923SOL    HW223232   0.864   0.282   4.359  0.8511 -0.0710  0.6508
 3924SOL     OW23233   0.806   2.769   2.516  0.2417 -0.2625  0.3289
 3924SOL    HW123234   0.731   2.806   2.470  2.0475  0.4543 -2.0421
 3924SOL    HW223235   0.766   2.688   2.548  0.7912 -0.5002  0.4170
 3925SOL     OW23236   1.202   2.905   7.471 -0.2415 -0.5390  0.2392
 3925SOL    HW123237   1.243   2.984   7.506  1.4245 -1.9878  1.5439
 3925SOL    HW223238   1.170   2.860   7.549 -1.6207 -0.8003 -0.4676
 3926SOL     OW23239   4.121   0.749   2.058 -0.3438  0.5746  0.2570
 3926SOL    HW123240   4.118   0.763   1.963  2.7449  0.8163  0.1769
 3926SOL    HW223241   4.033   0.736   2.094 -0.1713  2.6598  1.4310
 3927SOL     OW23242   0.487   1.162  13.206 -0.2102  1.1667  0.0490
 3927SOL    HW123243   0.511   1.251  13.230 -2.4302  1.7821 -0.0743
 3927SOL    HW223244   0.392   1.170  13.208 -0.1656  1.3150  1.2023
 3928SOL     OW23245   2.871   0.848   5.305 -0.0904 -0.0691  0.0326
 3928SOL    HW123246   2.904   0.833   5.217 -1.7841 -0.6634 -0.5136
 3928SOL    HW223247   2.941   0.901   5.342  1.1301 -1.2348 -0.6405
 3929SOL     OW23248   4.624   0.967   7.762  0.0259 -0.3731 -0.0962
 3929SOL    HW123249   4.572   0.947   7.684 -0.8873 -0.2000  0.4682
 3929SOL    HW223250   4.692   1.025   7.726  1.1036  0.2203  2.8975
 3930SOL     OW23251   1.172   3.451   5.418  0.5281 -0.1438 -0.4121
 3930SOL    HW123252   1.109   3.397   5.467 -0.0154  0.3705 -0.5472
 3930SOL    HW223253   1.250   3.417   5.461  0.4335  2.0109  1.4649
 3931SOL     OW23254   0.321   4.263  14.032 -0.1737 -0.0528  0.7653
 3931SOL    HW123255   0.383   4.207  14.080  0.9272  0.7706  0.3069
 3931SOL    HW223256   0.284   4.200  13.970  2.3589  0.5019 -1.3401
 3932SOL     OW23257   3.666   1.271   6.358 -0.3450  0.1430 -0.2829
 3932SOL    HW123258   3.631   1.207   6.295 -1.3200 -0.1010  0.4975
 3932SOL    HW223259   3.760   1.260   6.347 -0.5257  1.5708 -3.3031
 3933SOL     OW23260   1.903   1.432   1.118 -0.5600 -0.1710 -0.4891
 3933SOL    HW123261   1.911   1.337   1.128  1.0462 -0.1958 -1.8603
 3933SOL    HW223262   1.816   1.444   1.155  0.5033  1.3335  1.5018
 3934SOL     OW23263   0.529   1.635   7.275 -0.1155  0.6164  0.0158
 3934SOL    HW123264   0.474   1.681   7.339  0.5797  0.5762  0.6345
 3934SOL    HW223265   0.586   1.710   7.257 -0.2326  0.1878 -2.1745
 3935SOL     OW23266   3.542   1.465   2.909 -0.2160  0.1804 -0.1123
 3935SOL    HW123267   3.475   1.484   2.844 -0.6167  1.1058  0.5664
 3935SOL    HW223268   3.605   1.537   2.897 -0.0325 -0.1608 -1.2270
 3936SOL     OW23269   4.201   3.487   1.405  0.0620 -0.2395 -0.2260
 3936SOL    HW123270   4.126   3.429   1.419 -0.1408 -0.4473 -2.2649
 3936SOL    HW223271   4.170   3.536   1.329  2.2505  3.3889  1.2306
 3937SOL     OW23272   1.815   0.545   4.961 -0.2983  0.5984  0.3910
 3937SOL    HW123273   1.765   0.536   4.880 -0.1953 -0.7544  0.4824
 3937SOL    HW223274   1.906   0.541   4.933 -0.3381  0.8647  0.2195
 3938SOL     OW23275   4.597   2.841   8.571  0.7506 -0.4865  0.9663
 3938SOL    HW123276   4.668   2.844   8.506  0.0281  0.5815  0.2121
 3938SOL    HW223277   4.600   2.748   8.591 -1.0079 -1.3122 -2.7185
 3939SOL     OW23278   0.645   3.027  11.319 -0.4537  0.2622  0.6875
 3939SOL    HW123279   0.670   3.033  11.227 -0.4275  2.2215  0.8258
 3939SOL    HW223280   0.734   3.003  11.346 -1.2154 -0.0976  2.8431
 3940SOL     OW23281   2.100   3.825  14.367  0.3148 -0.0211 -0.2814
 3940SOL    HW123282   2.110   3.749  14.309  3.2089 -0.5089  0.8524
 3940SOL    HW223283   2.023   3.867  14.329  1.2842  3.0910  1.2243
 3941SOL     OW23284   1.616   4.175   9.169 -0.0812  0.1342 -0.2483
 3941SOL    HW123285   1.567   4.094   9.177 -1.7011  1.0837 -0.6742
 3941SOL    HW223286   1.692   4.135   9.127  0.1165 -0.5332  0.7416
 3942SOL     OW23287   2.935   2.011   5.312 -0.7794  0.3596 -0.0484
 3942SOL    HW123288   3.014   2.024   5.261  0.3889 -0.5910  1.5421
 3942SOL    HW223289   2.882   1.953   5.258 -0.3150  0.6334 -0.7982
 3943SOL     OW23290   4.132   0.735   9.013 -0.0070  0.3625  0.1132
 3943SOL    HW123291   4.130   0.701   9.102  1.8025  0.8079  0.3115
 3943SOL    HW223292   4.086   0.671   8.958 -0.3357  0.1683  0.6188
 3944SOL     OW23293   0.583   2.323  16.594 -0.1383  0.3222  0.2974
 3944SOL    HW123294   0.573   2.228  16.600 -0.6855  0.2578 -1.7848
 3944SOL    HW223295   0.535   2.352  16.672 -0.6996 -1.4628  0.6310
 3945SOL     OW23296   2.061   0.875  17.510  0.3078  0.1888  0.0520
 3945SOL    HW123297   2.119   0.839  17.577 -0.9064 -0.2582  0.8398
 3945SOL    HW223298   2.067   0.811  17.439  0.9113 -0.6234  0.8430
 3946SOL     OW23299   0.964   0.567  12.809 -0.4791 -0.3592 -0.6665
 3946SOL    HW123300   0.879   0.609  12.824 -0.5890 -0.3389 -1.3396
 3946SOL    HW223301   1.021   0.605  12.876 -2.7149 -2.2764  2.3112
 3947SOL     OW23302   4.564   3.856   5.971  0.3749 -0.5133  0.7153
 3947SOL    HW123303   4.514   3.895   6.042 -1.6254 -1.1744 -0.3264
 3947SOL    HW223304   4.498   3.796   5.937  0.5829 -0.5036  0.2871
 3948SOL     OW23305   3.587   1.500   4.071 -0.0126 -0.2492  0.0474
 3948SOL    HW123306   3.601   1.511   3.977  0.8190 -0.8462  0.1062
 3948SOL    HW223307   3.625   1.413   4.084  0.3234 -0.1886 -0.5602
 3949SOL     OW23308   2.811   2.606   5.735 -0.0994  0.8121  0.9288
 3949SOL    HW123309   2.820   2.512   5.750  0.0702  0.6952  0.0992
 3949SOL    HW223310   2.768   2.612   5.650  0.1515 -1.8130  0.6201
 3950SOL     OW23311   1.412   1.612   7.862  0.0510 -0.2215  0.1713
 3950SOL    HW123312   1.379   1.544   7.920  0.7124 -2.3238 -1.9371
 3950SOL    HW223313   1.345   1.619   7.794  2.5739  0.9969 -2.1635
 3951SOL     OW23314   4.642   0.185   6.824  0.1481  0.0118 -0.0829
 3951SOL    HW123315   4.569   0.219   6.772 -1.8935  0.0055  2.7770
 3951SOL    HW223316   4.677   0.105   6.783 -0.8213  1.7747 -4.3130
 3952SOL     OW23317   3.307   1.572   0.372  0.4347  0.2524 -0.1640
 3952SOL    HW123318   3.239   1.530   0.424  0.6856 -1.6613 -1.3796
 3952SOL    HW223319   3.374   1.607   0.431  2.9073 -1.3704 -2.0121
 3953SOL     OW23320   0.295   0.608   7.430  0.1575 -0.4302 -0.3112
 3953SOL    HW123321   0.302   0.635   7.521 -2.3878 -2.6814  0.5819
 3953SOL    HW223322   0.368   0.658   7.394  1.3255 -1.3100  0.8455
 3954SOL     OW23323   2.793   0.611   4.867 -0.2281 -0.1984 -0.2589
 3954SOL    HW123324   2.877   0.584   4.830  1.1369  2.1821  1.1006
 3954SOL    HW223325   2.758   0.529   4.903 -1.6520  1.1834  1.5601
 3955SOL     OW23326   0.620   3.103   7.810  0.1677 -0.0439 -0.5045
 3955SOL    HW123327   0.598   3.010   7.806 -0.4744  0.1132 -0.6413
 3955SOL    HW223328   0.687   3.092   7.743  1.2301  0.7861  0.4188
 3956SOL     OW23329   1.233   3.175   3.246  0.1388 -0.6567 -0.0718
 3956SOL    HW123330   1.257   3.082   3.246  4.1348  0.3776 -0.3467
 3956SOL    HW223331   1.158   3.175   3.186 -0.0398  0.0055  0.1514
 3957SOL     OW23332   1.874   1.258   6.821 -0.3603 -0.4547 -0.3838
 3957SOL    HW123333   1.858   1.277   6.728  0.2548  0.2541 -0.3467
 3957SOL    HW223334   1.828   1.331   6.862  3.2509  2.0476 -0.8463
 3958SOL     OW23335   1.099   0.308  16.556 -0.2003  0.1822 -0.3033
 3958SOL    HW123336   1.045   0.368  16.606  0.5317  0.5664  0.0314
 3958SOL    HW223337   1.116   0.240  16.622  0.4954 -0.3103 -0.9923
 3959SOL     OW23338   2.254   3.742  12.465  0.3077 -0.0975  0.3254
 3959SOL    HW123339   2.161   3.752  12.484  0.2725  1.7523 -0.7540
 3959SOL    HW223340   2.247   3.687  12.388  1.3743  0.4839 -0.1929
 3960SOL     OW23341   4.312   3.325   6.375  0.4518 -0.1709 -0.1189
 3960SOL    HW123342   4.222   3.298   6.359  1.0834 -1.5034 -1.3703
 3960SOL    HW223343   4.348   3.320   6.287  0.6535  0.9905 -0.1041
 3961SOL     OW23344   0.963   3.385  15.000  0.0840  0.5256 -0.9174
 3961SOL    HW123345   0.939   3.409  14.911 -2.0201  0.1778 -0.4408
 3961SOL    HW223346   1.046   3.338  14.991 -0.6133 -1.0477  1.0513
 3962SOL     OW23347   2.995   3.777   5.906  0.6514  0.3543 -0.0435
 3962SOL    HW123348   3.022   3.710   5.968  2.6660  0.2660 -1.0174
 3962SOL    HW223349   2.972   3.726   5.828  2.5566  0.8069 -0.9000
 3963SOL     OW23350   2.115   2.915   5.906 -0.7071  0.0323  0.0795
 3963SOL    HW123351   2.100   2.848   5.972 -1.7752  0.4713  0.2810
 3963SOL    HW223352   2.071   2.880   5.828  1.6326 -0.3937 -1.0601
 3964SOL     OW23353   3.524   3.165   1.516  0.2961 -0.4116  0.1493
 3964SOL    HW123354   3.439   3.203   1.492  0.5304 -1.4626 -2.3772
 3964SOL    HW223355   3.531   3.102   1.444 -1.5855  0.5970 -0.9257
 3965SOL     OW23356   0.537   3.145   5.903  0.1828 -0.8930 -0.1384
 3965SOL    HW123357   0.572   3.131   5.991  2.7605  0.8219 -0.9004
 3965SOL    HW223358   0.565   3.068   5.854 -0.7794 -0.4054 -1.4607
 3966SOL     OW23359   4.505   2.730   1.656 -0.0573 -0.4257  0.4213
 3966SOL    HW123360   4.430   2.699   1.604 -0.0739 -0.9874  0.7852
 3966SOL    HW223361   4.508   2.657   1.718  0.9731 -0.0875  0.7596
 3967SOL     OW23362   1.779   2.626   5.034 -0.0696 -0.2628 -0.0576
 3967SOL    HW123363   1.838   2.658   4.966 -1.4489  0.8568 -0.7288
 3967SOL    HW223364   1.783   2.530   5.030 -2.2480 -0.3814  0.5247
 3968SOL     OW23365   2.122   4.475   6.345 -0.0988 -0.1108 -0.6533
 3968SOL    HW123366   2.070   4.418   6.402 -0.3636  0.0164 -0.7688
 3968SOL    HW223367   2.162   4.532   6.411  0.7027 -0.0677 -1.1821
 3969SOL     OW23368   2.004   2.227  11.305 -0.0254 -0.1425 -0.2138
 3969SOL    HW123369   2.049   2.261  11.228  1.8354 -0.5430  0.7088
 3969SOL    HW223370   2.005   2.136  11.278 -0.0561 -0.2028 -0.0151
 3970SOL     OW23371   3.799   0.934   3.687  0.7433  0.3420 -0.6478
 3970SOL    HW123372   3.822   0.844   3.663 -1.5967  0.1835 -2.2849
 3970SOL    HW223373   3.843   0.943   3.772 -0.6812 -0.9694  0.2353
 3971SOL     OW23374   3.624   0.635   3.962  0.4088 -0.2965 -0.0159
 3971SOL    HW123375   3.581   0.582   4.028  2.2864 -0.5617  0.9804
 3971SOL    HW223376   3.634   0.720   4.005  0.5226 -0.7843  0.9065
 3972SOL     OW23377   0.798   2.576   8.595  0.3604 -0.0478 -0.0186
 3972SOL    HW123378   0.739   2.620   8.656 -0.0446  0.2578 -0.6293
 3972SOL    HW223379   0.751   2.562   8.513  3.0588 -1.1283 -1.4160
 3973SOL     OW23380   1.649   4.179  13.485  0.2884  0.0994  0.0687
 3973SOL    HW123381   1.691   4.119  13.423  0.7726 -0.5422  1.0112
 3973SOL    HW223382   1.721   4.227  13.526  1.9879 -2.4171  0.0155
 3974SOL     OW23383   3.003   3.485   2.973 -0.1460 -0.3965 -0.0488
 3974SOL    HW123384   3.056   3.541   2.917 -0.6548  0.1129 -0.0184
 3974SOL    HW223385   2.999   3.407   2.918  2.0494 -0.4229 -0.1876
 3975SOL     OW23386   2.210   2.934   7.532 -0.4661  0.1378 -0.1439
 3975SOL    HW123387   2.263   2.934   7.612 -1.9453  0.3241  0.8330
 3975SOL    HW223388   2.275   2.966   7.470  0.2388 -1.5403 -0.2853
 3976SOL     OW23389   0.098   4.276   2.400 -0.1504 -0.0217 -0.0409
 3976SOL    HW123390   0.076   4.284   2.307 -2.7912 -0.9264  0.4910
 3976SOL    HW223391   0.012   4.274   2.443  0.6701  1.7259  1.6658
 3977SOL     OW23392   4.630   4.696   8.840 -0.1480  0.5252 -0.1873
 3977SOL    HW123393   4.661   4.654   8.760  0.1515  2.2128 -0.9600
 3977SOL    HW223394   4.563   4.636   8.872  0.7982 -1.5273 -2.0982
 3978SOL     OW23395   3.095   1.226   8.286  0.0314 -0.2923  1.1674
 3978SOL    HW123396   3.153   1.167   8.332  1.3068  0.3702  0.4112
 3978SOL    HW223397   3.108   1.316   8.317 -3.6249  0.9103 -0.6814
 3979SOL     OW23398   4.400   3.644   5.873 -0.2700 -0.1460  0.7522
 3979SOL    HW123399   4.454   3.603   5.805 -1.4031 -1.1664  0.4633
 3979SOL    HW223400   4.435   3.601   5.951  0.8039 -0.3323  0.1674
 3980SOL     OW23401   3.112   1.772  17.222  0.2106 -0.2273  0.1380
 3980SOL    HW123402   3.024   1.733  17.222  0.1692 -0.1360  0.1143
 3980SOL    HW223403   3.091   1.863  17.245 -1.1807 -0.0971 -1.5954
 3981SOL     OW23404   4.175   1.265  16.228 -0.3086 -0.2507  0.3719
 3981SOL    HW123405   4.234   1.240  16.300  2.1632  0.0378 -1.5346
 3981SOL    HW223406   4.091   1.273  16.272 -1.6381 -2.8729 -1.6983
 3982SOL     OW23407   0.771   2.069   0.312 -0.9238 -0.2532 -0.2923
 3982SOL    HW123408   0.693   2.124   0.319 -0.8836 -0.0301 -1.5478
 3982SOL    HW223409   0.752   2.006   0.243 -1.8508 -1.8431  1.4280
 3983SOL     OW23410   0.406   4.667   9.334  0.4275 -0.2799 -0.0180
 3983SOL    HW123411   0.457   4.646   9.412  1.9230 -1.2220 -1.2399
 3983SOL    HW223412   0.426   0.033   9.338 -0.2376 -0.0578 -1.8660
 3984SOL     OW23413   3.279   0.131   4.850 -0.8335  0.2166  0.6080
 3984SOL    HW123414   3.208   0.108   4.910 -0.9395  0.4317  0.5678
 3984SOL    HW223415   3.348   0.165   4.905 -1.9884 -0.5380  2.5232
 3985SOL     OW23416   1.403   3.793   2.055  0.3280 -0.0143 -0.4859
 3985SOL    HW123417   1.458   3.790   2.133  1.7625  1.2162 -1.4354
 3985SOL    HW223418   1.312   3.817   2.073  0.1676 -1.8145  1.1219
 3986SOL     OW23419   1.919   1.903   5.431 -0.1925 -0.2441  0.0063
 3986SOL    HW123420   1.999   1.880   5.384  0.6346  2.2114  0.2066
 3986SOL    HW223421   1.916   1.843   5.505  0.4246 -1.4454 -0.9451
 3987SOL     OW23422   4.472   1.093   0.665  0.5445 -0.4776  0.0749
 3987SOL    HW123423   4.458   0.999   0.662 -2.9514 -0.0129  2.1554
 3987SOL    HW223424   4.430   1.119   0.583  2.8318  1.9531 -0.3334
 3988SOL     OW23425   1.138   4.367  10.240 -0.0166 -0.5548  0.0170
 3988SOL    HW123426   1.175   4.431  10.302 -0.3160 -0.1780 -0.1914
 3988SOL    HW223427   1.046   4.366  10.264  0.6551  0.5248  2.6437
 3989SOL     OW23428   1.164   3.161   6.228 -0.0986 -0.2680 -0.0061
 3989SOL    HW123429   1.133   3.185   6.316  0.9628 -1.4984  0.6977
 3989SOL    HW223430   1.193   3.243   6.189 -0.1003 -0.5396 -0.5733
 3990SOL     OW23431   1.369   1.874   8.719  0.0941  0.3557 -0.3271
 3990SOL    HW123432   1.356   1.875   8.624 -0.9794  1.9439 -0.1710
 3990SOL    HW223433   1.330   1.789   8.736 -0.3589  0.4784 -0.7326
 3991SOL     OW23434   2.779   3.242   7.936 -0.2792  0.2864 -0.3694
 3991SOL    HW123435   2.852   3.259   7.996 -0.7927  1.6061 -0.1267
 3991SOL    HW223436   2.737   3.166   7.977 -0.8773  1.4438  1.1682
 3992SOL     OW23437   4.167   1.614   3.367  0.0559  0.1813 -0.6558
 3992SOL    HW123438   4.180   1.522   3.391  1.8966  0.3368 -1.0167
 3992SOL    HW223439   4.180   1.598   3.274  2.4895  0.3214 -0.3553
 3993SOL     OW23440   3.344   4.524   4.008 -0.1000 -0.1487 -0.4130
 3993SOL    HW123441   3.384   4.499   4.091 -1.4098 -1.7190 -0.2757
 3993SOL    HW223442   3.345   4.443   3.958 -1.2603 -0.1269 -0.4732
 3994SOL     OW23443   3.213   2.125   6.681  0.2722 -0.0563 -0.4631
 3994SOL    HW123444   3.261   2.043   6.694 -0.8328 -0.5061  0.8205
 3994SOL    HW223445   3.219   2.166   6.767  3.5236 -3.0718  0.7645
 3995SOL     OW23446   3.848   2.311   6.610 -0.0139  0.4021  0.4123
 3995SOL    HW123447   3.943   2.321   6.601 -0.1082  0.7145 -0.3336
 3995SOL    HW223448   3.822   2.296   6.519 -0.9733 -2.2076  1.1454
 3996SOL     OW23449   3.398   2.277  12.654  0.7043  0.7311  0.3054
 3996SOL    HW123450   3.453   2.307  12.582 -0.7485 -2.0597 -1.9680
 3996SOL    HW223451   3.457   2.215  12.696 -3.0459 -1.2693  2.5673
 3997SOL     OW23452   2.675   3.653   2.975  0.4675 -0.2095 -0.0818
 3997SOL    HW123453   2.589   3.612   2.974  0.4015  0.0091 -2.6312
 3997SOL    HW223454   2.648   3.745   2.987  1.7967  0.1331  0.2845
 3998SOL     OW23455   1.990   2.225   2.104 -0.6317  0.2635 -0.7167
 3998SOL    HW123456   2.052   2.296   2.088  0.4488 -0.8435 -1.4599
 3998SOL    HW223457   2.044   2.147   2.117  0.0718  1.0907  1.4867
 3999SOL     OW23458   3.428   1.227   2.928  0.6014  0.3083 -0.3519
 3999SOL    HW123459   3.490   1.299   2.917  1.6967 -0.4471  1.0044
 3999SOL    HW223460   3.416   1.187   2.841  0.5354 -0.8552  0.1927
 4000SOL     OW23461   2.142   3.007   4.742 -0.4065 -0.0161 -0.4271
 4000SOL    HW123462   2.053   3.038   4.757 -0.5257 -0.4482 -0.2385
 4000SOL    HW223463   2.167   3.036   4.655  0.8719  0.9540  0.2622
 4001SOL     OW23464   4.644   1.347   4.693 -0.7577  0.4201  0.7049
 4001SOL    HW123465   4.603   1.430   4.670 -0.6156  0.7953  1.7885
 4001SOL    HW223466   4.599   1.276   4.647  0.8076  0.7453 -1.3188
 4002SOL     OW23467   2.396   4.366  17.476 -0.0956  0.0747  0.2046
 4002SOL    HW123468   2.427   4.342  17.563  0.9312  1.7815  0.3057
 4002SOL    HW223469   2.362   4.284  17.441  1.2273 -0.8699  1.1893
 4003SOL     OW23470   0.169   4.493   4.340  0.1594  0.2228  0.2110
 4003SOL    HW123471   0.154   4.431   4.411  3.4688  0.9565  1.5277
 4003SOL    HW223472   0.251   4.472   4.295  0.1500  1.2763 -0.2978
 4004SOL     OW23473   2.875   2.401   3.471  0.4297  0.2014 -0.2721
 4004SOL    HW123474   2.940   2.468   3.490  1.5301 -0.1028 -2.9623
 4004SOL    HW223475   2.794   2.451   3.470 -0.4407 -1.2309 -1.8023
 4005SOL     OW23476   4.256   3.760   7.512 -0.6889  0.3307 -0.5541
 4005SOL    HW123477   4.296   3.686   7.466 -0.9334 -0.7774  1.0249
 4005SOL    HW223478   4.336   3.779   7.561 -1.3646  0.3166  0.5317
 4006SOL     OW23479   0.496   1.931  14.704  0.0680  0.6341  0.2775
 4006SOL    HW123480   0.492   1.954  14.611  0.8578 -0.1487  0.0474
 4006SOL    HW223481   0.589   1.939  14.726  0.3493 -2.0186  0.1043
 4007SOL     OW23482   3.226   2.241   5.765  0.2469 -0.0945 -0.1962
 4007SOL    HW123483   3.318   2.257   5.786  0.2539  0.5968 -0.7174
 4007SOL    HW223484   3.234   2.211   5.675 -2.0269  0.7408 -0.6824
 4008SOL     OW23485   0.590   2.794   1.128 -0.0313 -0.0770  0.1943
 4008SOL    HW123486   0.606   2.748   1.045 -1.0427 -1.3115  0.6856
 4008SOL    HW223487   0.503   2.755   1.132  0.5934 -1.3438  1.4864
 4009SOL     OW23488   4.015   3.324   1.801  0.3593 -0.9358 -0.1610
 4009SOL    HW123489   4.027   3.416   1.777  0.5815 -0.5464  1.3973
 4009SOL    HW223490   3.989   3.283   1.719 -1.6893  1.6168 -0.7689
 4010SOL     OW23491   4.035   3.109   2.909  0.4176  0.3569 -0.5541
 4010SOL    HW123492   4.115   3.069   2.874  1.0045 -1.1068  2.4974
 4010SOL    HW223493   4.025   3.193   2.864 -2.3340  0.8957  1.1168
 4011SOL     OW23494   2.665   3.019   9.404  0.9362  0.0743  0.2917
 4011SOL    HW123495   2.653   3.114   9.397 -0.0701 -0.1761 -1.3812
 4011SOL    HW223496   2.670   3.000   9.310 -1.3701 -0.1366  0.2045
 4012SOL     OW23497   4.205   0.998   8.688 -0.1567 -0.1501  0.5191
 4012SOL    HW123498   4.293   0.971   8.715  0.3727 -0.4581 -1.5190
 4012SOL    HW223499   4.202   1.090   8.715 -1.6550 -0.0495  0.0108
 4013SOL     OW23500   2.398   1.914  17.194 -0.0089 -0.1506 -0.1317
 4013SOL    HW123501   2.332   1.973  17.158 -1.3788 -0.5060  1.8000
 4013SOL    HW223502   2.360   1.906  17.281 -0.3550  1.9920 -0.0931
 4014SOL     OW23503   1.231   2.296   7.406  0.3753 -0.0994  0.4467
 4014SOL    HW123504   1.227   2.261   7.317  0.9765  0.5636  0.1546
 4014SOL    HW223505   1.296   2.243   7.451 -1.2801 -1.0053  1.8023
 4015SOL     OW23506   0.503   0.008   6.955 -0.5793 -0.3054  0.1982
 4015SOL    HW123507   0.595   0.030   6.944 -0.5149  0.3333  2.0835
 4015SOL    HW223508   0.487   4.670   6.887 -2.6908  1.4383 -0.9939
 4016SOL     OW23509   2.574   1.481  16.357 -0.2998 -0.0130  0.8544
 4016SOL    HW123510   2.606   1.546  16.419  0.5157 -1.2205  1.7156
 4016SOL    HW223511   2.645   1.417  16.359 -0.7925 -0.6044 -0.6897
 4017SOL     OW23512   1.150   0.881   4.056 -0.0924 -0.4652 -0.3843
 4017SOL    HW123513   1.235   0.843   4.033 -1.7203 -3.4047 -1.5651
 4017SOL    HW223514   1.098   0.803   4.074  2.8856 -2.1072  1.2062
 4018SOL     OW23515   2.668   1.152   7.746  0.0527  0.5143 -0.1728
 4018SOL    HW123516   2.745   1.196   7.780  1.0304 -0.6609 -0.8623
 4018SOL    HW223517   2.650   1.081   7.808 -0.8772  1.0045  0.1124
 4019SOL     OW23518   4.268   2.354   7.316  0.0283  0.5566  0.5476
 4019SOL    HW123519   4.240   2.272   7.276 -3.5660  2.1134 -0.0615
 4019SOL    HW223520   4.344   2.323   7.366 -0.9968 -1.9467  0.5365
 4020SOL     OW23521   1.411   3.137  10.002  0.2680  0.0200  0.3107
 4020SOL    HW123522   1.446   3.066  10.057  0.0416 -0.8034 -0.6088
 4020SOL    HW223523   1.431   3.215  10.054 -0.7690 -0.7611  1.8813
 4021SOL     OW23524   3.931   3.969   5.146 -0.2105  0.1824 -0.8312
 4021SOL    HW123525   3.976   3.940   5.226 -1.1252 -0.1290 -0.4222
 4021SOL    HW223526   3.884   4.050   5.166 -1.1712 -0.2018 -1.5428
 4022SOL     OW23527   0.146   0.044   4.884  0.6103  0.1406  0.6621
 4022SOL    HW123528   0.175   4.688   4.921  1.7744 -0.9634 -2.8035
 4022SOL    HW223529   0.174   0.104   4.953  0.0170  0.1536  0.8964
 4023SOL     OW23530   2.349   2.716   2.073 -0.3580  0.4823  0.3729
 4023SOL    HW123531   2.368   2.756   2.157 -3.4453 -0.1568  1.3858
 4023SOL    HW223532   2.391   2.631   2.083  0.0179  0.6515  0.2190
 4024SOL     OW23533   3.645   0.241  15.988 -0.2635 -0.1334  0.2118
 4024SOL    HW123534   3.651   0.319  15.932  0.1476 -1.5742 -1.7569
 4024SOL    HW223535   3.618   0.288  16.067  0.7734  0.5143  0.1826
 4025SOL     OW23536   1.047   0.609  11.189  0.0573  0.3495  0.3749
 4025SOL    HW123537   1.061   0.542  11.122 -2.3475  0.3158 -0.1089
 4025SOL    HW223538   1.017   0.557  11.264 -1.3353 -1.1240 -1.2155
 4026SOL     OW23539   4.283   3.245  10.336  0.3121  0.2328  0.2346
 4026SOL    HW123540   4.246   3.225  10.422 -0.1921 -0.4101 -0.1303
 4026SOL    HW223541   4.333   3.164  10.325  1.5771  1.2738 -1.6699
 4027SOL     OW23542   4.451   0.091  17.471 -0.8217 -0.0675 -0.6916
 4027SOL    HW123543   4.444   0.012  17.525  2.4537 -0.4043 -0.7148
 4027SOL    HW223544   4.371   0.140  17.489 -0.5721  0.7609 -1.8996
 4028SOL     OW23545   0.028   2.706   0.622 -0.3915 -0.4927 -0.1324
 4028SOL    HW123546   0.045   2.760   0.700 -1.5821  0.1017 -0.2746
 4028SOL    HW223547   0.106   2.651   0.621 -0.1126 -0.1128  0.5333
 4029SOL     OW23548   3.577   0.556   1.208 -0.1800 -0.0176 -0.0096
 4029SOL    HW123549   3.563   0.533   1.116  0.2436 -0.4173  0.0293
 4029SOL    HW223550   3.512   0.507   1.258  1.1945 -1.1954  0.6063
 4030SOL     OW23551   0.793   1.620   2.631 -0.4255 -0.1226 -0.0631
 4030SOL    HW123552   0.807   1.547   2.571  1.5145 -0.8692  1.3014
 4030SOL    HW223553   0.802   1.688   2.564  0.7258  0.1369  0.3411
 4031SOL     OW23554   1.276   4.238  15.708 -0.1283  0.6325 -0.6223
 4031SOL    HW123555   1.256   4.165  15.768  0.0188 -0.3531 -1.7750
 4031SOL    HW223556   1.277   4.196  15.622  0.9315  1.4793 -1.0206
 4032SOL     OW23557   1.505   1.773  17.406  0.7853 -0.0665 -0.0620
 4032SOL    HW123558   1.459   1.834  17.465  0.0495 -1.7780  1.1367
 4032SOL    HW223559   1.462   1.690  17.426 -1.1489  1.7694  3.5666
 4033SOL     OW23560   3.494   3.446   4.027  0.2238 -0.4256  0.1261
 4033SOL    HW123561   3.509   3.440   3.933  0.5693  0.5253  0.1234
 4033SOL    HW223562   3.425   3.513   4.035 -1.1239 -1.3942 -3.4797
 4034SOL     OW23563   3.719   4.286   6.823  0.4485 -1.2653 -0.2967
 4034SOL    HW123564   3.658   4.335   6.878  0.3242 -1.1237 -0.5653
 4034SOL    HW223565   3.785   4.259   6.887 -0.2113  0.4711  1.1370
 4035SOL     OW23566   1.506   1.575   5.616  0.1369 -0.0131  0.5011
 4035SOL    HW123567   1.499   1.491   5.662  1.0298 -0.1901  0.3117
 4035SOL    HW223568   1.579   1.567   5.556 -0.8972 -0.5670 -0.6854
 4036SOL     OW23569   1.034   0.211   3.543  0.1286 -0.5565  0.4187
 4036SOL    HW123570   1.053   0.149   3.614 -0.0825 -0.0595  0.9114
 4036SOL    HW223571   0.967   0.265   3.585 -1.4361 -2.4532  0.3833
 4037SOL     OW23572   0.436   3.612   8.761 -0.0665 -0.6141  0.3204
 4037SOL    HW123573   0.409   3.549   8.694 -0.3168 -0.1376 -0.0320
 4037SOL    HW223574   0.426   3.691   8.708  0.6353 -0.4484  0.4419
 4038SOL     OW23575   0.034   0.679   6.065 -0.2190  0.2746  0.0928
 4038SOL    HW123576   4.709   0.658   5.988  0.6699 -0.1198 -0.4114
 4038SOL    HW223577   0.032   0.600   6.119 -0.9692  0.3855  0.2284
 4039SOL     OW23578   2.813   2.006   1.954  0.4755 -0.3780 -0.0586
 4039SOL    HW123579   2.862   1.989   2.034  2.7473  3.0320 -0.7315
 4039SOL    HW223580   2.724   2.026   1.984  1.9287  1.2636  3.1727
 4040SOL     OW23581   2.803   1.176  15.889 -0.1342 -0.9660  0.7675
 4040SOL    HW123582   2.788   1.163  15.983  0.9156 -0.1893  1.0314
 4040SOL    HW223583   2.875   1.118  15.867  0.1524 -0.1871 -0.3452
 4041SOL     OW23584   1.729   4.382  15.084 -0.1868  0.0107  0.3808
 4041SOL    HW123585   1.651   4.330  15.062  1.6930 -2.9411  0.6480
 4041SOL    HW223586   1.791   4.361  15.014  1.4403  1.3420  1.4380
 4042SOL     OW23587   3.323   2.259   3.753  0.8802 -0.4836  0.2649
 4042SOL    HW123588   3.342   2.312   3.675 -0.1779  0.0261  0.3451
 4042SOL    HW223589   3.278   2.184   3.714  1.7426 -1.1867  0.6339
 4043SOL     OW23590   4.081   3.474  16.633 -0.4405  0.1838  0.1747
 4043SOL    HW123591   4.085   3.486  16.728  1.2704 -3.1011  0.5215
 4043SOL    HW223592   4.115   3.385  16.635  0.7486  0.6411  0.2240
 4044SOL     OW23593   2.020   1.633   7.685  0.0471  0.3777  0.6236
 4044SOL    HW123594   2.067   1.716   7.672 -1.4061  0.7672 -2.1085
 4044SOL    HW223595   2.092   1.570   7.690  1.1014  1.5629  0.5324
 4045SOL     OW23596   4.448   0.901   7.543 -0.0230 -0.1238 -0.0213
 4045SOL    HW123597   4.355   0.877   7.536  0.1901 -1.5147  2.1629
 4045SOL    HW223598   4.484   0.831   7.490 -0.5777 -1.2408  1.0904
 4046SOL     OW23599   3.942   0.067   6.558 -0.2078  0.0306 -0.3406
 4046SOL    HW123600   3.968   0.029   6.642 -0.1542  2.2981  0.6722
 4046SOL    HW223601   3.995   0.022   6.492  1.7859  1.4246  0.3258
 4047SOL     OW23602   2.073   2.031   7.105 -0.0659  0.0571  0.1943
 4047SOL    HW123603   1.978   2.033   7.114 -0.2720  0.0455 -1.9417
 4047SOL    HW223604   2.096   1.964   7.169 -1.8867  0.2153  1.0142
 4048SOL     OW23605   1.460   0.050  16.066  0.0704  0.2931  0.1176
 4048SOL    HW123606   1.547   0.023  16.038  0.4126 -0.0291  1.4950
 4048SOL    HW223607   1.483   0.063  16.159  2.8295  2.5561 -0.8810
 4049SOL     OW23608   0.122   1.067  16.541  0.0588 -0.0949 -0.2360
 4049SOL    HW123609   0.088   1.106  16.460  0.6762  1.1374  0.0942
 4049SOL    HW223610   0.147   1.138  16.600  1.8090  0.4420 -1.6032
 4050SOL     OW23611   0.825   1.452   5.723 -0.6010  0.1459  0.3379
 4050SOL    HW123612   0.888   1.516   5.689 -0.9980  1.8457  2.7245
 4050SOL    HW223613   0.740   1.496   5.725 -1.2484 -1.1106  0.2364
 4051SOL     OW23614   2.947   4.135  14.553  0.8026  0.0468  0.2909
 4051SOL    HW123615   2.882   4.076  14.514 -1.7136  2.3643  1.0584
 4051SOL    HW223616   3.008   4.076  14.598  2.6249  1.2698 -0.5529
 4052SOL     OW23617   1.472   4.429   2.446 -0.0794  0.1570  0.0174
 4052SOL    HW123618   1.432   4.410   2.531  0.6208 -1.3410  0.0074
 4052SOL    HW223619   1.438   4.517   2.429  2.6606  1.4445  1.2457
 4053SOL     OW23620   0.115   1.294  15.352  0.2262 -0.1861 -0.4864
 4053SOL    HW123621   0.086   1.225  15.291 -0.0259  1.5840 -2.3695
 4053SOL    HW223622   0.208   1.273  15.350  0.1330 -0.3243 -3.2231
 4054SOL     OW23623   3.593   3.256   0.406 -0.2040 -0.1878  0.0937
 4054SOL    HW123624   3.499   3.272   0.417 -0.1058 -0.0732  0.7650
 4054SOL    HW223625   3.626   3.346   0.401 -1.9689  0.3198 -2.7569
 4055SOL     OW23626   0.154   1.559   8.487  0.1377 -0.1774 -0.0398
 4055SOL    HW123627   0.178   1.615   8.560 -1.5285  1.4503 -0.7558
 4055SOL    HW223628   0.220   1.578   8.420 -1.5744  2.6166 -0.9394
 4056SOL     OW23629   0.260   2.845   4.101 -0.1208 -0.6619  0.5149
 4056SOL    HW123630   0.186   2.906   4.095  0.6327  0.2437  0.4492
 4056SOL    HW223631   0.219   2.759   4.103 -1.1148 -0.2341 -1.5298
 4057SOL     OW23632   3.331   1.640  14.312 -0.5669 -0.3360  0.5671
 4057SOL    HW123633   3.345   1.639  14.218 -0.9011 -0.9567  0.5270
 4057SOL    HW223634   3.350   1.547  14.325  2.6017  0.3007  0.5381
 4058SOL     OW23635   2.400   4.436  16.757  0.2875 -0.1329  0.6754
 4058SOL    HW123636   2.311   4.473  16.759  0.3758  0.1939 -0.9390
 4058SOL    HW223637   2.447   4.518  16.740  0.1217 -0.1544  0.0844
 4059SOL     OW23638   1.544   0.008   3.079  0.1712  0.2018 -0.8060
 4059SOL    HW123639   1.619   0.041   3.029  0.2908 -0.5988 -1.1419
 4059SOL    HW223640   1.588   4.670   3.133 -0.4485  1.0006  0.6906
 4060SOL     OW23641   4.647   2.624   3.680 -0.4675 -0.5111 -0.2655
 4060SOL    HW123642   4.622   2.651   3.769  1.1721  1.1849 -0.3159
 4060SOL    HW223643   4.698   2.696   3.645  0.1242 -1.6583 -1.7283
 4061SOL     OW23644   1.938   2.499   3.004  0.4002  0.1038 -0.1518
 4061SOL    HW123645   1.909   2.493   2.913 -1.1868 -0.5929  0.3986
 4061SOL    HW223646   1.939   2.407   3.030  1.4510  0.4995  1.2399
 4062SOL     OW23647   3.872   1.123   6.555 -0.1296  0.3313 -0.7506
 4062SOL    HW123648   3.884   1.218   6.553  1.3169  0.1430 -0.7633
 4062SOL    HW223649   3.949   1.090   6.602 -0.5672  0.3327 -0.0263
 4063SOL     OW23650   0.576   3.327   4.002  0.3397  0.1819  0.6120
 4063SOL    HW123651   0.484   3.322   4.031  1.7394  0.2315  5.0640
 4063SOL    HW223652   0.589   3.235   3.978 -0.8112 -0.0982  1.0374
 4064SOL     OW23653   2.575   2.394   1.881  0.3885 -0.1033 -0.0735
 4064SOL    HW123654   2.544   2.466   1.825  0.4430 -0.8962 -1.1221
 4064SOL    HW223655   2.537   2.322   1.831  0.1697  0.1420 -0.2650
 4065SOL     OW23656   4.520   0.089   1.084 -0.1840 -0.0440  0.0584
 4065SOL    HW123657   4.579   0.083   1.009  2.8107 -0.3545  2.4168
 4065SOL    HW223658   4.441   0.062   1.038  0.0769  2.0792 -1.6203
 4066SOL     OW23659   3.233   3.144  16.793 -0.1062 -0.2010  0.5500
 4066SOL    HW123660   3.153   3.099  16.821 -1.6123  3.2016  1.6784
 4066SOL    HW223661   3.198   3.233  16.800  1.1752  0.4072 -0.7788
 4067SOL     OW23662   0.699   0.785  13.555 -0.3727 -0.0965 -0.5385
 4067SOL    HW123663   0.625   0.747  13.602 -1.2314 -0.4174 -2.1349
 4067SOL    HW223664   0.779   0.737  13.573 -0.6875 -0.6615 -0.6538
 4068SOL     OW23665   3.324   2.398   4.634 -0.5691 -0.1548  0.6262
 4068SOL    HW123666   3.319   2.492   4.654 -1.1881 -0.3663  1.4595
 4068SOL    HW223667   3.252   2.394   4.572 -0.9862  1.1437  1.0202
 4069SOL     OW23668   1.985   0.889   5.004  0.2044 -0.1613  0.4600
 4069SOL    HW123669   2.032   0.807   4.993  0.3731  0.2630 -1.9981
 4069SOL    HW223670   2.056   0.947   5.031 -0.9569  0.6465  1.7866
 4070SOL     OW23671   4.292   0.623   3.510 -0.2421 -0.1444  0.2809
 4070SOL    HW123672   4.369   0.570   3.486 -0.8384 -0.1437 -1.6827
 4070SOL    HW223673   4.294   0.685   3.436 -0.6923 -1.6779 -1.0240
 4071SOL     OW23674   4.108   3.795   8.226 -0.1758 -0.4201  0.3726
 4071SOL    HW123675   4.097   3.807   8.131  0.3198 -1.3540  0.1992
 4071SOL    HW223676   4.169   3.864   8.251 -1.2610  0.0517  1.7159
 4072SOL     OW23677   1.310   3.817   6.238 -0.2902  0.0451 -0.8596
 4072SOL    HW123678   1.376   3.856   6.294  0.3062 -0.3889 -1.2673
 4072SOL    HW223679   1.276   3.758   6.305  1.0479  1.3028  0.9336
 4073SOL     OW23680   3.210   0.543   2.954 -0.4975 -0.7081 -0.2588
 4073SOL    HW123681   3.198   0.607   2.883 -0.4358 -0.2901  0.1099
 4073SOL    HW223682   3.288   0.570   3.002 -0.4317  0.6914 -1.1489
 4074SOL     OW23683   0.726   1.291   6.620  0.4336 -0.6709  0.2221
 4074SOL    HW123684   0.718   1.214   6.675  0.7271  0.2064  1.4929
 4074SOL    HW223685   0.722   1.362   6.684 -1.2630 -1.1074  0.6112
 4075SOL     OW23686   2.533   2.464   5.575 -0.1173 -0.0026 -0.3841
 4075SOL    HW123687   2.597   2.517   5.527  0.1070  1.6939  1.7818
 4075SOL    HW223688   2.581   2.383   5.593 -0.0465  0.2218  0.4158
 4076SOL     OW23689   1.807   2.786  11.087 -0.4806  0.1234 -0.6572
 4076SOL    HW123690   1.743   2.857  11.092 -0.8589 -0.2696  0.0059
 4076SOL    HW223691   1.756   2.721  11.135  1.2967 -1.9998 -1.6451
 4077SOL     OW23692   1.681   2.710   7.597 -0.0714  0.2555 -0.6610
 4077SOL    HW123693   1.628   2.787   7.618 -0.3420 -0.8368  2.6978
 4077SOL    HW223694   1.637   2.687   7.515 -1.0708 -0.2533  0.0187
 4078SOL     OW23695   1.620   3.033  17.480 -0.4695 -0.1739  0.1319
 4078SOL    HW123696   1.537   3.078  17.491 -0.2296  0.6856 -1.5829
 4078SOL    HW223697   1.593   2.951  17.441 -0.8370  0.4962 -1.0062
 4079SOL     OW23698   1.533   3.313  11.445 -0.4619 -0.0465 -0.2858
 4079SOL    HW123699   1.471   3.334  11.374 -2.1580  1.7278  1.7161
 4079SOL    HW223700   1.492   3.365  11.514 -0.1951 -0.2692  0.0374
 4080SOL     OW23701   2.826   1.901   2.566 -0.0794  0.0968 -0.1921
 4080SOL    HW123702   2.769   1.975   2.590 -1.8288 -1.7461  1.2882
 4080SOL    HW223703   2.771   1.846   2.509 -1.5993  0.6156  0.7538
 4081SOL     OW23704   1.177   3.571  10.656  0.1673 -0.6836 -0.0108
 4081SOL    HW123705   1.201   3.611  10.740  1.6794  0.8284 -1.1804
 4081SOL    HW223706   1.255   3.520  10.634 -0.9775 -2.0768 -0.8731
 4082SOL     OW23707   0.507   4.416   3.170 -0.1489 -0.0923 -0.2755
 4082SOL    HW123708   0.569   4.356   3.130  0.4054  1.1987 -1.3918
 4082SOL    HW223709   0.485   4.366   3.248  2.5295  0.6089  0.9022
 4083SOL     OW23710   1.995   4.699   8.258 -0.6224 -0.0767  0.3713
 4083SOL    HW123711   2.085   0.003   8.270 -1.1354  1.3002  0.6590
 4083SOL    HW223712   1.941   0.028   8.313 -1.4117  0.6458 -1.1585
 4084SOL     OW23713   0.561   3.737   0.464  0.0319 -0.3871  0.4307
 4084SOL    HW123714   0.606   3.696   0.538 -1.3660 -0.4264  1.2620
 4084SOL    HW223715   0.623   3.719   0.393  0.7281 -1.0627  1.2079
 4085SOL     OW23716   3.909   0.947  17.395  0.1206 -0.2868  0.2659
 4085SOL    HW123717   3.964   1.010  17.441 -0.7428  1.0097 -0.4871
 4085SOL    HW223718   3.972   0.934  17.324  0.5644 -0.4528  0.6911
 4086SOL     OW23719   3.371   3.865  14.757  0.1542 -0.0315 -0.0030
 4086SOL    HW123720   3.398   3.792  14.812 -0.7878 -0.1248  0.3251
 4086SOL    HW223721   3.450   3.916  14.741 -0.5022  0.6210 -1.1670
 4087SOL     OW23722   1.597   4.326   1.956 -0.0934 -0.2889 -0.6849
 4087SOL    HW123723   1.576   4.352   2.045 -2.4246  0.1542 -1.3561
 4087SOL    HW223724   1.549   4.244   1.944  0.4749 -0.5779 -0.9787
 4088SOL     OW23725   3.519   0.456   6.597  0.0417 -0.3024  0.7921
 4088SOL    HW123726   3.424   0.462   6.588  0.0263  0.4505  1.4570
 4088SOL    HW223727   3.551   0.481   6.511  2.7676  0.0792  1.9034
 4089SOL     OW23728   2.203   3.136   7.200  0.1095  0.0188 -0.0961
 4089SOL    HW123729   2.182   3.226   7.227 -2.6363 -0.1873 -1.6273
 4089SOL    HW223730   2.258   3.116   7.276  0.9314 -1.4711 -1.0796
 4090SOL     OW23731   3.275   2.760   3.879 -0.0078  0.0939  0.0289
 4090SOL    HW123732   3.286   2.802   3.794  0.2437  2.0597  1.0144
 4090SOL    HW223733   3.263   2.836   3.937 -1.0496 -2.1303  2.7102
 4091SOL     OW23734   4.610   4.123   7.178  0.1174 -0.3730  0.3998
 4091SOL    HW123735   4.555   4.160   7.248 -0.5289 -0.4061 -0.0943
 4091SOL    HW223736   4.692   4.117   7.228 -0.3844  2.0151  1.5440
 4092SOL     OW23737   3.889   2.605   5.175 -0.6387 -0.6067  0.2019
 4092SOL    HW123738   3.850   2.584   5.090 -1.7647  0.5790  0.4210
 4092SOL    HW223739   3.903   2.517   5.211 -0.8667 -0.5294  0.4897
 4093SOL     OW23740   4.192   4.571   5.141 -0.6113 -0.1149 -0.5540
 4093SOL    HW123741   4.250   4.587   5.215 -2.4986  1.8611  0.5402
 4093SOL    HW223742   4.202   4.478   5.123 -1.5760  0.3102 -3.2020
 4094SOL     OW23743   2.441   4.620   7.354  0.6224  0.7710 -0.3097
 4094SOL    HW123744   2.536   4.617   7.359  0.8133  1.2503 -4.0453
 4094SOL    HW223745   2.426   4.571   7.273  0.3436 -0.5002  0.5057
 4095SOL     OW23746   2.171   2.323   7.349 -0.2298 -0.7709 -0.4988
 4095SOL    HW123747   2.082   2.355   7.335 -0.3190 -0.0441  1.7233
 4095SOL    HW223748   2.192   2.295   7.260 -0.3808 -1.4061 -0.3342
 4096SOL     OW23749   2.604   0.384   6.280 -0.0484 -0.7133 -0.2638
 4096SOL    HW123750   2.637   0.474   6.286 -0.2488 -0.8809  3.3747
 4096SOL    HW223751   2.568   0.381   6.368  0.3998 -1.3358 -0.1089
 4097SOL     OW23752   1.549   2.695   6.369 -0.7908 -0.2138 -0.2919
 4097SOL    HW123753   1.483   2.727   6.430 -0.4962  0.5255 -0.3555
 4097SOL    HW223754   1.569   2.612   6.413 -1.1089 -1.1166 -1.8609
 4098SOL     OW23755   1.914   0.422  10.010 -0.1612  0.4341  0.1148
 4098SOL    HW123756   1.821   0.442  10.004  0.3312  2.5496 -0.4916
 4098SOL    HW223757   1.950   0.510  10.006  2.7423 -0.6533  1.8571
 4099SOL     OW23758   1.199   4.513  12.837 -0.2168  0.1935  0.0178
 4099SOL    HW123759   1.176   4.427  12.801 -1.0582  0.5855 -0.3833
 4099SOL    HW223760   1.206   4.570  12.760 -2.5027 -0.3143 -0.5696
 4100SOL     OW23761   4.131   3.923   2.995 -0.1904  0.8292 -0.8643
 4100SOL    HW123762   4.065   3.979   3.036  1.4344  1.5630  0.7493
 4100SOL    HW223763   4.153   3.988   2.929 -0.1956 -0.5668 -2.2162
 4101SOL     OW23764   1.497   2.123   8.726  0.2183 -0.4509  0.2848
 4101SOL    HW123765   1.456   2.044   8.690 -1.1087  0.5826 -0.4857
 4101SOL    HW223766   1.585   2.126   8.689 -0.7431 -0.4924 -1.9960
 4102SOL     OW23767   0.194   0.945   3.556  0.0650 -0.3782  0.5717
 4102SOL    HW123768   0.220   0.998   3.631 -2.2759  1.2502  0.2296
 4102SOL    HW223769   0.121   0.890   3.584  0.8266 -2.1572 -0.9163
 4103SOL     OW23770   0.166   0.252  17.312  0.2300 -0.4444 -0.4491
 4103SOL    HW123771   0.219   0.318  17.357 -0.6244  0.0462 -0.1647
 4103SOL    HW223772   0.215   0.174  17.339  0.9340  0.9569  2.3732
 4104SOL     OW23773   4.096   4.647   9.670 -0.7413 -0.0298  0.3992
 4104SOL    HW123774   4.026   4.665   9.607  0.0262 -0.3584 -0.5477
 4104SOL    HW223775   4.084   4.726   9.722 -1.0423 -0.1234  0.4684
 4105SOL     OW23776   0.718   1.171   3.148 -0.3789  1.0765  0.0897
 4105SOL    HW123777   0.807   1.204   3.158  0.0061  0.3154 -0.8130
 4105SOL    HW223778   0.700   1.133   3.233 -0.4029  1.2443  0.1594
 4106SOL     OW23779   4.315   2.361   0.560  0.2162 -0.4681  0.2110
 4106SOL    HW123780   4.271   2.349   0.645  1.4317  1.6659  1.1362
 4106SOL    HW223781   4.306   2.271   0.529  0.2435 -0.1620 -0.6720
 4107SOL     OW23782   3.678   2.143   7.704  0.6769  0.2761 -0.2193
 4107SOL    HW123783   3.660   2.203   7.777  0.5375 -1.1127  0.8809
 4107SOL    HW223784   3.730   2.071   7.741 -0.9917 -0.0554  1.4516
 4108SOL     OW23785   2.016   1.642   4.627 -0.3642 -0.2668  0.2994
 4108SOL    HW123786   2.069   1.612   4.702  1.2440  0.6810 -0.4550
 4108SOL    HW223787   2.046   1.733   4.623 -1.2754  0.1284  2.3409
 4109SOL     OW23788   3.371   3.081   2.645  0.0481  0.2270  0.1275
 4109SOL    HW123789   3.309   3.042   2.583  0.3263  0.1461 -0.0982
 4109SOL    HW223790   3.381   3.161   2.594  0.0323  0.9124  1.2015
 4110SOL     OW23791   1.706   3.244   9.654  0.1516  0.0950  0.2192
 4110SOL    HW123792   1.738   3.233   9.565 -1.4298  1.2000 -0.4779
 4110SOL    HW223793   1.791   3.236   9.698  0.8939 -0.1697 -1.2758
 4111SOL     OW23794   1.576   0.026   7.811  0.1942  0.4627  0.2278
 4111SOL    HW123795   1.516   0.019   7.885  0.4539  4.2375  0.7848
 4111SOL    HW223796   1.514   0.028   7.738  1.8022  1.6817 -1.1127
 4112SOL     OW23797   3.869   1.505   6.196 -0.1532  0.3364 -0.3545
 4112SOL    HW123798   3.888   1.462   6.279  2.1345  0.2100 -0.9625
 4112SOL    HW223799   3.917   1.446   6.138  1.1315  0.1202  0.9288
 4113SOL     OW23800   1.298   3.330   9.361  0.0045  0.1680 -0.2294
 4113SOL    HW123801   1.329   3.411   9.321  0.1462  0.8292  1.2279
 4113SOL    HW223802   1.375   3.278   9.339  0.0718  0.2426 -0.1688
 4114SOL     OW23803   0.677   4.606   3.474 -0.3572 -0.2718  0.1365
 4114SOL    HW123804   0.602   4.607   3.534  0.7692  0.0236  1.5157
 4114SOL    HW223805   0.749   4.608   3.537 -0.0651  0.9456 -0.2453
 4115SOL     OW23806   3.672   3.972  13.783  0.0295 -0.1997  0.1513
 4115SOL    HW123807   3.661   3.911  13.856  0.5524 -0.2396  0.2002
 4115SOL    HW223808   3.589   4.019  13.780  0.4048  0.5673  1.4858
 4116SOL     OW23809   4.146   0.876  15.587  0.1285 -0.7254  0.1176
 4116SOL    HW123810   4.202   0.823  15.531 -0.4439 -1.0791 -0.1163
 4116SOL    HW223811   4.201   0.866  15.665  3.2503  1.1257 -1.8790
 4117SOL     OW23812   2.071   3.823   5.543  0.4695  0.5432  0.0083
 4117SOL    HW123813   2.165   3.833   5.558  0.4692  0.1516  0.2525
 4117SOL    HW223814   2.054   3.906   5.497 -0.3708 -0.1402 -0.8902
 4118SOL     OW23815   2.944   1.655  15.285 -0.0699 -0.2304  0.1007
 4118SOL    HW123816   2.848   1.655  15.275 -0.0033  0.0024 -0.5740
 4118SOL    HW223817   2.972   1.729  15.231 -2.2884  0.5335 -0.0052
 4119SOL     OW23818   1.279   1.222   7.147 -0.2815  0.0662 -0.2250
 4119SOL    HW123819   1.224   1.295   7.176 -1.0216 -0.6316  0.1290
 4119SOL    HW223820   1.276   1.165   7.224  0.8107  2.1134  1.3019
 4120SOL     OW23821   2.086   2.207   4.211  0.1059 -0.8563  0.0411
 4120SOL    HW123822   2.065   2.281   4.153 -1.4329 -1.1928  0.1553
 4120SOL    HW223823   2.028   2.221   4.286  0.3292 -0.8959  0.2196
 4121SOL     OW23824   2.499   2.242   4.030  0.2591 -0.6386 -0.0326
 4121SOL    HW123825   2.442   2.270   4.102 -1.8855 -0.0172 -1.9660
 4121SOL    HW223826   2.463   2.155   4.014 -2.4076  0.5954 -0.8538
 4122SOL     OW23827   0.675   4.302   7.592  0.1813 -0.7707 -0.0583
 4122SOL    HW123828   0.592   4.348   7.580  0.4677 -0.4127 -0.6911
 4122SOL    HW223829   0.660   4.213   7.561  0.2832 -0.3711 -1.2683
 4123SOL     OW23830   4.038   4.581   6.693  0.2953 -0.0312 -0.1921
 4123SOL    HW123831   4.116   4.548   6.736  1.0964  0.1509 -1.5007
 4123SOL    HW223832   3.998   4.500   6.663  0.3717 -0.1224 -0.0422
 4124SOL     OW23833   1.554   4.277   6.536 -0.0786 -0.4858 -0.4076
 4124SOL    HW123834   1.639   4.306   6.502  0.2149 -0.3522  0.4243
 4124SOL    HW223835   1.503   4.353   6.507  1.6712  1.2505  1.0040
 4125SOL     OW23836   2.739   0.458   7.423  0.3894  0.0851 -0.3203
 4125SOL    HW123837   2.745   0.387   7.360 -0.2446  0.4186 -0.7656
 4125SOL    HW223838   2.803   0.423   7.485  0.1289  0.6446  0.2676
 4126SOL     OW23839   0.829   3.749   4.091 -0.0873  0.4706 -0.1845
 4126SOL    HW123840   0.755   3.721   4.146  1.0005  1.3006  1.6912
 4126SOL    HW223841   0.838   3.667   4.042  0.1803 -0.1390  0.8768
 4127SOL     OW23842   3.228   2.284   4.262 -0.6521 -0.0436 -0.0442
 4127SOL    HW123843   3.231   2.211   4.201  1.1937  1.4274 -1.7185
 4127SOL    HW223844   3.278   2.247   4.335  0.2221 -2.9881 -2.1601
 4128SOL     OW23845   2.073   1.529  12.279 -0.1629  0.0074 -0.2331
 4128SOL    HW123846   2.108   1.472  12.210  0.7156  1.0841 -0.6782
 4128SOL    HW223847   1.991   1.481  12.289 -0.2830  0.4681  0.9088
 4129SOL     OW23848   3.779   3.522  11.205  0.1555 -0.1131 -0.0350
 4129SOL    HW123849   3.759   3.502  11.297 -0.2135 -0.0681 -0.1074
 4129SOL    HW223850   3.861   3.570  11.219  1.6259 -2.1400 -1.5259
 4130SOL     OW23851   2.093   2.581   3.205  0.7650  0.1822  0.7810
 4130SOL    HW123852   2.035   2.555   3.134  0.8289  1.0308  0.4241
 4130SOL    HW223853   2.170   2.611   3.158  0.8020 -1.3922 -0.1712
 4131SOL     OW23854   4.651   3.019   6.454  0.3705  0.0275  0.0655
 4131SOL    HW123855   4.722   2.966   6.490 -0.6750 -0.3779  1.5391
 4131SOL    HW223856   4.639   3.087   6.520 -0.0844  0.0136  0.0015
 4132SOL     OW23857   4.050   4.084   4.039  0.0521  0.5253  0.2595
 4132SOL    HW123858   4.074   4.032   4.116 -0.1613 -2.1033 -1.4355
 4132SOL    HW223859   3.956   4.091   4.056 -0.5027 -1.2672 -1.9854
 4133SOL     OW23860   4.507   4.501   2.152 -0.1958  0.0941 -0.2786
 4133SOL    HW123861   4.427   4.552   2.145 -1.8790 -2.2158  2.4270
 4133SOL    HW223862   4.474   4.411   2.150  0.9169 -0.3419  0.9461
 4134SOL     OW23863   2.666   1.417   4.134 -0.2830 -0.4198 -0.0743
 4134SOL    HW123864   2.740   1.418   4.195  1.3267 -4.1665 -1.9710
 4134SOL    HW223865   2.674   1.507   4.101  1.5009  0.4439  2.6738
 4135SOL     OW23866   3.360   4.033   4.751  0.3795  0.2103 -0.1836
 4135SOL    HW123867   3.319   4.098   4.810 -1.9107 -0.9642 -0.4999
 4135SOL    HW223868   3.334   3.949   4.787  0.7737  0.2489  0.1987
 4136SOL     OW23869   0.634   1.423   7.977 -0.0189  0.2471  0.5125
 4136SOL    HW123870   0.621   1.517   7.988  1.3768  0.1307  3.0365
 4136SOL    HW223871   0.563   1.383   8.028 -0.6830  0.2889 -0.3813
 4137SOL     OW23872   1.037   0.654   6.965 -0.3565 -0.7168  0.4402
 4137SOL    HW123873   0.998   0.701   7.039 -2.0537 -0.7465 -0.4238
 4137SOL    HW223874   1.036   0.560   6.983 -1.2635 -0.1910  3.1179
 4138SOL     OW23875   0.983   0.716   4.156  0.2497 -0.1877  0.1838
 4138SOL    HW123876   0.903   0.684   4.197 -0.4003  0.6265 -0.4661
 4138SOL    HW223877   1.006   0.627   4.127  1.0467  0.5030 -1.2933
 4139SOL     OW23878   1.118   1.685   6.872 -0.2119 -0.3964 -0.1007
 4139SOL    HW123879   1.073   1.601   6.874  1.2935 -1.1569  1.5836
 4139SOL    HW223880   1.164   1.668   6.954  1.3954  2.7387 -0.3549
 4140SOL     OW23881   0.136   2.502   8.085  0.3270  0.3380 -0.0936
 4140SOL    HW123882   0.082   2.437   8.129  3.3685 -2.0173  0.1424
 4140SOL    HW223883   0.219   2.485   8.129  0.8062 -1.4042 -1.6916
 4141SOL     OW23884   3.927   1.567  17.208 -0.1497  0.2491 -0.0068
 4141SOL    HW123885   4.017   1.550  17.180 -1.0497 -2.1340 -1.3900
 4141SOL    HW223886   3.906   1.654  17.174 -0.2189  0.3898  0.3903
 4142SOL     OW23887   3.396   3.979   4.321 -0.3434  0.1587 -0.1260
 4142SOL    HW123888   3.447   3.990   4.240 -2.7118  1.2813 -1.4711
 4142SOL    HW223889   3.473   4.002   4.373 -1.3271  1.4480  0.7458
 4143SOL     OW23890   0.310   3.945   9.715  0.0887  0.2331  0.3237
 4143SOL    HW123891   0.259   3.875   9.675 -1.0746  1.2800 -0.0143
 4143SOL    HW223892   0.244   4.014   9.708 -0.3545 -0.2643 -0.3965
 4144SOL     OW23893   1.489   4.204   0.096  0.3969  0.2627  0.4623
 4144SOL    HW123894   1.499   4.124   0.044  0.5205  0.8449 -0.4046
 4144SOL    HW223895   1.579   4.208   0.126  1.1453  0.1196 -1.7272
 4145SOL     OW23896   2.851   3.676   6.218  0.0591 -0.4131 -0.6550
 4145SOL    HW123897   2.842   3.685   6.313  1.0562 -1.2516 -0.4871
 4145SOL    HW223898   2.940   3.698   6.190  0.4403 -1.1774 -0.0193
 4146SOL     OW23899   1.881   0.333   5.104 -0.0026 -0.4950  0.5805
 4146SOL    HW123900   1.822   0.258   5.118 -1.5278  0.3579 -1.1872
 4146SOL    HW223901   1.826   0.405   5.074  1.3563  0.2086 -0.1889
 4147SOL     OW23902   1.349   3.367  12.401  0.0758  0.5951 -0.1885
 4147SOL    HW123903   1.313   3.321  12.477  1.9815 -1.0857 -0.3019
 4147SOL    HW223904   1.284   3.437  12.391 -1.3712 -0.5666  0.9892
 4148SOL     OW23905   4.208   4.058   8.227 -0.4558 -0.0150 -0.0238
 4148SOL    HW123906   4.283   4.080   8.282 -0.6268 -0.0234  0.2123
 4148SOL    HW223907   4.138   4.119   8.252 -1.1252 -1.8778  2.5811
 4149SOL     OW23908   4.536   3.433   8.323  0.3314  0.0288  0.6808
 4149SOL    HW123909   4.527   3.418   8.229  2.3685 -2.0267  0.8000
 4149SOL    HW223910   4.543   3.347   8.365  1.5752 -0.0865  0.2681
 4150SOL     OW23911   0.916   0.063   5.456  0.1587 -0.1625 -0.4354
 4150SOL    HW123912   0.833   0.108   5.473  1.4594  1.4479  1.6183
 4150SOL    HW223913   0.974   0.136   5.476 -0.1906  0.0351 -0.1383
 4151SOL     OW23914   2.509   1.615  14.127  0.2577  0.0424  0.2511
 4151SOL    HW123915   2.534   1.696  14.171  0.9022  0.0873 -0.1961
 4151SOL    HW223916   2.413   1.616  14.133  0.3347 -0.7623  1.7512
 4152SOL     OW23917   2.215   2.626   0.080  0.5381  0.1357  0.1736
 4152SOL    HW123918   2.289   2.675   0.044  0.5276 -0.0676 -0.1248
 4152SOL    HW223919   2.243   2.536   0.068  1.8120  0.6513 -0.7394
 4153SOL     OW23920   0.364   1.764  14.227  0.2119 -0.0700 -0.1157
 4153SOL    HW123921   0.372   1.768  14.132 -0.7164  3.7476 -0.0377
 4153SOL    HW223922   0.305   1.690  14.239  1.4865 -0.9628  0.6289
 4154SOL     OW23923   3.716   3.996  15.304  0.1381  0.4819  0.0022
 4154SOL    HW123924   3.759   3.952  15.231 -0.9359 -1.3784  0.5109
 4154SOL    HW223925   3.725   3.940  15.381  1.5129 -1.1629 -1.3664
 4155SOL     OW23926   0.333   1.492  12.156 -0.6602 -0.3197  0.0925
 4155SOL    HW123927   0.359   1.501  12.064 -1.4976 -0.1445 -0.1318
 4155SOL    HW223928   0.414   1.490  12.207 -0.1075 -1.1376 -0.8100
 4156SOL     OW23929   3.091   4.327   3.910  0.2226  0.4585 -0.3408
 4156SOL    HW123930   3.120   4.349   3.821 -0.7109  2.0323 -0.2608
 4156SOL    HW223931   3.016   4.273   3.887  0.8569  0.4999 -2.4757
 4157SOL     OW23932   2.341   3.317   1.642 -0.2424 -0.4480 -0.7167
 4157SOL    HW123933   2.344   3.319   1.738  0.0981  0.4223 -0.7527
 4157SOL    HW223934   2.338   3.224   1.619  1.2352 -1.1366  1.9026
 4158SOL     OW23935   1.997   3.183  10.019 -0.2194 -0.4768 -0.0739
 4158SOL    HW123936   2.059   3.112  10.004 -0.9853 -1.0924 -0.3476
 4158SOL    HW223937   1.980   3.211   9.929  0.5649 -0.2442 -0.1452
 4159SOL     OW23938   1.776   1.721   3.337 -0.1311 -0.9118  0.0396
 4159SOL    HW123939   1.816   1.659   3.398 -0.3871  1.3049  2.4793
 4159SOL    HW223940   1.715   1.661   3.294  0.6988 -0.9561 -1.0710
 4160SOL     OW23941   1.175   0.015  11.772  0.3403  0.3262  0.4530
 4160SOL    HW123942   1.203   0.022  11.680  0.7580 -0.0681  0.5519
 4160SOL    HW223943   1.139   0.102  11.791 -1.4642  0.0940 -1.9283
 4161SOL     OW23944   2.159   2.950   3.465  0.2919 -0.3505 -0.3947
 4161SOL    HW123945   2.184   3.042   3.471  0.2175 -0.4293  1.0752
 4161SOL    HW223946   2.076   2.949   3.419 -0.5551 -1.9949  1.1694
 4162SOL     OW23947   4.445   0.138   3.912 -0.1641 -0.4091  0.0051
 4162SOL    HW123948   4.385   0.091   3.853 -0.4989  0.9707 -0.7487
 4162SOL    HW223949   4.391   0.174   3.983 -0.4771 -1.3332  0.2410
 4163SOL     OW23950   1.279   3.304  15.327  0.5365 -0.0307  0.2959
 4163SOL    HW123951   1.231   3.245  15.386 -0.9307  1.5047  0.6354
 4163SOL    HW223952   1.275   3.392  15.364  0.7390 -0.3510  1.0852
 4164SOL     OW23953   3.394   2.629   6.993  0.3655  1.0726  0.1611
 4164SOL    HW123954   3.367   2.646   7.083  0.7766  2.0014  0.1088
 4164SOL    HW223955   3.305   2.608   6.965  1.7083 -1.4651 -2.1861
 4165SOL     OW23956   1.373   0.063   7.574  0.3839 -0.0405 -0.1439
 4165SOL    HW123957   1.399   0.103   7.491 -0.1000 -0.2491 -0.3922
 4165SOL    HW223958   1.298   0.009   7.549 -0.2023  0.1380  1.2144
 4166SOL     OW23959   2.664   3.013  12.369 -0.0398  0.3315 -0.1058
 4166SOL    HW123960   2.757   3.029  12.353  0.1372  1.6021  2.1303
 4166SOL    HW223961   2.638   2.965  12.290  0.3732 -2.1763  1.2657
 4167SOL     OW23962   0.788   2.588   3.419  0.8323 -0.2915 -0.3283
 4167SOL    HW123963   0.778   2.546   3.504  3.3947 -0.1449  0.0481
 4167SOL    HW223964   0.841   2.666   3.436 -0.1524 -0.0432  1.5496
 4168SOL     OW23965   0.134   1.157   4.761  0.0200 -0.1339 -0.0138
 4168SOL    HW123966   0.121   1.250   4.747 -0.6998 -0.2116  0.1577
 4168SOL    HW223967   0.046   1.128   4.736 -0.8148  2.2377  0.2289
 4169SOL     OW23968   0.461   1.865   5.503  0.4253  0.0368  0.8390
 4169SOL    HW123969   0.456   1.770   5.504 -0.7814  0.1098  1.4274
 4169SOL    HW223970   0.519   1.882   5.429  0.9825 -0.8490  1.0765
 4170SOL     OW23971   1.631   0.147   3.335  0.3065  0.1266  0.0696
 4170SOL    HW123972   1.568   0.152   3.263  1.5097 -1.6820 -1.1152
 4170SOL    HW223973   1.610   0.065   3.379 -2.2735  0.6785 -0.1405
 4171SOL     OW23974   3.277   0.064   3.197 -0.0248 -0.0755  0.1242
 4171SOL    HW123975   3.288   0.159   3.188  1.7412 -0.3481 -0.4391
 4171SOL    HW223976   3.366   0.031   3.205 -0.2896 -1.0655 -0.9921
 4172SOL     OW23977   2.964   0.560  15.229  0.1788 -0.0767  0.4270
 4172SOL    HW123978   2.988   0.642  15.187  0.5557  0.5383  1.8217
 4172SOL    HW223979   2.951   0.583  15.321  0.0595  0.4107  0.2862
 4173SOL     OW23980   2.435   3.686   6.798 -0.1951  0.4511 -0.8927
 4173SOL    HW123981   2.488   3.717   6.724 -0.5056  0.3228 -1.1657
 4173SOL    HW223982   2.391   3.605   6.773 -1.6980  1.4572 -1.4923
 4174SOL     OW23983   1.963   2.788   6.934 -0.2090  0.5314 -0.0812
 4174SOL    HW123984   1.937   2.872   6.973 -0.3524  0.4699 -0.0465
 4174SOL    HW223985   2.047   2.767   6.975 -0.5102 -1.0541 -0.2918
 4175SOL     OW23986   4.614   3.850   9.788 -0.1824  0.0709 -0.4267
 4175SOL    HW123987   4.644   3.913   9.723 -2.8007  0.6973 -1.0430
 4175SOL    HW223988   4.532   3.890   9.818  0.7630  1.7032 -0.0414
 4176SOL     OW23989   4.477   4.678   2.688  0.1635 -0.2054 -0.3655
 4176SOL    HW123990   4.527   0.018   2.643 -1.9137  0.4660 -1.6689
 4176SOL    HW223991   4.417   4.644   2.621  0.7444 -1.1135 -0.4338
 4177SOL     OW23992   0.390   0.349  13.288  0.3757  0.1469 -0.3703
 4177SOL    HW123993   0.371   0.433  13.329  0.7040  0.7287 -1.3991
 4177SOL    HW223994   0.478   0.370  13.258  1.0206 -2.5195 -0.3399
 4178SOL     OW23995   2.462   0.925   2.400  0.6815 -1.0047 -0.2502
 4178SOL    HW123996   2.456   0.850   2.458 -0.6633  1.4854  2.8516
 4178SOL    HW223997   2.424   0.997   2.451  2.7463 -0.4141  0.4353
 4179SOL     OW23998   1.774   0.544   1.639 -0.1679  0.4014  0.3094
 4179SOL    HW123999   1.690   0.538   1.685  0.5362 -0.7825  1.4501
 4179SOL    HW224000   1.828   0.506   1.709 -2.5884 -0.4654  1.7425
 4180SOL     OW24001   4.189   2.638   3.138 -0.1709 -0.3375 -0.1902
 4180SOL    HW124002   4.276   2.660   3.105 -0.1754  0.1383  0.1172
 4180SOL    HW224003   4.200   2.696   3.214 -1.3054  2.7329 -2.3436
 4181SOL     OW24004   3.910   1.309   7.466  0.1408 -0.2559  0.4464
 4181SOL    HW124005   3.951   1.379   7.518 -1.5004  0.8626  0.2306
 4181SOL    HW224006   3.834   1.359   7.437  0.5248 -0.2344 -0.5222
 4182SOL     OW24007   0.379   1.736   1.237 -0.5544 -0.4048 -0.8541
 4182SOL    HW124008   0.461   1.693   1.259 -0.5314  0.3874  0.6575
 4182SOL    HW224009   0.402   1.814   1.185 -1.1775 -0.0860 -0.6520
 4183SOL     OW24010   2.844   3.091   3.601 -0.3746  0.2870  0.2934
 4183SOL    HW124011   2.763   3.064   3.557 -0.4067  0.5262  0.2048
 4183SOL    HW224012   2.813   3.099   3.692 -1.7015 -0.0339 -0.1317
 4184SOL     OW24013   4.145   2.740   5.066 -0.6642  0.5623 -0.8354
 4184SOL    HW124014   4.152   2.661   5.013  3.0435  0.7787 -0.6427
 4184SOL    HW224015   4.230   2.783   5.059 -0.1368  0.1553  3.0755
 4185SOL     OW24016   0.929   1.589   5.151 -0.2657 -0.0725  0.2827
 4185SOL    HW124017   1.013   1.605   5.109 -0.6184 -0.8501 -0.7210
 4185SOL    HW224018   0.890   1.519   5.098  1.5207 -0.2752 -0.7626
 4186SOL     OW24019   2.328   2.332   4.235 -0.4247 -0.3466  0.0114
 4186SOL    HW124020   2.238   2.298   4.237 -0.0800 -1.2059  1.2078
 4186SOL    HW224021   2.337   2.351   4.328  1.8733 -1.2973 -0.0150
 4187SOL     OW24022   2.104   1.790  12.197  0.1112  0.1498  0.2869
 4187SOL    HW124023   2.080   1.706  12.238 -1.7218 -0.5246 -2.1842
 4187SOL    HW224024   2.158   1.756  12.126 -0.4433 -1.0941  0.4523
 4188SOL     OW24025   2.298   0.379   2.163 -0.2466  0.3015  0.0780
 4188SOL    HW124026   2.204   0.383   2.182 -0.5194  2.7093 -1.7400
 4188SOL    HW224027   2.321   0.451   2.104 -4.0983 -1.3649 -3.3993
 4189SOL     OW24028   4.491   2.839   6.815 -0.5547 -0.5467  0.0718
 4189SOL    HW124029   4.438   2.759   6.811  0.4559 -1.1908 -0.4771
 4189SOL    HW224030   4.446   2.897   6.753 -0.9439 -1.1427 -0.2015
 4190SOL     OW24031   2.869   3.848  14.730 -0.1862 -0.1949 -0.4974
 4190SOL    HW124032   2.911   3.794  14.663  1.8804 -1.6431  1.9713
 4190SOL    HW224033   2.778   3.826  14.715 -0.1595 -0.0092 -0.9460
 4191SOL     OW24034   1.036   2.763   2.343 -0.2650 -0.5199  0.4403
 4191SOL    HW124035   1.107   2.816   2.378  0.7752  0.1711 -2.7108
 4191SOL    HW224036   0.971   2.763   2.413  1.1043 -0.0248  1.7095
 4192SOL     OW24037   1.216   1.629   8.757  0.4932 -0.0354 -0.5303
 4192SOL    HW124038   1.186   1.575   8.829  3.0350 -2.4708 -1.2935
 4192SOL    HW224039   1.137   1.673   8.725 -1.3154 -0.7104  3.0022
 4193SOL     OW24040   1.639   4.459   3.911 -0.3116 -0.4733 -0.4234
 4193SOL    HW124041   1.658   4.389   3.848  2.2243 -0.2126  0.0460
 4193SOL    HW224042   1.719   4.508   3.895  0.0786 -0.4406  1.5780
 4194SOL     OW24043   0.833   4.497   9.641  0.3982 -0.4102 -0.0795
 4194SOL    HW124044   0.824   4.566   9.707  0.6395 -2.3648  2.0293
 4194SOL    HW224045   0.834   4.544   9.558  1.7914 -0.6404 -0.1900
 4195SOL     OW24046   3.336   2.105  11.044  0.4201  0.1418  0.2680
 4195SOL    HW124047   3.384   2.022  11.041  1.3886  0.6489  1.4579
 4195SOL    HW224048   3.266   2.097  11.108  0.9022 -0.8914  0.6756
 4196SOL     OW24049   2.207   0.149   8.078  0.1309  0.1619 -0.2810
 4196SOL    HW124050   2.114   0.143   8.057 -0.2630 -2.5982  2.3027
 4196SOL    HW224051   2.257   0.125   7.999  0.9286  3.0931 -0.6694
 4197SOL     OW24052   2.952   3.053  14.336 -0.3607  0.1508 -0.2477
 4197SOL    HW124053   2.890   3.097  14.278 -1.0322  1.5069  1.4990
 4197SOL    HW224054   3.036   3.095  14.317  0.0812 -1.5734 -2.0889
 4198SOL     OW24055   0.085   1.105   2.556 -0.1136 -0.0576 -0.1598
 4198SOL    HW124056   0.034   1.075   2.480 -0.2020  0.4345 -0.2905
 4198SOL    HW224057   0.148   1.159   2.508  1.1609 -1.3741  0.0330
 4199SOL     OW24058   0.021   4.719   5.213 -0.5053 -0.2901  0.2215
 4199SOL    HW124059   0.031   0.086   5.219  2.2788 -0.5904  0.3679
 4199SOL    HW224060   0.063   4.684   5.292 -0.0600 -0.1663  0.0359
 4200SOL     OW24061   4.031   0.360   9.619  0.3452 -0.7688  0.1635
 4200SOL    HW124062   4.016   0.338   9.711 -0.4535  0.4856  0.3342
 4200SOL    HW224063   4.103   0.423   9.623 -0.5263  0.1559  1.4834
 4201SOL     OW24064   2.105   2.510   0.443 -0.3009  0.0109  0.8326
 4201SOL    HW124065   2.030   2.502   0.502 -0.5399 -0.7961  0.4193
 4201SOL    HW224066   2.091   2.589   0.390 -0.9055 -0.1683  0.7249
 4202SOL     OW24067   0.666   0.581   8.674 -0.3972  0.0882 -0.6411
 4202SOL    HW124068   0.582   0.537   8.676 -0.3252 -0.0077  0.2926
 4202SOL    HW224069   0.655   0.653   8.612  1.8126 -0.1424 -1.2948
 4203SOL     OW24070   0.207   0.094  16.238 -0.3866  0.1636 -0.6667
 4203SOL    HW124071   0.263   0.126  16.309 -0.7059  1.1858 -0.8827
 4203SOL    HW224072   0.119   0.129  16.251 -0.0083  1.2194 -0.9936
 4204SOL     OW24073   1.943   1.733  10.091 -0.4743 -0.7519 -0.1929
 4204SOL    HW124074   1.950   1.824  10.060  0.2035 -0.0759  1.8758
 4204SOL    HW224075   1.848   1.726  10.085 -0.4522 -0.9081 -0.3390
 4205SOL     OW24076   4.017   3.606  16.331 -0.1557  0.2175 -0.2000
 4205SOL    HW124077   4.070   3.549  16.385  0.1070  0.2804 -0.3901
 4205SOL    HW224078   3.934   3.558  16.324 -0.7306  1.4962 -2.5171
 4206SOL     OW24079   1.963   4.010   6.825 -0.0441 -0.2681 -0.0018
 4206SOL    HW124080   1.899   4.057   6.772  1.7417  0.0995 -1.8347
 4206SOL    HW224081   1.951   3.920   6.795  3.1855 -0.4284 -0.7874
 4207SOL     OW24082   3.696   0.564   4.351 -0.1142 -0.0223  0.1964
 4207SOL    HW124083   3.723   0.526   4.434 -1.0563  0.9363  0.9433
 4207SOL    HW224084   3.669   0.487   4.301  0.4305  0.6211 -1.0868
 4208SOL     OW24085   4.525   1.324   5.488  0.0263  0.2289 -0.5316
 4208SOL    HW124086   4.532   1.268   5.410 -1.6114  1.9376 -1.9139
 4208SOL    HW224087   4.618   1.346   5.491  0.2123 -0.9468  1.6852
 4209SOL     OW24088   2.564   0.006  12.410  0.1041 -0.2654  0.0408
 4209SOL    HW124089   2.575   4.678  12.487 -0.1935 -0.3673  0.0100
 4209SOL    HW224090   2.482   4.703  12.371 -0.1060  1.1911 -0.6854
 4210SOL     OW24091   3.128   0.577  13.700 -0.5882 -0.0787 -0.1540
 4210SOL    HW124092   3.155   0.502  13.754  3.0884  0.4758 -1.2335
 4210SOL    HW224093   3.182   0.648  13.735  1.1037 -1.1751 -0.5569
 4211SOL     OW24094   0.572   4.035   9.733  0.5355 -0.4047 -0.4125
 4211SOL    HW124095   0.492   3.985   9.750 -0.9238  1.1817 -2.6660
 4211SOL    HW224096   0.536   4.123   9.746 -1.0782 -0.9116 -1.4582
 4212SOL     OW24097   2.653   2.873  17.284 -0.4430  0.0039 -0.1035
 4212SOL    HW124098   2.606   2.906  17.206 -1.0701 -0.5459  0.0367
 4212SOL    HW224099   2.582   2.880  17.348 -1.0155  1.1895 -0.8689
 4213SOL     OW24100   3.166   1.386   6.939 -0.5465  1.0711  0.3894
 4213SOL    HW124101   3.097   1.412   7.000 -0.3241  0.6079  0.8340
 4213SOL    HW224102   3.199   1.469   6.906  0.4912  0.1659 -0.8143
 4214SOL     OW24103   3.543   3.927   6.719 -0.1391 -0.0808 -0.1412
 4214SOL    HW124104   3.621   3.876   6.700 -2.0289 -2.8586 -0.4476
 4214SOL    HW224105   3.546   3.990   6.647 -2.3072  0.2857  0.0989
 4215SOL     OW24106   1.069   1.115  12.953  0.3850  0.1128 -0.4173
 4215SOL    HW124107   1.011   1.047  12.919  0.2843  0.5241 -1.0622
 4215SOL    HW224108   1.077   1.171  12.876  1.8443 -0.5031 -0.7222
 4216SOL     OW24109   0.763   1.086   6.789  0.7926  0.2722 -0.3286
 4216SOL    HW124110   0.711   1.087   6.869 -0.4597  0.0803 -1.1323
 4216SOL    HW224111   0.840   1.035   6.812 -1.3012 -1.7432  2.1059
 4217SOL     OW24112   3.941   3.924   5.897 -0.2120  0.0992 -0.3023
 4217SOL    HW124113   3.994   3.861   5.946 -3.0014 -1.5647  0.5773
 4217SOL    HW224114   3.948   4.002   5.952 -0.4508  0.2725 -0.5193
 4218SOL     OW24115   2.082   4.037   7.478  0.3537  0.3795  0.0473
 4218SOL    HW124116   2.002   4.055   7.427  0.6671 -0.8974 -0.9100
 4218SOL    HW224117   2.124   3.979   7.414 -0.6644 -0.2433 -0.0724
 4219SOL     OW24118   0.480   0.579  11.090 -0.0522  0.4617  0.6463
 4219SOL    HW124119   0.473   0.536  11.006  0.3230  1.7761 -0.0595
 4219SOL    HW224120   0.393   0.568  11.129 -0.1890 -4.7484 -1.1405
 4220SOL     OW24121   1.731   3.079   5.762 -0.4504  0.0074  0.4888
 4220SOL    HW124122   1.743   3.003   5.819 -3.1071  0.1969  1.3151
 4220SOL    HW224123   1.657   3.119   5.807  0.4978  1.0941  1.0967
 4221SOL     OW24124   4.584   0.049  17.147 -0.4094 -0.0730  0.1243
 4221SOL    HW124125   4.613   0.135  17.175 -3.1979  0.4219  1.4377
 4221SOL    HW224126   4.615   4.719  17.217  1.9836 -0.6332 -1.3930
 4222SOL     OW24127   0.113   4.084   7.563 -0.1527  0.5896  0.0967
 4222SOL    HW124128   0.119   4.109   7.470  1.1572 -0.6305 -0.1444
 4222SOL    HW224129   0.071   4.162   7.598  2.2854  0.9384  2.2499
 4223SOL     OW24130   2.169   4.344   4.472  0.0513 -0.7172  0.2686
 4223SOL    HW124131   2.233   4.413   4.455 -0.1112 -0.1378  1.9980
 4223SOL    HW224132   2.196   4.268   4.421  2.6995 -0.3098  1.0914
 4224SOL     OW24133   1.686   3.718   9.319 -0.4538  0.2167 -0.4957
 4224SOL    HW124134   1.659   3.673   9.239  0.2300  2.1060 -1.7629
 4224SOL    HW224135   1.777   3.743   9.306  0.4077 -2.0985  0.9242
 4225SOL     OW24136   0.011   2.349  14.687 -0.1203 -0.1961  0.4071
 4225SOL    HW124137   0.036   2.285  14.754  1.6286  0.5518  0.4892
 4225SOL    HW224138   0.081   2.413  14.704 -1.0568  1.3313 -1.5282
 4226SOL     OW24139   2.692   2.964   5.951 -0.0921  0.0376  0.0765
 4226SOL    HW124140   2.663   2.873   5.950 -2.6689  0.8755 -0.6047
 4226SOL    HW224141   2.644   3.000   6.024 -0.4822  0.4387 -0.3796
 4227SOL     OW24142   0.857   0.321  11.715 -0.8355 -0.3044 -0.1219
 4227SOL    HW124143   0.824   0.298  11.629 -0.3494 -0.2348 -0.3268
 4227SOL    HW224144   0.948   0.335  11.687 -1.2642  0.7397 -0.9711
 4228SOL     OW24145   4.401   2.509   1.114 -0.0410 -0.1027 -0.4479
 4228SOL    HW124146   4.479   2.564   1.099  0.4761 -0.2798  1.6561
 4228SOL    HW224147   4.333   2.572   1.137 -1.5656 -1.8268 -0.2936
 4229SOL     OW24148   3.269   1.806   7.004 -0.2934  0.1137 -0.0722
 4229SOL    HW124149   3.311   1.837   7.083  0.5802  0.5547 -0.7141
 4229SOL    HW224150   3.190   1.860   7.011  0.3485  0.9096  0.8977
 4230SOL     OW24151   1.989   2.276   4.775  0.1560  0.3597  0.1188
 4230SOL    HW124152   2.049   2.288   4.849 -0.7077  1.5151  0.6405
 4230SOL    HW224153   2.020   2.194   4.738 -0.7195  1.0205 -2.1031
 4231SOL     OW24154   3.130   0.660   7.211 -0.6565  0.1385  0.1728
 4231SOL    HW124155   3.091   0.648   7.125  0.3685 -1.2138 -0.1116
 4231SOL    HW224156   3.189   0.735   7.198 -0.3476  0.1739  1.8158
 4232SOL     OW24157   3.812   2.024   6.588 -0.3232  0.5017 -0.1890
 4232SOL    HW124158   3.844   2.113   6.599 -1.6396  0.9588 -0.1296
 4232SOL    HW224159   3.829   1.987   6.675 -4.0262 -0.3946  0.1448
 4233SOL     OW24160   0.079   2.559   4.550 -0.9186 -0.2147 -0.2717
 4233SOL    HW124161   0.017   2.629   4.529  0.8282  1.1826 -0.6771
 4233SOL    HW224162   0.137   2.554   4.474  0.0884 -0.2648  0.5203
 4234SOL     OW24163   4.182   2.457   6.582 -0.2831 -0.4863 -0.0528
 4234SOL    HW124164   4.191   2.552   6.584  0.1332 -0.5328  0.4519
 4234SOL    HW224165   4.129   2.456   6.503 -1.7446 -2.2790  0.9577
 4235SOL     OW24166   0.448   2.265   8.470  0.4125  0.3003  0.0507
 4235SOL    HW124167   0.528   2.213   8.466 -0.0181 -0.4624  1.5475
 4235SOL    HW224168   0.438   2.269   8.565  1.1350 -0.2605  0.1507
 4236SOL     OW24169   0.914   3.720  15.990  0.2260 -0.5644 -0.4962
 4236SOL    HW124170   0.986   3.682  16.040 -0.0281  0.4201  0.6110
 4236SOL    HW224171   0.890   3.796  16.041  1.1871 -1.3882  1.1877
 4237SOL     OW24172   0.908   2.926   6.725 -0.0751  0.1877 -0.1594
 4237SOL    HW124173   0.866   2.922   6.640  0.7516  0.9553 -0.6067
 4237SOL    HW224174   0.967   3.000   6.713  1.3578 -1.0833 -1.0843
 4238SOL     OW24175   0.768   3.823   3.745 -0.2595  0.6226  0.0766
 4238SOL    HW124176   0.682   3.781   3.745  1.2035 -2.4251 -0.1169
 4238SOL    HW224177   0.770   3.871   3.828  2.0196  1.9246 -0.7224
 4239SOL     OW24178   4.455   4.016   3.587  0.4992 -0.2825  0.0162
 4239SOL    HW124179   4.484   3.943   3.533 -0.5606 -0.4889 -0.2634
 4239SOL    HW224180   4.374   3.989   3.630  1.5683 -0.1166  2.1511
 4240SOL     OW24181   1.870   0.684   2.188 -0.3945 -0.1998 -0.2276
 4240SOL    HW124182   1.785   0.727   2.195 -0.6124 -0.1786 -2.9441
 4240SOL    HW224183   1.917   0.745   2.132  0.2934  1.7344  2.4695
 4241SOL     OW24184   0.995   4.543   4.339  0.8029 -0.5247 -0.5965
 4241SOL    HW124185   0.956   4.500   4.415 -0.3167 -0.2672 -1.0107
 4241SOL    HW224186   0.996   4.480   4.267 -0.8280 -1.6967  0.4063
 4242SOL     OW24187   1.869   1.466   0.765 -0.9944 -0.0885  0.0350
 4242SOL    HW124188   1.852   1.379   0.800  1.3968 -0.6009 -0.0922
 4242SOL    HW224189   1.786   1.474   0.718 -0.4256  1.5520 -0.7145
 4243SOL     OW24190   2.645   3.854   6.641  0.3787 -0.0095 -0.2806
 4243SOL    HW124191   2.655   3.854   6.736 -1.1589 -0.8047 -0.1218
 4243SOL    HW224192   2.695   3.935   6.626  1.2401 -0.1171  1.9599
 4244SOL     OW24193   0.226   3.117   7.776  0.1078  0.0999  0.4454
 4244SOL    HW124194   0.248   3.026   7.756  3.6536  1.4894 -2.0858
 4244SOL    HW224195   0.250   3.116   7.869 -0.3651  0.0397  0.5651
 4245SOL     OW24196   3.005   1.076   6.101 -0.2016 -0.1203  0.1817
 4245SOL    HW124197   2.973   1.012   6.165  1.8904 -0.3896  0.9845
 4245SOL    HW224198   3.099   1.076   6.122 -0.1003  1.2411 -0.2505
 4246SOL     OW24199   0.535   3.711   7.359 -0.0226  0.2738 -0.3085
 4246SOL    HW124200   0.583   3.794   7.353  2.3724 -0.8805  2.5983
 4246SOL    HW224201   0.543   3.688   7.452 -0.4302  1.6203  0.0547
 4247SOL     OW24202   0.562   1.332   2.761  0.5679 -0.2292  0.5629
 4247SOL    HW124203   0.524   1.420   2.764 -1.3190 -1.0121 -0.4352
 4247SOL    HW224204   0.633   1.351   2.822  2.4827  0.2144 -1.8086
 4248SOL     OW24205   1.776   2.361   5.006 -0.2892 -0.4321  0.1040
 4248SOL    HW124206   1.840   2.310   5.056 -0.6847 -2.0062 -1.0076
 4248SOL    HW224207   1.760   2.302   4.932 -2.5786  0.2708  0.0305
 4249SOL     OW24208   0.385   2.456  17.269 -0.0192 -0.2719  0.1667
 4249SOL    HW124209   0.428   2.410  17.341 -0.8476  0.2705  0.9951
 4249SOL    HW224210   0.451   2.519  17.239 -1.1244 -0.3723 -2.4685
 4250SOL     OW24211   2.539   0.563   7.597 -0.4892  0.0804  0.0282
 4250SOL    HW124212   2.589   0.528   7.523  2.1534  2.6601  0.5907
 4250SOL    HW224213   2.595   0.530   7.667  1.6644  1.0199 -1.2574
 4251SOL     OW24214   2.411   2.153   5.657 -0.2271  0.0543 -0.2143
 4251SOL    HW124215   2.364   2.194   5.585 -0.8352 -1.8397 -0.8936
 4251SOL    HW224216   2.501   2.184   5.642 -0.5313  2.2338  2.4045
 4252SOL     OW24217   0.286   4.138   7.059 -0.2563  0.4285 -0.2083
 4252SOL    HW124218   0.293   4.051   7.020 -2.8000 -0.1369  0.6152
 4252SOL    HW224219   0.253   4.191   6.987 -1.3822 -1.3633 -1.0212
 4253SOL     OW24220   1.037   3.560   6.079 -0.2411  0.4666 -0.0677
 4253SOL    HW124221   0.998   3.648   6.070 -0.7319  0.3523  0.8888
 4253SOL    HW224222   0.959   3.505   6.075 -0.5572  0.7597  2.1078
 4254SOL     OW24223   1.748   0.968  16.963  0.2926  0.1174 -0.0105
 4254SOL    HW124224   1.733   1.018  17.043  0.8165  1.2377 -0.6277
 4254SOL    HW224225   1.661   0.926  16.961  0.6679 -0.6770  0.1962
 4255SOL     OW24226   3.579   2.281   0.882 -0.6525  0.6418  0.0097
 4255SOL    HW124227   3.506   2.344   0.883 -1.0386  0.1833  0.4423
 4255SOL    HW224228   3.535   2.215   0.829  0.0153 -1.1122  1.6323
 4256SOL     OW24229   4.237   0.625  12.042  0.3593  0.7182  0.6685
 4256SOL    HW124230   4.250   0.571  12.120 -1.4634  1.5540  1.5464
 4256SOL    HW224231   4.143   0.616  12.032  0.3485  1.8733 -0.3606
 4257SOL     OW24232   3.530   1.258   2.410 -0.3629  0.2921 -0.0236
 4257SOL    HW124233   3.543   1.265   2.505 -1.0852 -1.4677  0.2035
 4257SOL    HW224234   3.526   1.163   2.400 -0.0355  0.2220  0.4580
 4258SOL     OW24235   4.226   3.077   1.128 -0.4953 -0.2017  0.0352
 4258SOL    HW124236   4.300   3.051   1.183  1.1810 -0.6013 -2.3555
 4258SOL    HW224237   4.210   2.995   1.081  0.6178 -0.9432  0.9521
 4259SOL     OW24238   3.549   0.520   3.607  0.5107 -0.2084  0.2620
 4259SOL    HW124239   3.578   0.602   3.567 -0.3393  0.2022  0.4874
 4259SOL    HW224240   3.509   0.568   3.680 -1.8606  1.6303 -2.2474
 4260SOL     OW24241   2.929   4.628   7.086 -0.2711  0.3352  0.4262
 4260SOL    HW124242   2.883   4.563   7.139 -0.8159  1.7052  1.6145
 4260SOL    HW224243   2.944   4.573   7.009  0.5364 -0.1938  0.9579
 4261SOL     OW24244   0.044   2.628   0.330 -0.5129  0.3141  0.3042
 4261SOL    HW124245   4.712   2.657   0.399  0.9324 -0.0045  1.6984
 4261SOL    HW224246   4.720   2.555   0.298  1.1021  0.0151 -1.5911
 4262SOL     OW24247   4.060   2.968  11.110 -0.2459 -0.1321 -0.2458
 4262SOL    HW124248   3.978   3.009  11.081 -0.9415 -0.4315  1.3189
 4262SOL    HW224249   4.061   2.997  11.201 -2.2028 -1.4758  0.1903
 4263SOL     OW24250   3.333   2.706   7.232  0.1426 -0.3233  0.0393
 4263SOL    HW124251   3.249   2.751   7.234 -0.2531 -1.1742  3.0092
 4263SOL    HW224252   3.337   2.680   7.324 -1.7504 -1.0988 -0.1050
 4264SOL     OW24253   1.211   2.319   5.950  0.1818  0.3160 -0.1165
 4264SOL    HW124254   1.154   2.312   6.026 -0.9341  0.1078 -0.9635
 4264SOL    HW224255   1.279   2.255   5.975 -1.9822 -1.1060  2.1183
 4265SOL     OW24256   4.700   3.321   8.884 -0.2234  0.2213 -0.6094
 4265SOL    HW124257   4.641   3.258   8.845 -2.0479  1.7855 -0.3868
 4265SOL    HW224258   0.055   3.272   8.885 -0.6645 -0.4928  1.0380
 4266SOL     OW24259   4.361   4.549   8.006 -0.1060 -1.1880  0.2247
 4266SOL    HW124260   4.388   4.601   8.082 -1.9752 -1.2160  0.9076
 4266SOL    HW224261   4.441   4.551   7.953 -0.0090  1.9733  0.5060
 4267SOL     OW24262   0.596   3.179   9.361 -0.4417 -0.1511 -0.3507
 4267SOL    HW124263   0.660   3.201   9.293  0.9411  2.1133  1.6925
 4267SOL    HW224264   0.615   3.233   9.438  0.2866 -0.4248 -0.3417
 4268SOL     OW24265   2.905   4.065   6.953 -0.6447  1.2345  0.3151
 4268SOL    HW124266   2.869   3.977   6.941 -0.0167  0.9711  0.3699
 4268SOL    HW224267   2.853   4.108   6.886 -1.0798 -3.3295 -2.2991
 4269SOL     OW24268   0.258   1.134   3.353  0.5339 -0.0186  0.0174
 4269SOL    HW124269   0.242   1.107   3.263  0.3728  1.8230 -0.5021
 4269SOL    HW224270   0.238   1.058   3.408  1.2869  0.4027  0.8708
 4270SOL     OW24271   1.704   2.102   5.638 -0.0741 -0.2122  0.2449
 4270SOL    HW124272   1.777   2.164   5.643 -0.0431 -0.3004  0.8667
 4270SOL    HW224273   1.719   2.055   5.556 -0.4564 -0.9145  0.5792
 4271SOL     OW24274   0.621   4.134  16.544  0.1762  0.0371 -0.9041
 4271SOL    HW124275   0.575   4.080  16.609  0.8284  0.4592 -0.0884
 4271SOL    HW224276   0.603   4.092  16.460 -0.1358  0.1030 -0.8699
 4272SOL     OW24277   2.937   1.624   5.252  0.0690 -0.1001  0.2762
 4272SOL    HW124278   2.882   1.699   5.231 -0.5882 -0.8012 -0.5488
 4272SOL    HW224279   2.999   1.618   5.179 -1.1309  1.3378 -0.8662
 4273SOL     OW24280   0.542   0.596   1.369  0.2948  0.0402 -0.0440
 4273SOL    HW124281   0.617   0.595   1.428  0.6393 -1.2208 -0.4944
 4273SOL    HW224282   0.505   0.683   1.382  3.0275  1.2284 -0.3206
 4274SOL     OW24283   2.388   1.312   7.688  0.0454  0.0861  0.3734
 4274SOL    HW124284   2.477   1.277   7.688 -0.1386 -0.4093  1.7486
 4274SOL    HW224285   2.340   1.236   7.722 -1.0817 -0.4944 -2.4921
 4275SOL     OW24286   4.125   0.734   9.728  0.0559  0.5132 -0.3494
 4275SOL    HW124287   4.187   0.800   9.696  1.4496 -0.2806  0.6847
 4275SOL    HW224288   4.098   0.783   9.805 -3.9315 -2.8886  0.4073
 4276SOL     OW24289   1.906   1.995   3.063  0.4542 -0.3099  0.2528
 4276SOL    HW124290   1.866   1.989   2.977  3.5834 -2.2519 -1.0580
 4276SOL    HW224291   1.904   1.904   3.093 -0.1892 -0.5824 -0.6314
 4277SOL     OW24292   0.145   4.548  13.155 -0.1253 -0.1255 -0.2891
 4277SOL    HW124293   0.236   4.569  13.179  0.0158 -0.5483 -0.4568
 4277SOL    HW224294   0.150   4.496  13.075 -1.1959  3.4255 -2.6529
 4278SOL     OW24295   4.198   3.728   4.127 -0.1201 -0.4818 -0.1160
 4278SOL    HW124296   4.248   3.661   4.173 -1.7023 -0.7384  1.2509
 4278SOL    HW224297   4.203   3.807   4.181  1.6070 -1.7140  1.5429
 4279SOL     OW24298   0.857   1.169   8.255  0.1333  0.3937 -0.3984
 4279SOL    HW124299   0.863   1.205   8.167  2.5794 -2.6891 -1.5085
 4279SOL    HW224300   0.762   1.167   8.264  0.1715 -0.6252 -0.1544
 4280SOL     OW24301   2.342   1.277   5.216  0.2358 -0.0134  0.4827
 4280SOL    HW124302   2.392   1.337   5.271 -0.2442  0.0931  0.7972
 4280SOL    HW224303   2.388   1.279   5.132  0.4598  1.9357  0.6472
 4281SOL     OW24304   3.139   0.823  17.697 -0.2359 -0.4405  0.2204
 4281SOL    HW124305   3.046   0.845  17.688  0.2389  0.8567 -1.5284
 4281SOL    HW224306   3.166   0.907   0.024  1.1135 -1.9892  2.6763
 4282SOL     OW24307   2.955   2.506   2.254 -1.0506 -0.3413 -0.1489
 4282SOL    HW124308   2.949   2.579   2.192 -0.7975  2.0533  2.6644
 4282SOL    HW224309   3.020   2.452   2.208  0.9155  1.6008  0.3301
 4283SOL     OW24310   1.623   0.235  13.722  0.4213  0.0818 -0.0363
 4283SOL    HW124311   1.701   0.198  13.761  0.4149  3.0338  2.7745
 4283SOL    HW224312   1.552   0.174  13.742 -0.1783  0.1584 -1.9220
 4284SOL     OW24313   3.156   1.517   2.850  0.3369 -0.2831  0.0361
 4284SOL    HW124314   3.110   1.491   2.770 -0.8404 -0.3800  0.7306
 4284SOL    HW224315   3.248   1.492   2.847  0.6454  0.8228  0.3262
 4285SOL     OW24316   2.582   1.116  14.361 -0.0937  0.2574 -0.1043
 4285SOL    HW124317   2.573   1.113  14.456  0.4184  0.4399 -0.0489
 4285SOL    HW224318   2.526   1.043  14.334  0.5687 -0.2613 -0.0747
 4286SOL     OW24319   3.325   1.269   5.868  1.0057 -0.9357  0.4104
 4286SOL    HW124320   3.410   1.306   5.890  0.6488  1.2948 -2.0190
 4286SOL    HW224321   3.253   1.326   5.896  1.6724 -0.7666  1.7680
 4287SOL     OW24322   1.288   3.425  15.035  0.6860  0.1921 -0.4247
 4287SOL    HW124323   1.384   3.425  15.030  0.6748  0.8353 -0.5464
 4287SOL    HW224324   1.272   3.419  15.129 -0.3878  0.6605 -0.5783
 4288SOL     OW24325   1.009   1.795   8.658 -0.3079  0.2033  0.1384
 4288SOL    HW124326   0.975   1.734   8.723  1.6331 -2.4849 -1.3636
 4288SOL    HW224327   0.968   1.876   8.687 -2.4223 -1.4428  1.7728
 4289SOL     OW24328   1.682   0.345   6.486  0.1489 -0.2010  0.2883
 4289SOL    HW124329   1.716   0.427   6.521 -0.6692  0.9868 -1.6997
 4289SOL    HW224330   1.755   0.283   6.485  2.2532  2.3285 -1.2297
 4290SOL     OW24331   2.589   2.355   6.661 -0.1119 -0.4609  0.1621
 4290SOL    HW124332   2.541   2.375   6.581 -1.2385 -1.5153  0.5630
 4290SOL    HW224333   2.513   2.328   6.713 -1.8009  1.8581 -1.1118
 4291SOL     OW24334   2.017   2.229   3.007  0.2012 -0.4833  0.3645
 4291SOL    HW124335   1.990   2.145   3.046 -0.3210 -0.7433 -0.5675
 4291SOL    HW224336   2.093   2.258   3.058  0.2138 -1.5137  0.9352
 4292SOL     OW24337   2.362   0.078   9.873  0.1126 -0.1172  0.3802
 4292SOL    HW124338   2.335   0.131   9.797  1.3491 -0.4041 -0.2631
 4292SOL    HW224339   2.454   0.104   9.877 -0.2966  1.6271 -1.4010
 4293SOL     OW24340   4.560   4.312   7.428 -0.2557  0.0286 -0.2941
 4293SOL    HW124341   4.604   4.292   7.510 -0.3080 -3.0473 -1.0038
 4293SOL    HW224342   4.605   4.387   7.389 -1.4464  0.0451 -1.6130
 4294SOL     OW24343   4.276   1.934  14.429  0.3741  0.0897  0.0183
 4294SOL    HW124344   4.328   2.014  14.433 -0.5552  0.6178  1.5114
 4294SOL    HW224345   4.332   1.881  14.373  0.3578  0.0286  0.0599
 4295SOL     OW24346   2.459   4.326   1.068 -0.5994 -0.2265  0.2065
 4295SOL    HW124347   2.506   4.247   1.039  2.0771  2.1550 -1.9988
 4295SOL    HW224348   2.418   4.284   1.143 -0.2812  0.3050  0.6809
 4296SOL     OW24349   0.658   0.082   2.179 -0.0338  0.1641 -0.2916
 4296SOL    HW124350   0.620   0.069   2.092 -1.0666 -0.8394  0.3260
 4296SOL    HW224351   0.732   0.022   2.172  1.5627  2.0705  0.1840
 4297SOL     OW24352   2.076   1.835  16.623  0.2045  0.4223 -0.2130
 4297SOL    HW124353   2.081   1.931  16.620 -1.6569  0.5788  2.1722
 4297SOL    HW224354   2.170   1.819  16.615  0.9139  4.1660  0.5734
 4298SOL     OW24355   1.904   2.905   0.351  0.2304  0.1730 -0.3542
 4298SOL    HW124356   1.945   2.828   0.312 -0.4535 -0.9253  1.1095
 4298SOL    HW224357   1.954   2.968   0.298 -0.4261  1.2270  0.2873
 4299SOL     OW24358   2.877   2.298  14.998  0.2981  0.1256 -0.1664
 4299SOL    HW124359   2.878   2.365  15.066 -0.6457 -0.0682  0.0381
 4299SOL    HW224360   2.970   2.307  14.978  0.3451 -2.6492 -1.2045
 4300SOL     OW24361   0.324   2.544   3.424  0.2388 -0.3439 -0.5402
 4300SOL    HW124362   0.323   2.591   3.341 -0.5839 -0.2229 -0.4622
 4300SOL    HW224363   0.241   2.496   3.415 -0.0919  0.1448 -0.1005
 4301SOL     OW24364   2.297   4.514   4.848  0.2358  0.1825  0.5803
 4301SOL    HW124365   2.387   4.508   4.880  0.5745  1.8761 -0.0966
 4301SOL    HW224366   2.320   4.499   4.757 -0.9398  1.0373  0.1373
 4302SOL     OW24367   2.062   0.572  14.614  0.4028  0.2694 -0.0824
 4302SOL    HW124368   2.148   0.611  14.631  0.2516  0.2223  0.8128
 4302SOL    HW224369   2.059   0.577  14.519  0.1195  0.4078 -0.0649
 4303SOL     OW24370   4.192   4.440   1.092 -0.1438  0.3768  0.4085
 4303SOL    HW124371   4.220   4.531   1.102 -1.6838  1.0149 -0.8935
 4303SOL    HW224372   4.096   4.451   1.091 -0.2107 -0.2848 -1.1901
 4304SOL     OW24373   0.308   1.452   6.237 -0.3489 -0.3547  0.3325
 4304SOL    HW124374   0.398   1.483   6.245 -0.0358 -0.1789 -3.7772
 4304SOL    HW224375   0.333   1.377   6.183 -2.0437 -0.4837 -0.2733
 4305SOL     OW24376   2.030   4.558  17.012  0.2492  0.1176 -0.8876
 4305SOL    HW124377   1.942   4.520  17.017  0.2977 -0.0623 -1.5084
 4305SOL    HW224378   2.028   4.615  17.090  1.3162  1.7888 -2.0792
 4306SOL     OW24379   3.130   2.109   3.612 -0.0221  0.3185  0.0122
 4306SOL    HW124380   3.130   2.026   3.566  1.0870 -0.5667  1.6311
 4306SOL    HW224381   3.180   2.163   3.551  0.8316  2.4284  2.5272
 4307SOL     OW24382   0.287   2.035  13.544 -0.4297  0.5474 -0.3111
 4307SOL    HW124383   0.336   2.116  13.529  0.7682 -0.4680 -1.8719
 4307SOL    HW224384   0.295   1.990  13.460  1.4670  1.8832 -0.8351
 4308SOL     OW24385   1.382   0.288   0.948  0.1898 -0.0044  0.3604
 4308SOL    HW124386   1.298   0.328   0.969  0.8550  2.2160 -1.2490
 4308SOL    HW224387   1.437   0.363   0.927  2.2992 -1.7184 -0.2892
 4309SOL     OW24388   0.890   0.266  15.008 -0.4889 -0.1900 -0.0973
 4309SOL    HW124389   0.962   0.281  15.071  0.0837 -1.0820 -0.5315
 4309SOL    HW224390   0.875   0.345  14.957 -0.4142 -0.4797 -0.5615
 4310SOL     OW24391   2.406   1.453   1.762 -0.4869 -0.1904  0.1814
 4310SOL    HW124392   2.403   1.364   1.727  2.3830 -0.4576  0.6165
 4310SOL    HW224393   2.443   1.442   1.850  0.4621  2.0060  0.0507
 4311SOL     OW24394   0.063   3.073   5.568  0.0948 -0.0610 -0.2638
 4311SOL    HW124395   4.704   3.043   5.541  1.7090 -2.8742 -2.2221
 4311SOL    HW224396   0.044   3.159   5.607 -1.7335 -0.5670 -0.0673
 4312SOL     OW24397   1.732   1.542   5.097 -0.0097 -0.2144 -0.1552
 4312SOL    HW124398   1.733   1.515   5.005 -1.7546  2.2487 -0.8671
 4312SOL    HW224399   1.815   1.590   5.101  0.5878 -1.0615 -2.7727
 4313SOL     OW24400   2.918   1.726   6.960 -0.4257  0.2227 -0.2262
 4313SOL    HW124401   2.960   1.812   6.957 -0.4406  0.3035  2.0763
 4313SOL    HW224402   2.949   1.686   6.879  0.0384 -2.1763  1.1423
 4314SOL     OW24403   0.403   0.762   5.208 -0.3004 -0.6485 -0.0573
 4314SOL    HW124404   0.332   0.732   5.265  0.1161 -0.6371  0.4782
 4314SOL    HW224405   0.476   0.761   5.271  1.0715 -1.0657 -1.6409
 4315SOL     OW24406   1.266   1.758  15.138 -0.5658  0.0344  0.4861
 4315SOL    HW124407   1.299   1.728  15.053 -1.1205 -0.7883  0.5581
 4315SOL    HW224408   1.273   1.847  15.105 -1.3932  0.4976  1.6077
 4316SOL     OW24409   0.186   4.126  11.754 -0.1870  0.3789  0.0149
 4316SOL    HW124410   0.231   4.208  11.776 -1.5874  1.3058 -0.5112
 4316SOL    HW224411   0.132   4.115  11.833  1.2614 -0.6134  0.8488
 4317SOL     OW24412   3.690   0.468  16.729  0.0358  0.3081 -0.2535
 4317SOL    HW124413   3.734   0.544  16.767 -0.9753  1.0931 -0.6390
 4317SOL    HW224414   3.616   0.510  16.684 -1.0535 -0.0102  1.2295
 4318SOL     OW24415   1.278   4.229   7.951  0.0920  0.2378  0.1122
 4318SOL    HW124416   1.302   4.169   7.880 -1.7559  0.5714 -0.7719
 4318SOL    HW224417   1.288   4.167   8.023  2.0276  0.1091 -0.2507
 4319SOL     OW24418   0.873   4.633   8.529  0.8160  0.2663  0.2711
 4319SOL    HW124419   0.904   4.715   8.567 -0.6569  0.4693  1.0797
 4319SOL    HW224420   0.878   4.575   8.605  1.5995 -0.1638 -0.1185
 4320SOL     OW24421   1.475   2.921   8.026 -0.2327 -0.2599 -0.0833
 4320SOL    HW124422   1.530   2.853   7.987  0.7433  0.1683  0.5488
 4320SOL    HW224423   1.402   2.872   8.064 -0.0676  1.6216  2.6687
 4321SOL     OW24424   1.596   0.991   7.224 -0.4056  0.1646  0.2228
 4321SOL    HW124425   1.680   1.007   7.181  0.6488 -2.0844  1.4623
 4321SOL    HW224426   1.544   0.977   7.145  0.4500 -1.0094 -0.1262
 4322SOL     OW24427   4.481   2.189   8.131 -0.0819  0.5877 -0.0028
 4322SOL    HW124428   4.522   2.271   8.158  0.8586 -0.1422  0.8077
 4322SOL    HW224429   4.477   2.193   8.036  0.1150  0.4563 -0.0185
 4323SOL     OW24430   4.503   2.357   5.890  0.2207 -0.1991 -0.5055
 4323SOL    HW124431   4.524   2.420   5.960 -0.5413  1.7877 -2.0897
 4323SOL    HW224432   4.577   2.297   5.894  1.6288  1.6303  1.7013
 4324SOL     OW24433   2.311   3.302   7.507 -0.2041  0.5448 -0.5493
 4324SOL    HW124434   2.371   3.356   7.557 -1.1017  1.0403 -0.0024
 4324SOL    HW224435   2.238   3.363   7.504 -0.9754 -0.3377  0.1117
 4325SOL     OW24436   0.320   3.875   3.977 -0.1013  0.2623  0.6113
 4325SOL    HW124437   0.249   3.830   4.024 -0.4302  0.6812  0.5124
 4325SOL    HW224438   0.283   3.961   3.959  3.2698  1.2721 -1.4335
 4326SOL     OW24439   0.369   4.516   7.737  0.5098 -0.2949  0.0781
 4326SOL    HW124440   0.404   4.598   7.703 -1.3864  1.1041  1.5528
 4326SOL    HW224441   0.433   4.502   7.807  1.9295  2.3302 -0.6749
 4327SOL     OW24442   2.057   4.290  17.058 -0.4218  0.0987  0.0852
 4327SOL    HW124443   2.074   4.380  17.085  4.7673 -0.7744 -0.2128
 4327SOL    HW224444   1.965   4.282  17.081 -0.7821  0.9671 -1.0706
 4328SOL     OW24445   3.505   0.024   0.812 -0.1821  0.5847 -0.0007
 4328SOL    HW124446   3.577   0.084   0.829 -0.9073  1.0154  1.6004
 4328SOL    HW224447   3.480   0.052   0.723 -2.2222 -1.8416 -0.2022
 4329SOL     OW24448   1.310   0.529   4.801  0.1964  0.1597  0.5411
 4329SOL    HW124449   1.275   0.548   4.714  0.1613 -0.0890  0.5016
 4329SOL    HW224450   1.230   0.554   4.847 -1.0352  3.3147 -3.2734
 4330SOL     OW24451   3.199   0.380   7.742 -0.3036  0.2512  0.6507
 4330SOL    HW124452   3.201   0.458   7.796  0.3692  0.2477  0.6252
 4330SOL    HW224453   3.127   0.415   7.690 -0.3952 -0.9205 -0.0351
 4331SOL     OW24454   1.059   4.415   8.245 -0.2324  0.5400  0.4401
 4331SOL    HW124455   1.065   4.362   8.324 -1.1740 -0.8231 -0.4071
 4331SOL    HW224456   0.973   4.446   8.272 -0.3039  2.1920 -1.6211
 4332SOL     OW24457   0.991   1.231   2.007  0.0064  0.2256  0.1098
 4332SOL    HW124458   0.921   1.186   1.960 -0.1754  0.0400  0.5573
 4332SOL    HW224459   0.952   1.244   2.093 -1.9956  1.2702 -0.9484
 4333SOL     OW24460   0.484   1.791   3.687 -0.0131  0.0319 -0.2383
 4333SOL    HW124461   0.449   1.769   3.600 -1.5168 -2.1019  0.9145
 4333SOL    HW224462   0.467   1.885   3.697  1.2617  0.2644 -0.2775
 4334SOL     OW24463   0.127   0.273  17.603  0.4844 -0.6006  0.3171
 4334SOL    HW124464   0.106   0.224  17.523 -1.7627  0.1335  0.4724
 4334SOL    HW224465   0.078   0.220  17.666 -0.2457  0.9160  1.0010
 4335SOL     OW24466   2.003   2.776   2.089 -0.7925  0.0772 -0.0172
 4335SOL    HW124467   1.984   2.775   2.183  0.7273 -1.1365  0.2955
 4335SOL    HW224468   2.098   2.775   2.076 -0.8364  2.4290 -0.4493
 4336SOL     OW24469   4.307   2.720   4.736  0.0039  0.2647 -0.7964
 4336SOL    HW124470   4.303   2.711   4.831  0.3067  0.9771 -0.7151
 4336SOL    HW224471   4.222   2.760   4.717  0.1801  0.4049 -1.2923
 4337SOL     OW24472   2.854   0.852   0.432  0.2251  0.0008 -0.2900
 4337SOL    HW124473   2.889   0.910   0.499 -0.3688  2.6226 -2.2600
 4337SOL    HW224474   2.842   0.771   0.482 -0.4466 -0.3047 -0.9476
 4338SOL     OW24475   0.247   3.492   4.634  0.0960 -0.2506 -0.3758
 4338SOL    HW124476   0.234   3.426   4.702 -1.3003  0.6326  0.2141
 4338SOL    HW224477   0.302   3.566   4.659 -2.1315  1.4655 -0.5916
 4339SOL     OW24478   3.236   1.895   0.337 -0.3155  0.0288 -0.2993
 4339SOL    HW124479   3.241   1.808   0.377 -1.3678 -1.0081 -2.4193
 4339SOL    HW224480   3.148   1.892   0.300 -0.2266 -1.4689 -0.3727
 4340SOL     OW24481   3.756   4.321  14.507  0.0022  0.2386  0.0674
 4340SOL    HW124482   3.840   4.365  14.520  0.2354 -0.3432  0.5545
 4340SOL    HW224483   3.730   4.275  14.587  2.3933 -2.2469 -0.5878
 4341SOL     OW24484   4.314   3.307   4.199 -0.4787 -0.0222  0.0315
 4341SOL    HW124485   4.320   3.226   4.149 -0.4378 -0.3944  0.6471
 4341SOL    HW224486   4.388   3.279   4.252  0.0076 -0.3061 -0.7974
 4342SOL     OW24487   1.839   0.442   7.097  0.5833  0.3438 -0.0516
 4342SOL    HW124488   1.757   0.455   7.049  0.3936 -1.4581 -0.2073
 4342SOL    HW224489   1.812   0.462   7.187 -0.3849 -1.4174  0.0439
 4343SOL     OW24490   0.770   3.966  10.206 -0.5142  0.4177 -0.5895
 4343SOL    HW124491   0.809   4.028  10.145  0.2454  0.5942  0.0684
 4343SOL    HW224492   0.684   3.956  10.165 -1.0724  0.5977  0.5342
 4344SOL     OW24493   2.706   3.813   3.784  0.0880  0.4053  0.1879
 4344SOL    HW124494   2.686   3.837   3.694  0.2036  3.4922  1.0016
 4344SOL    HW224495   2.657   3.883   3.827 -1.1284  0.1305 -0.7209
 4345SOL     OW24496   2.379   4.367   7.812 -0.0743 -0.3219  0.8495
 4345SOL    HW124497   2.474   4.354   7.816  0.0572  0.3608 -0.0687
 4345SOL    HW224498   2.360   4.360   7.719 -0.6798  0.9607  0.8736
 4346SOL     OW24499   3.822   4.660  10.359  0.1943  0.1333 -0.0750
 4346SOL    HW124500   3.750   4.597  10.350 -0.1213  0.2942  1.3140
 4346SOL    HW224501   3.890   4.593  10.358 -1.5046 -1.6055  0.6205
 4347SOL     OW24502   0.225   3.853  10.679 -0.0551 -0.1491 -0.2154
 4347SOL    HW124503   0.260   3.906  10.607 -0.5157  2.7801  1.7586
 4347SOL    HW224504   0.203   3.766  10.645  1.4868 -0.8441  0.6107
 4348SOL     OW24505   4.378   1.873   8.445  0.2648 -0.5177  0.1654
 4348SOL    HW124506   4.440   1.942   8.423 -0.3750  0.6783  2.0478
 4348SOL    HW224507   4.405   1.841   8.531  1.1892 -2.4889 -0.8539
 4349SOL     OW24508   0.176   2.564   4.806 -0.2139  0.2381  0.1635
 4349SOL    HW124509   0.142   2.582   4.718 -0.3344 -0.9462 -0.0348
 4349SOL    HW224510   0.128   2.484   4.828  0.7196  0.1806  2.0238
 4350SOL     OW24511   4.136   0.113   8.772 -0.1108 -0.2540  0.2894
 4350SOL    HW124512   4.070   0.138   8.707  2.7460  0.9092 -2.1350
 4350SOL    HW224513   4.204   0.082   8.713  1.4876 -1.0501  2.5387
 4351SOL     OW24514   1.631   2.407   2.610  1.1102 -0.1770  0.6324
 4351SOL    HW124515   1.685   2.334   2.638 -1.2657 -1.3112  2.2966
 4351SOL    HW224516   1.622   2.398   2.515 -0.7402  0.2117  0.7637
 4352SOL     OW24517   4.153   4.705   4.527  0.4491  0.4209 -0.4683
 4352SOL    HW124518   4.225   4.722   4.588  1.1017 -0.1329 -1.0789
 4352SOL    HW224519   4.188   0.017   4.447  0.2469 -0.9464 -1.2426
 4353SOL     OW24520   3.931   4.391   0.782  0.2161 -0.0386  0.5766
 4353SOL    HW124521   4.002   4.329   0.802 -0.2313 -0.9484 -0.6888
 4353SOL    HW224522   3.915   4.444   0.860 -4.0737 -0.3924 -0.0823
 4354SOL     OW24523   0.117   2.122   5.497  0.1938 -0.1061 -0.8666
 4354SOL    HW124524   0.183   2.189   5.513 -0.4739  0.6917 -1.4301
 4354SOL    HW224525   0.144   2.057   5.562  1.2415 -0.2161 -1.4270
 4355SOL     OW24526   1.407   4.421   4.916 -0.1412 -0.4233  0.4318
 4355SOL    HW124527   1.436   4.445   5.004  0.4370  1.4428 -0.2596
 4355SOL    HW224528   1.312   4.419   4.925 -0.1275 -1.3060  0.4123
 4356SOL     OW24529   3.312   1.027   6.125 -0.1328 -0.1300  0.2616
 4356SOL    HW124530   3.284   0.990   6.209  1.5507  0.1495  0.9496
 4356SOL    HW224531   3.406   1.043   6.136 -0.2411  0.7164 -0.0590
 4357SOL     OW24532   1.304   3.796   5.462  0.1082 -0.9285 -0.1639
 4357SOL    HW124533   1.391   3.756   5.461  1.2093  1.3879  3.1792
 4357SOL    HW224534   1.320   3.881   5.423 -1.0490 -1.6059 -2.1051
 4358SOL     OW24535   1.163   3.446   9.131 -0.5986  0.4831  0.0815
 4358SOL    HW124536   1.202   3.380   9.075 -1.8689 -1.9236  2.0129
 4358SOL    HW224537   1.248   3.472   9.167 -0.4019  0.0181 -0.0554
 4359SOL     OW24538   1.306   4.251  10.497 -0.4736  0.3839  0.1526
 4359SOL    HW124539   1.274   4.336  10.468 -1.8599 -0.1292  0.1689
 4359SOL    HW224540   1.287   4.263  10.590  2.6548  3.3448  0.3951
 4360SOL     OW24541   1.518   4.352   3.517 -0.0781  0.0668 -0.4550
 4360SOL    HW124542   1.528   4.364   3.611 -0.2102 -0.4521 -0.3733
 4360SOL    HW224543   1.432   4.312   3.507  0.8493 -2.1389  0.2447
 4361SOL     OW24544   3.256   2.063  12.992  0.1252 -0.9680  0.1516
 4361SOL    HW124545   3.258   1.996  13.060  1.6020 -0.7503  0.3237
 4361SOL    HW224546   3.215   2.010  12.925 -0.0863 -0.4289 -0.1449
 4362SOL     OW24547   0.448   3.829  10.413 -0.6106 -0.3257 -0.2421
 4362SOL    HW124548   0.487   3.909  10.447 -0.3350 -0.7685  0.4910
 4362SOL    HW224549   0.359   3.862  10.405 -0.5407  0.2153  1.1863
 4363SOL     OW24550   1.976   4.491  13.467 -0.4231  0.0775  0.1814
 4363SOL    HW124551   2.022   4.546  13.403  0.7647 -0.9499  0.1462
 4363SOL    HW224552   1.889   4.499  13.427  0.1623  2.9610 -0.5095
 4364SOL     OW24553   2.393   4.134   9.158 -0.3260  0.5366 -0.3339
 4364SOL    HW124554   2.425   4.166   9.242 -1.1272  1.3717 -0.3488
 4364SOL    HW224555   2.384   4.040   9.175 -1.8220  0.5851 -0.9259
 4365SOL     OW24556   0.610   1.027   4.540  0.0287 -0.0862 -0.4930
 4365SOL    HW124557   0.668   1.093   4.504  0.5299 -0.5399 -0.5278
 4365SOL    HW224558   0.540   1.013   4.477  2.0462 -0.6902 -2.6025
 4366SOL     OW24559   0.300   1.619   6.609 -0.7451  0.7226  0.1228
 4366SOL    HW124560   0.327   1.622   6.701  0.4208 -0.7494 -0.1872
 4366SOL    HW224561   0.235   1.548   6.614 -0.0281  0.0263 -0.5942
 4367SOL     OW24562   0.644   3.293   8.075 -0.2522  0.2250  0.4174
 4367SOL    HW124563   0.594   3.212   8.074 -3.4465  2.2229 -0.9499
 4367SOL    HW224564   0.637   3.326   8.165  0.5602  0.6749  0.3127
 4368SOL     OW24565   3.479   1.864   3.634 -0.1066 -0.5894 -0.3912
 4368SOL    HW124566   3.529   1.782   3.636 -2.0488 -1.7922 -0.8251
 4368SOL    HW224567   3.501   1.894   3.546 -0.8221 -1.0683 -0.7339
 4369SOL     OW24568   0.121   2.786  10.927  0.1452 -0.5355  0.8597
 4369SOL    HW124569   0.092   2.796  11.018 -1.3495 -2.2468  0.5802
 4369SOL    HW224570   0.089   2.701  10.898 -1.5183  0.3491  0.0887
 4370SOL     OW24571   1.752   3.746   2.068 -0.2289  0.1508 -0.1558
 4370SOL    HW124572   1.673   3.731   2.120 -2.2335  0.5293 -3.0442
 4370SOL    HW224573   1.817   3.696   2.117  0.9271 -0.4964 -2.3397
 4371SOL     OW24574   4.687   0.807   5.380  0.2692  0.2351 -0.2198
 4371SOL    HW124575   4.665   0.796   5.472 -1.6711 -0.7583 -0.7938
 4371SOL    HW224576   4.602   0.807   5.335 -0.3652 -0.9386  0.9562
 4372SOL     OW24577   4.379   1.086   2.868 -0.0226  0.1018  0.2239
 4372SOL    HW124578   4.465   1.112   2.835 -0.8181  3.4195  0.8620
 4372SOL    HW224579   4.370   1.143   2.944  0.3675 -1.6421  1.5853
 4373SOL     OW24580   2.369   3.819  15.160  0.0454  0.1746  0.2217
 4373SOL    HW124581   2.345   3.908  15.133  1.9108  1.0719  1.4669
 4373SOL    HW224582   2.328   3.771  15.088  0.1302  0.4756 -0.0262
 4374SOL     OW24583   2.588   3.478   7.155 -0.1396 -0.1952  0.2843
 4374SOL    HW124584   2.591   3.386   7.180 -0.3074 -0.3433 -0.2195
 4374SOL    HW224585   2.599   3.478   7.060 -1.3948  1.9832  0.1286
 4375SOL     OW24586   1.996   3.985   0.586 -0.1552 -0.4286 -0.8703
 4375SOL    HW124587   2.065   3.921   0.604 -1.1835 -1.8104 -1.8934
 4375SOL    HW224588   2.010   4.042   0.661  0.7714 -1.9689  0.1289
 4376SOL     OW24589   4.190   3.805  11.383 -0.5186 -0.0369 -0.1630
 4376SOL    HW124590   4.265   3.860  11.406 -0.5907 -0.1104  0.2505
 4376SOL    HW224591   4.149   3.852  11.311  0.0537  1.6884  0.6324
 4377SOL     OW24592   3.388   2.976  12.377  0.8108 -1.1131  0.1481
 4377SOL    HW124593   3.432   3.055  12.346 -1.1119 -0.1438 -0.0935
 4377SOL    HW224594   3.427   2.910  12.320  1.3986  0.4073 -1.2210
 4378SOL     OW24595   0.928   0.124   8.671  0.2075 -0.3599 -0.1236
 4378SOL    HW124596   0.942   0.057   8.738  1.0010 -0.1309 -0.0722
 4378SOL    HW224597   0.842   0.152   8.704  0.5375  0.2498  0.1957
 4379SOL     OW24598   1.127   4.096  15.528 -0.1624 -0.3685  0.0210
 4379SOL    HW124599   1.088   4.009  15.523  4.1163 -2.2400  0.0096
 4379SOL    HW224600   1.057   4.146  15.572  0.8867  0.8520  0.3256
 4380SOL     OW24601   4.585   0.281   2.623 -0.4919  0.8184 -0.2740
 4380SOL    HW124602   4.620   0.355   2.574 -0.1729 -0.0505 -1.3759
 4380SOL    HW224603   4.625   0.211   2.571 -1.2518 -0.4184  0.7836
 4381SOL     OW24604   0.475   3.053   6.591  0.7104  0.3939 -0.1621
 4381SOL    HW124605   0.538   3.025   6.657 -0.5137 -1.3628  0.2791
 4381SOL    HW224606   0.462   2.971   6.543 -0.9097 -0.3221  1.4909
 4382SOL     OW24607   1.264   4.241   5.629 -0.2688 -0.1442 -0.8318
 4382SOL    HW124608   1.180   4.282   5.648  1.1050  1.7545  1.2688
 4382SOL    HW224609   1.323   4.313   5.655 -0.1496 -0.2237 -0.8861
 4383SOL     OW24610   0.704   2.030   6.931  0.4622  0.1261 -0.8682
 4383SOL    HW124611   0.624   2.057   6.885  0.8197 -0.3670 -1.7829
 4383SOL    HW224612   0.748   2.114   6.942 -1.9196  1.0639  1.6340
 4384SOL     OW24613   3.589   0.340   4.238 -0.5413 -0.2504 -0.1188
 4384SOL    HW124614   3.657   0.288   4.195 -0.0171 -0.8680  1.4665
 4384SOL    HW224615   3.573   0.287   4.316  1.4019  0.2005  0.5755
 4385SOL     OW24616   2.029   0.633   6.952 -0.1063 -0.3088 -0.3229
 4385SOL    HW124617   2.054   0.587   6.871  0.6754  1.9701 -1.3809
 4385SOL    HW224618   2.003   0.559   7.007 -2.8141  1.7735  1.1692
 4386SOL     OW24619   1.266   1.430   6.479  0.1450  0.7884 -0.6264
 4386SOL    HW124620   1.248   1.336   6.474  0.3668  0.7136  0.0286
 4386SOL    HW224621   1.337   1.432   6.543 -1.0992 -0.5836  0.8100
 4387SOL     OW24622   0.199   0.031   9.989 -0.3346  0.2038 -0.1209
 4387SOL    HW124623   0.275   4.723  10.034 -1.4973 -1.5863  0.4053
 4387SOL    HW224624   0.221   0.021   9.896 -1.9767  1.5331 -0.6568
 4388SOL     OW24625   3.706   3.917   0.778  0.7350  0.1861 -0.2676
 4388SOL    HW124626   3.780   3.919   0.717 -0.0677 -0.6836 -1.2707
 4388SOL    HW224627   3.634   3.934   0.717 -0.6265 -1.6239  0.8456
 4389SOL     OW24628   4.378   2.994   4.570  0.5987 -0.2703 -0.0807
 4389SOL    HW124629   4.443   3.045   4.618  1.0716  0.0792 -1.0980
 4389SOL    HW224630   4.306   2.994   4.633  1.5710 -0.6993  1.0444
 4390SOL     OW24631   3.198   2.294   6.023  0.0006  0.2206  0.2367
 4390SOL    HW124632   3.187   2.294   5.928  1.4270 -2.0495  0.0847
 4390SOL    HW224633   3.116   2.245   6.038 -0.2665  0.7548  0.5252
 4391SOL     OW24634   4.186   3.815   4.848  0.3759  0.3414 -0.0167
 4391SOL    HW124635   4.133   3.790   4.923  1.4160 -0.2728  0.5223
 4391SOL    HW224636   4.244   3.885   4.878  0.7886  0.5363 -1.2377
 4392SOL     OW24637   0.313   2.259   1.528 -0.1445 -0.5532  0.6779
 4392SOL    HW124638   0.322   2.172   1.491  0.6366  0.5043 -1.5806
 4392SOL    HW224639   0.266   2.228   1.605 -0.3798  0.0800  0.7925
 4393SOL     OW24640   2.535   0.182   3.661  0.5694  0.4269 -0.0364
 4393SOL    HW124641   2.534   0.167   3.755  1.8384 -1.0947 -0.2730
 4393SOL    HW224642   2.552   0.274   3.644  0.2021  0.3470 -0.8737
 4394SOL     OW24643   3.092   3.616  12.782 -0.2738 -0.7397 -0.0321
 4394SOL    HW124644   3.121   3.610  12.691 -1.5284 -0.7637 -0.4297
 4394SOL    HW224645   3.002   3.647  12.774 -0.7650 -1.9610  0.7901
 4395SOL     OW24646   2.164   4.512  10.310 -0.4543 -0.1393 -0.3028
 4395SOL    HW124647   2.233   4.445  10.304 -1.4308 -1.2659  1.0159
 4395SOL    HW224648   2.212   4.580  10.357 -1.1556  0.7794 -0.9387
 4396SOL     OW24649   4.115   0.419   4.939  0.2692 -0.4054  0.0804
 4396SOL    HW124650   4.068   0.365   5.003 -0.9851  0.1282 -0.4170
 4396SOL    HW224651   4.120   0.355   4.868 -0.1271 -2.3314  1.7689
 4397SOL     OW24652   4.501   0.768   2.363 -0.7848  0.4272 -0.3614
 4397SOL    HW124653   4.472   0.754   2.273  0.5158  0.0479 -0.7264
 4397SOL    HW224654   4.418   0.738   2.399  0.1092 -0.9460  0.5644
 4398SOL     OW24655   4.259   3.415   3.109  0.1949 -0.2402  0.1197
 4398SOL    HW124656   4.221   3.496   3.074 -0.4375 -0.8731 -0.6837
 4398SOL    HW224657   4.253   3.443   3.200 -0.4350 -1.4532  0.4568
 4399SOL     OW24658   3.741   4.578   5.145  1.0244 -0.2397 -0.2989
 4399SOL    HW124659   3.813   4.634   5.118 -0.3965  3.0161  2.6877
 4399SOL    HW224660   3.679   4.600   5.075  0.6790  2.2418  0.7956
 4400SOL     OW24661   3.847   0.791   7.890 -0.5919 -0.1734 -0.3688
 4400SOL    HW124662   3.814   0.747   7.969  0.1665 -0.8603 -0.4448
 4400SOL    HW224663   3.777   0.856   7.883 -1.3500 -1.2705 -2.8071
 4401SOL     OW24664   4.290   1.949  13.841  0.3009 -0.0811  0.5372
 4401SOL    HW124665   4.339   1.901  13.774 -0.7449  0.9530 -0.9455
 4401SOL    HW224666   4.359   2.009  13.870  0.8885  0.2082 -1.5064
 4402SOL     OW24667   3.147   0.907   8.379 -0.6208 -0.1122 -0.2843
 4402SOL    HW124668   3.187   0.888   8.294 -0.7679  1.8056 -0.7863
 4402SOL    HW224669   3.197   0.986   8.399 -1.5617  1.2296 -3.2155
 4403SOL     OW24670   2.630   3.073   3.265 -0.7411  0.7739  0.5492
 4403SOL    HW124671   2.603   3.050   3.354 -2.9887 -0.3665 -0.4129
 4403SOL    HW224672   2.613   3.167   3.259 -1.5525  0.6460  0.8302
 4404SOL     OW24673   1.861   2.732   1.629 -0.3360 -0.3934  0.0581
 4404SOL    HW124674   1.871   2.719   1.535  0.1645 -1.0537  0.2045
 4404SOL    HW224675   1.800   2.806   1.633 -1.4176 -1.3170  0.7861
 4405SOL     OW24676   1.832   3.749   8.231 -0.1663  0.2554 -0.0058
 4405SOL    HW124677   1.916   3.759   8.186 -0.5137  1.8690 -0.3022
 4405SOL    HW224678   1.855   3.694   8.305 -1.0819  2.0508  1.6249
 4406SOL     OW24679   1.087   3.038   9.675  0.1833  0.1055  0.7337
 4406SOL    HW124680   1.003   3.084   9.672 -0.3416 -0.7937  1.6255
 4406SOL    HW224681   1.117   3.046   9.585 -0.0913 -1.2064  0.5347
 4407SOL     OW24682   2.435   4.168   3.546 -0.4283  0.1489 -0.3587
 4407SOL    HW124683   2.376   4.230   3.588 -1.2899 -0.2723 -0.9491
 4407SOL    HW224684   2.509   4.227   3.529 -1.2897  0.8454 -1.6959
 4408SOL     OW24685   4.016   3.606   2.612 -0.4903 -0.2503  0.1951
 4408SOL    HW124686   3.997   3.515   2.590  0.6375 -0.3825 -0.2620
 4408SOL    HW224687   4.094   3.587   2.664 -1.5118  3.3758  3.0168
 4409SOL     OW24688   1.766   2.399  11.093 -0.2323  0.0857 -0.1353
 4409SOL    HW124689   1.677   2.402  11.126 -0.7624 -2.9448 -1.2970
 4409SOL    HW224690   1.759   2.467  11.026 -1.2004  0.9582  0.8659
 4410SOL     OW24691   1.239   1.508   8.386 -0.4390  0.3027 -0.4564
 4410SOL    HW124692   1.300   1.486   8.456 -0.5314 -2.6844 -1.3292
 4410SOL    HW224693   1.232   1.604   8.387  0.1987  0.3669 -2.5880
 4411SOL     OW24694   3.765   1.069   5.433 -0.7742  0.5941 -0.1614
 4411SOL    HW124695   3.809   1.066   5.518 -0.3713 -1.2439 -0.4388
 4411SOL    HW224696   3.703   1.137   5.458  1.6266  2.9535 -0.5637
 4412SOL     OW24697   2.333   0.051   2.477 -1.0175 -0.7899 -0.4752
 4412SOL    HW124698   2.424   0.047   2.506 -1.3915 -1.1646  0.6389
 4412SOL    HW224699   2.343   0.144   2.457 -0.3282 -0.4311  1.5472
 4413SOL     OW24700   3.744   0.576  11.232 -0.3099  0.2492  0.1608
 4413SOL    HW124701   3.776   0.628  11.306  1.0572 -1.3620  0.7120
 4413SOL    HW224702   3.770   0.606  11.145  1.4952  0.0411  0.6206
 4414SOL     OW24703   4.338   1.793  16.243 -0.4728 -0.3141 -0.8547
 4414SOL    HW124704   4.299   1.879  16.255 -2.3272 -0.7718 -3.6948
 4414SOL    HW224705   4.269   1.737  16.278  1.4947 -0.5164  2.6941
 4415SOL     OW24706   3.302   1.869   2.151 -0.1989 -0.1744  0.1706
 4415SOL    HW124707   3.268   1.809   2.084 -0.9189  0.7916 -0.3186
 4415SOL    HW224708   3.346   1.940   2.105 -0.0158 -1.2777 -1.3555
 4416SOL     OW24709   2.135   1.997   2.139 -0.4156  0.1037 -0.8470
 4416SOL    HW124710   2.190   2.039   2.205 -0.2246  0.4327 -1.2225
 4416SOL    HW224711   2.198   1.993   2.068  0.4239 -1.5941 -0.0027
 4417SOL     OW24712   0.990   3.491   5.022 -0.6119  0.4737 -0.5071
 4417SOL    HW124713   1.038   3.531   5.094 -1.7568  0.1518  0.4455
 4417SOL    HW224714   0.908   3.541   5.031 -2.1869 -2.0762 -0.7764
 4418SOL     OW24715   0.812   0.075  10.733 -0.4896 -0.1385 -0.4558
 4418SOL    HW124716   0.853   0.122  10.661 -2.3037  0.4036 -1.1220
 4418SOL    HW224717   0.886   0.063  10.793  0.0140  0.9945 -0.8423
 4419SOL     OW24718   3.952   2.774   1.441  0.5731  0.2405  0.2942
 4419SOL    HW124719   3.994   2.703   1.393  2.1428  1.0815  0.3939
 4419SOL    HW224720   3.914   2.726   1.514 -0.0381 -0.3125 -0.3988
 4420SOL     OW24721   3.744   0.687   9.930  0.7013  0.4821  0.3588
 4420SOL    HW124722   3.743   0.656  10.021 -0.2817  1.0632  0.5583
 4420SOL    HW224723   3.808   0.757   9.938  0.6261  0.4580  1.2068
 4421SOL     OW24724   0.673   0.403  13.165 -0.1797  0.6062  0.2616
 4421SOL    HW124725   0.679   0.321  13.116  1.2490  0.9024 -0.0652
 4421SOL    HW224726   0.644   0.457  13.091 -0.9229  0.3460  0.3571
 4422SOL     OW24727   2.090   1.184   8.543  0.3129 -0.5825 -0.0843
 4422SOL    HW124728   2.077   1.276   8.520  1.7570 -0.2816  0.3215
 4422SOL    HW224729   2.091   1.146   8.455  2.1459  0.6601 -0.5977
 4423SOL     OW24730   3.532   2.069   6.577 -0.3011 -0.0327 -0.2688
 4423SOL    HW124731   3.473   2.009   6.623  0.1856 -0.4046 -0.1305
 4423SOL    HW224732   3.620   2.045   6.607 -1.0056 -0.5658  1.4099
 4424SOL     OW24733   3.903   4.019   7.232 -0.2838 -0.0370  0.4566
 4424SOL    HW124734   3.978   4.048   7.181 -0.6177  1.4596  0.8350
 4424SOL    HW224735   3.932   3.928   7.241  1.4730  0.5808  0.9641
 4425SOL     OW24736   0.001   3.136   6.809  0.0106  0.4442  0.1468
 4425SOL    HW124737   4.704   3.123   6.717  0.8611 -0.9814  0.1231
 4425SOL    HW224738   4.681   3.067   6.854 -1.6258  1.9128  0.6935
 4426SOL     OW24739   1.031   0.132  16.768  0.3880  0.4900 -1.0795
 4426SOL    HW124740   0.936   0.123  16.769  0.3398  1.3475  0.2770
 4426SOL    HW224741   1.057   0.130  16.860  1.2257 -0.2092 -1.3261
 4427SOL     OW24742   2.897   1.081   8.180 -0.0855  0.1108  0.0383
 4427SOL    HW124743   2.822   1.137   8.199  0.2955  0.7060 -0.2286
 4427SOL    HW224744   2.972   1.123   8.222  0.4269  1.8503 -2.7017
 4428SOL     OW24745   4.475   1.544   2.677 -0.6967  0.2838  0.0180
 4428SOL    HW124746   4.501   1.511   2.590  0.3178 -1.7077  1.0715
 4428SOL    HW224747   4.526   1.625   2.677  1.2041 -0.9221  2.7024
 4429SOL     OW24748   2.585   2.830   2.235  0.3509  0.3623 -0.0690
 4429SOL    HW124749   2.620   2.913   2.202  0.7122 -0.7926 -2.6184
 4429SOL    HW224750   2.636   2.817   2.315  0.4999  2.4742  0.1924
 4430SOL     OW24751   3.930   1.404  17.630  0.3327  0.7374 -0.6968
 4430SOL    HW124752   4.004   1.451  17.670  1.9786 -2.2421 -0.2482
 4430SOL    HW224753   3.963   1.319  17.603  2.4929  1.2870  0.1830
 4431SOL     OW24754   4.058   1.712  15.766  0.5633 -0.1232  0.0310
 4431SOL    HW124755   3.990   1.727  15.832  1.4112  0.1555  0.8336
 4431SOL    HW224756   4.143   1.722  15.809 -0.4576  1.5920  1.6513
 4432SOL     OW24757   0.395   2.741   6.727 -0.3556 -0.2640 -0.1059
 4432SOL    HW124758   0.460   2.797   6.769  0.9887 -1.2532 -0.8687
 4432SOL    HW224759   0.439   2.737   6.642  0.3949  0.8276  0.2477
 4433SOL     OW24760   0.828   1.656   6.016  0.3311  0.1219 -0.0624
 4433SOL    HW124761   0.821   1.746   5.985  0.1607 -0.4192 -1.6051
 4433SOL    HW224762   0.747   1.613   5.986  0.1937  0.5625 -0.3230
 4434SOL     OW24763   4.267   3.977   1.030 -0.1323 -0.4537 -0.1676
 4434SOL    HW124764   4.295   3.926   0.953 -0.6615 -2.0831  0.7074
 4434SOL    HW224765   4.241   3.900   1.080 -0.6999 -0.4407 -0.4423
 4435SOL     OW24766   2.477   1.414   5.393 -0.3283 -0.3422  0.2059
 4435SOL    HW124767   2.475   1.417   5.489 -0.4585 -3.7398  0.3109
 4435SOL    HW224768   2.545   1.473   5.363  0.1478  0.0664  2.1267
 4436SOL     OW24769   3.241   0.382  13.908  0.4671  0.2587 -0.3016
 4436SOL    HW124770   3.331   0.377  13.940  0.2159 -1.0057  0.1857
 4436SOL    HW224771   3.210   0.305  13.954 -1.3927  1.5498  0.5879
 4437SOL     OW24772   1.261   4.505   6.992 -0.1184 -0.6155 -0.5029
 4437SOL    HW124773   1.252   4.586   6.942  0.4721 -0.5038 -0.4237
 4437SOL    HW224774   1.307   4.449   6.930  0.0652  0.4720 -1.3457
 4438SOL     OW24775   0.856   4.532   7.784 -0.1372 -0.1462  0.3152
 4438SOL    HW124776   0.851   4.500   7.694  1.0553  1.9707 -0.4916
 4438SOL    HW224777   0.940   4.501   7.816  0.3132 -0.1749 -0.8903
 4439SOL     OW24778   2.589   1.925   4.269 -0.3150 -0.5343  0.1100
 4439SOL    HW124779   2.535   1.877   4.332 -0.8006 -2.5071 -1.8304
 4439SOL    HW224780   2.598   1.860   4.200  1.3679 -1.0434  0.8313
 4440SOL     OW24781   1.337   2.450   3.559  0.4063 -0.0604 -0.0781
 4440SOL    HW124782   1.245   2.474   3.556  0.3822 -0.3098 -1.4126
 4440SOL    HW224783   1.337   2.355   3.564  0.4557 -0.0442  0.2696
 4441SOL     OW24784   4.589   3.661   8.088 -0.0637  0.4771  0.0140
 4441SOL    HW124785   4.622   3.572   8.100  0.8946  1.0622  1.8113
 4441SOL    HW224786   4.592   3.669   7.993 -0.9406  0.1279 -0.0434
 4442SOL     OW24787   3.726   2.682  10.002 -0.7691  0.5673  0.0161
 4442SOL    HW124788   3.637   2.663  10.032 -0.5183 -0.3838  0.1354
 4442SOL    HW224789   3.767   2.738  10.067 -0.2000 -0.8134  0.8355
 4443SOL     OW24790   3.890   3.201   1.591  0.0942  0.2809 -0.3995
 4443SOL    HW124791   3.816   3.144   1.613 -0.1592 -0.6516 -3.5725
 4443SOL    HW224792   3.949   3.137   1.551  2.0802  1.6061  0.4138
 4444SOL     OW24793   0.502   3.105   4.750 -0.5896  0.2227  0.0610
 4444SOL    HW124794   0.439   3.066   4.811 -1.5895 -1.4159 -2.0270
 4444SOL    HW224795   0.549   3.163   4.810 -0.8232  0.5702 -0.0900
 4445SOL     OW24796   2.314   2.639   3.057  0.2500  0.0680  0.3962
 4445SOL    HW124797   2.391   2.582   3.066  0.4342  0.3111  0.3498
 4445SOL    HW224798   2.296   2.628   2.964 -0.2456  0.5470  0.4373
 4446SOL     OW24799   2.238   0.429  16.139  0.2888 -0.1836  0.0311
 4446SOL    HW124800   2.192   0.346  16.126  1.2042 -0.4006 -1.7980
 4446SOL    HW224801   2.245   0.444  16.045 -0.3473 -0.2755 -0.0290
 4447SOL     OW24802   4.030   4.122   9.060 -0.0118 -0.0649  0.2311
 4447SOL    HW124803   4.010   4.063   8.987 -0.1112 -0.2322  0.3949
 4447SOL    HW224804   4.088   4.075   9.120  0.4069  2.6197  1.9256
 4448SOL     OW24805   2.712   4.152   2.598  0.0905 -0.1029 -0.0888
 4448SOL    HW124806   2.671   4.152   2.511  0.6975  0.6032 -0.3719
 4448SOL    HW224807   2.637   4.122   2.649 -0.2789 -1.5334 -1.4711
 4449SOL     OW24808   0.123   4.646   7.367  0.1471 -0.0495  0.1094
 4449SOL    HW124809   0.075   4.571   7.334 -0.1602 -0.1314  0.7440
 4449SOL    HW224810   0.151   4.684   7.284  1.7769 -1.2478  0.1072
 4450SOL     OW24811   0.674   3.686   9.397  0.5187 -0.2772  0.3544
 4450SOL    HW124812   0.766   3.663   9.411  0.4465 -1.5074 -1.2065
 4450SOL    HW224813   0.669   3.757   9.461 -0.0926  1.5357 -1.7082
 4451SOL     OW24814   1.102   3.224   6.482  0.0463 -0.0505  0.1595
 4451SOL    HW124815   1.104   3.314   6.513  0.3777  0.8963 -2.5985
 4451SOL    HW224816   1.127   3.185   6.566  0.3689 -1.1808 -0.4542
 4452SOL     OW24817   2.260   2.595   9.764 -0.7576  0.0989 -0.4732
 4452SOL    HW124818   2.355   2.598   9.777 -0.9152 -0.4118  0.7558
 4452SOL    HW224819   2.239   2.516   9.814 -1.2273  0.4490 -0.1206
 4453SOL     OW24820   1.782   1.903   0.969  0.3300 -0.5342  0.0461
 4453SOL    HW124821   1.728   1.874   1.042  1.6391  1.2194  1.6981
 4453SOL    HW224822   1.731   1.897   0.888  0.3084 -1.7378  0.1474
 4454SOL     OW24823   2.183   3.711  16.729  0.1329 -0.4233  0.4157
 4454SOL    HW124824   2.196   3.800  16.695  0.3913 -1.4587 -2.2336
 4454SOL    HW224825   2.167   3.749  16.815 -0.0427 -0.7909  0.5429
 4455SOL     OW24826   2.756   1.644   2.854  0.0998  0.3345 -0.2266
 4455SOL    HW124827   2.722   1.603   2.933 -2.2441  1.2722 -0.7552
 4455SOL    HW224828   2.678   1.666   2.803  0.8946 -1.6675 -2.3268
 4456SOL     OW24829   2.535   1.031   4.176 -0.0521 -0.0747 -0.2671
 4456SOL    HW124830   2.473   0.987   4.117 -0.8350  0.6912 -0.0141
 4456SOL    HW224831   2.504   1.121   4.170  1.8900  0.6577  0.8371
 4457SOL     OW24832   1.992   0.406  10.720  0.7189  0.5664 -0.1539
 4457SOL    HW124833   1.931   0.336  10.744  1.3941 -0.1793 -0.6018
 4457SOL    HW224834   1.946   0.461  10.657 -2.2819 -2.7807 -0.8770
 4458SOL     OW24835   1.022   4.677   8.076 -0.4891 -0.1078  0.1620
 4458SOL    HW124836   0.993   0.030   8.120  0.0147 -1.2248  2.5196
 4458SOL    HW224837   1.033   4.611   8.144  1.9580 -0.6923 -0.7942
 4459SOL     OW24838   0.322   3.167   5.611 -0.8531 -0.0105 -1.0306
 4459SOL    HW124839   0.236   3.126   5.604 -1.1329  0.2645  1.0768
 4459SOL    HW224840   0.314   3.211   5.695  0.2239 -1.2674 -0.2772
 4460SOL     OW24841   0.499   3.501   7.596 -0.0237 -0.2071  0.1132
 4460SOL    HW124842   0.586   3.526   7.627 -0.2535 -0.3817  0.9110
 4460SOL    HW224843   0.443   3.542   7.661 -0.4318  0.9866 -1.0037
 4461SOL     OW24844   4.083   0.375   8.933  0.0691  0.0489 -0.7129
 4461SOL    HW124845   4.069   0.289   8.892 -1.9101 -0.2533  0.6059
 4461SOL    HW224846   4.062   0.362   9.025  0.4923  2.0556 -0.3405
 4462SOL     OW24847   3.254   3.829   8.788 -0.3677  0.3984 -0.4758
 4462SOL    HW124848   3.216   3.828   8.876  4.0435  0.9364  1.4367
 4462SOL    HW224849   3.325   3.890   8.806  0.1427 -0.4423  0.3489
 4463SOL     OW24850   1.449   4.478   5.180  0.1073 -0.0687 -0.7134
 4463SOL    HW124851   1.471   4.385   5.172  3.8380  0.5754  2.1836
 4463SOL    HW224852   1.528   4.504   5.226 -0.7810 -0.3090  0.9701
 4464SOL     OW24853   2.887   4.259  16.885 -0.0831 -0.2547 -0.5299
 4464SOL    HW124854   2.864   4.347  16.913 -2.0223 -0.5525 -1.2089
 4464SOL    HW224855   2.982   4.251  16.880  0.0595  1.4983 -0.2939
 4465SOL     OW24856   3.519   1.638   8.926  0.1533  0.0797  0.1570
 4465SOL    HW124857   3.466   1.634   9.006  0.8607 -0.6218  0.5994
 4465SOL    HW224858   3.496   1.714   8.873  0.1053 -0.2391 -0.2792
 4466SOL     OW24859   3.084   3.362   2.102 -0.1760  0.6823  0.1556
 4466SOL    HW124860   2.991   3.382   2.106 -0.5206 -0.6682 -1.6373
 4466SOL    HW224861   3.128   3.440   2.066  0.5162  0.4498  0.4957
 4467SOL     OW24862   4.332   2.340   9.201  0.3091 -0.0382 -0.0979
 4467SOL    HW124863   4.302   2.383   9.120  2.0655  0.3934 -0.5190
 4467SOL    HW224864   4.264   2.274   9.211 -0.8437  1.0223 -0.8950
 4468SOL     OW24865   0.677   2.057  13.319 -0.8501 -0.1931  0.6282
 4468SOL    HW124866   0.694   2.151  13.317 -3.7682  0.3358  0.7595
 4468SOL    HW224867   0.682   2.030  13.410 -0.1235  1.2249  1.0027
 4469SOL     OW24868   0.440   4.718   5.223 -0.8819  0.1623 -0.2836
 4469SOL    HW124869   0.390   0.013   5.301 -1.0782  1.4832 -0.8041
 4469SOL    HW224870   0.529   4.694   5.249 -1.5326 -2.3978 -0.3580
 4470SOL     OW24871   0.360   0.266   5.958 -0.2816 -0.1050 -0.2278
 4470SOL    HW124872   0.311   0.185   5.972 -0.9206  0.4093  0.5640
 4470SOL    HW224873   0.352   0.299   6.048 -1.0212 -0.0902 -0.2952
 4471SOL     OW24874   4.447   4.302   4.813 -0.0205 -0.0777  0.0051
 4471SOL    HW124875   4.446   4.395   4.835  1.2526  0.4031 -1.9945
 4471SOL    HW224876   4.395   4.297   4.733 -1.0060  0.0386  0.6355
 4472SOL     OW24877   3.695   0.396   6.804 -0.2264  0.4840  0.3317
 4472SOL    HW124878   3.695   0.315   6.753  0.8926  0.5573  0.2116
 4472SOL    HW224879   3.660   0.448   6.731 -1.4503 -0.3548  0.3272
 4473SOL     OW24880   2.842   0.044   8.707 -0.0750  0.0631 -0.1646
 4473SOL    HW124881   2.752   0.075   8.700 -0.1517 -0.6606 -2.4376
 4473SOL    HW224882   2.888   0.125   8.730  2.0633 -0.6152 -2.0605
 4474SOL     OW24883   0.083   0.136   2.221 -0.7677  0.3324 -0.3759
 4474SOL    HW124884   0.023   0.136   2.296  1.0606 -1.5735  1.0530
 4474SOL    HW224885   0.066   0.046   2.194 -0.2202 -0.1554  0.9422
 4475SOL     OW24886   4.430   4.121  15.055 -0.2169 -0.2767 -0.3188
 4475SOL    HW124887   4.479   4.067  15.118 -0.0861 -0.8396 -0.9048
 4475SOL    HW224888   4.349   4.071  15.049 -1.1721  1.5385 -2.3209
 4476SOL     OW24889   2.534   3.849   7.831  0.3206  0.5159  0.1241
 4476SOL    HW124890   2.610   3.876   7.882  0.9796 -1.6018  0.2289
 4476SOL    HW224891   2.576   3.792   7.766 -0.1711  1.1394 -0.7449
 4477SOL     OW24892   3.440   2.301   1.780 -0.3005  0.0261  0.1641
 4477SOL    HW124893   3.462   2.209   1.762  0.3813 -0.2433  2.3276
 4477SOL    HW224894   3.518   2.349   1.752  0.7021  0.1563  3.1839
 4478SOL     OW24895   1.515   2.966   2.437 -0.8244  0.5853  0.2393
 4478SOL    HW124896   1.585   3.004   2.491 -1.8168  1.7118  0.7310
 4478SOL    HW224897   1.556   2.977   2.351 -0.0508 -0.4930  0.4676
 4479SOL     OW24898   0.633   3.494   3.471 -0.3195  0.3368 -0.3673
 4479SOL    HW124899   0.558   3.553   3.465 -0.1478  0.5170 -0.7789
 4479SOL    HW224900   0.705   3.546   3.434 -0.5420 -0.7245 -2.2564
 4480SOL     OW24901   3.440   0.328   2.314 -0.2781  0.1601 -0.5076
 4480SOL    HW124902   3.442   0.418   2.282  0.6600  0.6514  0.9492
 4480SOL    HW224903   3.359   0.338   2.364  0.0004 -1.8498  0.3438
 4481SOL     OW24904   2.779   1.586   8.064  0.2094  0.2625  0.7112
 4481SOL    HW124905   2.780   1.643   7.987 -1.0212 -0.0234  0.4888
 4481SOL    HW224906   2.809   1.652   8.127  0.8532  2.4874 -1.9400
 4482SOL     OW24907   0.704   2.715   8.028 -0.0549 -0.4984 -0.1010
 4482SOL    HW124908   0.734   2.630   8.062 -2.2848  0.1272  3.5095
 4482SOL    HW224909   0.785   2.761   8.006  0.8562 -1.1220  1.9058
 4483SOL     OW24910   3.290   3.849  14.149  0.3709 -0.1746  0.1400
 4483SOL    HW124911   3.247   3.827  14.232 -0.0581 -2.1943 -0.6216
 4483SOL    HW224912   3.213   3.859  14.093  1.1121  1.3822 -0.5897
 4484SOL     OW24913   3.076   3.393   6.541 -0.1071 -0.0122 -0.0306
 4484SOL    HW124914   3.121   3.475   6.564 -1.4169  0.3817  1.0889
 4484SOL    HW224915   3.071   3.403   6.446  0.8105  1.6242  0.0907
 4485SOL     OW24916   2.435   3.912  16.935 -0.0771  0.0553 -0.0000
 4485SOL    HW124917   2.357   3.859  16.917  0.2201  0.1116 -1.4918
 4485SOL    HW224918   2.461   3.938  16.847  3.2973  0.2665  1.0776
 4486SOL     OW24919   4.330   3.654   7.085 -0.1691 -0.4641  0.0565
 4486SOL    HW124920   4.322   3.578   7.143 -0.7262 -0.6605 -0.2777
 4486SOL    HW224921   4.290   3.624   7.004 -2.0346 -1.0888  1.1950
 4487SOL     OW24922   3.562   2.285   4.453  0.1892 -0.5416 -0.2343
 4487SOL    HW124923   3.511   2.235   4.389  1.6911 -2.4196  0.0089
 4487SOL    HW224924   3.497   2.334   4.503 -0.7649 -2.8892  0.8622
 4488SOL     OW24925   4.257   1.226   3.730 -0.0754 -0.1805 -0.8592
 4488SOL    HW124926   4.173   1.189   3.703 -0.0073 -0.9140 -0.0653
 4488SOL    HW224927   4.218   1.311   3.750  0.1694 -0.3396  0.3234
 4489SOL     OW24928   4.444   2.740   3.002 -0.4245 -0.1363  0.2571
 4489SOL    HW124929   4.529   2.699   2.989  0.1601  1.2666 -0.3057
 4489SOL    HW224930   4.463   2.816   3.057  1.7893  0.3537 -1.1919
 4490SOL     OW24931   4.487   3.458   2.690  0.4779 -0.0968 -0.1721
 4490SOL    HW124932   4.529   3.407   2.760  0.4065  0.5739  0.3571
 4490SOL    HW224933   4.560   3.508   2.654  1.5607  0.0175  2.1552
 4491SOL     OW24934   1.710   2.933   6.724  0.0589  0.1430  0.0221
 4491SOL    HW124935   1.649   2.877   6.772 -1.2309  1.8387  0.3593
 4491SOL    HW224936   1.768   2.953   6.798 -0.8490 -1.3340  1.1441
 4492SOL     OW24937   1.086   3.947   8.014  0.3843 -0.0700 -0.2389
 4492SOL    HW124938   1.077   4.012   8.084  2.5970  0.5661 -0.5368
 4492SOL    HW224939   1.075   4.009   7.942  2.2541 -0.1474 -0.6061
 4493SOL     OW24940   1.012   0.075  11.525  0.1751  0.2079  0.0933
 4493SOL    HW124941   1.099   0.037  11.519  0.3444  0.9145 -1.9502
 4493SOL    HW224942   1.020   0.170  11.516  0.2483  0.2247  0.3431
 4494SOL     OW24943   0.141   0.638   2.813 -0.1200 -0.1143 -0.1900
 4494SOL    HW124944   0.141   0.734   2.817  0.9616 -0.1419  0.4931
 4494SOL    HW224945   0.213   0.621   2.873 -1.2142  0.1341  1.1921
 4495SOL     OW24946   1.862   2.264   6.367  0.0548  0.1683  0.2096
 4495SOL    HW124947   1.956   2.265   6.381 -0.4635 -1.0856  3.8385
 4495SOL    HW224948   1.836   2.180   6.406  2.0411 -0.9980 -1.0018
 4496SOL     OW24949   1.842   3.012   3.398 -0.0858  0.4835  0.4675
 4496SOL    HW124950   1.833   2.925   3.359 -1.2365  0.3511  1.0108
 4496SOL    HW224951   1.749   3.033   3.413  0.1179  1.3871  0.4692
 4497SOL     OW24952   0.765   2.498   2.897  0.0800  0.4766  0.0812
 4497SOL    HW124953   0.742   2.508   2.989 -0.5846  1.0052 -0.1440
 4497SOL    HW224954   0.857   2.478   2.915 -0.6907 -2.8735  0.3836
 4498SOL     OW24955   3.141   4.709   2.970 -0.3462  0.0012 -0.2218
 4498SOL    HW124956   3.144   0.069   2.931  0.6739  0.3100  0.5487
 4498SOL    HW224957   3.187   4.709   3.053 -2.0499 -0.6248  0.7195
 4499SOL     OW24958   0.565   4.600   9.835 -0.1149 -0.4121  0.1811
 4499SOL    HW124959   0.496   4.624   9.897  2.4173 -0.6333  3.0907
 4499SOL    HW224960   0.593   4.688   9.807 -2.2625  1.1639  2.9827
 4500SOL     OW24961   1.852   3.838  13.303  0.5562 -0.1345 -0.5818
 4500SOL    HW124962   1.880   3.748  13.290  0.1901 -0.0972 -1.6233
 4500SOL    HW224963   1.913   3.883  13.244 -1.1077  0.6109 -1.7258
 4501SOL     OW24964   0.506   2.480  17.516  0.3767 -1.0796 -0.3357
 4501SOL    HW124965   0.590   2.519  17.492 -0.9611  2.2222  0.2416
 4501SOL    HW224966   0.465   2.557  17.557  3.0318  0.5042 -0.6074
 4502SOL     OW24967   2.062   1.916   4.570  0.7570  0.1271  0.0824
 4502SOL    HW124968   2.110   1.974   4.512  0.0649 -0.0747 -0.6937
 4502SOL    HW224969   2.061   1.964   4.653 -0.2886  0.1643  0.0514
 4503SOL     OW24970   2.994   4.648  15.661 -0.1053 -0.9212  0.3392
 4503SOL    HW124971   2.957   4.626  15.576  1.4857  1.3896 -0.9555
 4503SOL    HW224972   2.945   4.583  15.712 -1.4173  2.0024  2.8253
 4504SOL     OW24973   4.162   2.120   6.453 -0.2930  0.6093  0.0051
 4504SOL    HW124974   4.147   2.086   6.365  1.0063  0.9104 -0.3372
 4504SOL    HW224975   4.131   2.211   6.455 -1.8381  0.0587  1.2366
 4505SOL     OW24976   2.289   1.168   2.193  0.1403 -0.2897 -0.0348
 4505SOL    HW124977   2.261   1.098   2.134 -0.5636 -0.7897  0.8731
 4505SOL    HW224978   2.214   1.226   2.203 -0.6187 -1.4758  1.2544
 4506SOL     OW24979   4.694   2.457   5.608 -0.0580 -0.4999  0.2917
 4506SOL    HW124980   4.706   2.448   5.702  0.0224  0.2782  0.3588
 4506SOL    HW224981   0.049   2.422   5.575 -1.2860 -0.2101 -3.1520
 4507SOL     OW24982   3.445   1.445   6.122 -0.0128  0.1356  0.5024
 4507SOL    HW124983   3.492   1.466   6.042  0.0264 -0.2827  0.4162
 4507SOL    HW224984   3.510   1.470   6.188 -1.6216  1.6960  1.5113
 4508SOL     OW24985   2.035   0.273   8.411  0.4202 -0.1679 -0.1967
 4508SOL    HW124986   2.118   0.262   8.457  0.6150 -0.2179 -0.5636
 4508SOL    HW224987   1.982   0.198   8.438  0.1710 -0.4405 -1.4409
 4509SOL     OW24988   3.892   1.190   4.670  0.3039 -0.2261  0.6037
 4509SOL    HW124989   3.906   1.120   4.606  2.1303  0.4151  0.3004
 4509SOL    HW224990   3.954   1.160   4.736  1.6846  0.2382 -0.4703
 4510SOL     OW24991   1.206   2.482   5.352 -0.3324 -0.3780 -1.2388
 4510SOL    HW124992   1.201   2.560   5.296 -1.2547  0.5545  0.1258
 4510SOL    HW224993   1.213   2.530   5.435 -2.9623 -0.2008 -1.1070
 4511SOL     OW24994   0.131   1.425   5.800 -0.3000  1.0573  0.0171
 4511SOL    HW124995   0.223   1.400   5.795 -0.7321 -0.3740 -0.8405
 4511SOL    HW224996   0.149   1.519   5.803  0.0354  1.0365 -1.1634
 4512SOL     OW24997   1.520   1.619   7.350 -0.3363  0.9912 -0.2856
 4512SOL    HW124998   1.533   1.571   7.269  0.9671  0.5192  0.2004
 4512SOL    HW224999   1.558   1.570   7.423 -0.1857 -0.4739 -1.3536
 4513SOL     OW25000   1.986   0.909   7.806  0.3833 -0.2888 -0.1720
 4513SOL    HW125001   2.073   0.900   7.844  0.1366  1.0573  0.6971
 4513SOL    HW225002   1.953   0.819   7.806  3.8232 -1.5525 -0.4985
 4514SOL     OW25003   4.512   4.611   7.607  0.2049 -0.0758 -0.4350
 4514SOL    HW125004   4.523   4.705   7.594 -0.7069  0.1447  0.4101
 4514SOL    HW225005   4.486   4.577   7.522  0.4060  0.0321 -0.5388
 4515SOL     OW25006   2.505   2.670   1.725 -0.3452 -0.3722  0.0467
 4515SOL    HW125007   2.541   2.635   1.644 -1.9519  1.0252 -1.2834
 4515SOL    HW225008   2.510   2.764   1.707  0.6245 -0.2326  1.0704
 4516SOL     OW25009   2.908   4.161   3.248  0.0645 -0.0718  0.0767
 4516SOL    HW125010   2.953   4.167   3.164 -0.3978  0.2749 -0.1426
 4516SOL    HW225011   2.953   4.236   3.287  0.4071 -1.3485  2.1412
 4517SOL     OW25012   0.033   0.110  10.191  0.1630 -0.8660  0.2678
 4517SOL    HW125013   0.087   0.073  10.122  0.7313  0.4346  0.0049
 4517SOL    HW225014   4.677   0.111  10.144  0.4894 -0.4546 -0.2978
 4518SOL     OW25015   1.709   1.419   2.321  0.7637  0.2162 -0.1101
 4518SOL    HW125016   1.705   1.466   2.405  0.6734  1.2871 -0.7041
 4518SOL    HW225017   1.767   1.478   2.273  1.1654 -1.3382 -1.5299
 4519SOL     OW25018   2.584   2.131  11.084  0.5359  0.0763  0.0313
 4519SOL    HW125019   2.575   2.220  11.050  0.0596 -1.0807 -2.8550
 4519SOL    HW225020   2.494   2.099  11.077 -0.1510  1.4157  2.8470
 4520SOL     OW25021   2.014   3.473   4.170  0.1366  0.0304  0.2176
 4520SOL    HW125022   2.108   3.489   4.165  0.2996 -0.6893  0.9741
 4520SOL    HW225023   1.987   3.498   4.081  0.6550 -1.2040 -0.2822
 4521SOL     OW25024   0.964   3.247   4.904  0.7331 -0.6409  0.3995
 4521SOL    HW125025   1.050   3.215   4.876  1.4068 -0.1127  1.8943
 4521SOL    HW225026   0.980   3.337   4.931 -0.4126 -0.3563  0.1328
 4522SOL     OW25027   4.544   1.099   5.956 -0.3505  0.7488  0.0114
 4522SOL    HW125028   4.599   1.043   6.011 -1.6373 -0.1137  0.4306
 4522SOL    HW225029   4.486   1.045   5.902  0.1295 -0.6499  0.8939
 4523SOL     OW25030   4.093   3.281  12.094  0.2769 -0.3902 -0.3373
 4523SOL    HW125031   4.049   3.326  12.022  0.9505 -1.6834 -1.5453
 4523SOL    HW225032   4.175   3.330  12.102  0.5453 -1.6111  4.5135
 4524SOL     OW25033   4.328   0.946  17.315  0.8748 -0.2467 -0.0237
 4524SOL    HW125034   4.282   1.025  17.342  0.2368 -0.6474  0.0728
 4524SOL    HW225035   4.318   0.900  17.398 -0.8819 -0.7199 -0.4878
 4525SOL     OW25036   2.710   0.524  15.890 -0.4768  0.5202 -0.3156
 4525SOL    HW125037   2.765   0.456  15.851 -0.0060  1.5894 -1.5062
 4525SOL    HW225038   2.649   0.462  15.931 -0.0863 -0.2056 -0.8405
 4526SOL     OW25039   3.539   1.328  14.813  0.6518  0.0374  0.2740
 4526SOL    HW125040   3.599   1.370  14.751  0.5094  0.5457  0.4897
 4526SOL    HW225041   3.577   1.242  14.830  0.9406  0.0264 -0.4182
 4527SOL     OW25042   2.168   1.192   5.412 -0.1619  0.4438 -0.2665
 4527SOL    HW125043   2.217   1.113   5.436  0.5158  0.8652 -0.2543
 4527SOL    HW225044   2.222   1.228   5.341  0.6914  0.8288  0.5886
 4528SOL     OW25045   2.402   0.127  12.195  0.2459 -0.5626  0.1455
 4528SOL    HW125046   2.351   0.119  12.114  1.3295  0.2024 -0.6191
 4528SOL    HW225047   2.360   0.204  12.234  0.9752  0.2840 -0.7338
 4529SOL     OW25048   0.240   1.557  15.306 -0.9341 -0.8226  0.4578
 4529SOL    HW125049   0.270   1.494  15.372  1.1479 -1.0963 -0.7434
 4529SOL    HW225050   0.211   1.489  15.245 -1.0118 -1.3439  1.0660
 4530SOL     OW25051   0.349   1.856   4.292  0.4328 -0.0528 -0.4938
 4530SOL    HW125052   0.427   1.851   4.237  0.7033 -0.1118 -0.1090
 4530SOL    HW225053   0.387   1.858   4.380  0.6234 -0.2663 -0.5708
 4531SOL     OW25054   1.452   0.539   6.753 -0.7100 -0.2716  0.3855
 4531SOL    HW125055   1.362   0.569   6.760  0.1168  2.3708 -0.1616
 4531SOL    HW225056   1.437   0.464   6.695  2.2842 -0.6523  0.0783
 4532SOL     OW25057   0.556   0.204   4.348  0.4332 -0.5455  0.5492
 4532SOL    HW125058   0.493   0.240   4.286  3.3938 -0.2900 -2.3088
 4532SOL    HW225059   0.515   0.222   4.432  0.6388 -1.1236  0.7746
 4533SOL     OW25060   4.091   2.191  16.896  0.3133 -0.2897  0.4874
 4533SOL    HW125061   4.018   2.245  16.923  0.0579  0.1974 -1.1390
 4533SOL    HW225062   4.050   2.106  16.881  2.1080 -1.1090  0.1415
 4534SOL     OW25063   2.296   3.504   6.625  0.3132  0.3572  0.0694
 4534SOL    HW125064   2.306   3.582   6.569  2.8568 -1.5712 -2.1760
 4534SOL    HW225065   2.210   3.467   6.609 -0.1805  1.5974 -0.1806
 4535SOL     OW25066   3.751   2.203   5.509 -0.4311  0.2093  0.3791
 4535SOL    HW125067   3.666   2.243   5.528  0.2365  1.6141  0.4793
 4535SOL    HW225068   3.726   2.112   5.498 -0.6502  0.0527  2.0824
 4536SOL     OW25069   2.533   3.546  10.051  0.0158  0.2803 -0.0415
 4536SOL    HW125070   2.497   3.458  10.052  2.9378 -0.9211 -1.9711
 4536SOL    HW225071   2.618   3.532  10.009  1.2965  0.0411  2.6123
 4537SOL     OW25072   4.276   2.863   7.763  0.4575 -0.3551 -0.1524
 4537SOL    HW125073   4.336   2.900   7.828 -2.0135  0.4762  1.6044
 4537SOL    HW225074   4.287   2.767   7.762 -0.1947 -0.4266 -0.5215
 4538SOL     OW25075   0.993   0.975   5.819 -0.4788  0.2585 -0.2147
 4538SOL    HW125076   0.898   0.971   5.820 -0.5069  0.7938 -0.9070
 4538SOL    HW225077   1.014   1.068   5.811  2.5644 -0.4211 -0.5001
 4539SOL     OW25078   4.385   0.690   2.125 -0.3009 -0.0924 -0.0116
 4539SOL    HW125079   4.432   0.711   2.044  1.6818 -0.1557  1.1353
 4539SOL    HW225080   4.293   0.682   2.100 -0.2561 -1.2492  0.1902
 4540SOL     OW25081   1.186   2.816  13.022  0.2171 -0.7003  0.3534
 4540SOL    HW125082   1.224   2.732  13.048  1.2346 -1.5825 -3.9552
 4540SOL    HW225083   1.114   2.777  12.974  0.5591 -1.1749  0.2253
 4541SOL     OW25084   0.730   0.342   2.259 -0.0323  0.3215  0.3807
 4541SOL    HW125085   0.726   0.262   2.207 -2.3325  1.5638 -1.3663
 4541SOL    HW225086   0.695   0.309   2.342  0.5844 -1.9895 -0.3023
 4542SOL     OW25087   0.983   3.647  13.274 -0.1096 -0.5334  0.1708
 4542SOL    HW125088   1.028   3.731  13.264  2.3192 -1.7918  0.4761
 4542SOL    HW225089   0.909   3.643  13.212  0.1000 -2.2514  0.0329
 4543SOL     OW25090   2.493   0.709   3.835 -0.1002 -0.1820 -0.0057
 4543SOL    HW125091   2.405   0.730   3.804 -0.0669 -0.3125 -0.1888
 4543SOL    HW225092   2.537   0.787   3.800  1.2784 -0.8241  0.2772
 4544SOL     OW25093   1.350   0.830  17.460 -0.0267 -0.0115 -0.1560
 4544SOL    HW125094   1.367   0.761  17.396 -0.5496  0.1059 -0.4188
 4544SOL    HW225095   1.263   0.799  17.486 -1.4073  1.6675 -2.7801
 4545SOL     OW25096   0.379   1.800   3.133 -0.0915 -0.7298  0.1772
 4545SOL    HW125097   0.345   1.883   3.099  0.7424 -0.1830  0.6817
 4545SOL    HW225098   0.434   1.771   3.060  1.0181  2.1790 -0.1402
 4546SOL     OW25099   3.794   1.728   0.507  0.7481 -0.1125 -0.4638
 4546SOL    HW125100   3.721   1.784   0.482 -0.3704 -0.7475  1.3899
 4546SOL    HW225101   3.750   1.643   0.511 -1.0794  0.9464  1.9157
 4547SOL     OW25102   1.413   2.123   2.426  0.1311  0.4895  0.3784
 4547SOL    HW125103   1.344   2.057   2.415  1.3100 -0.6501 -0.2233
 4547SOL    HW225104   1.361   2.189   2.471 -1.4371 -0.2810 -0.2643
 4548SOL     OW25105   1.674   3.551   8.092 -0.2046  0.1548 -0.0246
 4548SOL    HW125106   1.718   3.631   8.120  1.3229 -1.2273  1.5495
 4548SOL    HW225107   1.658   3.522   8.182  4.0390  0.2770  0.7805
 4549SOL     OW25108   1.888   2.218   4.392  0.2434  0.4084  0.2007
 4549SOL    HW125109   1.795   2.235   4.377  0.6040  1.5224 -0.7752
 4549SOL    HW225110   1.875   2.123   4.395 -1.9350  0.6224 -2.3918
 4550SOL     OW25111   3.427   1.808  10.807 -0.0275 -0.3590  0.7570
 4550SOL    HW125112   3.415   1.825  10.900 -0.2827 -3.4763  1.2896
 4550SOL    HW225113   3.523   1.810  10.805  0.0307 -2.2579  1.4897
 4551SOL     OW25114   4.477   0.707   6.926 -0.3700 -0.6371 -0.3524
 4551SOL    HW125115   4.518   0.662   6.999  0.8294 -0.2452 -0.7843
 4551SOL    HW225116   4.401   0.742   6.973 -0.1427 -1.1925  0.4129
 4552SOL     OW25117   2.669   1.640  15.323 -0.3632 -0.2604  0.8734
 4552SOL    HW125118   2.642   1.705  15.257  1.3551  0.0625  0.4902
 4552SOL    HW225119   2.585   1.599  15.344 -0.2126 -1.3714 -0.6813
 4553SOL     OW25120   0.855   3.787   8.337 -0.0505  0.1021  0.7973
 4553SOL    HW125121   0.772   3.793   8.385 -1.1575  1.2199 -1.2580
 4553SOL    HW225122   0.846   3.713   8.277 -0.1454 -0.4380  1.4795
 4554SOL     OW25123   4.674   2.550  10.754 -0.2051  0.0415  0.4207
 4554SOL    HW125124   4.637   2.464  10.776 -0.9287  0.1407 -0.3903
 4554SOL    HW225125   4.618   2.613  10.799 -0.1691  0.0364  0.4725
 4555SOL     OW25126   3.624   3.788   5.078  0.0818  0.5528 -0.0286
 4555SOL    HW125127   3.538   3.750   5.062  0.6676 -0.1847 -1.4288
 4555SOL    HW225128   3.600   3.807   5.169 -2.1270  1.7365 -0.8700
 4556SOL     OW25129   4.582   4.561  13.172  0.3161  0.5814  0.2913
 4556SOL    HW125130   4.674   4.580  13.153 -0.4459  3.1301 -0.8433
 4556SOL    HW225131   4.540   4.644  13.150  1.3810  0.8426 -0.7667
 4557SOL     OW25132   0.047   4.253   5.881 -0.0762  0.9790  0.0419
 4557SOL    HW125133   0.044   4.280   5.789  1.6566 -2.7611 -1.0955
 4557SOL    HW225134   4.691   4.210   5.899 -0.1361  1.6917  1.4898
 4558SOL     OW25135   0.368   3.560  15.108  0.1349 -0.5932  0.2494
 4558SOL    HW125136   0.368   3.587  15.016 -1.2249 -1.1979  0.0829
 4558SOL    HW225137   0.461   3.542  15.122  0.2173 -0.7021 -0.4301
 4559SOL     OW25138   1.371   1.517  11.363  0.2226 -0.3287 -0.2099
 4559SOL    HW125139   1.322   1.537  11.283  2.0563 -2.3522 -1.8455
 4559SOL    HW225140   1.314   1.470  11.424 -0.2218 -0.2893 -0.5935
 4560SOL     OW25141   1.297   2.876  11.800  0.2159 -0.3474  0.1576
 4560SOL    HW125142   1.307   2.860  11.706  0.5095  0.2887  0.0798
 4560SOL    HW225143   1.382   2.918  11.812 -0.5072  1.6941 -1.9308
 4561SOL     OW25144   2.783   4.181   2.024  0.3496 -0.0725 -0.2097
 4561SOL    HW125145   2.802   4.270   2.052 -2.2994  0.9285 -1.6161
 4561SOL    HW225146   2.860   4.129   2.046  0.9376  0.4890 -0.9501
 4562SOL     OW25147   1.347   3.564   8.208  0.0419 -0.7887 -0.9015
 4562SOL    HW125148   1.355   3.609   8.125  0.5330 -0.4490 -0.6692
 4562SOL    HW225149   1.338   3.641   8.263  0.0781 -0.9241 -0.7033
 4563SOL     OW25150   4.247   2.951   2.087 -0.1114  0.6431 -0.1291
 4563SOL    HW125151   4.249   2.888   2.015 -0.5264 -0.9743  1.2890
 4563SOL    HW225152   4.170   3.000   2.057 -0.3049 -0.4707 -1.4320
 4564SOL     OW25153   2.066   1.455   8.478 -0.3819  0.6590  0.8088
 4564SOL    HW125154   2.099   1.529   8.528  0.7593  1.1592 -0.6784
 4564SOL    HW225155   1.986   1.488   8.438  0.4232  1.3529 -0.2271
 4565SOL     OW25156   1.761   0.169   6.130  0.2616  0.0039  0.3847
 4565SOL    HW125157   1.775   0.201   6.041 -1.8903  0.2788  0.1431
 4565SOL    HW225158   1.735   0.248   6.178 -0.5242  0.1476 -0.2770
 4566SOL     OW25159   0.453   2.860  17.506  0.3701 -0.5343 -0.1388
 4566SOL    HW125160   0.455   2.882  17.600 -0.6841 -3.6992  0.5963
 4566SOL    HW225161   0.511   2.932  17.478 -0.5056  0.1618 -0.1696
 4567SOL     OW25162   1.569   3.115   6.560  0.8656  0.3853 -0.0678
 4567SOL    HW125163   1.622   3.193   6.579  1.0960  0.3685 -0.6360
 4567SOL    HW225164   1.612   3.058   6.624 -1.4568 -1.1940  0.0765
 4568SOL     OW25165   2.764   1.322   4.799  0.4476  0.5930 -0.2861
 4568SOL    HW125166   2.756   1.330   4.704 -1.2378 -0.4692 -0.2284
 4568SOL    HW225167   2.851   1.361   4.808 -0.4172  2.5489 -0.6094
 4569SOL     OW25168   4.331   0.399   2.519 -0.2066  0.3337  1.0025
 4569SOL    HW125169   4.387   0.373   2.592 -0.4924 -0.9362  0.7682
 4569SOL    HW225170   4.353   0.335   2.450 -1.3667 -0.1885  1.1152
 4570SOL     OW25171   2.094   3.095   4.466  0.1666 -0.5111 -0.0934
 4570SOL    HW125172   2.000   3.115   4.457 -0.3023 -2.5149  0.3717
 4570SOL    HW225173   2.112   3.021   4.408 -2.0010 -0.1775 -1.1957
 4571SOL     OW25174   1.652   2.592  14.006  0.0878 -0.0940 -0.5284
 4571SOL    HW125175   1.612   2.560  13.925 -0.1368  1.6321 -1.0863
 4571SOL    HW225176   1.595   2.668  14.003 -0.2982 -0.3100  1.4271
 4572SOL     OW25177   1.553   3.190  10.811  0.0217 -0.2682 -0.1718
 4572SOL    HW125178   1.522   3.280  10.806  0.0320 -0.3939 -2.4673
 4572SOL    HW225179   1.569   3.176  10.905  0.2208  2.4740  0.2039
 4573SOL     OW25180   4.438   3.062   6.995  0.1115  0.4996  0.0183
 4573SOL    HW125181   4.347   3.075   7.020 -0.1488 -1.0598 -0.1186
 4573SOL    HW225182   4.439   2.972   6.962  2.4442  0.3094  0.5863
 4574SOL     OW25183   1.702   1.571   5.407  0.2251 -0.3067  0.6299
 4574SOL    HW125184   1.722   1.571   5.314  0.4007  0.8710  0.6797
 4574SOL    HW225185   1.684   1.477   5.415  1.7460 -0.5827  0.7822
 4575SOL     OW25186   2.604   2.783   8.927 -0.0832 -0.0724 -0.4386
 4575SOL    HW125187   2.521   2.765   8.882 -1.0101  1.5216  0.6631
 4575SOL    HW225188   2.628   2.694   8.954 -2.0964 -0.2145  0.8707
 4576SOL     OW25189   2.394   3.427   6.076 -0.1604 -0.7346 -0.1920
 4576SOL    HW125190   2.359   3.430   5.987 -1.8179  1.6782  0.5622
 4576SOL    HW225191   2.488   3.433   6.061 -0.2438  0.9079 -0.0383
 4577SOL     OW25192   0.167   4.177   9.677 -0.5043 -0.5144  0.5795
 4577SOL    HW125193   0.244   4.232   9.662 -0.5039 -0.5842  0.3271
 4577SOL    HW225194   0.120   4.227   9.743  1.4929 -0.8797  2.2706
 4578SOL     OW25195   4.255   4.318   5.133 -0.0180 -0.0233 -0.2686
 4578SOL    HW125196   4.351   4.315   5.134 -0.0776 -1.0452  1.8469
 4578SOL    HW225197   4.239   4.241   5.079 -0.7921 -0.1663  0.1804
 4579SOL     OW25198   0.810   4.715   2.633  0.6208  0.0997  0.0544
 4579SOL    HW125199   0.722   4.716   2.673  1.1640 -2.1121  1.3095
 4579SOL    HW225200   0.863   4.666   2.696  1.8850 -1.4556 -2.2363
 4580SOL     OW25201   2.995   3.332   1.366  0.2214 -0.5497  0.9247
 4580SOL    HW125202   3.003   3.295   1.278  1.3736  0.3009  0.6706
 4580SOL    HW225203   2.902   3.351   1.363  0.5836  1.3948  2.1694
 4581SOL     OW25204   4.002   2.083   3.274 -0.2476 -0.2677 -0.3525
 4581SOL    HW125205   3.931   2.071   3.211 -0.7344 -0.3769  0.2177
 4581SOL    HW225206   4.061   2.012   3.250 -2.3449 -2.0292 -0.3048
 4582SOL     OW25207   2.992   0.542  13.351  0.1249  0.3240 -0.0448
 4582SOL    HW125208   3.071   0.573  13.307  0.6627 -0.4694  0.3705
 4582SOL    HW225209   2.931   0.556  13.279 -2.9624 -1.3405  2.2482
 4583SOL     OW25210   3.521   0.174   8.109 -0.5081  0.4494 -0.3314
 4583SOL    HW125211   3.595   0.140   8.058 -0.4974  2.2264 -1.4875
 4583SOL    HW225212   3.468   0.095   8.122  0.2001  0.2073  1.1336
 4584SOL     OW25213   1.159   2.175   4.589  0.1053 -0.2506 -0.7388
 4584SOL    HW125214   1.178   2.087   4.622  2.0124  0.4469  0.0240
 4584SOL    HW225215   1.068   2.190   4.613  0.0483  0.1568 -1.2193
 4585SOL     OW25216   1.681   4.029   8.555 -0.3479  0.2335 -0.1657
 4585SOL    HW125217   1.731   4.108   8.536 -0.3571  0.9447  2.6568
 4585SOL    HW225218   1.749   3.979   8.601  0.6599 -0.4453 -2.4279
 4586SOL     OW25219   1.989   1.821   2.403 -0.5724  0.1069  0.1825
 4586SOL    HW125220   2.065   1.764   2.415 -1.1594 -0.5992  0.5817
 4586SOL    HW225221   1.989   1.846   2.311 -2.7940 -1.7806 -0.3563
 4587SOL     OW25222   3.527   3.763   2.862  0.0280  0.5542  0.1204
 4587SOL    HW125223   3.538   3.854   2.833 -0.9307  0.8984  0.8477
 4587SOL    HW225224   3.590   3.714   2.809 -0.6741  1.3640 -1.4810
 4588SOL     OW25225   3.388   2.149   9.349  0.0896 -0.0957 -0.0936
 4588SOL    HW125226   3.366   2.065   9.389 -1.8246  0.9049  0.9581
 4588SOL    HW225227   3.455   2.185   9.407 -2.1367  0.0825  2.3567
 4589SOL     OW25228   3.182   4.437   5.135 -0.4513  0.2743  0.3900
 4589SOL    HW125229   3.210   4.524   5.162  1.0367 -0.7777  2.2090
 4589SOL    HW225230   3.197   4.391   5.217  0.4082 -3.4163 -1.8446
 4590SOL     OW25231   1.601   1.314   5.403  0.1653  0.1910 -0.3623
 4590SOL    HW125232   1.564   1.332   5.317  0.4394  0.1499 -0.4913
 4590SOL    HW225233   1.579   1.221   5.413  1.4264  0.0033  0.8259
 4591SOL     OW25234   3.659   1.535   1.808 -0.6294 -0.0576  0.6120
 4591SOL    HW125235   3.601   1.469   1.770  0.8080 -0.1388 -1.4085
 4591SOL    HW225236   3.702   1.484   1.877 -1.2384  0.5420  1.4276
 4592SOL     OW25237   1.453   0.130   0.473 -0.1470  0.3307  0.4217
 4592SOL    HW125238   1.395   0.061   0.505 -0.3784 -0.3475 -1.4674
 4592SOL    HW225239   1.467   0.177   0.555  3.0065 -0.7273  0.4812
 4593SOL     OW25240   1.109   3.934   2.396  0.0265 -0.0516  0.1887
 4593SOL    HW125241   1.031   3.926   2.341 -0.9987  1.3388  1.4581
 4593SOL    HW225242   1.115   3.851   2.443 -0.7378  0.1643  0.6596
 4594SOL     OW25243   4.652   3.492   6.361 -0.2522  0.2943  0.4883
 4594SOL    HW125244   0.014   3.511   6.387 -0.0734 -1.3120  1.0907
 4594SOL    HW225245   4.603   3.486   6.444 -0.6666  2.4024  0.3822
 4595SOL     OW25246   2.458   2.393   4.968 -0.1711  0.3086  0.2846
 4595SOL    HW125247   2.543   2.408   5.010 -0.7014  3.2227  0.2610
 4595SOL    HW225248   2.466   2.441   4.886 -1.2610 -1.9808 -1.1785
 4596SOL     OW25249   3.024   2.555   7.268 -0.2572  0.4253 -0.6037
 4596SOL    HW125250   3.066   2.580   7.185  0.0213  1.6497 -0.0873
 4596SOL    HW225251   2.977   2.472   7.258 -1.1207  1.0648 -1.9885
 4597SOL     OW25252   2.114   1.415   2.026  0.2718 -0.1058  0.1885
 4597SOL    HW125253   2.196   1.368   2.010  0.8970  1.1521 -0.3346
 4597SOL    HW225254   2.064   1.392   1.948 -1.4430  0.4003  1.1348
 4598SOL     OW25255   2.861   1.052  14.368 -0.0576 -0.6340  0.3887
 4598SOL    HW125256   2.857   1.072  14.461  0.4404 -1.3395  0.5644
 4598SOL    HW225257   2.770   1.060  14.341  0.1152 -1.5212 -0.4774
 4599SOL     OW25258   0.927   3.106   8.962  0.4691 -0.1597 -0.0071
 4599SOL    HW125259   0.929   3.054   8.882  2.8992 -1.2202  0.7447
 4599SOL    HW225260   0.998   3.058   9.004  0.3097  0.5266  1.0345
 4600SOL     OW25261   3.397   0.853   0.614  0.2215  0.1668 -0.0530
 4600SOL    HW125262   3.396   0.903   0.532  0.1087  1.6331  0.8432
 4600SOL    HW225263   3.490   0.850   0.634  0.3722  1.6805 -0.5561
 4601SOL     OW25264   0.263   1.937   6.852  0.0621  0.3989 -0.0055
 4601SOL    HW125265   0.278   1.967   6.942  1.2512 -3.0590  0.9442
 4601SOL    HW225266   0.205   1.862   6.863  1.3477 -0.5946  0.0235
 4602SOL     OW25267   3.348   1.810   5.879 -0.2292  0.6632 -0.4827
 4602SOL    HW125268   3.278   1.862   5.840 -2.4201 -1.5585  0.4418
 4602SOL    HW225269   3.309   1.723   5.888  1.8947 -0.4318 -1.7747
 4603SOL     OW25270   3.474   0.155   6.573 -0.3688 -0.2124  0.7132
 4603SOL    HW125271   3.497   0.206   6.496 -0.5628 -0.1772  0.6780
 4603SOL    HW225272   3.558   0.125   6.607  0.4637  0.1760 -1.0409
 4604SOL     OW25273   1.703   1.358  13.482 -0.1137  0.4051  0.3663
 4604SOL    HW125274   1.782   1.304  13.475 -0.3925 -0.1189  1.3523
 4604SOL    HW225275   1.723   1.422  13.550 -2.3777 -0.1444  1.5582
 4605SOL     OW25276   2.380   2.038  14.881  1.1332 -0.1440 -0.3044
 4605SOL    HW125277   2.393   2.058  14.974 -1.6579 -0.6474  0.1800
 4605SOL    HW225278   2.381   1.942  14.886  0.3752 -0.1547 -0.4345
 4606SOL     OW25279   1.523   3.951   8.934  0.0564  0.4226  0.1949
 4606SOL    HW125280   1.530   3.945   9.029 -0.3865 -0.9451  0.1319
 4606SOL    HW225281   1.458   3.882   8.926  0.5494  0.3336 -3.0049
 4607SOL     OW25282   2.439   1.695  15.004 -0.5373  0.2801 -0.7710
 4607SOL    HW125283   2.502   1.705  14.933  1.2969 -0.3020  0.7969
 4607SOL    HW225284   2.480   1.748  15.072 -0.7036  1.8268 -1.8808
 4608SOL     OW25285   0.144   1.272   5.036  0.6477  0.3938  0.6453
 4608SOL    HW125286   0.165   1.290   4.944  0.3338  1.2252  0.7315
 4608SOL    HW225287   0.075   1.206   5.042 -0.8215  1.8245 -0.2613
 4609SOL     OW25288   3.443   2.272   4.036 -0.2792  0.8089  0.1828
 4609SOL    HW125289   3.430   2.366   4.031  0.4264  0.8314 -1.0443
 4609SOL    HW225290   3.405   2.233   3.957  0.1297  0.5203  0.1274
 4610SOL     OW25291   0.158   1.459   7.224 -0.1072  0.0903  0.6465
 4610SOL    HW125292   0.152   1.479   7.317 -2.0703 -0.4490  0.6371
 4610SOL    HW225293   0.155   1.548   7.188 -2.0774 -0.3505 -0.3150
 4611SOL     OW25294   3.492   3.702   9.025 -0.0759  0.0784  0.3036
 4611SOL    HW125295   3.464   3.762   8.956  1.2474 -0.3717 -0.6197
 4611SOL    HW225296   3.556   3.759   9.067  0.3552  0.6372 -1.0953
 4612SOL     OW25297   3.942   0.038  14.546 -0.7969 -0.2252 -0.1569
 4612SOL    HW125298   3.899   0.116  14.581  0.7839 -0.8072  3.0865
 4612SOL    HW225299   3.957   0.074  14.459  0.2378 -0.5121 -0.0937
 4613SOL     OW25300   0.214   4.338  14.949  0.2715 -0.8488 -0.2662
 4613SOL    HW125301   0.261   4.398  14.892  0.5454  1.6287  2.5613
 4613SOL    HW225302   0.292   4.303  14.992  1.0438  0.6814 -0.4561
 4614SOL     OW25303   3.088   0.976  11.042  0.3145 -0.0637  0.1568
 4614SOL    HW125304   3.122   0.955  11.129 -0.0017  1.2422  0.6029
 4614SOL    HW225305   3.116   1.067  11.034  0.5045  0.0289  1.8821
 4615SOL     OW25306   2.162   2.046   6.235  0.1441  0.1487 -0.0447
 4615SOL    HW125307   2.080   2.053   6.187  1.5384  1.1187 -2.3153
 4615SOL    HW225308   2.152   2.107   6.308 -1.0518 -1.9947  1.5482
 4616SOL     OW25309   0.820   4.243   5.203  0.0726  0.1461 -0.1246
 4616SOL    HW125310   0.892   4.205   5.252  0.5198  0.6816 -0.3708
 4616SOL    HW225311   0.759   4.253   5.276  0.4309 -0.8438  0.3084
 4617SOL     OW25312   1.554   2.656  10.989 -0.0071 -0.5229 -0.8384
 4617SOL    HW125313   1.497   2.730  11.009  0.0336 -1.1031  1.4324
 4617SOL    HW225314   1.565   2.688  10.900 -0.3695  2.4668  0.2038
 4618SOL     OW25315   1.106   2.857   9.078  0.0299  0.4002 -0.0168
 4618SOL    HW125316   1.162   2.875   9.154  2.2081 -2.4145 -0.9725
 4618SOL    HW225317   1.096   2.763   9.095 -0.2929  0.3090 -0.7335
 4619SOL     OW25318   2.303   2.814  14.451 -0.1258  0.1653  0.4060
 4619SOL    HW125319   2.312   2.864  14.370 -2.0685  4.5822  2.9347
 4619SOL    HW225320   2.249   2.745  14.413 -0.0663  0.7072 -0.6517
 4620SOL     OW25321   0.036   3.565   8.314 -0.1804 -0.3382  0.4392
 4620SOL    HW125322   4.672   3.538   8.317 -0.1185 -0.3363  2.1392
 4620SOL    HW225323   0.038   3.649   8.358  0.8560 -1.2307  2.0994
 4621SOL     OW25324   2.928   4.395  11.308  0.4209  0.2338  0.2227
 4621SOL    HW125325   2.902   4.303  11.308  1.2507 -0.0024 -0.0828
 4621SOL    HW225326   3.011   4.394  11.356  0.9954 -0.5876 -0.7773
 4622SOL     OW25327   0.995   0.735   0.185  0.3374 -0.4083 -0.3406
 4622SOL    HW125328   1.014   0.709   0.275  0.1432 -1.9810 -0.7663
 4622SOL    HW225329   1.083   0.766   0.164  0.0756  0.6465  0.1195
 4623SOL     OW25330   0.455   1.322   6.773 -0.0277 -0.1783  0.1746
 4623SOL    HW125331   0.481   1.405   6.812  0.4378  1.3714 -3.3863
 4623SOL    HW225332   0.406   1.288   6.848 -0.9711 -0.3571 -0.5129
 4624SOL     OW25333   4.227   1.282   8.762  0.3789  0.4244  0.0337
 4624SOL    HW125334   4.293   1.269   8.830  0.0925  0.0111  0.2303
 4624SOL    HW225335   4.285   1.294   8.686  0.9987 -1.1842  0.2583
 4625SOL     OW25336   3.664   2.511  11.150 -0.2162  0.0643 -0.0337
 4625SOL    HW125337   3.636   2.423  11.123 -0.1386  0.5106 -1.5541
 4625SOL    HW225338   3.601   2.541  11.215  1.0127  1.9255  0.2797
 4626SOL     OW25339   4.329   3.343   1.029 -0.3631 -0.4741 -0.0277
 4626SOL    HW125340   4.240   3.311   1.015 -0.2512 -0.1150 -1.5935
 4626SOL    HW225341   4.370   3.271   0.981 -0.6906 -0.4916 -0.2801
 4627SOL     OW25342   2.189   3.643   9.669 -0.6433  0.1518  0.1021
 4627SOL    HW125343   2.145   3.691   9.598 -1.1626 -1.4180 -0.6398
 4627SOL    HW225344   2.137   3.564   9.656  0.2326 -0.4705  0.4547
 4628SOL     OW25345   0.043   1.145   7.635  0.2696  0.0991 -0.0639
 4628SOL    HW125346   0.129   1.182   7.652  1.0731 -1.9717  0.3495
 4628SOL    HW225347   0.017   1.186   7.552 -1.3195  0.8404  0.8095
 4629SOL     OW25348   3.675   1.524  13.331 -0.3972  0.4827  0.2485
 4629SOL    HW125349   3.666   1.430  13.314 -0.2474  0.7486 -1.3249
 4629SOL    HW225350   3.753   1.544  13.279  0.1391  2.3529  1.7620
 4630SOL     OW25351   2.460   0.479   6.834  0.0383  0.3324  0.1448
 4630SOL    HW125352   2.418   0.410   6.885  1.0517 -0.0697  0.4179
 4630SOL    HW225353   2.553   0.461   6.848  0.3101  1.7201  0.1465
 4631SOL     OW25354   3.932   4.122  17.290  0.3571 -0.0237  0.2989
 4631SOL    HW125355   3.960   4.039  17.252  2.2436  0.9116 -0.3339
 4631SOL    HW225356   3.924   4.182  17.215  0.4995  1.5213  1.5226
 4632SOL     OW25357   1.448   0.053   9.473 -0.1429 -0.2443  0.3302
 4632SOL    HW125358   1.442   0.066   9.378  0.1101  0.2928  0.3834
 4632SOL    HW225359   1.369   0.000   9.483 -1.1639  1.1498 -0.3413
 4633SOL     OW25360   3.505   1.392   3.182 -0.3168  0.0349  0.1420
 4633SOL    HW125361   3.475   1.480   3.205  1.8536  0.7413  0.2050
 4633SOL    HW225362   3.502   1.404   3.087  0.6846  1.3907  0.2834
 4634SOL     OW25363   0.169   3.656  17.230 -0.2337  0.9481 -0.7524
 4634SOL    HW125364   0.189   3.609  17.148 -0.1286  0.6300 -0.5434
 4634SOL    HW225365   0.162   3.583  17.292  3.5503 -0.9087 -2.4911
 4635SOL     OW25366   0.580   0.941  14.301  0.1939 -0.0486  0.5049
 4635SOL    HW125367   0.560   1.035  14.306 -1.2023 -0.4122  2.1252
 4635SOL    HW225368   0.627   0.936  14.219 -0.8759 -1.8429  0.0029
 4636SOL     OW25369   2.666   1.290   5.652  0.6051  0.1109 -0.1494
 4636SOL    HW125370   2.714   1.208   5.643 -2.8619 -2.0626  1.1852
 4636SOL    HW225371   2.601   1.274   5.720  1.0728 -1.6990 -0.1299
 4637SOL     OW25372   3.850   1.172   7.692  0.1573  0.1611 -0.3691
 4637SOL    HW125373   3.783   1.113   7.659  1.0753 -1.0889  0.0334
 4637SOL    HW225374   3.913   1.167   7.620  1.3472  2.3348  0.4996
 4638SOL     OW25375   4.634   2.397   2.021  0.4630  0.3765 -0.6300
 4638SOL    HW125376   4.690   2.319   2.026  0.1324  0.1385 -0.6645
 4638SOL    HW225377   4.690   2.447   1.961 -0.3026  0.1196 -1.5546
 4639SOL     OW25378   1.007   1.305   0.430 -0.3042 -0.2266 -0.4922
 4639SOL    HW125379   1.082   1.312   0.488 -1.2619 -2.0840  0.9532
 4639SOL    HW225380   1.005   1.399   0.411 -1.4909 -0.2907 -0.7229
 4640SOL     OW25381   3.083   4.209   8.812  0.4944 -0.0348 -0.0804
 4640SOL    HW125382   3.146   4.278   8.831 -1.5690  1.7091  0.3737
 4640SOL    HW225383   3.099   4.144   8.880 -1.2880  0.6414  0.9904
 4641SOL     OW25384   2.791   0.554  13.764 -1.0937 -0.0585  0.1127
 4641SOL    HW125385   2.849   0.586  13.833  1.8739 -2.4788 -1.2915
 4641SOL    HW225386   2.749   0.482  13.810 -1.1219  0.3588  0.7477
 4642SOL     OW25387   4.184   1.831   6.946 -0.3199 -0.6920  0.2214
 4642SOL    HW125388   4.102   1.852   6.900 -0.7888 -2.6279  0.1399
 4642SOL    HW225389   4.167   1.738   6.966  0.5335 -1.0333 -0.6719
 4643SOL     OW25390   1.508   4.622   3.420  0.5871  0.4279  0.2475
 4643SOL    HW125391   1.554   4.554   3.470 -0.9208 -0.6765  0.1376
 4643SOL    HW225392   1.433   4.568   3.396 -0.5977  1.4576  1.6572
 4644SOL     OW25393   3.989   2.163   5.190  0.1851  0.2049  0.0146
 4644SOL    HW125394   4.030   2.179   5.275  0.2047 -2.5725  0.5043
 4644SOL    HW225395   3.916   2.223   5.202  1.1814  1.9850 -2.7254
 4645SOL     OW25396   3.663   2.267  17.081 -0.5543 -0.6042 -0.5610
 4645SOL    HW125397   3.745   2.306  17.050 -1.0663  1.0363  0.1585
 4645SOL    HW225398   3.640   2.204  17.013 -0.9901  1.0518 -1.9530
 4646SOL     OW25399   0.961   3.632   9.386 -0.5340 -0.2653 -0.0832
 4646SOL    HW125400   1.018   3.619   9.462  0.2608  1.7121 -0.3477
 4646SOL    HW225401   1.013   3.706   9.355 -0.9647  0.9501  2.0802
 4647SOL     OW25402   1.790   1.346  10.405  0.4023  0.2700  0.1731
 4647SOL    HW125403   1.743   1.280  10.456  0.9220 -0.5022 -0.3426
 4647SOL    HW225404   1.841   1.394  10.470  2.0733 -0.2543 -0.7345
 4648SOL     OW25405   3.188   0.971   3.221 -0.0499 -0.1441  0.7056
 4648SOL    HW125406   3.095   0.984   3.238  0.2238  1.6402  0.7923
 4648SOL    HW225407   3.195   1.042   3.157 -1.6037 -0.5318  0.0901
 4649SOL     OW25408   4.390   3.761  13.489 -0.0310  0.1685  0.7737
 4649SOL    HW125409   4.307   3.726  13.521 -0.2737  0.0869  0.0725
 4649SOL    HW225410   4.360   3.825  13.425 -2.1215 -0.4546  1.1210
 4650SOL     OW25411   2.255   2.815   1.840 -0.6325 -0.2232 -0.3017
 4650SOL    HW125412   2.310   2.787   1.914 -0.2723  1.3942  0.0480
 4650SOL    HW225413   2.296   2.901   1.832 -1.5929  0.3525  0.9407
 4651SOL     OW25414   2.927   4.539   0.959  0.1259  0.0058 -0.0050
 4651SOL    HW125415   2.846   4.531   1.009 -0.1292  0.5221 -0.3414
 4651SOL    HW225416   2.973   4.605   1.011 -1.0260  1.5008 -0.9023
 4652SOL     OW25417   4.115   1.485   8.027 -0.4243 -0.2639 -0.0808
 4652SOL    HW125418   4.059   1.487   8.105  0.2413 -0.2223  0.3943
 4652SOL    HW225419   4.070   1.411   7.987  1.6006 -1.4588 -0.1441
 4653SOL     OW25420   3.532   2.918  11.475 -0.5236  0.1165  0.6749
 4653SOL    HW125421   3.617   2.880  11.451 -2.1505 -2.4558 -1.1351
 4653SOL    HW225422   3.538   3.006  11.438 -2.9973 -1.0628 -2.6301
 4654SOL     OW25423   0.990   2.174   0.118  0.1028  0.4586  0.1223
 4654SOL    HW125424   1.043   2.098   0.093 -0.6881 -0.2160  0.5229
 4654SOL    HW225425   1.029   2.249   0.072 -0.0198  0.2343 -0.3522
 4655SOL     OW25426   2.007   2.870   6.645 -0.5171  0.0347  0.1336
 4655SOL    HW125427   2.090   2.833   6.676 -0.5236  0.5073  0.7130
 4655SOL    HW225428   1.946   2.818   6.696 -1.1718  1.0340  0.3655
 4656SOL     OW25429   4.722   3.303   3.893 -0.2194 -0.2273 -0.3978
 4656SOL    HW125430   4.659   3.279   3.825  0.1107 -2.6297  0.1284
 4656SOL    HW225431   0.047   3.370   3.850  1.9099 -1.9303 -0.4737
 4657SOL     OW25432   4.542   2.746   0.429 -0.0906  0.1405 -0.1861
 4657SOL    HW125433   4.489   2.698   0.493 -1.5565  1.6867 -0.2522
 4657SOL    HW225434   4.590   2.805   0.487  1.5299 -3.8957  2.5975
 4658SOL     OW25435   3.587   1.016   5.196  0.6224 -0.2445  0.6816
 4658SOL    HW125436   3.652   1.016   5.266  4.3458 -0.6756 -2.8199
 4658SOL    HW225437   3.524   0.948   5.220 -1.4215  1.8322  1.2509
 4659SOL     OW25438   3.647   3.501   7.531  0.0080 -0.2346 -0.2781
 4659SOL    HW125439   3.575   3.443   7.507  0.3966 -0.5819 -0.5947
 4659SOL    HW225440   3.706   3.477   7.459  1.7015 -0.4394  1.1823
 4660SOL     OW25441   2.470   1.400   2.474 -0.2521 -0.3694  0.0952
 4660SOL    HW125442   2.381   1.421   2.446  0.0590 -0.1183 -0.7087
 4660SOL    HW225443   2.470   1.470   2.539  1.6220 -0.0484 -0.2546
 4661SOL     OW25444   2.440   1.704   4.727  0.5609 -0.0365  0.1002
 4661SOL    HW125445   2.463   1.655   4.806 -0.5414 -0.4761  0.1406
 4661SOL    HW225446   2.507   1.772   4.730  0.4762  0.1013 -1.1680
 4662SOL     OW25447   4.465   3.979   5.628  0.0123 -0.2778 -0.2581
 4662SOL    HW125448   4.385   3.928   5.644  0.8872 -0.8602  2.3710
 4662SOL    HW225449   4.426   4.059   5.593  1.0027  1.3531  2.3509
 4663SOL     OW25450   3.951   3.456   6.826  0.2751 -0.1696  0.0800
 4663SOL    HW125451   3.954   3.382   6.887 -0.8465 -0.6157 -0.4118
 4663SOL    HW225452   3.891   3.417   6.763 -2.0895 -0.5782  2.6155
 4664SOL     OW25453   1.349   4.500   6.407 -0.2692 -0.1652  0.4058
 4664SOL    HW125454   1.308   4.509   6.321 -0.0736 -1.4228  0.1896
 4664SOL    HW225455   1.398   4.582   6.396  1.9539 -1.5678 -0.0209
 4665SOL     OW25456   0.720   0.109  13.128 -0.0444 -0.3338 -0.1693
 4665SOL    HW125457   0.715   0.020  13.161  0.3911 -1.2533 -2.6067
 4665SOL    HW225458   0.667   0.095  13.050 -0.3870 -1.4920  0.2881
 4666SOL     OW25459   3.973   2.591   0.650 -0.3195 -0.5174  0.1712
 4666SOL    HW125460   4.007   2.536   0.719  0.1454 -0.6971 -0.2012
 4666SOL    HW225461   3.914   2.638   0.709 -1.9786 -3.7596  1.1125
 4667SOL     OW25462   1.954   2.755   1.349  0.7759 -0.0987 -0.8463
 4667SOL    HW125463   2.004   2.819   1.298  0.1981 -0.1587 -1.4833
 4667SOL    HW225464   1.984   2.674   1.308 -0.5800 -0.7320 -0.5934
 4668SOL     OW25465   3.791   0.582   1.382 -0.6028  1.0495  0.9069
 4668SOL    HW125466   3.757   0.503   1.341 -2.6700  2.3810  0.1068
 4668SOL    HW225467   3.804   0.630   1.300 -0.2636 -0.0431  0.3196
 4669SOL     OW25468   0.218   2.635  15.343 -0.0440  0.6191  0.4669
 4669SOL    HW125469   0.143   2.664  15.291  0.8061 -3.9938 -3.2534
 4669SOL    HW225470   0.174   2.577  15.405 -2.5541 -0.2728 -2.1784
 4670SOL     OW25471   2.931   1.410   4.335 -0.4686 -0.1922 -0.6336
 4670SOL    HW125472   3.000   1.354   4.298 -0.3108 -0.5158  0.1522
 4670SOL    HW225473   2.982   1.486   4.365 -0.0151 -0.3539 -0.9926
 4671SOL     OW25474   3.834   0.309  12.597  0.0713 -0.0126  0.0815
 4671SOL    HW125475   3.824   0.382  12.536  0.4316  0.5799  0.7266
 4671SOL    HW225476   3.890   0.257  12.539 -1.2601  0.2816 -1.4536
 4672SOL     OW25477   1.978   2.100   6.032  0.2007 -0.2173  0.4887
 4672SOL    HW125478   1.914   2.169   6.012 -1.7865 -1.5931  1.9943
 4672SOL    HW225479   1.934   2.029   5.985  1.1432 -0.6270  0.2295
 4673SOL     OW25480   1.413   2.126   6.006  0.0504  0.2253  0.2217
 4673SOL    HW125481   1.497   2.080   6.000  0.5014  1.0215  0.3828
 4673SOL    HW225482   1.392   2.125   6.099 -1.0382 -0.9419 -0.0423
 4674SOL     OW25483   1.457   4.287   1.563  0.2909  0.5597 -0.2230
 4674SOL    HW125484   1.525   4.342   1.527  2.0620 -2.2577 -1.1747
 4674SOL    HW225485   1.400   4.343   1.617  1.9962  3.0566 -1.0450
 4675SOL     OW25486   2.247   1.699   2.304  0.3690 -0.2389  0.4436
 4675SOL    HW125487   2.301   1.778   2.310  0.2290 -0.1634  0.7003
 4675SOL    HW225488   2.252   1.686   2.209  1.0517  1.0904  0.2935
 4676SOL     OW25489   3.211   0.250   2.094 -0.1140  0.0595  0.4611
 4676SOL    HW125490   3.146   0.209   2.151 -0.2188  0.6213  0.7399
 4676SOL    HW225491   3.283   0.276   2.151 -1.0015  1.4329  0.9682
 4677SOL     OW25492   4.137   1.318   8.440 -0.2333 -0.1674  0.3844
 4677SOL    HW125493   4.159   1.408   8.417 -0.5787 -0.0739  0.4256
 4677SOL    HW225494   4.225   1.280   8.441 -0.1849 -0.1431 -1.3773
 4678SOL     OW25495   0.311   4.291  11.943 -0.0796  0.3242 -0.2782
 4678SOL    HW125496   0.390   4.237  11.939 -0.4936 -0.2272 -0.8797
 4678SOL    HW225497   0.244   4.226  11.962 -2.8966  2.9301 -1.1909
 4679SOL     OW25498   2.459   3.091   6.425  0.2309  0.1840  0.0524
 4679SOL    HW125499   2.375   3.048   6.436 -0.4603  1.6912  0.6507
 4679SOL    HW225500   2.456   3.164   6.487 -1.7349  1.6348 -1.7841
 4680SOL     OW25501   3.338   2.128   0.484  0.6779  0.0399 -0.0914
 4680SOL    HW125502   3.409   2.100   0.427 -0.6212 -0.0271 -1.6847
 4680SOL    HW225503   3.282   2.051   0.471  1.1332 -0.2539 -0.3039
 4681SOL     OW25504   0.671   2.064   4.861 -0.2645 -0.1825  0.7057
 4681SOL    HW125505   0.578   2.050   4.843 -0.1872  1.0717 -0.6614
 4681SOL    HW225506   0.660   2.131   4.928  1.9710  0.7005  0.1947
 4682SOL     OW25507   2.243   0.148   1.662  0.5560 -0.4527  0.0447
 4682SOL    HW125508   2.195   0.164   1.581 -0.6276  1.2307  1.0789
 4682SOL    HW225509   2.260   0.054   1.651  0.6221 -0.5384  0.8842
 4683SOL     OW25510   4.658   4.011  10.632  0.2553  0.0570 -0.3774
 4683SOL    HW125511   4.677   3.917  10.626 -0.3042 -0.0721 -0.1046
 4683SOL    HW225512   4.608   4.018  10.713 -0.2863  1.4151 -0.8326
 4684SOL     OW25513   4.452   3.628   4.407  0.2954  0.5869 -0.3431
 4684SOL    HW125514   4.460   3.607   4.314 -1.1136 -2.7099  0.2869
 4684SOL    HW225515   4.421   3.718   4.399 -0.6987  0.2826  0.1156
 4685SOL     OW25516   0.588   0.441   6.779  0.1807  0.0154 -0.1288
 4685SOL    HW125517   0.523   0.495   6.734 -0.2540 -1.7381 -1.6279
 4685SOL    HW225518   0.586   0.363   6.723 -1.7747 -1.8292  2.4748
 4686SOL     OW25519   4.152   0.834  13.453  0.1757  0.5045  0.0385
 4686SOL    HW125520   4.240   0.813  13.483  0.7114  1.5138 -0.8179
 4686SOL    HW225521   4.095   0.798  13.521  0.7666 -0.4037  0.0607
 4687SOL     OW25522   0.623   0.496   6.067 -0.2761  0.0615 -0.2883
 4687SOL    HW125523   0.711   0.464   6.088 -0.3323 -1.3471 -2.2535
 4687SOL    HW225524   0.594   0.442   5.993  2.2128  0.8793 -1.8555
 4688SOL     OW25525   4.623   4.480   7.240 -0.1169 -0.0068 -0.2233
 4688SOL    HW125526   4.636   4.559   7.187 -5.1769 -0.3712 -1.9683
 4688SOL    HW225527   4.538   4.446   7.211  0.2842 -1.2925  0.1022
 4689SOL     OW25528   0.678   3.265   4.908 -0.6102  0.0581  0.5131
 4689SOL    HW125529   0.676   3.235   4.999  1.0793  1.4762  1.0248
 4689SOL    HW225530   0.770   3.244   4.890 -0.7413 -0.2047  0.1716
 4690SOL     OW25531   3.551   1.534   2.404  0.1444 -0.0886  0.4197
 4690SOL    HW125532   3.637   1.575   2.391  0.9084 -1.5170  0.9456
 4690SOL    HW225533   3.574   1.444   2.381  0.0919  0.1257 -0.4684
 4691SOL     OW25534   4.108   1.985   1.173 -0.0450 -0.2514  0.6731
 4691SOL    HW125535   4.064   1.961   1.091  0.9633 -1.4276  0.4724
 4691SOL    HW225536   4.179   1.923   1.158 -0.8572 -0.8222 -0.8899
 4692SOL     OW25537   1.203   0.175  16.001  0.0303  0.5679  0.1485
 4692SOL    HW125538   1.157   0.135  16.075  2.3416  1.5950  2.1465
 4692SOL    HW225539   1.296   0.164  16.024 -0.3466  1.2162  2.0096
 4693SOL     OW25540   3.357   2.200   2.789  0.3526 -0.1072  0.1824
 4693SOL    HW125541   3.286   2.194   2.725 -0.9745 -1.3152  1.7543
 4693SOL    HW225542   3.391   2.289   2.788 -3.0880  1.1675 -1.9469
 4694SOL     OW25543   3.855   2.726   8.653  0.2018 -0.7087  0.1250
 4694SOL    HW125544   3.790   2.666   8.617 -0.2618 -0.0967 -0.0658
 4694SOL    HW225545   3.888   2.668   8.721 -0.5321  0.1153  1.1921
 4695SOL     OW25546   2.295   4.172   2.970  0.0873 -0.0279 -0.0681
 4695SOL    HW125547   2.289   4.184   2.875 -2.5298 -1.7789 -0.1349
 4695SOL    HW225548   2.303   4.076   2.974  0.5725 -0.0795 -2.3370
 4696SOL     OW25549   0.052   1.444   8.150  0.2618 -0.0488 -0.3298
 4696SOL    HW125550   0.060   1.431   8.056  1.1294  1.4540 -0.4679
 4696SOL    HW225551   0.117   1.513   8.165  0.2225 -0.2375  0.7028
 4697SOL     OW25552   0.512   3.698   2.248  0.2223  0.5073 -0.3840
 4697SOL    HW125553   0.517   3.788   2.215  2.1029  0.8268  0.7656
 4697SOL    HW225554   0.482   3.650   2.170  1.2089 -3.1276  1.4689
 4698SOL     OW25555   4.367   4.675   3.071 -0.9342  0.4668  0.3759
 4698SOL    HW125556   4.307   0.019   3.052  0.3233  1.5252  0.3822
 4698SOL    HW225557   4.439   4.712   3.020  0.2935 -1.6393  0.5655
 4699SOL     OW25558   4.668   2.240   2.540  0.0046  0.5400  1.0418
 4699SOL    HW125559   4.592   2.186   2.561 -0.3098  0.7933  0.5641
 4699SOL    HW225560   0.007   2.177   2.513 -3.6118 -1.1418 -3.8491
 4700SOL     OW25561   2.188   2.560   2.667  0.1274 -0.3790  0.6660
 4700SOL    HW125562   2.205   2.645   2.709 -0.2922  0.2849 -0.5243
 4700SOL    HW225563   2.279   2.533   2.650  0.6449 -0.4141  3.3826
 4701SOL     OW25564   4.330   4.463   1.829  0.1085  0.0123  0.2289
 4701SOL    HW125565   4.317   4.416   1.747 -2.7342 -0.2881  0.8788
 4701SOL    HW225566   4.250   4.447   1.879 -1.4794 -2.2961 -3.1008
 4702SOL     OW25567   1.324   0.320   9.881 -0.0977 -0.2034 -0.1317
 4702SOL    HW125568   1.307   0.344   9.972 -2.9764  1.0939 -1.0259
 4702SOL    HW225569   1.375   0.393   9.845  0.1699 -0.6728 -0.6976
 4703SOL     OW25570   0.099   1.990   4.881  0.1415 -0.0275  0.0652
 4703SOL    HW125571   0.162   2.034   4.825 -0.0933 -0.5463 -0.6121
 4703SOL    HW225572   0.033   1.970   4.814  0.9037  2.7464 -1.4731
 4704SOL     OW25573   3.511   1.421   3.686 -0.5687  0.2172 -0.6386
 4704SOL    HW125574   3.473   1.335   3.668  0.6006 -0.6094  0.8622
 4704SOL    HW225575   3.579   1.424   3.619 -0.0359 -0.8555 -0.1414
 4705SOL     OW25576   0.054   2.849   6.622  0.2601 -0.0867 -0.0053
 4705SOL    HW125577   0.007   2.766   6.638 -1.2266  0.8573  0.5971
 4705SOL    HW225578   0.083   2.881   6.707  0.6663  0.2150 -0.2600
 4706SOL     OW25579   3.891   1.917   5.156 -0.0959  0.1385  0.1161
 4706SOL    HW125580   3.908   1.899   5.248 -2.3715  0.3305  0.5614
 4706SOL    HW225581   3.934   2.003   5.154 -0.6117  0.4224  1.6792
 4707SOL     OW25582   3.140   3.355   4.158  0.5222  0.3614  0.0714
 4707SOL    HW125583   3.172   3.445   4.150 -0.5334  0.7470  0.2453
 4707SOL    HW225584   3.130   3.336   4.065 -0.2110 -0.2339  0.2679
 4708SOL     OW25585   1.932   4.048  16.632  0.6325 -0.2897  0.2537
 4708SOL    HW125586   1.918   4.017  16.721  0.6100 -1.9814 -0.3289
 4708SOL    HW225587   1.852   4.018  16.588 -0.4296  1.8164  0.7234
 4709SOL     OW25588   0.636   3.950   4.095 -0.1340 -0.0529  0.0032
 4709SOL    HW125589   0.559   3.935   4.151 -0.8817  1.1495 -0.6960
 4709SOL    HW225590   0.676   3.864   4.089  1.7610  0.7313  1.3164
 4710SOL     OW25591   1.435   3.496  10.650 -0.1395 -0.7290  0.0278
 4710SOL    HW125592   1.438   3.516  10.556  1.2354  0.3277  0.2985
 4710SOL    HW225593   1.495   3.564  10.682  1.7801 -2.5342  0.2357
 4711SOL     OW25594   4.379   0.494   7.340 -0.4667 -0.3531 -0.4603
 4711SOL    HW125595   4.424   0.556   7.398 -0.5989 -1.5270  0.8983
 4711SOL    HW225596   4.451   0.432   7.329 -1.8767 -1.8605 -1.2145
 4712SOL     OW25597   2.948   3.928   3.878 -0.3966 -0.0881 -0.5179
 4712SOL    HW125598   3.015   3.881   3.828  0.8391  0.3558  0.7175
 4712SOL    HW225599   2.871   3.887   3.839  0.0041 -0.5507 -0.8117
 4713SOL     OW25600   2.745   2.503   4.564  0.3222 -0.4999  0.1834
 4713SOL    HW125601   2.752   2.455   4.482  0.6315 -0.4442  0.1770
 4713SOL    HW225602   2.743   2.593   4.532 -0.8662 -1.0952 -1.4209
 4714SOL     OW25603   1.224   3.261   2.803 -0.1559  0.1133  0.3551
 4714SOL    HW125604   1.154   3.209   2.763 -1.5841  1.7182  0.7540
 4714SOL    HW225605   1.298   3.201   2.812 -0.5755 -0.3300  0.8773
 4715SOL     OW25606   3.334   1.410   6.530 -0.1429  0.3700  0.4475
 4715SOL    HW125607   3.337   1.370   6.443  0.0524  3.5291 -0.9969
 4715SOL    HW225608   3.239   1.422   6.537 -0.1758  1.5774 -2.0859
 4716SOL     OW25609   4.017   3.911   0.069 -0.2939  0.3060  0.4633
 4716SOL    HW125610   3.997   4.000   0.099 -2.0510  0.5420 -1.4576
 4716SOL    HW225611   3.999   3.931  17.688 -0.9027 -1.6423  0.1465
 4717SOL     OW25612   1.095   3.945   2.724 -0.0910  0.1243  0.7234
 4717SOL    HW125613   1.028   4.011   2.745  0.3324  1.0072 -0.6256
 4717SOL    HW225614   1.066   3.909   2.640 -0.7474 -0.5262  1.2376
 4718SOL     OW25615   1.862   2.450  13.114 -0.0141 -0.5566 -0.0955
 4718SOL    HW125616   1.913   2.504  13.175 -1.4598 -0.0485  0.6766
 4718SOL    HW225617   1.878   2.362  13.147 -2.2148 -0.9427 -0.0401
 4719SOL     OW25618   1.244   1.135   2.527  0.0281 -0.2914  0.5656
 4719SOL    HW125619   1.187   1.076   2.477  1.0227 -1.2183  0.5215
 4719SOL    HW225620   1.333   1.100   2.534  0.5971  1.1363  0.2606
 4720SOL     OW25621   0.554   2.696   5.975 -0.1642 -0.1732  0.0847
 4720SOL    HW125622   0.547   2.789   5.999  2.0122 -0.9381  3.5348
 4720SOL    HW225623   0.600   2.696   5.891  0.3980 -0.9518  0.3970
 4721SOL     OW25624   2.097   1.730   0.257  0.3959 -0.1590  0.5524
 4721SOL    HW125625   2.114   1.750   0.165 -1.1126  1.3836  0.5996
 4721SOL    HW225626   2.179   1.684   0.273 -0.6261 -2.3800 -0.5860
 4722SOL     OW25627   4.359   4.279  12.200  0.5678 -0.0605 -0.3374
 4722SOL    HW125628   4.368   4.261  12.293  1.6239 -2.3405 -0.8911
 4722SOL    HW225629   4.410   4.359  12.200 -0.9983  0.9460 -0.6906
 4723SOL     OW25630   0.230   1.612  17.638 -0.0859  0.6561  0.5301
 4723SOL    HW125631   0.252   1.681  17.575  0.0247 -0.1625 -0.3212
 4723SOL    HW225632   0.234   1.663   0.008 -0.7740  1.6955 -0.0834
 4724SOL     OW25633   1.484   2.425   7.788  0.6257  0.0627  0.2675
 4724SOL    HW125634   1.447   2.395   7.871 -1.1539 -3.0718 -1.6920
 4724SOL    HW225635   1.434   2.505   7.773  0.1995 -0.3554 -0.4959
 4725SOL     OW25636   1.836   0.556   0.386 -0.4562  0.7207  0.2367
 4725SOL    HW125637   1.923   0.596   0.385  0.0076 -0.2466  2.3683
 4725SOL    HW225638   1.791   0.611   0.321 -3.7884 -2.2327  0.0158
 4726SOL     OW25639   1.752   1.908   6.745 -0.0569 -0.6239 -0.0820
 4726SOL    HW125640   1.712   1.993   6.761 -0.8092 -0.8750 -0.6093
 4726SOL    HW225641   1.723   1.860   6.823 -1.4828  0.5800  0.1277
 4727SOL     OW25642   0.541   1.876   7.867 -0.6858  0.0789 -0.8020
 4727SOL    HW125643   0.504   1.944   7.923 -0.8420 -1.3508  0.8066
 4727SOL    HW225644   0.610   1.929   7.827  0.8318 -2.3812 -1.4628
 4728SOL     OW25645   2.400   0.158  15.305 -0.5074  0.3017 -0.5534
 4728SOL    HW125646   2.326   0.107  15.274  1.6481 -2.5581 -1.0070
 4728SOL    HW225647   2.430   0.101  15.376 -0.4729 -1.3111 -1.8526
 4729SOL     OW25648   2.319   3.980   4.116  0.0340  0.8582  0.0450
 4729SOL    HW125649   2.324   3.996   4.021 -0.8237 -2.0398 -0.5012
 4729SOL    HW225650   2.356   3.892   4.122 -2.4845 -0.1269  1.1591
 4730SOL     OW25651   1.928   2.247  11.584 -0.3316 -0.2219 -0.3684
 4730SOL    HW125652   2.010   2.293  11.604 -0.2277 -1.4851  2.0208
 4730SOL    HW225653   1.941   2.232  11.490 -1.4399 -0.7259 -0.4451
 4731SOL     OW25654   1.698   2.019  11.422 -0.1271  0.4242 -0.1821
 4731SOL    HW125655   1.685   2.113  11.427  1.9809  0.7177 -0.2773
 4731SOL    HW225656   1.793   2.026  11.427  0.0636 -0.0354 -2.9933
 4732SOL     OW25657   4.323   4.339  15.313 -0.4130 -0.2995  0.0353
 4732SOL    HW125658   4.419   4.335  15.310 -0.4615 -1.8950  0.8342
 4732SOL    HW225659   4.312   4.408  15.378  0.6999  0.4046 -0.5174
 4733SOL     OW25660   3.534   3.397   3.290 -0.4543 -0.1086  0.2588
 4733SOL    HW125661   3.446   3.373   3.320 -0.5371  0.0557  0.1415
 4733SOL    HW225662   3.580   3.421   3.370 -0.2375  1.0954 -0.2320
 4734SOL     OW25663   2.315   1.469   0.627 -0.3767 -0.2275 -0.0562
 4734SOL    HW125664   2.392   1.521   0.607 -0.9758  1.0197  0.8739
 4734SOL    HW225665   2.263   1.529   0.681 -0.1538  1.2199 -1.4631
 4735SOL     OW25666   0.388   3.245   2.158 -0.7384 -0.2040  0.4520
 4735SOL    HW125667   0.432   3.195   2.227  2.3618  1.0985 -0.5630
 4735SOL    HW225668   0.458   3.248   2.092  1.5109  1.2080  2.9202
 4736SOL     OW25669   1.013   1.429   6.886 -0.3181  0.4821  0.6389
 4736SOL    HW125670   1.064   1.348   6.890 -0.0209  0.6009 -1.0417
 4736SOL    HW225671   0.931   1.410   6.933  0.2083  0.6672  1.6486
 4737SOL     OW25672   3.781   3.146   8.950 -0.1532 -0.4483 -0.3056
 4737SOL    HW125673   3.774   3.208   8.878  2.3358  1.5661  1.1975
 4737SOL    HW225674   3.874   3.128   8.963 -0.0966  1.0202  1.2490
 4738SOL     OW25675   4.264   3.582   3.372 -0.0019 -0.1507  0.4115
 4738SOL    HW125676   4.242   3.517   3.439 -0.3432  0.6678  1.1067
 4738SOL    HW225677   4.359   3.595   3.378 -0.0851  1.0780 -1.0237
 4739SOL     OW25678   3.065   1.381   4.630  0.5151  0.5219 -0.0199
 4739SOL    HW125679   3.126   1.307   4.636  0.2583  0.2235 -1.0942
 4739SOL    HW225680   3.001   1.328   4.583  0.1601  1.4539 -0.5719
 4740SOL     OW25681   3.870   4.529  14.837 -0.2186 -0.3913 -0.6847
 4740SOL    HW125682   3.919   4.504  14.759  1.5028 -2.5908  1.0883
 4740SOL    HW225683   3.799   4.465  14.837  1.2022 -2.0056  2.5792
 4741SOL     OW25684   2.360   3.868   2.978  0.9532 -0.1228 -0.3234
 4741SOL    HW125685   2.364   3.773   2.966 -0.7505 -0.7034  3.5397
 4741SOL    HW225686   2.379   3.877   3.072  1.8537 -2.9452 -0.2568
 4742SOL     OW25687   1.063   4.398  15.801  0.1139  0.0106 -0.0087
 4742SOL    HW125688   1.140   4.347  15.776  0.1999  1.2773 -2.2915
 4742SOL    HW225689   0.993   4.355  15.753 -0.5546  0.5987  0.4375
 4743SOL     OW25690   3.870   4.341   7.958  0.1336 -0.3035  0.1872
 4743SOL    HW125691   3.955   4.297   7.960  0.8155  1.0334  0.9376
 4743SOL    HW225692   3.826   4.291   8.026 -1.6721  0.0053 -0.7709
 4744SOL     OW25693   3.578   1.200   4.703  0.2585 -0.2734  0.5233
 4744SOL    HW125694   3.615   1.158   4.781 -0.3764 -1.9481 -0.0792
 4744SOL    HW225695   3.637   1.172   4.633  0.0162 -0.3312  0.3410
 4745SOL     OW25696   3.201   0.713   6.434  0.3796  0.1075 -0.2622
 4745SOL    HW125697   3.252   0.793   6.422 -0.2389  0.3189 -1.5372
 4745SOL    HW225698   3.276   0.668   6.473  1.7328  3.2387  0.7437
 4746SOL     OW25699   3.773   3.190   8.585 -0.4842 -0.2128  0.4447
 4746SOL    HW125700   3.805   3.118   8.530 -0.8605  0.2078 -0.3284
 4746SOL    HW225701   3.853   3.235   8.612 -0.5127 -0.6950  1.3414
 4747SOL     OW25702   1.562   3.395   6.026 -0.2503  0.0725 -0.0688
 4747SOL    HW125703   1.646   3.359   6.056 -0.4327 -0.0478  0.2970
 4747SOL    HW225704   1.560   3.480   6.070  0.4773 -0.6906  1.4427
 4748SOL     OW25705   2.481   1.555  11.711  0.0423  0.5327  0.1495
 4748SOL    HW125706   2.501   1.468  11.745 -2.1903  0.6836  1.8531
 4748SOL    HW225707   2.409   1.528  11.654 -0.2624  0.9377  0.3384
 4749SOL     OW25708   0.257   2.598   0.763 -0.2917  0.1559 -0.2216
 4749SOL    HW125709   0.281   2.516   0.720  1.9196 -0.5107  2.2637
 4749SOL    HW225710   0.210   2.574   0.843 -0.3508 -2.9218 -1.1597
 4750SOL     OW25711   0.651   1.687   8.021  0.4464  0.0767  0.1985
 4750SOL    HW125712   0.662   1.717   8.111 -0.6382  1.0661 -0.0051
 4750SOL    HW225713   0.595   1.744   7.968  0.4638 -0.0124  0.0866
 4751SOL     OW25714   0.921   4.236   2.913  0.1449  0.3666  0.6251
 4751SOL    HW125715   0.983   4.288   2.862 -1.1602  1.6444  0.3316
 4751SOL    HW225716   0.910   4.157   2.860 -1.8691  1.6266 -0.8488
 4752SOL     OW25717   0.855   0.402   9.375  0.4923  0.0049 -0.2008
 4752SOL    HW125718   0.940   0.428   9.340  0.4092  1.5675  0.7503
 4752SOL    HW225719   0.872   0.401   9.469 -1.6506 -1.0675  0.1831
 4753SOL     OW25720   3.072   4.651   7.774  0.0550  0.6793  0.1874
 4753SOL    HW125721   3.010   4.724   7.765 -0.9539 -0.3493 -1.2212
 4753SOL    HW225722   3.157   4.693   7.784 -0.4733  2.2926 -2.0890
 4754SOL     OW25723   1.796   1.895  13.262  0.0578 -0.4149 -0.2279
 4754SOL    HW125724   1.723   1.956  13.251  0.4791 -0.3451 -2.6158
 4754SOL    HW225725   1.762   1.825  13.318 -1.1622 -1.9829 -2.9267
 4755SOL     OW25726   3.207   1.881  15.590 -0.5602  0.6179 -0.4647
 4755SOL    HW125727   3.153   1.885  15.511 -1.5135  0.0070  0.1503
 4755SOL    HW225728   3.289   1.912  15.551 -0.1264  0.6313  0.4707
 4756SOL     OW25729   2.208   1.198  10.169  0.5076  0.1381  0.1954
 4756SOL    HW125730   2.271   1.154  10.113 -1.0185 -2.3271  0.4210
 4756SOL    HW225731   2.148   1.231  10.101 -0.6683  1.6910  1.9700
 4757SOL     OW25732   3.414   3.764   7.049  0.4329  0.2530  0.1774
 4757SOL    HW125733   3.396   3.700   7.118 -1.1646  1.3312  0.7609
 4757SOL    HW225734   3.498   3.727   7.021  1.7735  2.8168  0.8432
 4758SOL     OW25735   3.202   2.970  16.255 -0.4079  0.2828  0.1075
 4758SOL    HW125736   3.142   3.015  16.194 -1.2891  0.3427  1.0207
 4758SOL    HW225737   3.180   3.026  16.329 -1.4538 -0.5100  0.3916
 4759SOL     OW25738   4.031   3.551   3.967 -0.8572 -0.1115 -0.2242
 4759SOL    HW125739   4.062   3.638   3.990 -2.6791  0.5876 -0.4245
 4759SOL    HW225740   3.945   3.570   3.931 -0.5088  2.2275  0.2304
 4760SOL     OW25741   3.245   2.378   0.493 -0.1354 -0.2194 -0.5727
 4760SOL    HW125742   3.178   2.359   0.428  0.0984 -0.9914 -0.5891
 4760SOL    HW225743   3.299   2.299   0.496  1.5862  0.9547 -0.4943
 4761SOL     OW25744   3.519   0.018  13.084  0.2958 -0.6394  0.1829
 4761SOL    HW125745   3.531   0.030  13.178  1.0372  2.0752 -0.2547
 4761SOL    HW225746   3.426   0.006  13.102  0.6304 -0.0053  2.2539
 4762SOL     OW25747   2.644   2.504   1.482  0.3272  0.2073 -0.6024
 4762SOL    HW125748   2.653   2.522   1.389  0.0567  1.3180 -0.4137
 4762SOL    HW225749   2.735   2.514   1.508  0.2402 -0.6833  0.0565
 4763SOL     OW25750   3.338   4.593   3.691  0.1617 -0.9219 -0.1936
 4763SOL    HW125751   3.381   4.637   3.617 -1.4052 -0.2948 -0.7272
 4763SOL    HW225752   3.413   4.542   3.722 -0.0905 -0.4936  1.1427
 4764SOL     OW25753   2.549   0.964   8.502 -0.1426 -1.1436  0.2302
 4764SOL    HW125754   2.534   0.889   8.561  2.9307 -1.5481  0.4877
 4764SOL    HW225755   2.476   1.018   8.533 -0.5659 -1.9551  0.6477
 4765SOL     OW25756   3.933   1.173   9.064 -0.0297  0.1610  0.0999
 4765SOL    HW125757   3.846   1.201   9.035 -0.3410  0.1999  1.0723
 4765SOL    HW225758   3.928   1.078   9.053 -2.8123  0.1324  1.6676
 4766SOL     OW25759   0.143   1.791  16.645  0.7167  0.0474  0.4425
 4766SOL    HW125760   0.176   1.860  16.587  0.1664  0.4336  0.5930
 4766SOL    HW225761   0.049   1.808  16.639  0.9844  1.7830  1.1217
 4767SOL     OW25762   2.073   0.290   6.287  0.0127 -0.4478  0.1435
 4767SOL    HW125763   2.027   0.325   6.211  1.1001  0.6112 -0.0301
 4767SOL    HW225764   2.084   0.198   6.260 -0.9357 -0.2334 -0.9907
 4768SOL     OW25765   3.487   2.270   5.618  0.0885 -0.4769 -0.3582
 4768SOL    HW125766   3.515   2.230   5.701 -0.8420  1.5402  0.9177
 4768SOL    HW225767   3.430   2.199   5.587  0.6822 -1.1404  0.0531
 4769SOL     OW25768   1.826   0.150  10.057 -1.1237 -0.6206  0.3187
 4769SOL    HW125769   1.908   0.154  10.107 -1.9410  1.6660  1.4756
 4769SOL    HW225770   1.818   0.244  10.038  0.4101 -0.6765 -0.5931
 4770SOL     OW25771   3.436   3.894  14.483 -0.7684  0.6155 -0.8296
 4770SOL    HW125772   3.501   3.945  14.531 -0.0863 -1.0330 -0.0455
 4770SOL    HW225773   3.427   3.818  14.540  1.0300  1.7445  0.9570
 4771SOL     OW25774   2.747   2.291   0.117 -0.5726  0.0696 -0.0128
 4771SOL    HW125775   2.682   2.320   0.053 -0.6294  0.2081  0.1081
 4771SOL    HW225776   2.790   2.213   0.081 -1.1886 -0.5687  0.6394
 4772SOL     OW25777   0.823   3.188   7.250  0.1461 -0.1108  0.1874
 4772SOL    HW125778   0.884   3.261   7.257 -1.4445  1.0711  1.6930
 4772SOL    HW225779   0.764   3.224   7.316  0.5974 -1.1970  1.1795
 4773SOL     OW25780   3.648   2.015   8.199  0.0718 -0.2590  0.0293
 4773SOL    HW125781   3.625   2.038   8.289  0.8331  0.1248  0.1286
 4773SOL    HW225782   3.706   1.941   8.220  1.6130  1.3623  1.5517
 4774SOL     OW25783   3.744   4.577  16.596  0.3847 -0.1877 -0.5636
 4774SOL    HW125784   3.739   4.643  16.665  0.3152  0.4624 -1.1984
 4774SOL    HW225785   3.771   4.630  16.521 -0.9052 -1.5093 -1.9615
 4775SOL     OW25786   2.949   2.337   3.225  0.2670 -0.3734 -0.5498
 4775SOL    HW125787   2.940   2.243   3.208  1.1139 -0.8447  1.5259
 4775SOL    HW225788   2.914   2.345   3.314 -0.8063 -1.1646 -0.9020
 4776SOL     OW25789   1.024   4.281   3.364  0.5667  0.0113  0.2511
 4776SOL    HW125790   0.963   4.307   3.295  1.4387 -2.8338 -1.5957
 4776SOL    HW225791   0.979   4.202   3.394  0.3544 -0.0787 -0.3050
 4777SOL     OW25792   2.502   3.663  13.952 -0.3149 -0.4760  0.2899
 4777SOL    HW125793   2.493   3.590  13.892 -2.4419  0.0696 -0.0711
 4777SOL    HW225794   2.575   3.709  13.912 -0.4944  0.6708  1.2329
 4778SOL     OW25795   4.411   4.147   2.559  0.0550  0.0617  1.0694
 4778SOL    HW125796   4.363   4.087   2.502  1.4771 -1.8933  1.9354
 4778SOL    HW225797   4.481   4.093   2.596  0.8719  0.7842  0.5804
 4779SOL     OW25798   4.647   1.789   6.625  1.1616  0.5184 -0.3607
 4779SOL    HW125799   4.693   1.872   6.633 -0.6588  1.4493  0.3699
 4779SOL    HW225800   4.641   1.753   6.713  1.1623 -1.2950 -1.0846
 4780SOL     OW25801   2.281   0.118   3.880 -0.5416  0.0039 -0.6370
 4780SOL    HW125802   2.237   0.203   3.881 -0.1174  0.2218 -0.0475
 4780SOL    HW225803   2.213   0.072   3.931 -1.0893  0.8881 -0.5609
 4781SOL     OW25804   2.548   3.790   2.584 -0.0103  0.6202  0.0831
 4781SOL    HW125805   2.639   3.761   2.591 -0.1399  0.9872  3.2387
 4781SOL    HW225806   2.538   3.791   2.489 -0.7710 -0.7757  0.1556
 4782SOL     OW25807   4.562   1.080   5.308 -0.0457  0.4916  0.2017
 4782SOL    HW125808   4.581   1.035   5.389 -0.8251 -2.1765 -1.0965
 4782SOL    HW225809   4.625   1.047   5.244 -2.4086 -2.6985 -0.5001
 4783SOL     OW25810   2.338   3.124   4.899 -0.0038 -0.2612  0.3468
 4783SOL    HW125811   2.260   3.087   4.859  1.8424 -3.9478  0.1216
 4783SOL    HW225812   2.366   3.206   4.858 -1.7133  0.1051 -0.0825
 4784SOL     OW25813   2.107   1.211   7.368  0.5482  0.4508 -0.8547
 4784SOL    HW125814   2.048   1.227   7.441 -1.1136 -1.7385 -1.7292
 4784SOL    HW225815   2.169   1.156   7.414 -0.2513  0.6607  0.4593
 4785SOL     OW25816   1.945   2.794   7.470  0.3007 -0.5969 -0.0342
 4785SOL    HW125817   2.009   2.863   7.484 -0.9487  0.3708  0.9046
 4785SOL    HW225818   1.999   2.715   7.471  0.7528 -0.2972 -0.9024
 4786SOL     OW25819   4.356   4.224   4.222 -0.3377 -1.1230 -0.2385
 4786SOL    HW125820   4.279   4.221   4.166  1.8379 -0.3474 -3.2546
 4786SOL    HW225821   4.326   4.188   4.305 -0.3860 -0.8759 -0.1501
 4787SOL     OW25822   4.658   3.061   3.615  0.0421  0.0683  0.0709
 4787SOL    HW125823   4.571   3.027   3.596  0.1107  0.7635 -1.4551
 4787SOL    HW225824   4.702   2.976   3.622 -1.6161 -0.7754  0.2219
 4788SOL     OW25825   4.630   0.585   2.908  0.0254 -0.1887 -0.4453
 4788SOL    HW125826   4.587   0.652   2.855 -1.0026  0.3819  1.1282
 4788SOL    HW225827   4.713   0.591   2.861  0.9065 -0.6434  1.0436
 4789SOL     OW25828   2.218   1.466   2.418 -0.1174 -0.4759 -0.2832
 4789SOL    HW125829   2.237   1.545   2.367 -0.2397 -0.5336 -0.4196
 4789SOL    HW225830   2.135   1.440   2.376 -1.3757 -0.4023  2.1569
 4790SOL     OW25831   2.038   2.669  16.324 -0.5456 -0.4370 -0.0766
 4790SOL    HW125832   2.073   2.734  16.264  0.5458 -0.3324  0.6729
 4790SOL    HW225833   2.010   2.605  16.259 -0.2778  0.4045 -1.0114
 4791SOL     OW25834   4.173   4.110   2.041 -0.1447 -0.3349 -0.0171
 4791SOL    HW125835   4.138   4.103   2.130 -1.6332 -2.0732 -0.7230
 4791SOL    HW225836   4.100   4.153   1.996 -0.5339 -1.6234 -0.6150
 4792SOL     OW25837   3.011   0.211   4.615 -0.2021  0.0313  0.0452
 4792SOL    HW125838   3.023   0.116   4.608 -2.2925 -0.2180  0.0668
 4792SOL    HW225839   2.922   0.224   4.647  0.2530  0.5270  1.1021
 4793SOL     OW25840   1.436   3.493   5.730  0.0852 -0.4447 -0.8394
 4793SOL    HW125841   1.352   3.519   5.768 -0.5578  0.0805 -2.6015
 4793SOL    HW225842   1.487   3.492   5.811  0.1682  0.2965 -0.8878
 4794SOL     OW25843   1.081   1.426   2.950 -0.3951  0.8696 -0.0249
 4794SOL    HW125844   1.153   1.449   2.891 -0.4136  0.6796 -0.1236
 4794SOL    HW225845   1.047   1.344   2.914  3.4484 -1.7548  2.3467
 4795SOL     OW25846   1.885   1.140   5.400 -0.5845 -0.2777  0.5356
 4795SOL    HW125847   1.891   1.045   5.389  0.6286 -0.1146 -0.2301
 4795SOL    HW225848   1.972   1.162   5.433 -1.2145  2.6880  0.1257
 4796SOL     OW25849   0.305   4.438   8.147 -0.7815 -0.0033  0.0537
 4796SOL    HW125850   0.391   4.421   8.186 -0.2749  0.3756 -0.8973
 4796SOL    HW225851   0.272   4.349   8.137  0.9132 -0.6009 -0.3565
 4797SOL     OW25852   0.774   2.560   4.320 -0.1415 -0.0419  0.9789
 4797SOL    HW125853   0.743   2.513   4.398  1.0627  0.6520  1.8867
 4797SOL    HW225854   0.838   2.613   4.368 -1.8112  1.0823  1.9365
 4798SOL     OW25855   1.305   1.033   1.702 -0.1543 -0.7172 -0.4873
 4798SOL    HW125856   1.283   1.098   1.635 -2.2656 -2.2209 -1.2679
 4798SOL    HW225857   1.285   1.076   1.785 -0.5812 -2.2321  0.2116
 4799SOL     OW25858   0.705   4.163   2.626  0.4598 -0.3083 -0.0112
 4799SOL    HW125859   0.641   4.211   2.572 -0.6367  1.0060  2.4432
 4799SOL    HW225860   0.674   4.074   2.611 -1.3686  0.4651 -0.9040
 4800SOL     OW25861   1.707   4.106   7.653 -0.2115 -0.1132  0.0044
 4800SOL    HW125862   1.772   4.174   7.670 -0.8828  0.5432 -0.0608
 4800SOL    HW225863   1.624   4.152   7.661  0.6607  0.9612  2.7957
 4801SOL     OW25864   0.425   2.853  15.406 -0.1617 -0.0683 -0.6372
 4801SOL    HW125865   0.455   2.849  15.315  1.8239 -0.4102  0.0338
 4801SOL    HW225866   0.343   2.805  15.392 -1.0648  1.7213 -1.3912
 4802SOL     OW25867   4.354   2.147  15.617 -0.2177 -0.5066 -0.1065
 4802SOL    HW125868   4.417   2.092  15.570  1.2395  0.2880  0.9112
 4802SOL    HW225869   4.319   2.096  15.689 -1.0695 -1.7623 -1.4139
 4803SOL     OW25870   2.565   3.760  15.322  0.1680  0.1003  0.5600
 4803SOL    HW125871   2.537   3.669  15.332 -0.4881  0.0908 -1.3171
 4803SOL    HW225872   2.515   3.776  15.242 -0.9282  2.6923  1.7807
 4804SOL     OW25873   2.850   3.671   7.948  0.1981  0.0242  0.7444
 4804SOL    HW125874   2.896   3.609   8.006  0.2844 -2.9921 -2.5376
 4804SOL    HW225875   2.888   3.657   7.861 -0.8749  1.2590  0.0893
 4805SOL     OW25876   2.759   2.021   0.069 -0.2124 -0.9472 -0.8801
 4805SOL    HW125877   2.681   2.014   0.014  0.7128 -0.4943 -2.2476
 4805SOL    HW225878   2.823   1.965   0.026  1.8580  0.1946  0.7133
 4806SOL     OW25879   1.590   4.448   4.431  0.0728 -0.0369 -0.3099
 4806SOL    HW125880   1.635   4.431   4.349  0.9371  1.5209 -0.1591
 4806SOL    HW225881   1.535   4.525   4.422 -2.1657 -1.5574  0.2803
 4807SOL     OW25882   2.648   2.733   3.143  0.1197  0.0410  0.0903
 4807SOL    HW125883   2.630   2.824   3.118 -0.3944  0.0771  0.6084
 4807SOL    HW225884   2.619   2.686   3.064 -1.1336 -0.7403  1.0220
 4808SOL     OW25885   1.793   0.559  16.278 -0.4839  0.3762  0.0065
 4808SOL    HW125886   1.785   0.476  16.324  3.3032  2.1834  3.9479
 4808SOL    HW225887   1.757   0.528  16.195 -0.6992 -0.1433  0.2930
 4809SOL     OW25888   1.201   2.262   5.195 -0.1783 -0.2209 -0.1287
 4809SOL    HW125889   1.215   2.340   5.249  2.0463 -0.2265 -0.6990
 4809SOL    HW225890   1.116   2.287   5.159 -0.6601 -0.4697  0.8580
 4810SOL     OW25891   4.328   1.273   3.104 -0.0450  0.6749 -0.3957
 4810SOL    HW125892   4.329   1.354   3.052 -2.7600  0.6471 -0.5146
 4810SOL    HW225893   4.411   1.274   3.152  0.3784  3.5659 -1.1599
 4811SOL     OW25894   4.541   0.160   5.439  0.1625  0.4760 -0.0492
 4811SOL    HW125895   4.551   0.217   5.363 -1.5466  1.0631  0.1669
 4811SOL    HW225896   4.625   0.172   5.483  0.6053 -2.2418 -0.1575
 4812SOL     OW25897   4.169   2.507   0.894  0.5579 -0.3907 -0.3617
 4812SOL    HW125898   4.246   2.562   0.907  0.2140  0.4054 -1.6395
 4812SOL    HW225899   4.200   2.420   0.867 -0.6611 -0.6937 -0.7581
 4813SOL     OW25900   2.727   0.404   5.088  0.1808  0.3535  0.4062
 4813SOL    HW125901   2.721   0.415   5.183  1.7166  1.8429  0.3361
 4813SOL    HW225902   2.816   0.369   5.081 -0.6819 -2.0288  1.3382
 4814SOL     OW25903   0.041   2.880   3.108 -0.4792  0.0909  0.2220
 4814SOL    HW125904   4.680   2.862   3.141 -0.9376 -1.0133 -1.6017
 4814SOL    HW225905   0.053   2.802   3.054  2.2306 -0.6084  1.8715
 4815SOL     OW25906   0.451   3.485  16.545  0.1938 -0.2414 -0.3758
 4815SOL    HW125907   0.453   3.578  16.569  0.9386 -0.3338 -0.0794
 4815SOL    HW225908   0.358   3.465  16.547  0.4677 -1.1999  1.9969
 4816SOL     OW25909   1.113   1.761   2.588 -0.2567 -0.4826  0.3537
 4816SOL    HW125910   1.079   1.697   2.526  0.7593 -0.8919  0.2147
 4816SOL    HW225911   1.174   1.704   2.635  0.0766 -0.4419 -0.0335
 4817SOL     OW25912   3.766   1.293  10.584 -0.2211 -0.4274 -1.1332
 4817SOL    HW125913   3.742   1.383  10.564  0.0445  0.0305  0.6387
 4817SOL    HW225914   3.706   1.245  10.526 -0.6677  0.6511 -1.5663
 4818SOL     OW25915   2.170   2.226   1.463 -0.3294 -0.3493 -0.0110
 4818SOL    HW125916   2.185   2.314   1.498 -1.2187 -0.3986  0.4964
 4818SOL    HW225917   2.091   2.248   1.415 -0.3478  3.4711  1.7918
 4819SOL     OW25918   0.019   4.679   6.702 -0.2584  0.2980 -0.3924
 4819SOL    HW125919   0.033   4.647   6.613  1.2876 -1.1112  0.3530
 4819SOL    HW225920   0.042   4.611   6.764 -0.7460  1.1478  0.7186
 4820SOL     OW25921   0.227   4.404   6.292  0.3580 -0.3897  0.1363
 4820SOL    HW125922   0.174   4.374   6.217  1.1557 -0.7775 -0.2677
 4820SOL    HW225923   0.281   4.325   6.291 -1.3454 -1.5667 -0.1103
 4821SOL     OW25924   2.998   2.348  16.051  0.2397 -0.3270 -0.6637
 4821SOL    HW125925   2.995   2.309  16.138  0.0934  1.7270  0.2519
 4821SOL    HW225926   3.074   2.406  16.063  0.4056 -1.0449  1.5989
 4822SOL     OW25927   1.733   2.611   5.857  0.1650  0.7363  0.4099
 4822SOL    HW125928   1.722   2.553   5.781 -0.7517  0.9686  0.3623
 4822SOL    HW225929   1.644   2.646   5.869 -0.0230  0.0802  0.9751
 4823SOL     OW25930   2.869   0.831   8.311 -0.8271  0.2616  0.0779
 4823SOL    HW125931   2.856   0.909   8.257 -1.4542  0.8002  1.0156
 4823SOL    HW225932   2.952   0.851   8.354 -0.4105  0.1202 -0.6672
 4824SOL     OW25933   2.242   3.174  14.760  0.4561  0.5407  0.1951
 4824SOL    HW125934   2.219   3.124  14.838  0.2928  0.2517 -0.0350
 4824SOL    HW225935   2.267   3.099  14.705  1.2596  0.4580  0.6883
 4825SOL     OW25936   2.736   4.396   2.427 -0.5337 -0.0914  0.6469
 4825SOL    HW125937   2.686   4.317   2.407 -0.3999  0.3811 -1.5609
 4825SOL    HW225938   2.769   4.408   2.338  1.2362  0.3369  1.3616
 4826SOL     OW25939   3.426   0.629   7.906  0.1685  0.0348  0.4125
 4826SOL    HW125940   3.405   0.570   7.978  3.8025  1.0343  2.3224
 4826SOL    HW225941   3.490   0.579   7.856  1.0970  0.5979  1.0287
 4827SOL     OW25942   3.128   3.371  15.426  0.1132 -0.0107 -0.5324
 4827SOL    HW125943   3.192   3.439  15.402 -0.8033  1.3948  1.0357
 4827SOL    HW225944   3.058   3.434  15.443 -1.4631 -1.5888 -1.2702
 4828SOL     OW25945   3.674   0.474   2.041  0.4174 -0.0086  0.1392
 4828SOL    HW125946   3.610   0.474   1.970 -0.5736  1.0571  1.0189
 4828SOL    HW225947   3.720   0.395   2.012 -2.5387 -1.0747 -1.7202
 4829SOL     OW25948   1.762   1.685   7.698  0.9764  0.2517 -0.7295
 4829SOL    HW125949   1.772   1.742   7.621  1.2634 -0.3592 -1.1376
 4829SOL    HW225950   1.850   1.650   7.707  0.4319 -1.3237 -1.5507
 4830SOL     OW25951   0.052   3.215   2.254  0.2186  0.3926 -0.1142
 4830SOL    HW125952   0.019   3.143   2.309  2.7650 -0.6065  0.1178
 4830SOL    HW225953   0.057   3.173   2.168 -2.8047 -2.5313  1.1224
 4831SOL     OW25954   0.646   0.250  13.624  0.8219  0.3627  0.3124
 4831SOL    HW125955   0.655   0.174  13.681 -0.3718  0.6915  0.9202
 4831SOL    HW225956   0.565   0.293  13.650  2.5763  2.5664  2.2716
 4832SOL     OW25957   1.002   2.503   9.791  0.8535  0.1113 -0.3614
 4832SOL    HW125958   0.953   2.430   9.828  2.8902 -0.9716  0.1951
 4832SOL    HW225959   0.931   2.565   9.770  1.3729  0.8198 -0.0222
 4833SOL     OW25960   0.651   1.871  14.157  0.4625 -0.2514 -0.0144
 4833SOL    HW125961   0.580   1.866  14.093 -0.7465 -1.1636  1.4091
 4833SOL    HW225962   0.716   1.888  14.089 -0.3556 -1.4399 -1.0911
 4834SOL     OW25963   2.665   0.441   2.405  0.5281  0.3727 -0.0034
 4834SOL    HW125964   2.702   0.379   2.468 -0.9683  0.1144  0.6367
 4834SOL    HW225965   2.714   0.434   2.323  1.5803 -2.4716  0.8672
 4835SOL     OW25966   2.144   3.547   8.319  0.0162 -0.5933 -0.2831
 4835SOL    HW125967   2.134   3.473   8.379  1.0328  0.1339  0.7786
 4835SOL    HW225968   2.231   3.583   8.333  0.9762 -2.5925 -1.1833
 4836SOL     OW25969   1.021   1.207   5.106  0.2480 -0.4973  0.8806
 4836SOL    HW125970   1.008   1.168   5.019  0.3374 -0.4941  0.8656
 4836SOL    HW225971   1.110   1.240   5.096  0.2370 -0.4100  1.0869
 4837SOL     OW25972   3.837   0.667   9.102  0.5170 -0.4613 -0.5590
 4837SOL    HW125973   3.875   0.712   9.177  1.1788 -1.1102 -0.5122
 4837SOL    HW225974   3.748   0.703   9.093  0.9584  0.4550 -1.2602
 4838SOL     OW25975   0.747   1.947   8.697 -0.1133  0.6529  0.3659
 4838SOL    HW125976   0.739   1.897   8.778 -0.7230 -2.0563 -1.3546
 4838SOL    HW225977   0.799   2.021   8.727  1.4975  0.7889 -2.7842
 4839SOL     OW25978   0.495   2.704   9.725  0.4852  0.4938 -0.7292
 4839SOL    HW125979   0.407   2.694   9.688  1.1033  1.0268 -2.3350
 4839SOL    HW225980   0.493   2.669   9.814 -1.1953 -0.1354 -1.0210
 4840SOL     OW25981   4.205   4.087   0.590  0.1607 -0.3759 -0.0836
 4840SOL    HW125982   4.201   4.051   0.502  0.0834  1.5316 -0.8586
 4840SOL    HW225983   4.298   4.084   0.614  0.3180  2.9419 -0.2648
 4841SOL     OW25984   1.750   0.296   3.787 -0.4136  0.2647 -0.6256
 4841SOL    HW125985   1.678   0.328   3.732 -0.8602 -0.5518 -0.5241
 4841SOL    HW225986   1.818   0.351   3.749  1.6878 -1.2666  0.9523
 4842SOL     OW25987   0.761   3.126  10.358 -0.0793  0.0689 -0.2238
 4842SOL    HW125988   0.840   3.131  10.412  0.1514  1.1023 -0.6554
 4842SOL    HW225989   0.732   3.043  10.395  3.9494 -1.1912  0.0949
 4843SOL     OW25990   3.350   3.801   3.382  0.3483  0.4987  0.2875
 4843SOL    HW125991   3.433   3.768   3.417  0.6295 -0.4360 -1.2483
 4843SOL    HW225992   3.383   3.797   3.292  1.3863  0.9255  0.6569
 4844SOL     OW25993   2.185   2.499   2.285 -0.0765  0.5181 -0.2581
 4844SOL    HW125994   2.256   2.549   2.324 -0.2865  0.9421 -0.4232
 4844SOL    HW225995   2.110   2.519   2.341 -0.5919  1.4284 -1.2804
 4845SOL     OW25996   3.614   3.293   1.235 -0.2181  0.1512  0.0194
 4845SOL    HW125997   3.548   3.361   1.222  0.5760  0.4836 -2.2263
 4845SOL    HW225998   3.692   3.345   1.252  0.7959 -1.3328 -0.1083
 4846SOL     OW25999   4.192   1.847   3.208 -0.1584  0.1228  0.0964
 4846SOL    HW126000   4.237   1.794   3.274 -1.3472  0.0269  0.8300
 4846SOL    HW226001   4.238   1.836   3.125  0.2881 -2.5537  0.6809
 4847SOL     OW26002   2.153   1.471  10.411 -0.7150 -0.5037  0.6483
 4847SOL    HW126003   2.118   1.418  10.482  0.6312 -0.3158  1.4689
 4847SOL    HW226004   2.120   1.554  10.446 -0.6992 -0.2223 -0.0012
 4848SOL     OW26005   1.590   0.365   5.035  0.3619 -0.2953  0.2567
 4848SOL    HW126006   1.532   0.291   5.020 -0.7702  0.8756 -1.1829
 4848SOL    HW226007   1.633   0.355   4.950  1.0109 -1.4844  0.7249
 4849SOL     OW26008   0.564   3.225   1.889 -0.5706  0.0197 -0.1916
 4849SOL    HW126009   0.635   3.230   1.825  0.4826 -0.8475  0.9157
 4849SOL    HW226010   0.497   3.273   1.840 -1.2015  0.0770  0.7165
 4850SOL     OW26011   2.139   3.190   9.412  0.3602 -0.6608  0.2977
 4850SOL    HW126012   2.202   3.162   9.478  0.8249 -1.2031 -0.3710
 4850SOL    HW226013   2.128   3.105   9.367  1.2958 -0.0748 -1.0350
 4851SOL     OW26014   3.027   2.061   1.785  0.0837 -0.3608  0.2096
 4851SOL    HW126015   2.961   2.025   1.843 -0.5468  2.1442  1.0382
 4851SOL    HW226016   3.108   2.061   1.836  1.0836  0.7649 -1.3769
 4852SOL     OW26017   3.464   2.911  16.909  0.1100  0.1184  0.0729
 4852SOL    HW126018   3.421   2.827  16.889 -0.2969 -0.0434  1.5942
 4852SOL    HW226019   3.510   2.933  16.828  0.5230 -0.3415  0.1855
 4853SOL     OW26020   1.667   3.378  10.400 -0.2474 -0.0462  0.1916
 4853SOL    HW126021   1.742   3.338  10.356 -1.2709  0.7018 -2.2875
 4853SOL    HW226022   1.714   3.443  10.453  2.0168 -1.2520 -0.3533
 4854SOL     OW26023   0.897   1.605   4.874  0.6980  0.3144  0.0663
 4854SOL    HW126024   0.851   1.540   4.927  0.5837 -0.2767 -0.7554
 4854SOL    HW226025   0.829   1.658   4.833 -0.2723  0.9023  2.4562
 4855SOL     OW26026   2.696   2.318  14.467 -0.4999  0.3236  0.0212
 4855SOL    HW126027   2.750   2.357  14.399  0.3656  0.0618  0.5535
 4855SOL    HW226028   2.759   2.265  14.517  1.2635  0.8445 -1.6375
 4856SOL     OW26029   3.587   0.734   0.076  0.0324  0.6464 -0.3459
 4856SOL    HW126030   3.510   0.690   0.039  0.4982 -0.7742  0.4081
 4856SOL    HW226031   3.577   0.715   0.169 -1.5384  3.6404  0.1090
 4857SOL     OW26032   1.091   1.380   2.269 -0.4436  0.7745 -0.2336
 4857SOL    HW126033   1.023   1.323   2.232 -2.7756  2.9060  0.7489
 4857SOL    HW226034   1.164   1.344   2.220 -1.1137  0.0663 -0.7151
 4858SOL     OW26035   3.959   2.614   5.583 -0.2946  0.3055 -0.5523
 4858SOL    HW126036   3.876   2.572   5.608 -0.1704  0.1178 -0.4548
 4858SOL    HW226037   4.014   2.564   5.644 -1.4594  0.7058  0.8345
 4859SOL     OW26038   3.142   2.054  15.820 -0.0886  0.4665  0.7840
 4859SOL    HW126039   3.178   1.996  15.753  1.5969 -2.0862  3.8959
 4859SOL    HW226040   3.095   2.111  15.760  1.1548  2.3670  1.6070
 4860SOL     OW26041   1.050   2.754   8.257  0.0407  0.7008  0.4319
 4860SOL    HW126042   1.023   2.839   8.222  0.1331  0.7523  0.4861
 4860SOL    HW226043   1.039   2.775   8.350 -1.4645  2.2549 -0.0900
 4861SOL     OW26044   3.204   2.711   1.394 -0.4972  0.2943 -0.2205
 4861SOL    HW126045   3.184   2.617   1.400 -0.0041  0.0030 -3.1505
 4861SOL    HW226046   3.171   2.740   1.309 -3.0727 -0.7525  0.4294
 4862SOL     OW26047   3.151   2.567  11.637  0.3413 -0.0583  0.3078
 4862SOL    HW126048   3.132   2.647  11.686 -0.7249  0.1505 -0.4369
 4862SOL    HW226049   3.164   2.498  11.701  1.7764 -0.7201 -0.6793
 4863SOL     OW26050   3.642   0.967  12.368 -0.2418 -0.1595  0.0242
 4863SOL    HW126051   3.580   0.936  12.302  0.0434 -0.0161 -0.3069
 4863SOL    HW226052   3.632   0.907  12.442 -1.2763  0.2464  0.2216
 4864SOL     OW26053   4.132   4.374   9.474 -0.0431 -0.1269 -0.0182
 4864SOL    HW126054   4.052   4.349   9.521  0.1290 -1.7694 -0.5986
 4864SOL    HW226055   4.183   4.420   9.540  1.9677 -1.4172 -0.6570
 4865SOL     OW26056   4.536   1.106   2.304  0.3404  0.4747  0.2776
 4865SOL    HW126057   4.465   1.171   2.295 -0.4577 -0.2739  1.1713
 4865SOL    HW226058   4.519   1.050   2.228  3.0814 -0.1564  0.1343
 4866SOL     OW26059   3.184   2.444   1.457  0.1343 -0.2197 -0.0563
 4866SOL    HW126060   3.230   2.410   1.380  0.8433 -2.6198  1.4234
 4866SOL    HW226061   3.167   2.356   1.492 -1.6984  0.0398 -0.2816
 4867SOL     OW26062   4.205   2.997  17.171 -0.0270  0.0589 -0.3546
 4867SOL    HW126063   4.187   2.983  17.078 -1.6842  1.2294 -0.1972
 4867SOL    HW226064   4.271   3.066  17.165 -0.7495  0.7254 -0.5688
 4868SOL     OW26065   4.444   4.255   5.478 -0.0680  0.0372  0.1609
 4868SOL    HW126066   4.469   4.230   5.389  3.1493  1.1742  0.7678
 4868SOL    HW226067   4.389   4.332   5.461 -2.0401 -1.5482 -0.7172
 4869SOL     OW26068   2.153   3.422   1.493 -0.3265  0.2766  0.3463
 4869SOL    HW126069   2.224   3.391   1.549 -2.6367 -0.0856  3.0673
 4869SOL    HW226070   2.178   3.371   1.416  2.8386 -0.7433  2.0637
 4870SOL     OW26071   3.156   1.881   8.064  0.5982 -0.1169 -0.1338
 4870SOL    HW126072   3.172   1.821   8.137  0.5794 -0.9665 -0.8347
 4870SOL    HW226073   3.230   1.941   8.060  1.3168 -0.8824  1.5228
 4871SOL     OW26074   1.094   0.404   7.046 -0.3292  0.3134 -0.1607
 4871SOL    HW126075   1.186   0.432   7.041 -0.2314 -0.2137 -1.4926
 4871SOL    HW226076   1.083   0.353   7.126  1.1257 -1.0249 -0.8005
 4872SOL     OW26077   3.559   2.774  12.266  0.4016  0.4038 -0.4497
 4872SOL    HW126078   3.639   2.828  12.267  0.8066 -0.2053 -0.0718
 4872SOL    HW226079   3.589   2.696  12.219  0.7164 -0.9580  1.9912
 4873SOL     OW26080   1.559   4.232  15.553 -0.5542 -0.0168 -0.3392
 4873SOL    HW126081   1.592   4.296  15.617  0.4742 -1.8823  0.9985
 4873SOL    HW226082   1.548   4.152  15.604 -0.3292 -0.2466 -0.6508
 4874SOL     OW26083   4.713   3.003  13.859 -0.0914 -0.5400 -0.8175
 4874SOL    HW126084   4.720   2.978  13.951 -1.4639  2.5098  0.1391
 4874SOL    HW226085   4.716   2.924  13.805  1.1437  0.6465 -2.4516
 4875SOL     OW26086   4.557   1.641   9.147 -0.0118 -0.0875 -0.4672
 4875SOL    HW126087   4.491   1.634   9.078  0.8390  2.5844 -1.5265
 4875SOL    HW226088   4.604   1.717   9.114 -1.5818  0.2967 -1.8361
 4876SOL     OW26089   0.877   2.591   5.133 -0.2340  0.1641  0.2536
 4876SOL    HW126090   0.804   2.560   5.080  0.4895  0.0610 -0.6852
 4876SOL    HW226091   0.946   2.548   5.081  0.4249 -1.7443  2.7231
 4877SOL     OW26092   2.061   2.401   3.416 -0.0471 -0.6811 -0.0850
 4877SOL    HW126093   2.086   2.320   3.371 -1.4876 -0.6735 -0.9036
 4877SOL    HW226094   2.086   2.466   3.349  5.0170 -2.6997 -0.1947
 4878SOL     OW26095   3.990   0.331   8.295  0.3277 -0.3678  0.1181
 4878SOL    HW126096   3.993   0.407   8.353  0.8418 -0.4674  0.2151
 4878SOL    HW226097   4.013   0.368   8.210 -0.9728  0.4015  0.1075
 4879SOL     OW26098   4.274   0.241   7.274  1.0577  0.3276  0.5143
 4879SOL    HW126099   4.270   0.332   7.303  0.9174  0.2247  0.8202
 4879SOL    HW226100   4.182   0.219   7.263  0.8304  0.6646  1.7241
 4880SOL     OW26101   3.651   3.959   3.578  0.5455  0.2391 -0.2328
 4880SOL    HW126102   3.662   4.007   3.496 -0.2333 -0.5608 -0.8014
 4880SOL    HW226103   3.626   3.873   3.542 -2.5436  2.1467 -2.6183
 4881SOL     OW26104   4.094   4.134   8.756 -0.4501 -0.3945 -0.5147
 4881SOL    HW126105   4.182   4.170   8.760 -0.9640  0.7873  0.2467
 4881SOL    HW226106   4.088   4.109   8.664 -2.0683  0.7758 -0.7211
 4882SOL     OW26107   4.203   2.725   1.166  0.3904 -0.1812 -1.0008
 4882SOL    HW126108   4.191   2.772   1.083  1.9621  0.5829 -0.7873
 4882SOL    HW226109   4.129   2.664   1.164 -0.5087  0.8896  0.1133
 4883SOL     OW26110   1.302   0.457  13.383 -0.0196  0.3912  0.4467
 4883SOL    HW126111   1.218   0.411  13.381  0.4094 -0.3173 -1.4033
 4883SOL    HW226112   1.359   0.389  13.420 -0.9784 -1.1101 -0.7953
 4884SOL     OW26113   1.838   4.417   3.363  0.2356 -0.0270  0.2255
 4884SOL    HW126114   1.804   4.462   3.441 -0.0350  1.0276 -0.5013
 4884SOL    HW226115   1.933   4.415   3.376  0.3331  0.7332 -0.4042
 4885SOL     OW26116   0.766   4.697  14.863 -0.4226  0.5019  0.0991
 4885SOL    HW126117   0.729   4.612  14.841 -1.5289  1.6616 -2.6300
 4885SOL    HW226118   0.740   0.009  14.780  0.2292  1.4001  0.3209
 4886SOL     OW26119   4.437   2.694   3.351  0.6796  0.0197  0.2850
 4886SOL    HW126120   4.423   2.602   3.370 -1.7082  0.4561  0.6262
 4886SOL    HW226121   4.347   2.726   3.358  0.8415  0.8529 -1.4885
 4887SOL     OW26122   3.805   3.097   3.277  0.9296 -0.6259  0.4426
 4887SOL    HW126123   3.838   3.038   3.209  0.9188 -0.7784  0.5692
 4887SOL    HW226124   3.844   3.180   3.252  0.0095 -0.3305 -0.0411
 4888SOL     OW26125   4.086   4.690   7.589 -0.6193 -0.7560 -0.1243
 4888SOL    HW126126   4.127   4.606   7.572 -0.3524 -0.6697  0.1020
 4888SOL    HW226127   4.015   4.659   7.646 -0.8083  0.2268  0.1857
 4889SOL     OW26128   3.576   2.106   8.443 -0.4677  0.2217  0.0045
 4889SOL    HW126129   3.578   2.042   8.514  3.3237 -0.2256 -0.5229
 4889SOL    HW226130   3.593   2.189   8.486 -2.9211  0.3475  0.7570
 4890SOL     OW26131   1.817   3.600  10.485 -0.1118  0.8576 -0.5107
 4890SOL    HW126132   1.837   3.624  10.576 -0.2227 -0.5034 -0.1288
 4890SOL    HW226133   1.903   3.594  10.443  0.5645 -1.2954  1.2363
 4891SOL     OW26134   3.589   1.735  13.719 -0.2547 -0.3522  0.0437
 4891SOL    HW126135   3.537   1.745  13.798 -2.9516  0.3229 -1.8144
 4891SOL    HW226136   3.648   1.807  13.739  0.9736 -1.4290  0.3165
 4892SOL     OW26137   4.596   2.139   5.033  0.5536  0.4370  0.6879
 4892SOL    HW126138   4.644   2.147   5.115  0.0563  0.6041  0.9645
 4892SOL    HW226139   4.629   2.051   5.014 -0.9298  0.3245 -1.4305
 4893SOL     OW26140   1.120   0.279   2.606  0.0382  0.8146 -0.0914
 4893SOL    HW126141   1.029   0.277   2.636 -0.7476 -1.1042 -2.6357
 4893SOL    HW226142   1.160   0.342   2.666  2.9175 -0.9789 -0.1171
 4894SOL     OW26143   1.780   0.185   5.532  0.0430 -0.2512 -0.6530
 4894SOL    HW126144   1.867   0.215   5.558 -1.2114  0.9407  2.1686
 4894SOL    HW226145   1.783   0.094   5.562 -1.0892  0.4680  1.6034
 4895SOL     OW26146   2.990   1.987  17.302  0.3942  0.3185 -0.5665
 4895SOL    HW126147   3.020   2.076  17.283  1.5923 -0.0839 -0.5044
 4895SOL    HW226148   2.898   2.006  17.320  0.4630 -1.1425  1.2504
 4896SOL     OW26149   3.234   4.267   2.688 -0.3564  0.3970  0.2172
 4896SOL    HW126150   3.153   4.260   2.638 -0.4431  0.9675  0.2856
 4896SOL    HW226151   3.240   4.361   2.701  0.7077  0.6630 -2.2764
 4897SOL     OW26152   0.323   3.191  14.155  0.5221  0.1170  0.1734
 4897SOL    HW126153   0.244   3.243  14.172 -0.0677  0.0281 -2.3214
 4897SOL    HW226154   0.318   3.165  14.063  0.3458  0.8560 -0.0248
 4898SOL     OW26155   3.885   2.784   6.807  0.1859  0.0717  0.0652
 4898SOL    HW126156   3.804   2.830   6.829  0.8410  2.0888 -1.7442
 4898SOL    HW226157   3.878   2.749   6.718  0.2971 -0.8155  0.4059
 4899SOL     OW26158   3.015   3.506   8.069  0.4996 -0.2544  0.7073
 4899SOL    HW126159   3.075   3.538   8.136  0.4068  1.2278  0.1036
 4899SOL    HW226160   3.001   3.413   8.083  1.2753 -0.8128 -2.2256
 4900SOL     OW26161   3.693   3.986   8.022 -0.0395  0.1017  0.5397
 4900SOL    HW126162   3.739   4.056   8.069  0.8469  1.0695 -1.7437
 4900SOL    HW226163   3.697   3.921   8.092 -1.5443 -1.6478 -1.0054
 4901SOL     OW26164   4.219   3.457   5.586 -0.1910  0.7212 -0.1556
 4901SOL    HW126165   4.208   3.421   5.674  0.6172 -0.0034 -0.3543
 4901SOL    HW226166   4.293   3.408   5.553  1.1316  1.3910  1.8288
 4902SOL     OW26167   2.395   3.699   4.472  0.2979 -0.5608  0.2738
 4902SOL    HW126168   2.490   3.691   4.477  0.2980 -0.3833  0.5405
 4902SOL    HW226169   2.366   3.621   4.424  1.8453 -0.4501 -0.8440
 4903SOL     OW26170   3.919   1.171   8.388  0.2145  0.5169 -0.0648
 4903SOL    HW126171   3.971   1.095   8.414 -0.8709  0.5935  2.4141
 4903SOL    HW226172   3.986   1.237   8.404  0.5681 -0.0587  0.8757
 4904SOL     OW26173   3.004   4.114  16.536 -0.3784 -0.2430 -0.3198
 4904SOL    HW126174   3.074   4.165  16.496 -1.1318  0.5359 -0.6450
 4904SOL    HW226175   2.952   4.098  16.458  1.1323  0.0947 -1.3803
 4905SOL     OW26176   1.809   1.766   4.837  0.1629  0.6756  0.9536
 4905SOL    HW126177   1.780   1.820   4.764  3.0246  0.8875 -0.0141
 4905SOL    HW226178   1.848   1.839   4.885 -0.1957  0.6219  1.3343
 4906SOL     OW26179   0.107   0.440   2.637 -0.3411  0.3093 -0.1286
 4906SOL    HW126180   0.132   0.510   2.697  1.6560  0.2718 -0.9307
 4906SOL    HW226181   0.177   0.458   2.575  1.8239  0.8565  2.4761
 4907SOL     OW26182   2.648   3.995   9.037  0.3284 -0.0034  0.1393
 4907SOL    HW126183   2.601   4.035   9.111  0.1608 -0.1687  0.1225
 4907SOL    HW226184   2.719   4.060   9.033 -0.2666  0.6215 -0.2885
 4908SOL     OW26185   0.734   3.467   2.404 -0.2162 -1.0988 -0.8197
 4908SOL    HW126186   0.720   3.436   2.314  0.1160  0.6704 -1.4663
 4908SOL    HW226187   0.784   3.402   2.453 -0.0816  0.9756  1.7908
 4909SOL     OW26188   0.865   0.048  17.433 -0.2932  0.2720 -0.2457
 4909SOL    HW126189   0.790   0.099  17.462  0.4138 -0.2432  2.5605
 4909SOL    HW226190   0.924   0.084  17.500  2.0029 -0.6076 -1.8016
 4910SOL     OW26191   0.048   2.314   9.842  0.0567 -0.3145 -0.4098
 4910SOL    HW126192   0.088   2.349   9.922 -1.6808 -1.2367  0.8642
 4910SOL    HW226193   4.685   2.309   9.873  0.7926  3.5980  2.3998
 4911SOL     OW26194   2.514   1.562   8.472 -0.1412  0.6900 -0.4134
 4911SOL    HW126195   2.452   1.507   8.520 -0.0083  1.6746  0.8546
 4911SOL    HW226196   2.492   1.544   8.380 -0.3089  2.6175 -0.7558
 4912SOL     OW26197   1.706   0.297   8.095  0.7573 -0.3478  0.3955
 4912SOL    HW126198   1.651   0.315   8.020  1.2566  0.5588  0.2407
 4912SOL    HW226199   1.638   0.258   8.149 -2.4288  0.0091 -3.4384
 4913SOL     OW26200   0.300   4.601   5.005 -0.8437 -0.3615 -0.1031
 4913SOL    HW126201   0.370   4.551   4.964  1.6223  2.6567  0.4439
 4913SOL    HW226202   0.346   4.647   5.075 -0.5537 -0.3451 -0.3048
 4914SOL     OW26203   1.075   0.958  14.978  0.4884  0.1273  0.1454
 4914SOL    HW126204   1.105   1.008  14.903 -3.2908  0.0405 -1.4247
 4914SOL    HW226205   1.147   0.980  15.038  1.2495 -0.6189 -0.5004
 4915SOL     OW26206   2.780   1.947   6.397 -0.5457 -0.2832  0.1470
 4915SOL    HW126207   2.771   1.855   6.369  0.0399 -0.0227 -0.9005
 4915SOL    HW226208   2.849   1.948   6.464 -3.5619 -0.7033  3.2939
 4916SOL     OW26209   2.306   2.137   1.210  0.2784 -0.1179 -0.5025
 4916SOL    HW126210   2.235   2.075   1.227 -0.6681  0.5090 -2.0611
 4916SOL    HW226211   2.305   2.194   1.287  1.1468  1.2738 -1.5246
 4917SOL     OW26212   2.244   4.136   5.791 -0.2838 -0.2302 -0.3266
 4917SOL    HW126213   2.189   4.143   5.713  0.3300 -0.2529 -0.7659
 4917SOL    HW226214   2.332   4.125   5.754 -0.5886 -1.0327 -0.7994
 4918SOL     OW26215   2.123   1.660   8.636  0.4945  0.4544 -0.4487
 4918SOL    HW126216   2.105   1.754   8.648  0.0781  0.3300 -0.1214
 4918SOL    HW226217   2.213   1.654   8.670  0.1809 -1.1175  0.0645
 4919SOL     OW26218   2.311   4.111  17.405  0.3287  0.1875 -0.3136
 4919SOL    HW126219   2.320   4.018  17.383  1.7852  0.2573 -0.0390
 4919SOL    HW226220   2.321   4.155  17.321 -0.7323  1.5920  0.2854
 4920SOL     OW26221   4.220   2.901   0.920 -0.1872 -0.0392  0.5400
 4920SOL    HW126222   4.145   2.903   0.861 -0.2335 -0.9705  0.5563
 4920SOL    HW226223   4.273   2.832   0.879  0.7157  0.2645  1.2050
 4921SOL     OW26224   3.619   3.711  14.852 -0.0648 -0.1528  0.0566
 4921SOL    HW126225   3.591   3.664  14.773 -1.6357 -2.6776  2.0819
 4921SOL    HW226226   3.705   3.670  14.858 -0.1908 -0.5083 -0.6297
 4922SOL     OW26227   4.017   2.485   6.380  0.5576  0.0960  0.3651
 4922SOL    HW126228   4.032   2.467   6.288  1.6110 -1.7216  0.8898
 4922SOL    HW226229   3.947   2.549   6.373 -1.8647 -2.2922  2.7519
 4923SOL     OW26230   2.508   2.935   2.727 -0.1156  0.1786 -0.0482
 4923SOL    HW126231   2.520   3.006   2.664  0.4280 -0.2732 -0.4530
 4923SOL    HW226232   2.513   2.983   2.809  1.0247  0.3094 -0.1968
 4924SOL     OW26233   4.566   1.748   3.733  0.0647 -0.2750 -0.0014
 4924SOL    HW126234   4.655   1.753   3.769  0.4570 -1.9016 -0.7221
 4924SOL    HW226235   4.579   1.703   3.649 -0.1322 -0.1271 -0.1093
 4925SOL     OW26236   3.158   1.237  10.995 -0.5275  0.1898 -0.5379
 4925SOL    HW126237   3.249   1.244  11.025 -0.7370 -3.1782  0.8107
 4925SOL    HW226238   3.163   1.287  10.914 -0.7882  0.3904 -0.4301
 4926SOL     OW26239   4.135   2.044   4.989 -0.4433 -0.7665  0.0725
 4926SOL    HW126240   4.088   2.122   5.017 -0.3981  0.0469 -2.1225
 4926SOL    HW226241   4.193   2.091   4.929 -0.7797 -0.4476 -0.0048
 4927SOL     OW26242   1.810   0.212   8.904 -0.1885  0.4945  0.3458
 4927SOL    HW126243   1.746   0.161   8.853 -0.8592  0.1569  1.5222
 4927SOL    HW226244   1.874   0.146   8.930 -1.2059  0.1998  2.1164
 4928SOL     OW26245   2.585   3.773  10.174 -0.3870  0.1096 -0.6144
 4928SOL    HW126246   2.551   3.696  10.128  1.3648 -0.4979 -0.8755
 4928SOL    HW226247   2.678   3.762  10.188 -0.0118  1.2644 -2.1229
 4929SOL     OW26248   2.441   0.244  16.539  0.5193 -0.1035  0.6623
 4929SOL    HW126249   2.522   0.256  16.590  0.4046 -2.0568  1.3186
 4929SOL    HW226250   2.459   0.306  16.469  0.5977 -1.2148 -0.3074
 4930SOL     OW26251   0.100   1.366   2.934 -0.2395  0.2992 -0.0396
 4930SOL    HW126252   0.131   1.291   2.983 -1.5647  0.0961  0.4667
 4930SOL    HW226253   0.160   1.435   2.963  0.9601 -0.2553 -1.1855
 4931SOL     OW26254   3.225   2.879  16.576 -0.6670 -0.1782  0.5122
 4931SOL    HW126255   3.310   2.846  16.546 -0.7906  1.7768 -2.0641
 4931SOL    HW226256   3.218   2.970  16.548 -1.2829  0.6372  3.3570
 4932SOL     OW26257   4.049   0.398   6.246  0.2116  1.1340  0.3874
 4932SOL    HW126258   4.100   0.378   6.325  2.3990  0.2151 -1.2494
 4932SOL    HW226259   3.971   0.344   6.257  1.1926 -0.1212  1.1506
 4933SOL     OW26260   1.802   4.460   7.101 -0.6880 -0.5271  0.2008
 4933SOL    HW126261   1.847   4.393   7.152  1.1982  0.7381  0.1982
 4933SOL    HW226262   1.715   4.465   7.142  0.4501 -0.1871  2.5689
 4934SOL     OW26263   4.497   1.029  10.388 -0.7833  0.1192  0.2558
 4934SOL    HW126264   4.502   1.006  10.296 -0.1539 -1.3254  0.6592
 4934SOL    HW226265   4.434   0.969  10.428 -2.6092  1.2334 -0.8867
 4935SOL     OW26266   1.632   2.754   7.892  0.1187  0.5232  0.1270
 4935SOL    HW126267   1.699   2.810   7.852  0.9824 -1.5625 -1.3636
 4935SOL    HW226268   1.642   2.672   7.843 -2.7800  0.5426 -0.4691
 4936SOL     OW26269   0.392   1.628  13.269  0.2819  0.2906 -0.1620
 4936SOL    HW126270   0.459   1.560  13.280  1.7678  1.8555  0.5111
 4936SOL    HW226271   0.330   1.580  13.215  0.5151  0.1446 -0.3002
 4937SOL     OW26272   3.121   0.671  14.200  1.0306  0.5014 -0.0516
 4937SOL    HW126273   3.185   0.737  14.174  1.9460  0.3844  1.8997
 4937SOL    HW226274   3.097   0.655  14.109  1.6438  0.6024 -0.2363
 4938SOL     OW26275   0.879   3.212   5.401  0.3580 -0.0426  0.2274
 4938SOL    HW126276   0.799   3.199   5.452 -0.5063  2.5159 -0.4942
 4938SOL    HW226277   0.932   3.257   5.466 -2.1170  2.7419  0.3100
 4939SOL     OW26278   4.251   0.420  14.404  0.9509 -0.3975 -0.0689
 4939SOL    HW126279   4.311   0.375  14.344  0.5687  0.2700 -0.9620
 4939SOL    HW226280   4.211   0.486  14.347  0.7440 -1.5087 -1.2032
 4940SOL     OW26281   4.619   2.031   2.256 -0.0849  0.2389 -0.2354
 4940SOL    HW126282   4.583   1.943   2.269  0.4443 -0.1853 -1.6597
 4940SOL    HW226283   4.538   2.062   2.216 -0.9358  0.7533  1.8976
 4941SOL     OW26284   0.822   3.000  14.736  0.0893  0.1609 -0.1082
 4941SOL    HW126285   0.746   3.024  14.684 -0.3835  0.1582  0.5763
 4941SOL    HW226286   0.894   3.016  14.676  1.2936 -2.0325  0.7514
 4942SOL     OW26287   3.364   4.045   8.326  0.8382  0.3576  0.8763
 4942SOL    HW126288   3.431   3.979   8.345 -0.4512 -1.2873 -0.3391
 4942SOL    HW226289   3.404   4.109   8.385 -0.9045 -0.0329  2.4701
 4943SOL     OW26290   1.984   0.737   7.381 -0.2156  0.5060 -0.2591
 4943SOL    HW126291   2.050   0.747   7.449 -0.3782 -0.2815  0.0217
 4943SOL    HW226292   2.005   0.815   7.330  1.9121  0.8981  1.2199
 4944SOL     OW26293   0.896   3.409   1.263  0.2925  0.1504 -0.2865
 4944SOL    HW126294   0.894   3.313   1.253 -0.6919  0.3135 -1.6795
 4944SOL    HW226295   0.988   3.424   1.241  0.6299 -0.8113  0.4444
 4945SOL     OW26296   2.358   2.791   8.157  0.2369  0.4915  0.1167
 4945SOL    HW126297   2.323   2.788   8.246 -0.6112  0.0671 -0.2291
 4945SOL    HW226298   2.423   2.860   8.164 -0.0414  0.5682  1.9790
 4946SOL     OW26299   0.149   3.937   2.946 -0.1428  0.1512  0.5690
 4946SOL    HW126300   0.085   3.990   2.899  0.3776  0.4700  0.2201
 4946SOL    HW226301   0.196   3.906   2.868 -0.2354 -1.6642  1.2397
 4947SOL     OW26302   0.289   4.239   0.960  0.3668  0.0491 -0.1824
 4947SOL    HW126303   0.274   4.285   1.043 -0.4863 -0.0719 -0.2739
 4947SOL    HW226304   0.236   4.160   0.949  0.8796 -0.1770 -0.9830
 4948SOL     OW26305   2.664   0.499   3.691 -0.3893 -0.3977  0.4270
 4948SOL    HW126306   2.653   0.594   3.685  0.5271 -0.3250 -0.0397
 4948SOL    HW226307   2.587   0.483   3.747  0.3879 -1.1777  1.2621
 4949SOL     OW26308   2.374   0.970  16.823  0.0254 -0.4872  0.7925
 4949SOL    HW126309   2.364   0.976  16.918  2.2130 -0.9109  1.0336
 4949SOL    HW226310   2.459   1.013  16.820 -0.4639  0.4073 -0.2446
 4950SOL     OW26311   0.565   1.312  11.168  0.3759 -0.1244  1.1167
 4950SOL    HW126312   0.587   1.309  11.075 -0.0953 -2.4597  1.0905
 4950SOL    HW226313   0.615   1.239  11.206  0.7585 -0.4688 -0.0658
 4951SOL     OW26314   2.766   3.071   1.848  0.2651  0.0635 -0.2884
 4951SOL    HW126315   2.768   3.009   1.921 -0.3643 -1.0826 -1.2436
 4951SOL    HW226316   2.855   3.060   1.817 -0.1639 -1.9532 -0.7937
 4952SOL     OW26317   0.223   3.329   0.308 -0.0834  0.3651 -0.0088
 4952SOL    HW126318   0.242   3.236   0.294 -0.7002  0.1623  0.4935
 4952SOL    HW226319   0.288   3.370   0.250 -1.7979  3.2096  0.0879
 4953SOL     OW26320   1.719   1.597   1.685  0.8322 -0.0978 -0.1477
 4953SOL    HW126321   1.707   1.519   1.738 -2.2543 -1.3869 -2.7782
 4953SOL    HW226322   1.729   1.553   1.601 -1.0390 -0.9216  0.0670
 4954SOL     OW26323   2.816   2.485  15.902 -0.2433 -0.2874  0.2507
 4954SOL    HW126324   2.847   2.438  15.979  0.2995 -0.5853 -0.1486
 4954SOL    HW226325   2.896   2.532  15.879 -0.7021  0.9331  1.1560
 4955SOL     OW26326   1.911   0.819  11.815 -0.0831 -0.6811  0.4307
 4955SOL    HW126327   1.845   0.750  11.815 -0.7137 -0.0936  2.2879
 4955SOL    HW226328   1.989   0.764  11.800  1.1814  1.1960  0.0815
 4956SOL     OW26329   1.423   2.268   5.650  0.0205 -0.0399  0.0278
 4956SOL    HW126330   1.343   2.266   5.598  1.2184  2.3975 -1.8732
 4956SOL    HW226331   1.463   2.183   5.632 -0.6968 -0.5999  1.0817
 4957SOL     OW26332   2.814   1.302   2.322 -0.0977  0.1388  0.0714
 4957SOL    HW126333   2.730   1.270   2.289 -1.6261  1.5581  2.6765
 4957SOL    HW226334   2.804   1.396   2.312  0.8072  0.1500 -0.7249
 4958SOL     OW26335   4.490   0.234   4.747 -0.1139  0.3737  0.1900
 4958SOL    HW126336   4.572   0.217   4.700 -0.8470 -0.5869 -0.7607
 4958SOL    HW226337   4.517   0.241   4.838  0.3532  0.6712  0.0270
 4959SOL     OW26338   2.686   0.937   8.841  0.2072  0.0063  0.2757
 4959SOL    HW126339   2.750   1.006   8.822 -0.9270  0.2215 -2.8041
 4959SOL    HW226340   2.605   0.983   8.863  0.7349  0.4678  1.2090
 4960SOL     OW26341   3.027   3.075   5.117 -0.6114  0.1139  0.4489
 4960SOL    HW126342   3.074   3.156   5.095 -2.3290  0.7871 -0.7026
 4960SOL    HW226343   3.105   3.019   5.115 -0.3325  0.5380 -1.1034
 4961SOL     OW26344   1.246   3.635   2.776 -0.5296 -0.5322 -0.0254
 4961SOL    HW126345   1.279   3.580   2.847  1.0452  0.3307 -0.0926
 4961SOL    HW226346   1.262   3.725   2.803 -1.6286 -1.0648  2.4020
 4962SOL     OW26347   4.184   1.211   9.185 -0.1966  0.0472  0.7396
 4962SOL    HW126348   4.099   1.203   9.143  1.2245  0.1879 -2.1809
 4962SOL    HW226349   4.160   1.277   9.251 -0.8825 -0.0650  0.5953
 4963SOL     OW26350   1.834   2.491  12.829  0.0200  0.3317 -0.5694
 4963SOL    HW126351   1.766   2.559  12.820  0.7482  1.0746 -0.4522
 4963SOL    HW226352   1.866   2.499  12.919 -1.6191  0.1987  0.0306
 4964SOL     OW26353   4.697   0.259   6.040 -0.1380 -0.1090  0.2910
 4964SOL    HW126354   4.637   0.247   6.114 -0.0825 -0.7705  0.2286
 4964SOL    HW226355   0.041   0.284   6.099  0.0772 -0.1600  0.0509
 4965SOL     OW26356   3.196   2.507  16.149  0.2621 -0.0225  0.1105
 4965SOL    HW126357   3.267   2.455  16.110  0.5954  1.9134 -1.8272
 4965SOL    HW226358   3.250   2.571  16.194  1.0924  0.3875 -1.4610
 4966SOL     OW26359   4.195   3.290   4.894 -0.7759 -0.0272 -0.8059
 4966SOL    HW126360   4.201   3.315   4.986 -1.3612 -0.6223 -0.6029
 4966SOL    HW226361   4.165   3.372   4.855 -1.6342  0.7182  1.4607
 4967SOL     OW26362   3.080   4.713   1.893 -0.6222 -0.3254  0.2442
 4967SOL    HW126363   3.138   4.712   1.969 -1.8118  1.8465  1.1768
 4967SOL    HW226364   3.112   0.060   1.842  1.6352 -2.2277 -1.1326
 4968SOL     OW26365   2.033   4.160  11.011  0.1531 -0.3145 -0.3968
 4968SOL    HW126366   2.044   4.145  11.105  0.7187 -0.0724 -0.4246
 4968SOL    HW226367   1.938   4.145  11.006  0.0179  1.0178 -1.7938
 4969SOL     OW26368   0.860   3.045  15.642 -0.1281  0.2076 -0.7380
 4969SOL    HW126369   0.788   3.010  15.590 -0.8383 -0.0402  0.4078
 4969SOL    HW226370   0.845   3.002  15.726  0.7011 -0.6021 -0.9922
 4970SOL     OW26371   2.077   3.905  11.743 -0.2357  0.1396  0.1935
 4970SOL    HW126372   2.099   3.836  11.681 -0.3520  0.2833 -0.0099
 4970SOL    HW226373   2.001   3.861  11.781  0.4753 -0.7234  0.6158
 4971SOL     OW26374   0.695   0.791   7.613 -0.5650  0.0672 -0.3008
 4971SOL    HW126375   0.651   0.764   7.694  0.2883  1.2957  0.5697
 4971SOL    HW226376   0.786   0.807   7.639 -0.8106  1.7076 -0.4513
 4972SOL     OW26377   4.685   0.569   4.155  0.4386  0.5398 -0.4375
 4972SOL    HW126378   0.011   0.625   4.211  0.3270  1.5794 -1.3799
 4972SOL    HW226379   4.600   0.593   4.193  0.5129  2.5021 -1.5508
 4973SOL     OW26380   0.525   1.500   3.206 -0.2604  0.0600 -0.4883
 4973SOL    HW126381   0.599   1.477   3.149 -1.1580 -3.0115 -0.4187
 4973SOL    HW226382   0.575   1.531   3.282  2.0024 -2.3222 -1.0229
 4974SOL     OW26383   2.693   4.262   7.491  0.5033  0.3449 -0.0221
 4974SOL    HW126384   2.774   4.259   7.439  1.7193 -0.2069  1.9006
 4974SOL    HW226385   2.682   4.168   7.505  0.5442  0.6538  2.0880
 4975SOL     OW26386   1.352   1.350   9.039  0.3390 -0.1764 -0.3120
 4975SOL    HW126387   1.328   1.297   8.964  1.0167  0.7472 -1.1891
 4975SOL    HW226388   1.268   1.397   9.046  1.1591  1.4150 -1.0327
 4976SOL     OW26389   4.583   3.636   0.565  0.1124  0.4336 -0.1047
 4976SOL    HW126390   4.646   3.634   0.494  0.8796 -0.6975  0.6181
 4976SOL    HW226391   4.633   3.591   0.633  2.2351  2.6148 -0.2307
 4977SOL     OW26392   2.428   3.662   9.468  0.2102  0.3866 -0.2741
 4977SOL    HW126393   2.366   3.689   9.536 -0.1320 -2.0472  0.3527
 4977SOL    HW226394   2.415   3.568   9.477 -0.4513  0.5268  0.1898
 4978SOL     OW26395   0.136   0.484   3.213  0.1640 -0.1333 -0.3014
 4978SOL    HW126396   0.094   0.400   3.196  0.2173 -0.1768 -0.2226
 4978SOL    HW226397   0.228   0.460   3.226 -0.0118 -1.5738 -1.7220
 4979SOL     OW26398   1.831   4.054   9.087  0.0118 -1.0735 -0.1464
 4979SOL    HW126399   1.814   4.024   8.998 -0.4293  1.5433 -0.9463
 4979SOL    HW226400   1.925   4.066   9.076  0.1125  0.0267  2.0189
 4980SOL     OW26401   1.042   2.316   6.875  0.4685  0.4068  0.6245
 4980SOL    HW126402   0.954   2.301   6.911  1.4424 -2.3316  1.8503
 4980SOL    HW226403   1.039   2.292   6.782 -2.5274 -0.1305  0.8473
 4981SOL     OW26404   3.797   1.828   3.375 -0.1737  0.1467  0.5291
 4981SOL    HW126405   3.734   1.890   3.337  1.2018  1.0724 -0.2595
 4981SOL    HW226406   3.846   1.801   3.297 -0.2627  0.5042  0.3454
 4982SOL     OW26407   0.044   1.717   7.214  0.2407  0.5680  0.1556
 4982SOL    HW126408   0.068   1.806   7.242 -2.1649  0.6433  2.0200
 4982SOL    HW226409   4.710   1.696   7.285 -0.3816 -0.5059 -0.7064
 4983SOL     OW26410   0.636   4.065   7.437  0.3652  0.0101  0.0733
 4983SOL    HW126411   0.667   4.009   7.366  0.3063  1.8624 -1.3946
 4983SOL    HW226412   0.583   4.129   7.391  0.3262  0.7695  1.1694
 4984SOL     OW26413   2.052   3.946   2.229 -0.4984  0.3487 -0.0707
 4984SOL    HW126414   2.002   3.966   2.308 -0.7114 -1.8727  0.3609
 4984SOL    HW226415   2.077   4.037   2.217  2.2746 -0.1368  1.8862
 4985SOL     OW26416   4.184   2.583  10.923  0.2255  0.6051 -0.3000
 4985SOL    HW126417   4.162   2.532  10.845 -0.2336  1.7311 -0.9048
 4985SOL    HW226418   4.264   2.537  10.949  0.7852  0.3847 -2.3567
 4986SOL     OW26419   3.383   3.065   2.916 -0.2667 -1.0292  0.4335
 4986SOL    HW126420   3.390   3.082   2.822  0.1472 -1.9987  0.2944
 4986SOL    HW226421   3.332   3.140   2.948  1.5976  0.2934  0.2696
 4987SOL     OW26422   1.189   4.268   2.370 -0.6003 -0.2534  0.0806
 4987SOL    HW126423   1.215   4.247   2.280 -1.9370 -0.9116 -0.1528
 4987SOL    HW226424   1.126   4.199   2.392  0.2281 -1.3297 -0.8754
 4988SOL     OW26425   1.821   0.506   6.658 -0.9665  0.4576 -0.4377
 4988SOL    HW126426   1.838   0.596   6.688 -0.1679 -0.5902  2.2187
 4988SOL    HW226427   1.912   0.478   6.649 -0.3977  2.2977 -0.4810
 4989SOL     OW26428   2.328   0.164   4.181 -1.3593  0.4217  0.0250
 4989SOL    HW126429   2.246   0.120   4.156 -1.1448 -0.1093  0.2572
 4989SOL    HW226430   2.394   0.121   4.128 -0.9302 -0.0420  0.9275
 4990SOL     OW26431   1.795   2.897   5.943  0.3921 -0.2347  0.0576
 4990SOL    HW126432   1.867   2.845   5.907  0.4818 -1.8779  2.6371
 4990SOL    HW226433   1.762   2.837   6.009  0.6759 -0.4546 -0.0034
 4991SOL     OW26434   2.256   0.678  15.045 -0.5636 -0.4846  0.6455
 4991SOL    HW126435   2.338   0.628  15.043  0.2106  0.8371 -0.7420
 4991SOL    HW226436   2.196   0.635  15.105 -2.0916  2.0882  0.9550
 4992SOL     OW26437   2.520   0.306   0.778 -0.3187  0.4645  0.5796
 4992SOL    HW126438   2.560   0.245   0.840  1.5200  0.2343 -0.8567
 4992SOL    HW226439   2.512   0.387   0.830 -1.5751 -0.8799  2.4681
 4993SOL     OW26440   2.257   4.388   5.914 -0.0651 -0.4292 -0.4985
 4993SOL    HW126441   2.313   4.463   5.895 -1.0273  0.3901 -0.0573
 4993SOL    HW226442   2.292   4.322   5.854  1.0974 -0.0020 -0.2893
 4994SOL     OW26443   2.178   3.492   5.475  0.8196  0.0239 -0.0144
 4994SOL    HW126444   2.209   3.533   5.556  2.0171  1.4749 -1.2095
 4994SOL    HW226445   2.260   3.500   5.425  0.1511  0.0301 -1.1078
 4995SOL     OW26446   1.724   1.065   7.553  0.4591 -0.2252 -0.0916
 4995SOL    HW126447   1.631   1.044   7.563  0.6120 -1.2618 -0.9468
 4995SOL    HW226448   1.748   0.977   7.581 -0.2139  0.4350  2.5812
 4996SOL     OW26449   0.673   1.215  14.305  0.0073 -0.6479 -0.3809
 4996SOL    HW126450   0.728   1.198  14.228  0.3440 -1.5000  0.0507
 4996SOL    HW226451   0.613   1.286  14.283 -0.5203  0.6918  5.4483
 4997SOL     OW26452   0.804   2.498  16.611  0.5460  0.0045 -0.2918
 4997SOL    HW126453   0.756   2.579  16.594 -0.2195 -0.3173  0.3333
 4997SOL    HW226454   0.730   2.437  16.606  0.6324 -0.0953 -0.3567
 4998SOL     OW26455   0.892   0.817   4.781 -0.1767  0.0418  0.6118
 4998SOL    HW126456   0.924   0.726   4.781 -0.9430 -0.2352 -0.8960
 4998SOL    HW226457   0.809   0.809   4.733 -0.2216 -2.5614  1.0938
 4999SOL     OW26458   4.050   0.920  17.111 -0.3913 -0.1757 -0.1918
 4999SOL    HW126459   4.058   0.973  17.032 -1.6185 -1.5107 -1.2051
 4999SOL    HW226460   3.996   0.845  17.085  3.8709 -3.6737  1.0241
 5000SOL     OW26461   1.592   3.260   3.337  0.1274  0.2251  0.0652
 5000SOL    HW126462   1.540   3.328   3.381 -0.4506 -0.3199  0.2210
 5000SOL    HW226463   1.589   3.192   3.404 -2.9444  0.8841  0.6005
 5001SOL     OW26464   3.782   1.932   4.644  0.2816 -0.2854 -0.7168
 5001SOL    HW126465   3.773   1.849   4.597  0.2877 -0.2863 -0.7165
 5001SOL    HW226466   3.769   1.906   4.735 -1.6335  3.0183 -0.0636
 5002SOL     OW26467   1.165   3.461   1.365 -0.3250 -0.0532  0.0231
 5002SOL    HW126468   1.237   3.418   1.319  0.1403 -1.1071  1.7384
 5002SOL    HW226469   1.222   3.513   1.420 -1.2702  1.0122 -0.0044
 5003SOL     OW26470   2.425   1.951   6.368 -0.5151 -0.3667 -0.1195
 5003SOL    HW126471   2.466   1.865   6.356  0.5086  0.1021  0.0321
 5003SOL    HW226472   2.439   1.982   6.279 -2.2118 -2.2828 -1.0514
 5004SOL     OW26473   0.949   0.827   3.799 -0.5712  0.2174 -0.7592
 5004SOL    HW126474   0.909   0.780   3.872  1.3932 -1.1728 -0.5919
 5004SOL    HW226475   1.041   0.804   3.816 -0.1889  1.1498 -1.5416
 5005SOL     OW26476   1.346   2.097   1.489  0.4546  0.2226 -0.1428
 5005SOL    HW126477   1.356   2.104   1.394  2.0303  2.9611  0.2298
 5005SOL    HW226478   1.271   2.152   1.510  1.0669  1.0057  0.0110
 5006SOL     OW26479   3.498   4.018   6.960 -0.3572  0.4046 -0.1587
 5006SOL    HW126480   3.535   4.002   6.873 -2.6734 -0.5291 -0.9593
 5006SOL    HW226481   3.447   3.938   6.971  1.8700 -0.8701  0.8028
 5007SOL     OW26482   1.336   1.964   7.677 -0.0493  0.4643 -0.0067
 5007SOL    HW126483   1.392   1.912   7.735  3.6853  1.3625 -2.8117
 5007SOL    HW226484   1.366   1.943   7.588  1.9546 -4.3812  1.7489
 5008SOL     OW26485   0.453   3.678   4.710  0.1218 -0.1697  0.5303
 5008SOL    HW126486   0.399   3.712   4.781 -2.2121 -0.5805 -1.0680
 5008SOL    HW226487   0.460   3.764   4.668 -0.4759 -0.4531 -0.1410
 5009SOL     OW26488   4.617   3.484   2.001  0.0634  0.5949 -0.0671
 5009SOL    HW126489   4.586   3.398   1.974  1.6702 -0.8255  2.6909
 5009SOL    HW226490   4.618   3.533   1.918  0.7106  1.2413  0.3252
 5010SOL     OW26491   1.330   0.290   6.010  0.0809 -0.3462 -0.5384
 5010SOL    HW126492   1.272   0.323   5.941 -0.9036 -2.2393 -0.6374
 5010SOL    HW226493   1.413   0.288   5.962 -0.9570 -1.1777 -2.3455
 5011SOL     OW26494   4.000   0.064   2.572  0.5232 -0.2290  0.2171
 5011SOL    HW126495   3.988   0.046   2.479 -0.6936 -0.6047  0.4356
 5011SOL    HW226496   4.025   0.156   2.568 -0.5096  0.1176  1.7417
 5012SOL     OW26497   3.313   1.184   0.542 -0.1039  1.0597 -0.1313
 5012SOL    HW126498   3.405   1.195   0.566  0.0271  0.0357 -0.1404
 5012SOL    HW226499   3.320   1.102   0.493 -0.8044  1.2870 -0.6012
 5013SOL     OW26500   1.700   1.072   3.077 -0.0758 -0.0210 -0.0690
 5013SOL    HW126501   1.678   1.042   3.165  2.1588 -0.6973  0.2706
 5013SOL    HW226502   1.751   1.151   3.095 -0.6687 -0.3304  2.8936
 5014SOL     OW26503   4.335   2.217   2.830 -0.0803 -0.1892  0.5754
 5014SOL    HW126504   4.371   2.303   2.808  3.2030 -2.2499 -2.0914
 5014SOL    HW226505   4.415   2.172   2.858 -0.5025 -1.4020 -0.1601
 5015SOL     OW26506   2.282   2.876   5.410  0.1102  0.7296  0.1610
 5015SOL    HW126507   2.250   2.966   5.419  1.5751  1.0670  1.9446
 5015SOL    HW226508   2.376   2.886   5.425  0.0850  1.3521 -0.1083
 5016SOL     OW26509   3.746   2.502   4.956  0.2380  0.7005 -0.1419
 5016SOL    HW126510   3.665   2.472   4.915 -1.1955  0.5308  2.8578
 5016SOL    HW226511   3.780   2.570   4.898  1.0776 -1.2812 -1.9909
 5017SOL     OW26512   0.689   1.530   6.768 -0.1585 -0.0411  0.0323
 5017SOL    HW126513   0.662   1.527   6.860 -0.6148 -0.4205 -0.1174
 5017SOL    HW226514   0.719   1.620   6.763 -0.7874  0.0197 -2.4833
 5018SOL     OW26515   1.214   1.464  11.635  0.2267  0.5836 -0.7771
 5018SOL    HW126516   1.257   1.412  11.703  1.0903  2.2413 -0.0518
 5018SOL    HW226517   1.126   1.426  11.637  0.7799 -0.6791 -0.4238
 5019SOL     OW26518   0.433   2.279   2.674 -0.0469  0.0765 -0.2910
 5019SOL    HW126519   0.346   2.239   2.671 -0.7144  1.4958  0.0791
 5019SOL    HW226520   0.429   2.325   2.757  0.3395  0.3342 -0.4161
 5020SOL     OW26521   3.534   0.551   6.358  0.1792  0.4228  0.4130
 5020SOL    HW126522   3.497   0.546   6.270  1.0538 -0.9000  0.1264
 5020SOL    HW226523   3.527   0.644   6.381  1.8690  0.4064  0.9794
 5021SOL     OW26524   1.883   4.685   9.038 -0.5429 -0.4487 -0.4235
 5021SOL    HW126525   1.847   0.020   9.100  2.3450 -0.4226  1.2360
 5021SOL    HW226526   1.916   4.614   9.093  2.5640  0.4387 -1.1180
 5022SOL     OW26527   3.098   2.391   4.506 -0.1165 -0.4359 -0.4089
 5022SOL    HW126528   3.069   2.474   4.467  0.1124  0.2882  0.9887
 5022SOL    HW226529   3.087   2.328   4.434  0.9403 -1.1756  0.0740
 5023SOL     OW26530   0.731   0.438   3.033 -0.3257  0.7896 -0.0402
 5023SOL    HW126531   0.804   0.414   2.976 -0.0555  0.3172  0.4937
 5023SOL    HW226532   0.654   0.426   2.978 -0.5410 -1.2237  0.6748
 5024SOL     OW26533   4.420   1.887   7.069  0.1846 -0.0469 -0.3748
 5024SOL    HW126534   4.330   1.858   7.052 -0.0347  0.6334 -0.3638
 5024SOL    HW226535   4.438   1.919   6.981 -0.0226 -3.6991 -1.7624
 5025SOL     OW26536   1.240   2.891   2.491 -0.2064  0.7027 -0.4406
 5025SOL    HW126537   1.326   2.919   2.459 -0.0616  1.2593  0.4292
 5025SOL    HW226538   1.201   2.978   2.499  0.6061  1.1656 -1.5262
 5026SOL     OW26539   4.609   2.422  12.646  0.2736 -0.1556 -0.2404
 5026SOL    HW126540   4.610   2.367  12.568  0.3070 -2.0725  1.1361
 5026SOL    HW226541   4.541   2.486  12.622  0.4665 -0.3574 -1.3167
 5027SOL     OW26542   1.567   0.831  13.983  0.3263  0.2929 -0.2688
 5027SOL    HW126543   1.519   0.783  13.915  3.0503 -1.4057 -1.0095
 5027SOL    HW226544   1.498   0.818  14.048  0.9615 -0.5516  0.2460
 5028SOL     OW26545   4.127   0.904   5.626  0.0995  0.2782 -0.1044
 5028SOL    HW126546   4.176   0.985   5.610 -1.4492  1.2297 -0.0306
 5028SOL    HW226547   4.176   0.857   5.693 -0.3420 -0.2358 -0.1472
 5029SOL     OW26548   3.753   3.672   8.522  0.0440 -0.1056 -0.1727
 5029SOL    HW126549   3.819   3.653   8.455 -0.1125  1.0151 -0.6502
 5029SOL    HW226550   3.691   3.600   8.531 -0.6767  0.5938  0.3966
 5030SOL     OW26551   1.354   2.539   3.926 -0.1096 -0.1537  0.2680
 5030SOL    HW126552   1.269   2.507   3.894  0.8051 -1.0632 -1.2528
 5030SOL    HW226553   1.346   2.488   4.007  0.9750 -0.6503  0.0588
 5031SOL     OW26554   1.855   1.801   7.379  0.0142 -0.8391  0.2527
 5031SOL    HW126555   1.943   1.835   7.395 -0.8324  0.2036  2.5618
 5031SOL    HW226556   1.802   1.881   7.377 -0.4815 -1.1964 -1.7027
 5032SOL     OW26557   2.043   2.055   8.431  0.1145 -0.3342  0.6609
 5032SOL    HW126558   2.000   2.114   8.369 -1.2298 -0.5947  1.3425
 5032SOL    HW226559   2.075   1.992   8.367  0.9591  0.3562  0.4133
 5033SOL     OW26560   3.893   3.874  16.337  0.3570  0.3988  0.0012
 5033SOL    HW126561   3.954   3.802  16.352  1.7610  1.8794  1.4098
 5033SOL    HW226562   3.871   3.852  16.246 -0.3954  1.1767  0.0008
 5034SOL     OW26563   0.752   3.968  15.760  0.0712 -0.5859  0.1411
 5034SOL    HW126564   0.749   3.901  15.828 -0.9577 -1.6384 -0.9515
 5034SOL    HW226565   0.659   3.976  15.739  0.7727  0.3945 -2.7107
 5035SOL     OW26566   0.603   3.138   6.209  0.3586  0.0836  0.2609
 5035SOL    HW126567   0.664   3.073   6.173 -2.7510 -2.4430 -0.4414
 5035SOL    HW226568   0.660   3.173   6.277 -1.7820 -1.4904  2.8412
 5036SOL     OW26569   0.763   4.027   5.912  0.8462  0.4832 -0.2564
 5036SOL    HW126570   0.674   4.023   5.878  0.8569  0.2761 -0.2600
 5036SOL    HW226571   0.754   4.078   5.993 -0.7560 -0.4337  0.1486
 5037SOL     OW26572   3.842   2.675   7.044 -0.3099  0.5938 -0.2270
 5037SOL    HW126573   3.864   2.765   7.067 -1.7416  0.7221  0.6825
 5037SOL    HW226574   3.866   2.684   6.952  1.4999 -0.8338  0.1050
 5038SOL     OW26575   1.316   0.167  11.102 -0.1425  0.4797 -0.2075
 5038SOL    HW126576   1.353   0.100  11.160 -1.6316 -0.9918 -0.9723
 5038SOL    HW226577   1.275   0.234  11.156 -1.2329  0.5644 -1.1428
 5039SOL     OW26578   2.391   0.174   3.341  0.0225  0.2533  0.3326
 5039SOL    HW126579   2.433   0.224   3.272 -1.0538 -0.2969 -0.7137
 5039SOL    HW226580   2.300   0.182   3.313  0.1359  3.1515  0.7943
 5040SOL     OW26581   2.494   2.145  14.147  0.5609 -0.0264 -0.0166
 5040SOL    HW126582   2.524   2.145  14.237 -0.0175 -1.8930  0.1782
 5040SOL    HW226583   2.409   2.102  14.156  1.1664 -1.1432  0.3628
 5041SOL     OW26584   2.752   0.668   8.794 -0.1715 -0.1729  0.2613
 5041SOL    HW126585   2.731   0.760   8.811 -0.2784  0.2504 -2.2013
 5041SOL    HW226586   2.828   0.659   8.737  0.8467 -2.2336  1.9289
 5042SOL     OW26587   4.567   4.538   4.027 -0.1582  0.6331  1.2658
 5042SOL    HW126588   4.608   4.455   4.002 -1.2830  0.4133  0.1384
 5042SOL    HW226589   4.497   4.540   3.962  0.8551  1.9652  0.2085
 5043SOL     OW26590   4.519   4.266   7.996 -0.8234  0.7514 -0.0364
 5043SOL    HW126591   4.494   4.306   8.079 -0.3168  0.6342  0.1717
 5043SOL    HW226592   4.498   4.338   7.937 -1.3116  0.4155 -0.2776
 5044SOL     OW26593   1.477   1.816  12.155 -0.0494 -0.2235 -0.3594
 5044SOL    HW126594   1.448   1.904  12.132 -0.4836 -0.0619  0.8308
 5044SOL    HW226595   1.447   1.808  12.245 -1.1527  0.4523 -0.6664
 5045SOL     OW26596   1.298   1.099   8.484 -0.4665  0.5437 -0.2412
 5045SOL    HW126597   1.383   1.054   8.487  0.5189  2.3977 -0.2181
 5045SOL    HW226598   1.319   1.188   8.515  1.3767 -0.4107  1.2416
 5046SOL     OW26599   1.195   3.986   8.791 -0.4104 -0.2580  0.0025
 5046SOL    HW126600   1.193   4.050   8.862 -0.3837 -1.7818  1.3832
 5046SOL    HW226601   1.214   4.042   8.716  0.3063  0.6812  0.8703
 5047SOL     OW26602   4.435   4.492   4.278 -0.2047  0.2502 -0.3964
 5047SOL    HW126603   4.467   4.511   4.189 -0.0216 -0.8189 -0.5639
 5047SOL    HW226604   4.384   4.412   4.264 -1.4649  0.8453  0.8234
 5048SOL     OW26605   1.802   1.030   6.527  0.0432 -0.5168  0.0940
 5048SOL    HW126606   1.858   1.107   6.531 -0.6925 -0.0886  2.2719
 5048SOL    HW226607   1.806   1.007   6.620  1.2825 -3.5703 -0.7011
 5049SOL     OW26608   3.115   2.010   7.658 -0.3747  0.2168  0.4244
 5049SOL    HW126609   3.138   2.076   7.723 -0.9594 -0.7357  1.5950
 5049SOL    HW226610   3.027   1.983   7.682  0.4030 -2.3232  0.4455
 5050SOL     OW26611   2.032   0.123   3.032 -0.2746  0.3566 -0.0294
 5050SOL    HW126612   2.111   0.070   3.018 -0.7521  0.0994 -1.6714
 5050SOL    HW226613   2.019   0.108   3.126 -1.0316  1.7826  0.0984
 5051SOL     OW26614   3.498   2.841  14.624 -0.3508 -0.3850  0.1359
 5051SOL    HW126615   3.429   2.791  14.668 -0.2317 -2.2772 -1.8453
 5051SOL    HW226616   3.548   2.776  14.575  1.5535  0.1768  1.3566
 5052SOL     OW26617   0.917   0.694  12.528 -0.6551 -0.3476 -0.1872
 5052SOL    HW126618   0.867   0.720  12.606  2.2163  0.2370  1.4485
 5052SOL    HW226619   0.969   0.618  12.554 -0.7568  0.1043  1.3321
 5053SOL     OW26620   4.520   4.240   5.214  0.1538  0.1993 -0.0287
 5053SOL    HW126621   4.571   4.318   5.191  2.9135 -1.3478  0.7798
 5053SOL    HW226622   4.592   4.177   5.212 -1.3458 -1.4804 -0.9515
 5054SOL     OW26623   3.603   1.069   6.140 -0.6226 -0.2285 -0.0973
 5054SOL    HW126624   3.625   1.125   6.066  2.3543 -2.5107 -0.9188
 5054SOL    HW226625   3.637   0.983   6.117 -1.1341 -1.1155  2.4297
 5055SOL     OW26626   2.492   1.020   0.920  0.3049  0.0629  0.8342
 5055SOL    HW126627   2.452   1.051   1.001 -0.0934 -1.1511  1.1010
 5055SOL    HW226628   2.546   1.092   0.887  2.3769 -1.8811 -0.0112
 5056SOL     OW26629   2.792   3.159   5.803  0.2012 -0.4205 -0.0053
 5056SOL    HW126630   2.716   3.217   5.813  1.2318  1.1195 -1.0958
 5056SOL    HW226631   2.753   3.076   5.832  0.4181 -0.3106  0.6057
 5057SOL     OW26632   0.514   2.161   7.637 -0.4650 -0.0629  0.0162
 5057SOL    HW126633   0.600   2.161   7.679 -1.1226 -1.3055  1.4044
 5057SOL    HW226634   0.516   2.070   7.606  0.5663 -0.4293  1.1290
 5058SOL     OW26635   3.328   1.575   5.173  0.0885  0.0852 -0.3550
 5058SOL    HW126636   3.304   1.638   5.104  1.1078 -1.8665 -2.4946
 5058SOL    HW226637   3.291   1.497   5.132 -1.3771  0.1495  0.8252
 5059SOL     OW26638   2.437   4.394   5.243 -0.2084 -0.0633  0.0371
 5059SOL    HW126639   2.510   4.431   5.194 -0.8027  1.8615  0.6265
 5059SOL    HW226640   2.398   4.333   5.181  0.8450 -2.1715  1.4026
 5060SOL     OW26641   0.966   2.262  13.282  0.4313  0.3817 -0.0128
 5060SOL    HW126642   0.881   2.263  13.239  0.9454 -0.0815 -1.0383
 5060SOL    HW226643   0.984   2.168  13.276  0.1463  0.3681 -0.6856
 5061SOL     OW26644   2.415   0.316   2.415 -0.3292  0.5802 -0.6946
 5061SOL    HW126645   2.500   0.361   2.412  0.4101 -0.7162  0.8111
 5061SOL    HW226646   2.375   0.341   2.332 -1.8833 -0.4727 -0.2538
 5062SOL     OW26647   3.736   4.675   1.904  0.0627  0.0906  0.6880
 5062SOL    HW126648   3.828   4.699   1.897 -0.1975  1.0792  0.5573
 5062SOL    HW226649   3.699   4.724   1.830 -2.9329 -1.8119  0.9206
 5063SOL     OW26650   2.034   2.976   8.477  0.5578  0.9144 -0.7702
 5063SOL    HW126651   1.993   2.968   8.563  0.3077  1.5942 -0.8218
 5063SOL    HW226652   1.966   3.006   8.417  0.7649  1.7053 -0.6015
 5064SOL     OW26653   1.223   0.243   7.763 -0.5107 -1.0217  0.0376
 5064SOL    HW126654   1.181   0.183   7.825 -2.5259 -0.9792 -1.2901
 5064SOL    HW226655   1.288   0.182   7.728 -0.3580 -0.7188 -0.2120
 5065SOL     OW26656   3.450   4.087   3.690 -0.2764 -0.2573  0.5057
 5065SOL    HW126657   3.506   4.044   3.626 -0.8464  2.0024 -1.5339
 5065SOL    HW226658   3.363   4.051   3.676 -1.3954  2.1539  1.1779
 5066SOL     OW26659   3.721   3.871   0.383  0.4234  0.1812 -0.2173
 5066SOL    HW126660   3.647   3.897   0.437  0.8518 -0.9668  0.9339
 5066SOL    HW226661   3.743   3.957   0.348 -0.5505  0.3704 -0.3404
 5067SOL     OW26662   1.486   3.032   4.024 -0.1673 -0.1240  0.6574
 5067SOL    HW126663   1.520   3.021   3.935 -3.6074 -3.3092 -0.2137
 5067SOL    HW226664   1.441   2.948   4.033 -0.0694 -0.3124 -0.6771
 5068SOL     OW26665   3.903   2.512  10.648  0.1691 -0.4816  0.1354
 5068SOL    HW126666   3.990   2.476  10.663 -0.0228  0.3137  3.0851
 5068SOL    HW226667   3.859   2.455  10.711 -0.2589 -0.6455 -0.3070
 5069SOL     OW26668   3.999   0.233   4.251  0.0539 -0.2576 -0.0417
 5069SOL    HW126669   4.079   0.180   4.246  1.4139  1.8208 -0.2575
 5069SOL    HW226670   4.026   0.308   4.199  0.8321 -0.8884 -0.5682
 5070SOL     OW26671   4.143   3.483   0.348 -0.0877  0.1358 -0.3483
 5070SOL    HW126672   4.193   3.557   0.384 -1.8119  0.5950  1.0686
 5070SOL    HW226673   4.101   3.518   0.269 -0.8934  0.0385  0.0445
 5071SOL     OW26674   2.515   0.452  12.680 -0.2584  0.0687  0.8692
 5071SOL    HW126675   2.463   0.382  12.642 -0.1081  0.6697 -0.4404
 5071SOL    HW226676   2.436   0.497  12.712 -1.9264 -1.4499 -1.1088
 5072SOL     OW26677   4.031   3.959   2.316  0.6327 -0.2470  0.2258
 5072SOL    HW126678   3.970   3.892   2.286  0.3081  0.2927 -0.3164
 5072SOL    HW226679   3.979   4.039   2.325  2.3655  1.0812 -1.5402
 5073SOL     OW26680   3.372   3.195   4.134  0.8318  0.2105  0.0251
 5073SOL    HW126681   3.332   3.271   4.174  1.9792  1.8688 -1.9697
 5073SOL    HW226682   3.442   3.241   4.089  0.9840 -2.6665 -2.7217
 5074SOL     OW26683   2.709   3.287  17.380  0.4262 -0.7153 -0.3283
 5074SOL    HW126684   2.700   3.302  17.474  0.9162 -0.1746 -0.3638
 5074SOL    HW226685   2.733   3.373  17.345  1.5319 -0.1911  1.7121
 5075SOL     OW26686   0.870   3.677  14.892 -0.1076 -0.3086 -0.2628
 5075SOL    HW126687   0.851   3.635  14.976 -0.9667  0.3281 -0.1387
 5075SOL    HW226688   0.864   3.605  14.829 -1.4762 -1.4940  1.2253
 5076SOL     OW26689   1.417   2.494   7.245  0.3713  0.2484 -0.4286
 5076SOL    HW126690   1.388   2.445   7.323  2.0383 -1.0510 -0.6190
 5076SOL    HW226691   1.378   2.438   7.178 -0.2148 -0.1005  0.1919
 5077SOL     OW26692   2.361   0.734  10.910  0.2355 -0.1412  0.4342
 5077SOL    HW126693   2.347   0.670  10.841  1.4932 -0.9075  0.8940
 5077SOL    HW226694   2.271   0.727  10.942 -0.3831  0.7146 -1.1196
 5078SOL     OW26695   0.335   1.970   1.883 -0.3322  0.8037  0.7479
 5078SOL    HW126696   0.312   1.883   1.916 -0.5153  0.3532 -0.5582
 5078SOL    HW226697   0.429   1.975   1.871 -0.9130  0.4582 -3.7484
 5079SOL     OW26698   1.927   2.010   2.596 -0.0310 -0.2296 -0.0167
 5079SOL    HW126699   1.873   1.947   2.643  0.0293  0.2934  0.7605
 5079SOL    HW226700   1.952   1.964   2.516 -1.0645 -0.5430 -0.1603
 5080SOL     OW26701   3.447   0.278   5.001  0.0248  0.5543 -0.6738
 5080SOL    HW126702   3.422   0.299   5.091 -0.9084 -2.7268 -0.1519
 5080SOL    HW226703   3.538   0.252   5.015  0.3330  1.7473 -0.4506
 5081SOL     OW26704   3.021   0.211   4.261 -0.2244 -0.5818 -0.0915
 5081SOL    HW126705   3.116   0.210   4.248 -0.2748  1.0250 -0.6128
 5081SOL    HW226706   3.009   0.156   4.338 -1.1392  2.4260  1.9303
 5082SOL     OW26707   1.248   0.788   8.675 -0.0315 -0.3109 -0.3066
 5082SOL    HW126708   1.189   0.795   8.750 -1.0942  0.9151 -1.2581
 5082SOL    HW226709   1.192   0.728   8.625  2.1669 -2.4090 -0.2720
 5083SOL     OW26710   3.227   1.406  16.590 -0.2956 -0.3270 -0.2575
 5083SOL    HW126711   3.302   1.346  16.599  0.7556  0.9496 -0.4952
 5083SOL    HW226712   3.269   1.492  16.599  0.9071 -0.9126 -0.2782
 5084SOL     OW26713   1.217   4.115   9.560  0.1230  0.1070  0.3524
 5084SOL    HW126714   1.246   4.200   9.527 -1.0593 -0.1891 -1.4218
 5084SOL    HW226715   1.278   4.049   9.526  0.5471  1.6732 -1.8851
 5085SOL     OW26716   4.061   0.654   2.681  0.4468  0.1330  0.0757
 5085SOL    HW126717   4.118   0.731   2.692  1.0275 -0.0531 -1.6901
 5085SOL    HW226718   4.091   0.606   2.758  1.2372  1.1769  0.4227
 5086SOL     OW26719   1.559   2.003  13.120  0.4527 -0.3838  0.0611
 5086SOL    HW126720   1.637   2.051  13.093  0.8384 -1.3180 -0.4786
 5086SOL    HW226721   1.540   1.935  13.056 -0.2452 -2.7818  2.8149
 5087SOL     OW26722   2.940   1.234  17.332 -0.1087 -0.4119 -0.1260
 5087SOL    HW126723   2.956   1.278  17.248 -0.3281  0.6525  0.3934
 5087SOL    HW226724   2.916   1.142  17.318  1.1298 -0.8721  0.7550
 5088SOL     OW26725   0.884   2.922   9.403  0.4771  0.0097 -0.1817
 5088SOL    HW126726   0.805   2.964   9.439  0.2575 -1.2264  0.7810
 5088SOL    HW226727   0.945   2.985   9.442  1.6748 -1.1940 -0.1079
 5089SOL     OW26728   4.531   3.858   3.379 -0.1146  0.1232  0.0219
 5089SOL    HW126729   4.458   3.868   3.318  0.2262  1.8741 -0.0937
 5089SOL    HW226730   4.595   3.805   3.332 -1.9502 -0.8056 -1.4224
 5090SOL     OW26731   0.442   4.583   3.584  0.5213  0.4653 -0.0305
 5090SOL    HW126732   0.370   4.632   3.544 -0.7129 -1.6770 -0.4663
 5090SOL    HW226733   0.397   4.519   3.640 -0.2522  1.0346 -0.0002
 5091SOL     OW26734   0.860   2.568   6.015 -0.4718 -0.1486  0.4741
 5091SOL    HW126735   0.822   2.480   6.009  0.2478 -0.4530  0.3893
 5091SOL    HW226736   0.850   2.598   5.924 -0.6414 -1.2600  0.1199
 5092SOL     OW26737   4.640   3.940  11.944  0.0292 -0.1149  0.5616
 5092SOL    HW126738   4.659   3.861  11.995 -2.0296  0.1445  1.7328
 5092SOL    HW226739   4.696   4.006  11.984 -0.6577 -1.3845  3.5688
 5093SOL     OW26740   2.636   2.891  12.107 -0.2695  0.1689  0.2524
 5093SOL    HW126741   2.698   2.887  12.034 -0.4661  3.5430 -0.0706
 5093SOL    HW226742   2.555   2.869  12.061 -0.6125  0.2185  0.8344
 5094SOL     OW26743   3.579   4.344   3.383  0.1069  0.1602 -0.2166
 5094SOL    HW126744   3.486   4.364   3.383 -0.4114 -2.1845 -0.3884
 5094SOL    HW226745   3.616   4.432   3.377  0.4618  0.0653  0.6209
 5095SOL     OW26746   4.310   0.016  15.892 -0.4363  0.5232  0.2697
 5095SOL    HW126747   4.331   0.044  15.804  1.6768 -0.5058  0.4586
 5095SOL    HW226748   4.237   0.074  15.913 -1.6903 -1.3598  1.1554
 5096SOL     OW26749   2.728   1.387   4.542 -0.2052  0.7234  0.1979
 5096SOL    HW126750   2.691   1.465   4.500  0.2885  0.2842 -1.0723
 5096SOL    HW226751   2.798   1.369   4.479 -1.2372 -4.4829  0.5131
 5097SOL     OW26752   3.663   3.522   8.005 -0.3857 -0.0738 -0.7214
 5097SOL    HW126753   3.699   3.564   7.927  0.6440 -0.4619 -0.4642
 5097SOL    HW226754   3.587   3.577   8.020 -0.5963 -0.8734  1.1460
 5098SOL     OW26755   4.075   4.161   0.823 -0.7191  0.5221  0.7844
 5098SOL    HW126756   4.030   4.087   0.864  1.2734 -1.0815  0.0523
 5098SOL    HW226757   4.118   4.109   0.755 -0.6010  2.2618 -0.4954
 5099SOL     OW26758   4.556   1.853  10.190 -0.0029  0.0354  0.1588
 5099SOL    HW126759   4.466   1.827  10.211 -0.0370  1.7842  2.0937
 5099SOL    HW226760   4.608   1.773  10.200  0.9360  0.5073 -0.8291
 5100SOL     OW26761   1.677   4.018   3.838 -0.0899 -0.8230  0.5921
 5100SOL    HW126762   1.718   3.934   3.859  1.6423 -0.8492 -2.8368
 5100SOL    HW226763   1.619   3.992   3.767 -0.0998  1.5124 -0.2807
 5101SOL     OW26764   2.851   2.748   4.198  0.0978 -0.0734  0.0229
 5101SOL    HW126765   2.853   2.826   4.142 -0.6120 -1.6338 -2.1668
 5101SOL    HW226766   2.785   2.692   4.156  1.9112 -1.9981 -0.2464
 5102SOL     OW26767   2.136   0.707   8.717  0.3395  0.1346 -0.0575
 5102SOL    HW126768   2.144   0.722   8.623  1.6358 -1.8933 -0.2595
 5102SOL    HW226769   2.189   0.777   8.756  1.2360 -0.2129 -0.6566
 5103SOL     OW26770   0.375   0.239   8.885 -0.8412 -0.0747  0.2231
 5103SOL    HW126771   0.310   0.169   8.883 -1.6287  0.6967 -0.9792
 5103SOL    HW226772   0.332   0.306   8.938 -1.1109 -1.4146  1.7138
 5104SOL     OW26773   3.158   2.873  10.542 -0.3847 -0.5164 -0.4738
 5104SOL    HW126774   3.214   2.825  10.602  0.0918 -1.7810 -1.9299
 5104SOL    HW226775   3.172   2.967  10.557  0.7849 -0.7091 -0.3387
 5105SOL     OW26776   4.645   0.477   6.558 -0.3627 -0.3396  0.2051
 5105SOL    HW126777   4.572   0.521   6.602 -0.9664  0.7929 -1.8861
 5105SOL    HW226778   4.715   0.493   6.621 -0.7927  2.3584  0.0078
 5106SOL     OW26779   4.105   4.063   6.541 -0.2552  0.4889  0.4522
 5106SOL    HW126780   4.199   4.062   6.524 -0.7218  0.0909 -2.1096
 5106SOL    HW226781   4.094   3.970   6.560  0.0992  0.9773  2.9856
 5107SOL     OW26782   1.266   0.627   7.921  0.0119  0.0620 -0.4430
 5107SOL    HW126783   1.305   0.706   7.883 -2.0214  0.8648 -0.8484
 5107SOL    HW226784   1.250   0.664   8.007  2.8088  0.1129  0.0520
 5108SOL     OW26785   4.365   4.554   2.480  0.6450  0.0300 -0.5500
 5108SOL    HW126786   4.305   4.484   2.454 -0.7240  0.6629  0.9620
 5108SOL    HW226787   4.349   4.612   2.405  0.1380  1.2598  0.5189
 5109SOL     OW26788   2.799   2.509  14.701 -0.2479 -0.2761  0.2229
 5109SOL    HW126789   2.796   2.574  14.770 -3.6934  0.1956 -0.3808
 5109SOL    HW226790   2.710   2.529  14.672 -0.8277 -2.4900  0.4522
 5110SOL     OW26791   1.044   3.448   4.437 -0.2567 -0.6611 -0.1472
 5110SOL    HW126792   0.960   3.403   4.441 -0.8005  0.2812 -1.0773
 5110SOL    HW226793   1.058   3.491   4.522  0.4958 -1.5836  0.2030
 5111SOL     OW26794   1.933   1.423  13.977  0.4982 -0.3395 -0.3142
 5111SOL    HW126795   1.957   1.330  13.976  0.9321 -0.2371  0.9495
 5111SOL    HW226796   1.884   1.430  14.058 -0.7991  0.5457 -1.1777
 5112SOL     OW26797   3.834   1.935  11.613 -0.1838 -0.2608 -0.2569
 5112SOL    HW126798   3.844   1.915  11.706  0.0200  0.2007 -0.1826
 5112SOL    HW226799   3.918   1.978  11.598  0.3437 -1.4331 -0.6949
 5113SOL     OW26800   0.198   3.498   2.265 -0.5177  0.5352  0.0754
 5113SOL    HW126801   0.222   3.493   2.173  1.4507  1.8124  0.5359
 5113SOL    HW226802   0.198   3.592   2.280  1.0299  0.9269 -2.3967
 5114SOL     OW26803   1.940   1.124   0.083  0.1197 -0.3570 -0.0081
 5114SOL    HW126804   1.973   1.168   0.161  0.3583 -1.2029  0.3656
 5114SOL    HW226805   2.015   1.137   0.026  0.1963  2.5333  0.7670
 5115SOL     OW26806   4.555   1.124   1.843  0.2530 -0.6423 -0.7791
 5115SOL    HW126807   4.596   1.064   1.905  2.4108  2.4900  0.8219
 5115SOL    HW226808   4.483   1.075   1.802  0.3741 -0.7320 -0.8888
 5116SOL     OW26809   1.020   0.272   7.258 -1.0164  0.1738 -0.0022
 5116SOL    HW126810   1.017   0.221   7.339 -1.3493 -0.6376 -0.5170
 5116SOL    HW226811   0.939   0.241   7.216 -3.2728  2.1126  2.9304
 5117SOL     OW26812   3.714   3.507   9.005  0.5125  0.2415 -0.4550
 5117SOL    HW126813   3.755   3.500   8.919  1.6923 -0.8212  0.2028
 5117SOL    HW226814   3.653   3.581   9.003  1.3025  0.8687 -1.2319
 5118SOL     OW26815   2.930   2.403  15.394 -0.0710  0.2602 -0.1015
 5118SOL    HW126816   3.008   2.458  15.390  1.1184 -1.4332 -0.4038
 5118SOL    HW226817   2.890   2.442  15.472 -1.1625  2.1945 -1.6250
 5119SOL     OW26818   0.847   4.006   5.015 -0.3287 -0.2823  0.3426
 5119SOL    HW126819   0.845   3.924   5.065 -2.6548 -0.6174 -0.3103
 5119SOL    HW226820   0.843   4.064   5.091 -2.1261  2.5018 -1.9209
 5120SOL     OW26821   1.558   0.143   7.122 -0.0920 -0.3905  0.1448
 5120SOL    HW126822   1.555   0.142   7.026  1.3692  2.2872  0.0902
 5120SOL    HW226823   1.633   0.199   7.138 -0.4614  0.1390  0.0307
 5121SOL     OW26824   0.786   2.559  17.520 -0.3112 -0.3581  0.1482
 5121SOL    HW126825   0.820   2.640  17.482 -0.0888 -1.2581 -1.5851
 5121SOL    HW226826   0.796   2.578  17.613  0.8313  0.6662 -0.1929
 5122SOL     OW26827   4.661   2.135   6.887  0.4818  0.6782 -0.1787
 5122SOL    HW126828   4.609   2.182   6.952  1.0028  1.5325 -0.3866
 5122SOL    HW226829   4.608   2.057   6.870  0.3367  0.7595 -0.0978
 5123SOL     OW26830   4.412   1.379   9.560 -0.3610 -0.2788 -0.3873
 5123SOL    HW126831   4.333   1.433   9.549  0.5679  1.3869  1.0360
 5123SOL    HW226832   4.425   1.351   9.469 -0.9631 -0.4074 -0.4371
 5124SOL     OW26833   2.631   4.711   2.568  0.1052 -0.0258  0.0031
 5124SOL    HW126834   2.661   4.620   2.568 -1.1395 -0.4432  0.6177
 5124SOL    HW226835   2.640   0.008   2.660  0.1232  0.7430 -0.2013
 5125SOL     OW26836   1.072   1.572   5.634 -0.5252 -0.5553 -0.0952
 5125SOL    HW126837   1.114   1.573   5.720 -0.7629 -0.7876  0.0253
 5125SOL    HW226838   1.147   1.534   5.589 -1.2036 -2.7430  0.6166
 5126SOL     OW26839   0.916   0.786   8.752 -0.1294  0.2918  0.0390
 5126SOL    HW126840   0.974   0.786   8.828  1.8761 -0.3807 -1.4790
 5126SOL    HW226841   0.939   0.859   8.695  0.2609  1.4830  1.7265
 5127SOL     OW26842   3.411   0.287  16.820 -0.5794 -0.6811  0.0447
 5127SOL    HW126843   3.440   0.362  16.769 -1.0211 -0.8386 -0.4390
 5127SOL    HW226844   3.492   0.258  16.863 -0.6678  1.9433  2.0288
 5128SOL     OW26845   0.575   1.544   0.615  0.1701 -0.4172 -0.6049
 5128SOL    HW126846   0.596   1.451   0.607  2.1573  0.3980 -4.6559
 5128SOL    HW226847   0.530   1.550   0.699  2.3723  1.6374  0.4126
 5129SOL     OW26848   2.882   4.691   5.485 -0.4160  0.5863  0.0081
 5129SOL    HW126849   2.810   0.015   5.447  0.0465 -0.2511 -1.9784
 5129SOL    HW226850   2.959   0.013   5.460 -2.1634  3.5007  0.3744
 5130SOL     OW26851   3.212   2.891  14.886  0.1760 -0.2277 -0.1166
 5130SOL    HW126852   3.285   2.879  14.948  1.5676  0.5224 -1.6233
 5130SOL    HW226853   3.144   2.845  14.936  0.2962 -0.3808 -0.0905
 5131SOL     OW26854   4.599   4.087  13.366  0.6010 -0.1903  0.1455
 5131SOL    HW126855   4.572   4.178  13.378  0.6797 -0.2406  0.7100
 5131SOL    HW226856   4.510   4.051  13.368  1.0470 -1.1822  2.6428
 5132SOL     OW26857   0.442   2.018   4.025  0.2940 -0.3456  0.1739
 5132SOL    HW126858   0.455   2.069   3.945  2.2123  0.0086  0.7280
 5132SOL    HW226859   0.464   2.090   4.084  0.0404  0.2290 -0.4227
 5133SOL     OW26860   0.105   1.988   9.190  0.0049  0.2336  0.1843
 5133SOL    HW126861   0.084   2.045   9.264  0.9948  1.5627 -0.5576
 5133SOL    HW226862   0.072   1.904   9.223 -0.1196  0.0692 -0.3650
 5134SOL     OW26863   1.256   1.573   1.617  0.6375 -0.1380 -0.2767
 5134SOL    HW126864   1.236   1.587   1.710  1.9231 -2.1235  0.3075
 5134SOL    HW226865   1.335   1.626   1.612  0.2058  0.3428 -1.9142
 5135SOL     OW26866   4.302   2.828   5.749 -0.0210  0.2568  0.7524
 5135SOL    HW126867   4.296   2.787   5.663  3.3817  0.5202  0.3982
 5135SOL    HW226868   4.386   2.788   5.773 -0.1476 -1.7039 -2.0456
 5136SOL     OW26869   1.654   2.395   4.193 -0.3673 -0.1248  0.1748
 5136SOL    HW126870   1.675   2.488   4.201  1.5312 -0.5031 -0.5157
 5136SOL    HW226871   1.558   2.394   4.187 -0.3557  1.8211 -0.4104
 5137SOL     OW26872   2.171   2.652   0.693  0.4412 -0.1272  0.9758
 5137SOL    HW126873   2.230   2.576   0.693  0.5485 -0.0520  1.8854
 5137SOL    HW226874   2.221   2.724   0.654  0.7960 -0.8547  0.1018
 5138SOL     OW26875   3.991   0.953   8.894  0.2786 -0.4384  0.3331
 5138SOL    HW126876   4.051   0.973   8.822 -0.0632  0.1702  0.2169
 5138SOL    HW226877   4.045   0.897   8.950 -1.3166 -0.3889  1.8973
 5139SOL     OW26878   2.010   3.420  16.812 -0.5544  0.4238  0.1356
 5139SOL    HW126879   1.966   3.354  16.759 -0.0698  0.1679  0.0538
 5139SOL    HW226880   1.939   3.453  16.867 -0.6445  2.1160 -0.9928
 5140SOL     OW26881   3.719   2.888  15.646  0.2215  0.1159 -0.2672
 5140SOL    HW126882   3.696   2.893  15.553 -1.6653  0.3085  0.2015
 5140SOL    HW226883   3.793   2.828  15.651 -1.0454 -1.2407  2.3473
 5141SOL     OW26884   3.148   3.988   9.939  0.0262 -0.1656  0.0135
 5141SOL    HW126885   3.223   3.930   9.953  1.3154  1.3148 -0.7838
 5141SOL    HW226886   3.175   4.038   9.862  1.3676 -1.6878 -0.5258
 5142SOL     OW26887   0.805   2.421  10.665  0.4587 -0.3915 -0.0426
 5142SOL    HW126888   0.852   2.475  10.602 -0.8934  0.3862 -0.3957
 5142SOL    HW226889   0.853   2.339  10.663  0.4574 -0.3785 -0.4883
 5143SOL     OW26890   2.861   1.428   8.996 -0.3291  0.2137  0.4703
 5143SOL    HW126891   2.799   1.455   9.064 -2.3193 -2.3653 -0.3139
 5143SOL    HW226892   2.825   1.477   8.922 -1.1501 -1.0096  0.0596
 5144SOL     OW26893   3.160   1.211   7.605  0.3069 -0.6986  0.7668
 5144SOL    HW126894   3.130   1.176   7.688  0.2746 -1.4915  0.4194
 5144SOL    HW226895   3.163   1.307   7.608 -0.9888 -0.6994  2.4204
 5145SOL     OW26896   0.233   3.043   8.037  0.1161  0.1321 -0.1661
 5145SOL    HW126897   0.177   2.965   8.038 -0.2406  0.3788 -0.5206
 5145SOL    HW226898   0.224   3.074   8.127  0.7715  0.4511 -0.2168
 5146SOL     OW26899   2.024   2.190   3.765  0.4596  0.1535 -0.3033
 5146SOL    HW126900   2.014   2.277   3.727  1.0047 -0.1642 -1.1696
 5146SOL    HW226901   1.934   2.184   3.798  0.4556 -3.6569 -0.9760
 5147SOL     OW26902   0.505   0.215   8.559 -0.1512 -0.1451 -0.6460
 5147SOL    HW126903   0.476   0.277   8.492 -0.6883 -0.5357 -0.7773
 5147SOL    HW226904   0.530   0.136   8.512 -1.0970  0.5961 -2.3965
 5148SOL     OW26905   4.701   0.866   7.231 -0.1910  0.3114 -0.0389
 5148SOL    HW126906   4.702   0.935   7.165  0.5488  1.4509  1.1817
 5148SOL    HW226907   4.618   0.890   7.271 -0.4181 -2.0154  0.8880
 5149SOL     OW26908   1.810   2.405   1.454  0.0705  0.1547  0.3174
 5149SOL    HW126909   1.764   2.475   1.499 -0.7529 -0.4677  0.4495
 5149SOL    HW226910   1.806   2.332   1.516 -2.5049  0.6152  0.6707
 5150SOL     OW26911   0.435   0.447   8.713  0.2495  0.4695  0.4859
 5150SOL    HW126912   0.344   0.452   8.684 -0.7055 -0.4537  3.2504
 5150SOL    HW226913   0.440   0.354   8.737  1.4023  0.1581 -0.9557
 5151SOL     OW26914   2.426   3.816   8.918 -0.0441 -0.5065  0.1789
 5151SOL    HW126915   2.497   3.878   8.905 -1.5076  0.9072 -1.1413
 5151SOL    HW226916   2.415   3.817   9.013 -1.2787 -0.9611  0.0429
 5152SOL     OW26917   3.143   0.782   5.432 -0.1882  0.2408 -0.0677
 5152SOL    HW126918   3.102   0.828   5.505  0.8663  2.1838 -0.6943
 5152SOL    HW226919   3.195   0.722   5.486  1.1691  1.2757 -0.2238
 5153SOL     OW26920   1.171   1.702   1.366  0.0812 -0.4342  0.3494
 5153SOL    HW126921   1.164   1.783   1.416 -2.0483  0.2181 -1.0174
 5153SOL    HW226922   1.161   1.637   1.436 -0.3818  0.4936  1.1260
 5154SOL     OW26923   0.329   0.533  11.577  0.4603 -0.0329 -0.0969
 5154SOL    HW126924   0.340   0.512  11.484 -2.6995  0.8282 -0.6616
 5154SOL    HW226925   0.379   0.614  11.588  0.8387 -0.4961  1.5794
 5155SOL     OW26926   1.534   3.556   6.534 -0.0050 -0.4648 -0.5061
 5155SOL    HW126927   1.614   3.509   6.558  0.6209  1.6803  1.6361
 5155SOL    HW226928   1.487   3.492   6.482  3.4143 -0.9506 -2.9789
 5156SOL     OW26929   3.272   3.854   1.899 -0.8102  0.5228 -0.1506
 5156SOL    HW126930   3.321   3.884   1.823  1.0761 -3.0913 -0.3743
 5156SOL    HW226931   3.181   3.881   1.886 -0.0505  1.5684 -3.3079
 5157SOL     OW26932   0.696   0.815   8.189 -0.2234  0.1297 -0.0063
 5157SOL    HW126933   0.706   0.872   8.265 -0.2454  1.3382 -0.9108
 5157SOL    HW226934   0.606   0.782   8.190 -0.5273  0.9596 -0.1302
 5158SOL     OW26935   3.702   4.351   5.676  0.7792  0.0682  0.1236
 5158SOL    HW126936   3.671   4.406   5.605 -0.3724 -0.8466 -0.0740
 5158SOL    HW226937   3.784   4.311   5.647  0.3038 -2.4591  2.2468
 5159SOL     OW26938   0.008   2.158   3.832 -0.2854  0.2443 -0.1637
 5159SOL    HW126939   0.081   2.097   3.818  1.1108  1.3845  2.1415
 5159SOL    HW226940   4.655   2.110   3.815  1.4799 -3.2751  1.2368
 5160SOL     OW26941   3.977   2.215   8.468  0.4620 -0.3825  0.1959
 5160SOL    HW126942   3.949   2.215   8.376  0.1966  0.2222  0.2721
 5160SOL    HW226943   4.027   2.297   8.476 -0.1614 -0.0122  0.3052
 5161SOL     OW26944   0.844   0.551  10.603  0.3520 -0.1104  0.8327
 5161SOL    HW126945   0.824   0.585  10.516  0.7549  0.3151  0.9050
 5161SOL    HW226946   0.892   0.623  10.645 -0.3578  0.5812  0.4741
 5162SOL     OW26947   1.997   2.278   5.130 -0.4906  0.6247 -0.3133
 5162SOL    HW126948   2.073   2.316   5.087  1.9315 -2.6444  1.0546
 5162SOL    HW226949   1.960   2.356   5.172  0.9738 -0.2654  2.6377
 5163SOL     OW26950   1.819   3.197   9.396 -0.6957  0.6009  0.4860
 5163SOL    HW126951   1.866   3.116   9.380  2.2064  2.6653 -1.5445
 5163SOL    HW226952   1.885   3.266   9.383 -2.3835  2.3964  1.4534
 5164SOL     OW26953   3.151   1.529  15.116 -0.0784  0.3883 -0.1375
 5164SOL    HW126954   3.200   1.496  15.191 -1.3017  0.0893  0.5180
 5164SOL    HW226955   3.084   1.588  15.149  0.2730  0.9271 -0.3774
 5165SOL     OW26956   2.445   2.890   0.330  0.2644 -0.0920  0.2030
 5165SOL    HW126957   2.467   2.957   0.265 -0.3722  0.3730  0.4616
 5165SOL    HW226958   2.532   2.857   0.352 -0.4118 -2.1386 -0.2026
 5166SOL     OW26959   3.797   1.360   3.057  0.4095 -0.5915  0.0475
 5166SOL    HW126960   3.800   1.331   2.966 -0.9943  0.7263 -0.4229
 5166SOL    HW226961   3.739   1.296   3.096 -0.8356 -0.4379 -1.5688
 5167SOL     OW26962   0.655   2.706   8.377  0.4268  0.7557  0.1654
 5167SOL    HW126963   0.642   2.633   8.317  0.2749 -0.8014  2.1165
 5167SOL    HW226964   0.569   2.742   8.401  0.3061  0.4860  0.1349
 5168SOL     OW26965   4.581   2.940   9.212  0.2741  0.0639  0.3486
 5168SOL    HW126966   4.561   3.026   9.176 -1.0523  0.1542  1.3217
 5168SOL    HW226967   4.605   2.967   9.301  1.2691  0.7692 -0.1388
 5169SOL     OW26968   0.612   3.095   3.803  0.2503  0.3334 -0.1916
 5169SOL    HW126969   0.590   3.033   3.873  0.6385 -1.0119 -1.2686
 5169SOL    HW226970   0.707   3.099   3.798  0.1536  2.1409 -0.5881
 5170SOL     OW26971   4.450   0.411   6.162  0.3210 -0.2620  0.6287
 5170SOL    HW126972   4.531   0.431   6.208  1.1503 -2.3431  0.0484
 5170SOL    HW226973   4.397   0.472   6.214 -0.6622 -1.4601  1.0393
 5171SOL     OW26974   1.245   2.384  16.042 -0.2234 -0.3559 -0.5285
 5171SOL    HW126975   1.240   2.473  16.006  0.1227 -1.0145 -2.2118
 5171SOL    HW226976   1.192   2.340  15.975  1.1435 -3.6694  0.5996
 5172SOL     OW26977   3.421   3.100  14.630  0.0117  0.5672 -0.1436
 5172SOL    HW126978   3.429   3.103  14.535 -0.1702 -2.2337 -0.2338
 5172SOL    HW226979   3.433   3.009  14.655 -2.9073  0.5776  1.2838
 5173SOL     OW26980   3.355   4.316   4.623 -0.3422 -0.0566  0.0233
 5173SOL    HW126981   3.364   4.221   4.628  0.5372 -0.0111 -0.8233
 5173SOL    HW226982   3.285   4.320   4.558 -2.4873  0.0348  2.3529
 5174SOL     OW26983   0.284   3.185   9.079  0.0855  0.6049  0.2959
 5174SOL    HW126984   0.345   3.258   9.072 -0.8877  1.0910 -2.9078
 5174SOL    HW226985   0.255   3.177   8.988 -3.2758 -1.3219  1.5099
 5175SOL     OW26986   0.669   4.316   3.405  0.5700 -0.1519  0.4972
 5175SOL    HW126987   0.691   4.407   3.425 -0.9162  0.2846  0.1629
 5175SOL    HW226988   0.608   4.310   3.478  0.6603  0.3378  0.6171
 5176SOL     OW26989   0.635   0.187   3.956 -0.0631  0.2255  0.0216
 5176SOL    HW126990   0.550   0.146   3.941  0.3762 -0.0621 -1.6531
 5176SOL    HW226991   0.611   0.257   4.017 -0.9805 -0.7263  0.7535
 5177SOL     OW26992   1.426   0.265   2.234  0.5916 -0.3329 -0.4117
 5177SOL    HW126993   1.353   0.244   2.176 -0.0815  0.7953  0.0275
 5177SOL    HW226994   1.447   0.355   2.208 -2.0418  0.6065  0.7902
 5178SOL     OW26995   2.843   3.555   8.954 -0.4552 -0.4437 -0.3822
 5178SOL    HW126996   2.931   3.583   8.979  0.6735 -3.6500 -0.7327
 5178SOL    HW226997   2.794   3.634   8.977 -0.1669 -0.1798 -0.6980
 5179SOL     OW26998   0.221   2.815   9.060 -0.4902  0.0753 -0.1377
 5179SOL    HW126999   0.240   2.864   9.140 -4.1213  0.8280  0.2635
 5179SOL    HW227000   0.258   2.734   9.095 -2.1944  0.9050  3.5746
 5180SOL     OW27001   1.219   4.111   6.016 -0.9006  0.1460  0.4536
 5180SOL    HW127002   1.261   4.102   6.102  1.0357 -1.3828 -0.6374
 5180SOL    HW227003   1.250   4.193   5.978  0.2341 -0.0283  1.0062
 5181SOL     OW27004   4.017   4.562   9.278 -0.0760 -0.7452  0.0930
 5181SOL    HW127005   4.016   4.478   9.324 -1.2797 -0.0972  1.2814
 5181SOL    HW227006   4.047   4.536   9.191  0.7121 -0.0164  0.1551
 5182SOL     OW27007   1.995   0.969   7.251 -0.3692 -0.6919  0.2691
 5182SOL    HW127008   2.035   1.049   7.286  1.5795 -1.4859 -0.1856
 5182SOL    HW227009   1.937   0.993   7.179  2.7164 -0.9416 -2.3104
 5183SOL     OW27010   0.161   1.283   8.456 -0.0024  0.7014 -0.2289
 5183SOL    HW127011   0.079   1.273   8.408 -0.7280  0.8030  0.9922
 5183SOL    HW227012   0.170   1.378   8.467 -0.2828  0.6453  0.5308
 5184SOL     OW27013   4.309   3.705   0.476 -0.2590 -0.0765  0.2317
 5184SOL    HW127014   4.327   3.777   0.416 -4.1336 -0.0096 -0.8483
 5184SOL    HW227015   4.399   3.681   0.498 -1.2232 -1.3777  2.7630
 5185SOL     OW27016   4.465   2.965  16.803  0.7408 -0.1908  0.1210
 5185SOL    HW127017   4.372   2.950  16.821  0.4177  2.4062  0.6469
 5185SOL    HW227018   4.499   2.982  16.891 -2.2634  1.1563  1.0406
 5186SOL     OW27019   3.537   4.620   5.760  0.5698 -0.1005  0.1782
 5186SOL    HW127020   3.630   4.618   5.783  0.9414 -1.4013 -1.4473
 5186SOL    HW227021   3.524   4.712   5.737  1.4844 -0.0561 -0.1377
 5187SOL     OW27022   2.919   2.709   7.469  0.2244  0.7234  0.3035
 5187SOL    HW127023   2.992   2.737   7.524 -0.3593  0.7153  1.0805
 5187SOL    HW227024   2.960   2.657   7.400  1.4498  0.5821  1.1432
 5188SOL     OW27025   3.167   1.292   2.440 -0.1234  0.6079 -0.3114
 5188SOL    HW127026   3.208   1.378   2.430 -2.9079  1.9490 -0.2895
 5188SOL    HW227027   3.241   1.232   2.435 -2.5991 -2.6259  1.7106
 5189SOL     OW27028   4.230   1.947   9.331  0.1362  0.4882  0.3891
 5189SOL    HW127029   4.148   1.899   9.339 -1.1229  2.3672 -1.1055
 5189SOL    HW227030   4.250   1.958   9.424 -0.1760  1.9768  0.2797
 5190SOL     OW27031   0.847   0.949   0.272 -0.1693  0.4856  0.2480
 5190SOL    HW127032   0.831   0.960   0.365  1.9776  0.1125  0.6632
 5190SOL    HW227033   0.867   0.856   0.259 -0.8945  0.6774 -2.2046
 5191SOL     OW27034   4.559   4.134   2.952 -0.0185 -0.6944 -0.2065
 5191SOL    HW127035   4.631   4.155   2.892 -0.4515  1.9133  0.1872
 5191SOL    HW227036   4.519   4.056   2.914  1.0795 -2.2850  1.8898
 5192SOL     OW27037   3.784   1.234   3.765  0.0450  0.6101  0.1670
 5192SOL    HW127038   3.811   1.269   3.850  1.0650 -1.5139  0.7138
 5192SOL    HW227039   3.690   1.221   3.768 -0.0545  0.6173 -2.5953
 5193SOL     OW27040   2.626   0.791   6.894 -0.1293 -0.0581 -0.3074
 5193SOL    HW127041   2.572   0.835   6.828 -1.9300  1.4810  2.1864
 5193SOL    HW227042   2.561   0.784   6.964 -0.1421 -0.8473 -0.3925
 5194SOL     OW27043   4.725   2.948   9.466  0.2185 -0.3884 -0.0485
 5194SOL    HW127044   4.718   2.913   9.554  2.7019  2.0110  1.0921
 5194SOL    HW227045   0.092   2.947   9.452  0.4614  1.2080  1.4798
 5195SOL     OW27046   3.571   3.639  12.829  0.6252  0.0357 -0.4072
 5195SOL    HW127047   3.664   3.661  12.826  0.7570 -0.1210  2.9948
 5195SOL    HW227048   3.533   3.688  12.756 -0.4248  3.2868  2.3181
 5196SOL     OW27049   2.878   1.135   1.589  0.4394 -0.0263  0.0470
 5196SOL    HW127050   2.789   1.103   1.605 -0.3509  1.9890 -0.2612
 5196SOL    HW227051   2.889   1.139   1.494 -2.2278  4.3875 -0.0987
 5197SOL     OW27052   4.530   3.673   2.955  0.0697 -0.1188 -0.0008
 5197SOL    HW127053   4.441   3.659   2.985 -0.0901 -1.1263 -0.9627
 5197SOL    HW227054   4.529   3.768   2.946 -1.3398 -0.0292  1.1213
 5198SOL     OW27055   0.714   2.692  15.490  0.5111 -0.6106 -0.4951
 5198SOL    HW127056   0.711   2.787  15.479 -0.8073 -0.5230  0.6602
 5198SOL    HW227057   0.712   2.661  15.400 -0.2119 -1.4216 -0.1927
 5199SOL     OW27058   2.109   0.164  10.118 -0.7885  0.1522  0.1373
 5199SOL    HW127059   2.127   0.182  10.026  0.2036  0.5594  0.4135
 5199SOL    HW227060   2.178   0.219  10.157 -0.1409 -1.3922  1.1847
 5200SOL     OW27061   2.473   4.650   4.026  0.5061 -0.0924 -0.7805
 5200SOL    HW127062   2.471   4.714   3.954  0.1360 -0.1453 -0.8176
 5200SOL    HW227063   2.381   4.630   4.044  1.2266 -1.5652  1.2610
 5201SOL     OW27064   4.266   0.529   9.609 -0.4809  0.3424  0.9711
 5201SOL    HW127065   4.282   0.544   9.516  2.2261  1.3976  1.6174
 5201SOL    HW227066   4.260   0.621   9.637  3.1016  0.6961  0.5437
 5202SOL     OW27067   1.712   3.091  10.604  0.1686 -0.2856  0.2024
 5202SOL    HW127068   1.697   3.082  10.698 -2.6163  2.2504 -0.0214
 5202SOL    HW227069   1.646   3.158  10.585  0.7224 -0.3993 -2.2344
 5203SOL     OW27070   3.794   1.177   2.178 -0.4469 -0.3503  0.2465
 5203SOL    HW127071   3.881   1.145   2.154 -0.1989 -0.3976  1.2374
 5203SOL    HW227072   3.746   1.105   2.137  2.2344 -0.1387 -3.3339
 5204SOL     OW27073   0.388   2.171   8.902  0.3725  0.1119 -0.2354
 5204SOL    HW127074   0.482   2.153   8.899 -0.3937 -3.5454 -2.3625
 5204SOL    HW227075   0.387   2.267   8.908  0.9581  0.3167 -3.2993
 5205SOL     OW27076   2.644   1.044   4.438 -0.3370  0.4298 -0.2152
 5205SOL    HW127077   2.607   1.033   4.350 -0.9486 -1.0931  0.2293
 5205SOL    HW227078   2.696   1.125   4.442 -0.7614  0.6399  1.1885
 5206SOL     OW27079   0.024   3.392  14.605  0.3979 -0.5651  0.0910
 5206SOL    HW127080   0.089   3.420  14.668  1.6655 -0.7969 -1.1140
 5206SOL    HW227081   0.084   3.373  14.533  1.5459  0.1913  0.8489
 5207SOL     OW27082   4.472   4.393   6.725 -0.5057  0.0681 -0.0646
 5207SOL    HW127083   4.548   4.363   6.775 -1.3860  2.4836  2.7488
 5207SOL    HW227084   4.425   4.309   6.731 -1.6781  0.9273  3.0577
 5208SOL     OW27085   2.699   0.244  10.150 -0.0450 -0.1323 -0.3461
 5208SOL    HW127086   2.747   0.176  10.103  1.9860 -0.1301  1.7159
 5208SOL    HW227087   2.632   0.266  10.085 -1.4157 -1.4040  0.6273
 5209SOL     OW27088   0.446   1.406  15.487  0.0687  1.2106  0.6151
 5209SOL    HW127089   0.478   1.495  15.502 -0.7899  1.1292  2.8674
 5209SOL    HW227090   0.458   1.355  15.567  0.8754 -0.5193 -0.6056
 5210SOL     OW27091   2.836   0.630   5.514  0.2308 -0.3406 -0.2950
 5210SOL    HW127092   2.888   0.668   5.585  0.6934  0.5349 -1.1029
 5210SOL    HW227093   2.822   0.706   5.458 -0.6591 -0.4828 -0.2694
 5211SOL     OW27094   1.181   2.848   1.715  0.4178 -0.2885 -0.2187
 5211SOL    HW127095   1.182   2.870   1.808 -1.5511 -2.2755  0.2562
 5211SOL    HW227096   1.088   2.847   1.696  0.1534  1.6558  0.9967
 5212SOL     OW27097   1.557   1.814   8.254  0.2852 -0.6680 -0.4745
 5212SOL    HW127098   1.590   1.866   8.180 -1.2432 -1.1989 -1.5454
 5212SOL    HW227099   1.600   1.860   8.326  1.3604  0.3559 -1.7721
 5213SOL     OW27100   3.824   3.227   6.908  0.4814 -0.5480 -0.0917
 5213SOL    HW127101   3.763   3.287   6.866  2.4079  1.0029 -0.6584
 5213SOL    HW227102   3.766   3.174   6.962 -0.2520  0.1470 -0.2065
 5214SOL     OW27103   3.195   3.591   1.940  0.1189  0.7869 -0.4695
 5214SOL    HW127104   3.214   3.685   1.930  1.1611  0.8864  2.3271
 5214SOL    HW227105   3.262   3.557   1.881 -2.1834 -0.3452 -2.4090
 5215SOL     OW27106   3.859   1.470   4.649 -0.1032  0.1415  0.0330
 5215SOL    HW127107   3.922   1.489   4.719 -0.1817 -1.0481  0.4325
 5215SOL    HW227108   3.866   1.375   4.642 -0.1813  0.2359 -1.3600
 5216SOL     OW27109   3.824   2.977   5.862  0.7214  0.1127 -0.2236
 5216SOL    HW127110   3.758   2.975   5.793 -2.0657 -1.8530  2.4599
 5216SOL    HW227111   3.822   3.069   5.885 -0.7301 -0.1610  0.7752
 5217SOL     OW27112   1.223   0.996   6.082  0.1189  0.1935 -0.0202
 5217SOL    HW127113   1.236   0.978   5.989 -1.2685 -0.4886 -0.0782
 5217SOL    HW227114   1.175   0.917   6.108 -1.0500  0.4725 -1.3378
 5218SOL     OW27115   0.824   2.860  15.835  0.3160 -0.6304 -0.1000
 5218SOL    HW127116   0.745   2.807  15.848 -0.3663  0.9124  2.2279
 5218SOL    HW227117   0.896   2.798  15.838  1.7028  0.9201 -1.6679
 5219SOL     OW27118   0.986   2.872  12.728  0.1004  0.2622 -0.3304
 5219SOL    HW127119   0.937   2.836  12.654  0.8278  0.1436 -0.7547
 5219SOL    HW227120   0.993   2.797  12.787 -0.5909 -0.5786 -1.3182
 5220SOL     OW27121   1.655   0.636   6.427 -0.3277 -0.2543 -0.1717
 5220SOL    HW127122   1.645   0.670   6.516 -0.9399 -0.4657 -0.1651
 5220SOL    HW227123   1.708   0.708   6.390 -3.8143  2.4887  0.1569
 5221SOL     OW27124   0.877   2.264   8.119 -0.7667  0.1723  0.0796
 5221SOL    HW127125   0.896   2.254   8.026  0.4612 -1.4551  0.4964
 5221SOL    HW227126   0.939   2.334   8.138 -0.0441 -0.1867 -0.9946
 5222SOL     OW27127   0.480   0.860   7.099  0.0143  0.1057  0.5078
 5222SOL    HW127128   0.386   0.876   7.109  0.3243  2.7468 -0.7810
 5222SOL    HW227129   0.474   0.772   7.062 -0.6752  0.4504 -0.1938
 5223SOL     OW27130   1.770   2.221   3.843  0.7484 -0.0746 -0.0733
 5223SOL    HW127131   1.765   2.315   3.862  1.5489  0.0739 -0.5808
 5223SOL    HW227132   1.715   2.218   3.764  0.1409  1.5977  0.2818
 5224SOL     OW27133   3.127   4.629   4.117  0.0627 -0.2893  0.3436
 5224SOL    HW127134   3.208   4.589   4.087  0.3484  0.7069 -0.1947
 5224SOL    HW227135   3.140   4.718   4.086  0.9392 -0.4548  0.2447
 5225SOL     OW27136   3.237   4.501   7.061  0.0421 -0.0649  0.8366
 5225SOL    HW127137   3.207   4.511   6.971  0.2616  1.7614  0.9745
 5225SOL    HW227138   3.156   4.516   7.110 -1.4225  2.7143 -2.4347
 5226SOL     OW27139   0.336   1.248   2.096 -0.1634  0.1303  0.0507
 5226SOL    HW127140   0.423   1.212   2.114  0.0576  0.3481 -0.5564
 5226SOL    HW227141   0.290   1.165   2.086  1.6198 -0.8972  0.4429
 5227SOL     OW27142   2.714   2.060   4.954  0.0402  0.6396  0.0035
 5227SOL    HW127143   2.643   2.125   4.959 -0.3381  0.3135 -1.2606
 5227SOL    HW227144   2.711   2.034   4.862  0.4389  3.6430 -0.8643
 5228SOL     OW27145   2.265   1.532   0.327 -0.3909  0.0473  0.2859
 5228SOL    HW127146   2.343   1.514   0.381  0.4212  0.2221 -0.8257
 5228SOL    HW227147   2.194   1.506   0.385 -0.3473  0.6313  0.6002
 5229SOL     OW27148   4.292   3.675   2.408  0.1443 -0.1789  0.7263
 5229SOL    HW127149   4.219   3.637   2.457 -0.3935 -1.0675 -0.7792
 5229SOL    HW227150   4.282   3.633   2.323 -0.7558 -1.2732  1.3737
 5230SOL     OW27151   2.126   3.753   6.683 -0.0922 -0.5382 -0.7151
 5230SOL    HW127152   2.188   3.822   6.661 -2.1977  1.8816  1.1149
 5230SOL    HW227153   2.186   3.701   6.737 -0.9277  0.2501  0.9628
 5231SOL     OW27154   0.645   0.230   2.520 -0.1788 -0.1516  0.3645
 5231SOL    HW127155   0.648   0.142   2.482 -0.4921  0.3935 -0.8988
 5231SOL    HW227156   0.557   0.238   2.556 -0.9922 -2.2160 -1.1599
 5232SOL     OW27157   3.489   2.992   3.687 -0.8145 -0.1814  0.7174
 5232SOL    HW127158   3.537   3.056   3.634  1.0775 -2.0377  0.2091
 5232SOL    HW227159   3.439   2.962   3.611  0.4390  0.2807 -0.2913
 5233SOL     OW27160   3.254   1.264  13.647 -0.0550  0.1944 -0.1955
 5233SOL    HW127161   3.243   1.263  13.552 -1.4876 -1.6160 -0.0189
 5233SOL    HW227162   3.182   1.316  13.682 -1.7116 -0.6675 -2.4042
 5234SOL     OW27163   1.635   3.635   3.412 -0.0374  0.5646 -0.2972
 5234SOL    HW127164   1.557   3.665   3.364  0.6437  1.2552 -0.9894
 5234SOL    HW227165   1.644   3.701   3.480 -2.4868 -1.5326  2.0591
 5235SOL     OW27166   1.604   3.679   5.600 -0.3598 -0.6425  0.0603
 5235SOL    HW127167   1.561   3.602   5.638 -0.0605 -1.1406 -0.6253
 5235SOL    HW227168   1.696   3.674   5.625 -0.4290 -2.1916 -0.0061
 5236SOL     OW27169   4.312   4.421   3.036  0.3925  0.0638 -0.0482
 5236SOL    HW127170   4.370   4.423   2.960 -0.2817  0.3740 -0.5429
 5236SOL    HW227171   4.305   4.516   3.046 -1.2476 -0.3921  3.1005
 5237SOL     OW27172   1.814   1.010   4.032  0.2258 -0.5627 -0.0266
 5237SOL    HW127173   1.773   1.058   4.105  1.0853  1.0737 -0.6214
 5237SOL    HW227174   1.738   0.970   3.991 -0.6797 -0.4878  1.5681
 5238SOL     OW27175   4.242   3.480  10.086 -0.2059 -0.2353 -0.7001
 5238SOL    HW127176   4.228   3.387  10.072  2.0632 -0.9049  1.4290
 5238SOL    HW227177   4.319   3.487  10.030  0.3197 -1.2343 -0.1166
 5239SOL     OW27178   4.541   2.042  17.680  0.4153 -0.3729  0.7473
 5239SOL    HW127179   4.603   1.981  17.639 -0.8303  1.3137 -3.6705
 5239SOL    HW227180   4.487   1.979   0.017 -1.3403  0.2245 -0.4034
 5240SOL     OW27181   2.192   2.715   5.219  0.1483  0.3060  0.1616
 5240SOL    HW127182   2.278   2.675   5.213  0.6291  1.1862  1.1231
 5240SOL    HW227183   2.206   2.768   5.297 -1.1301  0.4994  0.2550
 5241SOL     OW27184   4.047   4.114  16.127 -0.3984 -0.2085  0.5054
 5241SOL    HW127185   4.125   4.166  16.141 -0.8892 -0.1464  2.9857
 5241SOL    HW227186   3.989   4.145  16.197 -1.1654 -3.6583  1.4359
 5242SOL     OW27187   2.300   1.955   0.203 -0.2116 -0.0375 -0.0944
 5242SOL    HW127188   2.341   2.040   0.189  0.4460 -0.4849 -0.8616
 5242SOL    HW227189   2.354   1.916   0.271  0.6782  1.9540  0.3142
 5243SOL     OW27190   1.954   4.401   7.331  0.0061  0.2197  0.6051
 5243SOL    HW127191   1.892   4.445   7.390 -0.3913  0.0804  0.2925
 5243SOL    HW227192   2.013   4.366   7.398  0.9894 -0.3526 -0.5699
 5244SOL     OW27193   0.194   3.615   1.384  0.0044  0.1921 -0.3518
 5244SOL    HW127194   0.142   3.681   1.430 -1.3495  0.0859 -1.7541
 5244SOL    HW227195   0.282   3.623   1.422  0.3939 -1.9043 -0.8026
 5245SOL     OW27196   0.701   3.606   0.670 -0.2830  0.0397 -0.0029
 5245SOL    HW127197   0.651   3.609   0.752 -2.4399  0.5572 -1.3323
 5245SOL    HW227198   0.757   3.538   0.706 -0.7236 -0.2335  0.1738
 5246SOL     OW27199   4.659   1.222   8.262  0.4526 -0.3700  0.1189
 5246SOL    HW127200   4.619   1.193   8.180  2.1734  2.1918 -1.6127
 5246SOL    HW227201   4.692   1.309   8.239 -1.2352 -0.4900 -2.7066
 5247SOL     OW27202   2.182   4.061  13.388  0.3255 -0.3197  0.6434
 5247SOL    HW127203   2.145   4.029  13.305  0.3886 -0.2434  0.5864
 5247SOL    HW227204   2.274   4.058  13.362  0.8095 -0.2415  2.3554
 5248SOL     OW27205   2.281   1.644  12.067  0.4377 -0.1636 -0.1911
 5248SOL    HW127206   2.258   1.551  12.075  1.5247 -0.4960 -0.8713
 5248SOL    HW227207   2.369   1.656  12.103  0.8016 -1.4163 -0.6617
 5249SOL     OW27208   3.107   0.029   7.239 -0.2946 -0.3939 -0.7231
 5249SOL    HW127209   3.099   0.124   7.226 -0.9714 -0.8967 -4.0112
 5249SOL    HW227210   3.032   0.001   7.186 -0.6383  0.2138 -0.5598
 5250SOL     OW27211   0.757   0.860   2.675  0.3818 -0.2451 -0.1356
 5250SOL    HW127212   0.696   0.934   2.679  0.3572 -0.2170 -1.0222
 5250SOL    HW227213   0.762   0.835   2.767 -2.3091 -2.1989 -0.5230
 5251SOL     OW27214   0.536   0.268   0.583  0.3923 -0.1058  0.0559
 5251SOL    HW127215   0.496   0.252   0.497  1.6597 -1.3909 -0.3077
 5251SOL    HW227216   0.615   0.213   0.587  0.2761 -0.4372 -1.9385
 5252SOL     OW27217   0.250   2.952   9.328 -0.5381  0.2103  0.4157
 5252SOL    HW127218   0.239   3.047   9.336  1.5017  0.6103 -1.6178
 5252SOL    HW227219   0.342   2.935   9.347  0.1974  3.0832 -0.5069
 5253SOL     OW27220   0.654   2.025   3.519  0.3907  0.2158 -0.4982
 5253SOL    HW127221   0.625   1.971   3.445  1.1549 -0.5615 -0.2247
 5253SOL    HW227222   0.667   1.949   3.576 -1.2158  0.9065  0.8046
 5254SOL     OW27223   0.220   2.926   7.506  0.1298  0.4730 -0.5288
 5254SOL    HW127224   0.237   3.005   7.453  2.4468  1.0596  1.0945
 5254SOL    HW227225   0.140   2.960   7.547  0.6610 -1.0702  1.7686
 5255SOL     OW27226   0.516   4.575  12.288 -0.2949 -0.6621 -0.2920
 5255SOL    HW127227   0.529   4.639  12.217  1.6896  0.0728  0.7323
 5255SOL    HW227228   0.451   4.511  12.260 -2.5725  1.8254 -0.7753
 5256SOL     OW27229   3.044   0.291   7.182  0.6513  0.4246  0.1305
 5256SOL    HW127230   3.052   0.364   7.121 -0.9244  2.5766  2.5213
 5256SOL    HW227231   2.957   0.312   7.215  0.8742  1.3445  0.1408
 5257SOL     OW27232   4.370   4.265   0.855 -0.5610  0.1923  0.5388
 5257SOL    HW127233   4.409   4.214   0.785 -3.3133 -0.7475 -0.3218
 5257SOL    HW227234   4.336   4.334   0.798  0.0437  1.0227  1.1737
 5258SOL     OW27235   3.809   0.588   2.868 -0.3747  0.2701 -0.3011
 5258SOL    HW127236   3.832   0.622   2.781 -0.3537  2.4669  0.5577
 5258SOL    HW227237   3.857   0.655   2.916 -0.7071 -0.8326  1.5492
 5259SOL     OW27238   1.241   3.312   1.691  0.0456 -0.1346 -0.4445
 5259SOL    HW127239   1.155   3.339   1.661 -0.0153  1.4554  1.2019
 5259SOL    HW227240   1.253   3.223   1.657 -0.7221 -1.2054  2.0678
 5260SOL     OW27241   1.323   4.048   2.819 -0.6628  0.1229 -0.3468
 5260SOL    HW127242   1.241   4.006   2.794  0.3048 -1.0678 -1.5210
 5260SOL    HW227243   1.369   4.037   2.736 -0.3438  1.3604 -0.3404
 5261SOL     OW27244   1.424   4.358  12.073  0.1718  0.2297  0.2699
 5261SOL    HW127245   1.381   4.436  12.037  0.8868 -0.0680 -1.2620
 5261SOL    HW227246   1.509   4.354  12.030  0.1561  0.5629  0.2121
 5262SOL     OW27247   0.697   3.025   4.299  0.2266 -0.6218  0.5495
 5262SOL    HW127248   0.675   3.001   4.389  0.5836  3.3020  1.6984
 5262SOL    HW227249   0.614   3.019   4.252  0.7746 -1.6791 -0.2754
 5263SOL     OW27250   0.966   2.810   2.987 -0.3188  0.4520 -0.5736
 5263SOL    HW127251   0.965   2.813   3.082  0.1507 -0.6041 -0.5341
 5263SOL    HW227252   1.013   2.728   2.971 -0.1356  0.7568 -1.6060
 5264SOL     OW27253   1.754   3.235   7.950 -0.0601 -0.1645  0.1524
 5264SOL    HW127254   1.789   3.267   8.033  1.1617  1.2653 -0.9246
 5264SOL    HW227255   1.771   3.141   7.947  1.0908 -0.0128  2.1730
 5265SOL     OW27256   3.304   3.265   1.391 -0.0841 -0.8335 -0.0089
 5265SOL    HW127257   3.317   3.341   1.335 -1.8944 -1.2778 -0.9964
 5265SOL    HW227258   3.211   3.272   1.413 -0.2302 -1.1640 -0.5248
 5266SOL     OW27259   1.967   4.168   6.395 -0.3515  0.2114  0.2070
 5266SOL    HW127260   2.045   4.142   6.346  0.4457  1.3210  0.9056
 5266SOL    HW227261   1.987   4.172   6.488  0.5096 -0.2628  0.0371
 5267SOL     OW27262   1.201   2.260   8.457 -0.5234 -0.1769 -0.2463
 5267SOL    HW127263   1.153   2.332   8.417 -1.6581 -0.3305  0.8183
 5267SOL    HW227264   1.288   2.294   8.480  0.0557 -1.2399 -0.8545
 5268SOL     OW27265   2.940   3.822   4.131 -0.0735  0.3720  0.0354
 5268SOL    HW127266   2.990   3.876   4.192 -1.1273  1.5606 -0.1509
 5268SOL    HW227267   2.952   3.874   4.052 -0.3128  1.8331  0.9642
 5269SOL     OW27268   1.607   3.957   0.028  0.3943 -0.4151 -0.0335
 5269SOL    HW127269   1.588   3.882  17.682 -1.1176 -1.4340  1.7949
 5269SOL    HW227270   1.701   3.958   0.009  0.2950  0.7812 -0.4318
 5270SOL     OW27271   4.432   3.697   6.739  0.2691  0.3621 -0.2078
 5270SOL    HW127272   4.504   3.723   6.796  1.0525  0.5205 -1.2598
 5270SOL    HW227273   4.374   3.668   6.809 -0.5971 -0.9159 -1.4470
 5271SOL     OW27274   2.710   0.361   4.431 -0.3858 -0.5043  0.3701
 5271SOL    HW127275   2.668   0.300   4.493 -2.1451  2.5140  2.1634
 5271SOL    HW227276   2.650   0.372   4.357 -1.6988  1.5442  1.7270
 5272SOL     OW27277   3.964   1.427  15.054  0.5138  0.8109 -0.3872
 5272SOL    HW127278   3.943   1.420  14.961 -0.3798  0.4639 -0.1528
 5272SOL    HW227279   3.884   1.391  15.092 -0.1653  0.7984 -1.8437
 5273SOL     OW27280   1.981   1.366   1.792 -0.4068 -0.4657  0.1384
 5273SOL    HW127281   2.009   1.322   1.711  1.3086 -1.7999  1.4524
 5273SOL    HW227282   1.886   1.355   1.788 -0.2054 -1.9784 -0.7548
 5274SOL     OW27283   3.780   3.813   6.650 -0.3312 -0.0812 -0.5006
 5274SOL    HW127284   3.790   3.773   6.736 -1.2834 -2.5567 -1.5645
 5274SOL    HW227285   3.830   3.748   6.600  0.2056 -1.6626  2.1083
 5275SOL     OW27286   2.730   3.639   4.107  0.7233 -0.2532  0.0788
 5275SOL    HW127287   2.807   3.695   4.094 -0.8929  1.8121 -0.5870
 5275SOL    HW227288   2.768   3.569   4.160 -0.1459 -0.8461 -0.0804
 5276SOL     OW27289   0.259   2.956   2.944  0.3869 -0.0766  0.1729
 5276SOL    HW127290   0.336   2.953   3.001  0.2129 -2.4845  0.2622
 5276SOL    HW227291   0.199   2.924   3.011  0.2834  1.7577  0.9641
 5277SOL     OW27292   4.509   4.599   0.586 -0.1157 -0.0078 -0.2522
 5277SOL    HW127293   4.424   4.562   0.609  0.1181 -0.5236 -0.2027
 5277SOL    HW227294   4.500   4.691   0.610 -2.3721 -0.5477  0.9654
 5278SOL     OW27295   0.872   2.927   5.035  0.1289  0.4152 -0.1365
 5278SOL    HW127296   0.921   2.999   5.074 -1.1669  0.2130  1.8941
 5278SOL    HW227297   0.946   2.867   5.044  0.2595  0.5258 -0.4605
 5279SOL     OW27298   0.018   1.902   2.733 -0.7650 -0.5144 -0.7964
 5279SOL    HW127299   0.076   1.975   2.759 -2.8268  0.9578 -0.3284
 5279SOL    HW227300   4.716   1.872   2.819 -1.0053  1.7056 -0.0880
 5280SOL     OW27301   3.208   0.165  16.997 -0.2753  0.1459 -0.0552
 5280SOL    HW127302   3.243   0.218  16.925  0.1905 -1.7099 -1.1786
 5280SOL    HW227303   3.266   0.090  16.994  0.9915  1.1797 -1.2929
 5281SOL     OW27304   1.498   2.473   1.186  0.2734 -0.0261 -0.5986
 5281SOL    HW127305   1.464   2.415   1.255  2.1482 -0.8548 -0.3493
 5281SOL    HW227306   1.483   2.426   1.104  0.7879  0.6042 -1.0494
 5282SOL     OW27307   2.684   2.978   7.951  0.7235  0.0853 -0.2602
 5282SOL    HW127308   2.664   2.890   7.919 -0.7592  0.6363 -0.8403
 5282SOL    HW227309   2.718   2.957   8.038 -0.7679  0.8997  0.5119
 5283SOL     OW27310   2.135   1.999   8.677  0.0880  0.0660 -0.0121
 5283SOL    HW127311   2.043   1.989   8.703  0.9335  0.9849  3.3463
 5283SOL    HW227312   2.118   2.011   8.584  0.3324 -1.4925 -0.2573
 5284SOL     OW27313   4.520   0.169   9.220  0.6089 -0.5116 -0.2576
 5284SOL    HW127314   4.546   0.246   9.271  0.1820 -1.5487  1.5130
 5284SOL    HW227315   4.452   0.146   9.283 -1.0218 -0.7585 -2.1178
 5285SOL     OW27316   1.940   4.204  10.206  0.2582  0.2795 -0.1262
 5285SOL    HW127317   2.006   4.173  10.268  0.1606  1.2678  0.4585
 5285SOL    HW227318   1.892   4.268  10.257  1.7479  1.1459  0.1832
 5286SOL     OW27319   1.641   1.486   7.554  0.2345  0.6098  0.3115
 5286SOL    HW127320   1.615   1.419   7.617 -0.3936  1.0411  0.5037
 5286SOL    HW227321   1.691   1.549   7.605  1.5229  0.3217 -0.5853
 5287SOL     OW27322   0.781   3.287   1.708  0.1240  0.2010  0.0228
 5287SOL    HW127323   0.819   3.330   1.784 -0.8171 -0.3074  0.7769
 5287SOL    HW227324   0.828   3.331   1.637 -0.6608 -0.4201 -0.8773
 5288SOL     OW27325   2.077   0.768  15.537  0.6905 -0.0492 -0.1562
 5288SOL    HW127326   2.126   0.703  15.486 -0.9653 -2.3053  1.1476
 5288SOL    HW227327   2.129   0.849  15.532 -1.3598  1.2214 -0.7364
 5289SOL     OW27328   0.630   1.506   9.796  0.0625 -0.2354  0.1918
 5289SOL    HW127329   0.612   1.500   9.890 -0.9469 -0.4616 -0.0138
 5289SOL    HW227330   0.720   1.473   9.798  0.2419  0.1966 -0.5421
 5290SOL     OW27331   4.461   2.792   8.108  0.3840 -0.0575 -0.0213
 5290SOL    HW127332   4.424   2.881   8.108  0.1687 -0.1413  1.0673
 5290SOL    HW227333   4.426   2.744   8.033  2.0593 -0.6750 -0.3997
 5291SOL     OW27334   4.252   2.841   8.720  0.0507 -0.9749  0.0657
 5291SOL    HW127335   4.168   2.882   8.701  1.0545  1.0150 -0.0167
 5291SOL    HW227336   4.268   2.892   8.799 -0.0196 -0.7354 -0.0754
 5292SOL     OW27337   2.846   1.311   2.858  0.7954 -0.1839  0.3688
 5292SOL    HW127338   2.785   1.353   2.918 -1.4522  0.1345 -2.1436
 5292SOL    HW227339   2.892   1.391   2.831  0.4819  0.1712  0.8977
 5293SOL     OW27340   1.493   2.668  11.707  0.7501 -0.6113  0.4419
 5293SOL    HW127341   1.524   2.701  11.622 -1.9537 -2.8628 -1.4099
 5293SOL    HW227342   1.399   2.664  11.686  0.4350  0.1844  1.6989
 5294SOL     OW27343   2.259   3.628   5.719 -0.0102  0.1617 -0.5117
 5294SOL    HW127344   2.242   3.573   5.796  0.8941 -0.2482 -0.5968
 5294SOL    HW227345   2.259   3.714   5.761 -2.1744 -0.3247  0.4941
 5295SOL     OW27346   2.689   0.945   6.306  0.0862 -0.2194  0.0459
 5295SOL    HW127347   2.637   0.885   6.359 -0.6757  2.0401  1.8806
 5295SOL    HW227348   2.617   1.002   6.279  0.2465 -1.3591 -2.7198
 5296SOL     OW27349   0.502   3.808   3.796 -0.1889 -0.4467  0.1685
 5296SOL    HW127350   0.428   3.821   3.855 -0.7969 -0.3014 -0.6129
 5296SOL    HW227351   0.486   3.875   3.729  1.6434  1.0408  1.2498
 5297SOL     OW27352   4.184   4.306   4.705  0.1237 -0.1969  0.1576
 5297SOL    HW127353   4.131   4.385   4.688 -1.4215 -1.0502  1.0437
 5297SOL    HW227354   4.140   4.269   4.781 -0.5254  1.7306  0.7388
 5298SOL     OW27355   2.795   1.589   1.525  0.4714  0.3809  0.0427
 5298SOL    HW127356   2.783   1.511   1.578  2.5714  0.2185  0.2751
 5298SOL    HW227357   2.802   1.659   1.590  1.2635  0.7092 -0.4018
 5299SOL     OW27358   4.626   1.709   5.900  0.0226 -0.1864 -0.6244
 5299SOL    HW127359   4.608   1.774   5.832  1.1241 -1.1501 -1.8424
 5299SOL    HW227360   4.719   1.729   5.912 -0.1584  0.9009 -1.0862
 5300SOL     OW27361   3.604   0.813   4.362  0.2667  0.3487 -0.6027
 5300SOL    HW127362   3.608   0.827   4.457 -0.4380 -0.7363 -0.4015
 5300SOL    HW227363   3.647   0.728   4.355 -0.4461  0.0020 -0.8534
 5301SOL     OW27364   4.143   0.910   6.510 -0.3900 -0.2324  0.6882
 5301SOL    HW127365   4.064   0.906   6.456  0.0149  0.4011  0.0533
 5301SOL    HW227366   4.126   0.840   6.573 -0.6193 -0.9285 -0.1492
 5302SOL     OW27367   2.891   1.270  14.897 -0.1217  0.3565  0.2039
 5302SOL    HW127368   2.906   1.196  14.957  1.1665  0.4004 -0.0656
 5302SOL    HW227369   2.800   1.252  14.873 -0.3705  0.8594  0.7975
 5303SOL     OW27370   4.274   3.274   8.977 -0.3463 -0.0001  0.4870
 5303SOL    HW127371   4.332   3.340   9.016  0.4062 -0.2826 -0.1469
 5303SOL    HW227372   4.192   3.319   8.997 -0.0620  0.7370  0.0063
 5304SOL     OW27373   0.444   2.613  15.947 -0.1262  0.2217  0.8020
 5304SOL    HW127374   0.450   2.521  15.973 -0.1366 -0.0731 -0.2246
 5304SOL    HW227375   0.387   2.611  15.870  0.8234 -3.6497  0.2228
 5305SOL     OW27376   3.214   3.478   2.501 -0.3668 -0.1771 -0.3881
 5305SOL    HW127377   3.264   3.539   2.447 -0.4464 -1.1196 -1.5317
 5305SOL    HW227378   3.276   3.407   2.520  1.0727  1.9342  2.7109
 5306SOL     OW27379   2.694   3.884   3.531 -0.6553  0.4354 -0.0121
 5306SOL    HW127380   2.760   3.846   3.473 -0.8218 -1.2425  0.9087
 5306SOL    HW227381   2.738   3.968   3.543  1.2361 -0.6104  0.2985
 5307SOL     OW27382   1.835   1.116   7.088  0.5935 -0.3317 -0.4604
 5307SOL    HW127383   1.810   1.205   7.115 -2.5607 -2.2284  2.8723
 5307SOL    HW227384   1.875   1.133   7.003 -1.7551  3.8002 -0.7787
 5308SOL     OW27385   0.976   0.676   0.786  0.3761 -0.0773 -0.1323
 5308SOL    HW127386   0.913   0.651   0.853  0.7152 -0.5390  0.0104
 5308SOL    HW227387   0.931   0.755   0.756 -0.1656 -0.5190 -0.4746
 5309SOL     OW27388   2.110   0.851   2.454  0.0348 -0.3250 -0.2212
 5309SOL    HW127389   2.088   0.815   2.540  2.0339  0.3419  0.5465
 5309SOL    HW227390   2.052   0.927   2.454 -1.2900 -1.3213  2.9077
 5310SOL     OW27391   4.397   2.159   3.289 -0.0385 -0.6596 -0.4091
 5310SOL    HW127392   4.490   2.179   3.294  0.2142 -1.7494 -0.6589
 5310SOL    HW227393   4.394   2.113   3.205 -1.3478 -1.8490  0.2881
 5311SOL     OW27394   2.345   3.541  11.799 -0.4146  0.3415  0.6380
 5311SOL    HW127395   2.322   3.473  11.736  1.8246  1.1299 -1.0209
 5311SOL    HW227396   2.439   3.528  11.811 -0.0909  1.8815 -0.2426
 5312SOL     OW27397   1.950   2.339   5.415  0.5634 -0.3427 -0.0439
 5312SOL    HW127398   1.867   2.353   5.460  0.5414 -0.1585 -0.1409
 5312SOL    HW227399   1.949   2.407   5.348 -1.3273  0.7845  1.1461
 5313SOL     OW27400   1.773   1.529   6.889  0.1868 -0.1944  0.8976
 5313SOL    HW127401   1.812   1.604   6.934 -1.2239  0.9033  0.2954
 5313SOL    HW227402   1.768   1.565   6.801 -1.1360 -3.2922 -0.3194
 5314SOL     OW27403   4.105   0.081   6.865 -0.0439 -0.1914  0.0603
 5314SOL    HW127404   4.013   0.061   6.846  0.1411 -2.3011  1.3365
 5314SOL    HW227405   4.145   4.723   6.850  0.1334 -0.1691  0.4121
 5315SOL     OW27406   2.402   3.054   7.403 -0.5746 -0.0052 -0.3596
 5315SOL    HW127407   2.484   3.027   7.446  0.1195  0.2057 -1.5695
 5315SOL    HW227408   2.385   3.143   7.433 -0.4057  0.0990 -0.5721
 5316SOL     OW27409   4.539   0.479   3.142 -0.1864 -0.0275 -0.1895
 5316SOL    HW127410   4.573   0.517   3.060  1.3498 -0.0569  0.4419
 5316SOL    HW227411   4.584   0.396   3.129  2.7469  1.3253  1.3060
 5317SOL     OW27412   0.255   1.142   8.080 -0.4413  0.1526  0.1326
 5317SOL    HW127413   0.248   1.218   8.022  1.0734  1.7041  1.9848
 5317SOL    HW227414   0.319   1.093   8.029  1.9996  2.9568  0.5014
 5318SOL     OW27415   1.779   2.053  10.199  0.0356 -0.1792 -0.3375
 5318SOL    HW127416   1.709   2.063  10.134 -0.1252 -1.5861 -0.3801
 5318SOL    HW227417   1.835   1.997  10.146  0.7849  1.7991 -1.6516
 5319SOL     OW27418   4.083   4.356  11.496  0.0489 -0.1526  0.0242
 5319SOL    HW127419   4.101   4.354  11.402  2.3321 -1.0410  0.4723
 5319SOL    HW227420   4.003   4.409  11.498 -1.0858 -1.8664 -0.1561
 5320SOL     OW27421   0.359   1.603   6.869 -0.1881  0.2598 -0.1744
 5320SOL    HW127422   0.440   1.654   6.870 -0.3448  0.5220 -1.4342
 5320SOL    HW227423   0.301   1.665   6.913 -1.0157  0.4978 -1.5944
 5321SOL     OW27424   1.821   0.097   7.756 -0.1086  0.1732 -0.0127
 5321SOL    HW127425   1.809   0.057   7.670 -0.2617 -1.2576  0.6815
 5321SOL    HW227426   1.732   0.098   7.790  0.1300 -0.3909  0.6310
 5322SOL     OW27427   3.211   0.907   7.102  0.2657 -0.6672 -0.5284
 5322SOL    HW127428   3.260   0.911   7.020  0.3465 -3.8026 -0.6674
 5322SOL    HW227429   3.281   0.931   7.163 -2.7991  2.7373  1.6275
 5323SOL     OW27430   2.965   2.001   6.587  0.2531 -0.4110 -0.0410
 5323SOL    HW127431   3.052   2.030   6.616 -0.1054  2.0416 -1.3861
 5323SOL    HW227432   2.909   2.031   6.657 -1.1870 -0.5275 -1.1448
 5324SOL     OW27433   4.469   4.456   4.559  0.1308 -0.2486  0.5873
 5324SOL    HW127434   4.452   4.463   4.465  2.0262  3.2402  0.5207
 5324SOL    HW227435   4.432   4.531   4.606 -0.8860  1.3307 -2.7400
 5325SOL     OW27436   3.089   2.560  13.097  0.1039 -0.2335 -0.0154
 5325SOL    HW127437   3.100   2.613  13.176  0.4491 -1.4959  0.7712
 5325SOL    HW227438   3.068   2.479  13.143 -0.1399  1.5783  2.9940
 5326SOL     OW27439   0.414   4.430   4.573  0.0583 -0.4074  0.2295
 5326SOL    HW127440   0.482   4.490   4.540 -0.2823  0.6749  1.5192
 5326SOL    HW227441   0.341   4.486   4.600  0.5065  1.3830 -2.1964
 5327SOL     OW27442   4.186   1.300   7.053  0.0664  0.3009 -0.4034
 5327SOL    HW127443   4.239   1.224   7.078 -0.0899  1.2626  2.8507
 5327SOL    HW227444   4.097   1.268   7.063 -0.6857  2.4182 -0.3203
 5328SOL     OW27445   1.356   2.945   3.006  0.3899  0.3301  0.3779
 5328SOL    HW127446   1.296   2.991   2.947  1.1002  1.1343  0.2758
 5328SOL    HW227447   1.345   2.855   2.975 -2.1607  0.4570  0.9578
 5329SOL     OW27448   0.197   2.173   6.101  0.1535 -0.6895  0.2991
 5329SOL    HW127449   0.112   2.216   6.111 -0.8717 -2.2839 -1.5142
 5329SOL    HW227450   0.187   2.118   6.179  0.7958  1.1848  1.6929
 5330SOL     OW27451   4.226   4.274   3.704 -0.2641  0.2131 -0.5135
 5330SOL    HW127452   4.284   4.261   3.629  0.1378 -1.3172  0.0696
 5330SOL    HW227453   4.143   4.278   3.657  0.4628 -1.4689 -1.9488
 5331SOL     OW27454   4.065   2.197   2.803  0.2570 -0.0901  0.0295
 5331SOL    HW127455   4.158   2.201   2.824  0.2457 -0.7540  0.2054
 5331SOL    HW227456   4.037   2.115   2.844  0.7921 -0.0169  0.5375
 5332SOL     OW27457   0.232   1.045   8.613 -0.2889 -0.2964 -0.0690
 5332SOL    HW127458   0.278   1.104   8.673 -0.9639 -0.6280  0.7805
 5332SOL    HW227459   0.184   1.104   8.556  0.5806 -2.0354 -2.5760
 5333SOL     OW27460   4.227   4.046   5.822 -0.5787 -0.0162  0.1521
 5333SOL    HW127461   4.159   4.080   5.764  1.4019  3.2186 -0.3173
 5333SOL    HW227462   4.218   3.951   5.824 -0.2928 -0.0305  1.1989
 5334SOL     OW27463   2.534   1.550   8.191  0.5402  0.5354 -0.5952
 5334SOL    HW127464   2.614   1.589   8.158  0.9950 -0.5726 -0.8227
 5334SOL    HW227465   2.500   1.511   8.110  3.1573 -1.2138 -0.8741
 5335SOL     OW27466   1.249   3.171   3.877  0.2680 -0.1468 -0.7093
 5335SOL    HW127467   1.285   3.097   3.926 -0.1157 -0.8135 -1.4403
 5335SOL    HW227468   1.165   3.173   3.925  0.6661  0.4843 -0.0352
 5336SOL     OW27469   2.324   0.086   7.815  0.0333  0.6514 -0.4109
 5336SOL    HW127470   2.297   0.147   7.747  2.1504 -0.3920 -2.1996
 5336SOL    HW227471   2.384   0.031   7.763 -0.9580  1.1082 -2.0413
 5337SOL     OW27472   1.504   3.967   3.195  0.5777  0.5667 -0.1434
 5337SOL    HW127473   1.427   4.010   3.157 -0.3876  0.3380  1.5574
 5337SOL    HW227474   1.548   4.049   3.214 -0.3009  0.5211  2.0980
 5338SOL     OW27475   3.838   2.840   5.021  0.5243  0.2151 -0.0420
 5338SOL    HW127476   3.825   2.922   5.068 -0.2069 -0.1410  0.3878
 5338SOL    HW227477   3.843   2.775   5.092 -1.9693  0.5129  0.4218
 5339SOL     OW27478   4.188   0.784   5.857 -0.3983  0.2402  0.1469
 5339SOL    HW127479   4.136   0.710   5.888 -1.6322  1.3764  0.7996
 5339SOL    HW227480   4.260   0.778   5.919 -0.9426 -1.9022  0.5629
 5340SOL     OW27481   3.865   3.512   8.798  0.0022 -0.1105  0.0808
 5340SOL    HW127482   3.904   3.595   8.824 -0.1821 -0.1468  0.4651
 5340SOL    HW227483   3.930   3.500   8.729  0.8570  0.2059  0.8401
 5341SOL     OW27484   3.637   1.192   7.979 -0.3101 -0.0925 -0.2155
 5341SOL    HW127485   3.580   1.123   7.946  0.1492 -0.7836  0.4510
 5341SOL    HW227486   3.718   1.143   7.994 -0.0200  1.4074  3.3571
 5342SOL     OW27487   3.392   3.787   7.448 -0.3368 -0.0191 -0.5497
 5342SOL    HW127488   3.437   3.716   7.402  2.1254  0.4759  1.1407
 5342SOL    HW227489   3.420   3.870   7.409  1.1620  0.1601  0.9174
 5343SOL     OW27490   3.155   3.988  10.439  0.5322  0.1677 -0.4729
 5343SOL    HW127491   3.123   3.942  10.517  0.2089  3.3095  1.2390
 5343SOL    HW227492   3.137   4.076  10.472  3.2249  0.2999  0.6468
 5344SOL     OW27493   3.872   2.355  16.900 -0.0875 -0.9980  0.4937
 5344SOL    HW127494   3.834   2.360  16.812 -0.8253 -0.0740  0.8664
 5344SOL    HW227495   3.843   2.439  16.935  1.4802 -0.0679 -0.4312
 5345SOL     OW27496   2.630   4.429   4.067  0.0978 -0.3991  0.3737
 5345SOL    HW127497   2.571   4.358   4.091 -0.2320 -0.2581 -0.0310
 5345SOL    HW227498   2.575   4.507   4.064  2.3892  1.1671 -0.5315
 5346SOL     OW27499   1.491   2.485  14.919  0.0034  1.0091  0.1670
 5346SOL    HW127500   1.547   2.551  14.958  2.7743 -3.5787  3.9679
 5346SOL    HW227501   1.554   2.434  14.868 -1.6272 -1.7095  0.8404
 5347SOL     OW27502   3.985   0.497   7.639 -0.3695 -0.3903 -0.0105
 5347SOL    HW127503   3.913   0.436   7.625 -1.1792 -0.1178  3.0553
 5347SOL    HW227504   3.961   0.571   7.583 -1.1214 -0.2468  0.5134
 5348SOL     OW27505   3.276   3.379   8.010 -0.1022 -0.3647 -0.0779
 5348SOL    HW127506   3.334   3.416   8.077  2.2682 -0.7990 -1.8846
 5348SOL    HW227507   3.190   3.391   8.051 -1.5963 -0.4581 -3.1693
 5349SOL     OW27508   3.781   1.507   4.270 -0.7196  0.1954 -0.2883
 5349SOL    HW127509   3.727   1.530   4.194  3.1303  0.6526 -2.9129
 5349SOL    HW227510   3.798   1.416   4.247  0.1398  0.5540 -1.1013
 5350SOL     OW27511   4.378   4.203   1.221 -0.4747  0.3011  0.2055
 5350SOL    HW127512   4.466   4.239   1.210 -0.3521  0.0457  0.3473
 5350SOL    HW227513   4.394   4.118   1.262  0.8588  0.2635 -0.3975
 5351SOL     OW27514   0.419   0.009   4.205 -0.0881  0.4053 -0.3645
 5351SOL    HW127515   0.405   4.706   4.115  1.4007 -0.4821 -0.3017
 5351SOL    HW227516   0.513   0.026   4.204 -0.6151  3.2218 -1.3316
 5352SOL     OW27517   2.332   3.917   3.487  0.3414 -0.1179 -0.4644
 5352SOL    HW127518   2.371   3.997   3.522 -0.8154  0.5410 -0.6863
 5352SOL    HW227519   2.378   3.895   3.406 -0.3248  0.3333 -0.9641
 5353SOL     OW27520   4.028   4.721   1.915 -0.6428 -0.4618  0.4132
 5353SOL    HW127521   4.047   4.627   1.912 -1.7340 -0.6580 -0.4039
 5353SOL    HW227522   4.115   0.027   1.895 -1.0263  0.3922  0.1747
 5354SOL     OW27523   3.876   4.322   7.669  0.2550 -0.2154  0.5916
 5354SOL    HW127524   3.887   4.312   7.763  3.0924  1.4938  0.4570
 5354SOL    HW227525   3.954   4.292   7.621 -0.0524  0.1405 -0.1408
 5355SOL     OW27526   2.485   4.432  10.001  0.3639 -0.3242  0.1963
 5355SOL    HW127527   2.579   4.415   9.999  0.4593  0.3104 -0.7000
 5355SOL    HW227528   2.479   4.526  10.022 -1.3521 -0.3947  0.0029
 5356SOL     OW27529   2.240   4.467   9.526  0.0141  0.1394  0.1422
 5356SOL    HW127530   2.261   4.493   9.616  0.2682  0.3995  0.0076
 5356SOL    HW227531   2.293   4.390   9.509 -2.9285 -2.2526  1.8221
 5357SOL     OW27532   1.182   4.389   5.912  0.2842  0.5416  0.2844
 5357SOL    HW127533   1.227   4.468   5.881 -1.6597  1.3678 -0.4117
 5357SOL    HW227534   1.096   4.393   5.870  0.1917  1.8030  0.6154
 5358SOL     OW27535   0.783   2.294   4.769 -0.5367 -0.0658  0.3293
 5358SOL    HW127536   0.745   2.293   4.681  0.1075  0.6793  0.0348
 5358SOL    HW227537   0.731   2.220   4.798 -0.6575 -0.2371 -0.3294
 5359SOL     OW27538   3.047   2.420  16.344 -0.1674  0.0368  0.0081
 5359SOL    HW127539   3.117   2.446  16.284 -1.5507  1.5692 -0.9314
 5359SOL    HW227540   2.983   2.486  16.319 -1.5023 -1.4232 -0.4766
 5360SOL     OW27541   2.139   1.418   2.670  0.2097 -0.4142  0.4654
 5360SOL    HW127542   2.160   1.332   2.706  2.5850 -0.0985 -0.1393
 5360SOL    HW227543   2.166   1.409   2.579 -3.0319  0.7367 -0.6086
 5361SOL     OW27544   2.591   2.154   7.566 -0.4207  0.4043  0.1689
 5361SOL    HW127545   2.520   2.207   7.529 -0.2380  0.9134  0.5485
 5361SOL    HW227546   2.607   2.087   7.500  1.3441 -0.2409  1.2703
 5362SOL     OW27547   1.621   2.169   1.444  0.0303 -0.4606  0.2657
 5362SOL    HW127548   1.686   2.125   1.499  1.3737 -2.1077 -2.5971
 5362SOL    HW227549   1.662   2.217   1.371 -0.2883 -0.5978 -0.0040
 5363SOL     OW27550   2.565   4.272   5.495 -0.2158  0.3806  0.4200
 5363SOL    HW127551   2.515   4.300   5.418  0.1097  1.7011  0.6952
 5363SOL    HW227552   2.624   4.210   5.451  1.5692  1.6106  1.0640
 5364SOL     OW27553   3.428   2.810   7.728 -0.3282 -0.2441  0.5089
 5364SOL    HW127554   3.457   2.874   7.792  1.2920  0.7760 -1.2626
 5364SOL    HW227555   3.430   2.729   7.778  1.0515 -0.3616  0.2596
 5365SOL     OW27556   4.670   2.865   4.454 -0.0660  0.1374  0.3278
 5365SOL    HW127557   4.697   2.907   4.372 -1.4325 -0.1180 -0.2578
 5365SOL    HW227558   4.695   2.937   4.513 -1.9658  2.5771 -1.8674
 5366SOL     OW27559   3.690   3.917   7.113  0.5891 -0.3265  0.1620
 5366SOL    HW127560   3.643   3.953   7.037  3.5308  3.5954  0.2101
 5366SOL    HW227561   3.752   3.986   7.137  1.7032 -1.4433  0.4663
 5367SOL     OW27562   3.353   0.403  15.768 -0.2778 -0.3847  0.2179
 5367SOL    HW127563   3.258   0.405  15.765 -0.2032 -0.5200 -1.8795
 5367SOL    HW227564   3.378   0.313  15.786  1.7185 -0.2701 -1.9557
 5368SOL     OW27565   2.856   3.959  14.977  0.3160 -0.2277 -0.4560
 5368SOL    HW127566   2.769   3.996  14.964  0.4935  1.1441  2.3221
 5368SOL    HW227567   2.863   3.912  14.894  0.4124  2.5213 -1.9817
 5369SOL     OW27568   3.778   2.222   1.984 -0.5912  0.0599 -0.6115
 5369SOL    HW127569   3.788   2.210   2.078 -0.7662 -3.3709 -1.0247
 5369SOL    HW227570   3.777   2.130   1.956  1.0032 -0.5892  1.4586
 5370SOL     OW27571   4.458   3.254   5.245 -0.2224  0.5546  0.1748
 5370SOL    HW127572   4.493   3.169   5.217 -2.9936 -1.1830  1.9674
 5370SOL    HW227573   4.537   3.306   5.259  0.3860  0.6688 -3.8876
 5371SOL     OW27574   2.436   2.369  13.597  0.3184  0.7858  0.8423
 5371SOL    HW127575   2.469   2.292  13.643  0.3686  0.2959 -0.0012
 5371SOL    HW227576   2.348   2.374  13.634 -0.3029  0.4276 -0.5674
 5372SOL     OW27577   1.848   4.014  11.977 -0.3315  0.2950 -0.1533
 5372SOL    HW127578   1.829   3.962  11.899  2.1156 -3.1345  1.5626
 5372SOL    HW227579   1.905   3.953  12.023 -2.9874 -0.8557  1.5921
 5373SOL     OW27580   0.544   0.688  10.792 -0.1933 -0.5492 -0.2334
 5373SOL    HW127581   0.522   0.705  10.884  0.2683  0.2317 -0.2689
 5373SOL    HW227582   0.483   0.616  10.773 -1.1429  0.2403 -0.1878
 5374SOL     OW27583   2.545   1.276  13.703  0.1346  0.5963 -0.3590
 5374SOL    HW127584   2.484   1.285  13.631 -0.7103  1.5020  0.4642
 5374SOL    HW227585   2.482   1.243  13.767  0.1418  1.0314 -0.1238
 5375SOL     OW27586   1.747   3.981   7.028 -0.0688  0.4556  0.2625
 5375SOL    HW127587   1.797   4.061   7.011 -2.4959  2.5830  3.1202
 5375SOL    HW227588   1.802   3.907   7.000  1.1197  1.4982 -0.1603
 5376SOL     OW27589   0.888   0.436  12.130 -0.4347  0.3244  0.0171
 5376SOL    HW127590   0.911   0.446  12.037  2.0636 -3.0225  0.2961
 5376SOL    HW227591   0.959   0.378  12.155 -2.6744 -1.9900  0.9973
 5377SOL     OW27592   2.078   1.643   0.795 -0.1067 -0.2406 -0.3711
 5377SOL    HW127593   2.011   1.575   0.798 -0.9539  0.5958 -0.1706
 5377SOL    HW227594   2.145   1.598   0.846  0.8046  1.7441  0.1945
 5378SOL     OW27595   1.181   1.005  12.643 -0.3156  0.2286 -0.1622
 5378SOL    HW127596   1.261   0.973  12.686 -1.4621  0.1287  1.9341
 5378SOL    HW227597   1.110   0.960  12.690  0.4933 -0.0442  0.8096
 5379SOL     OW27598   0.434   4.532  12.988  0.1506  0.1845  0.6691
 5379SOL    HW127599   0.421   4.567  13.076 -0.7914 -0.3354  0.7400
 5379SOL    HW227600   0.373   4.458  12.990 -2.3065  2.2317  0.7581
 5380SOL     OW27601   4.585   4.478   3.210 -0.0913  0.1499 -0.4494
 5380SOL    HW127602   4.649   4.515   3.149  0.3579 -3.3401 -2.0990
 5380SOL    HW227603   4.504   4.507   3.169 -1.2915  0.6107  2.2072
 5381SOL     OW27604   0.038   0.457   1.869  0.3696 -0.3990 -0.4045
 5381SOL    HW127605   4.701   0.413   1.814  1.6237  1.2653 -3.1944
 5381SOL    HW227606   4.714   0.525   1.912 -0.5970  0.4890 -2.9453
 5382SOL     OW27607   0.246   1.415   3.869  0.3817 -0.1167 -0.2203
 5382SOL    HW127608   0.153   1.439   3.872  0.3150 -0.2958 -1.0138
 5382SOL    HW227609   0.268   1.416   3.962  0.3540 -0.0871 -0.2141
 5383SOL     OW27610   0.559   3.137  15.692 -0.1155  0.1945 -0.0635
 5383SOL    HW127611   0.596   3.140  15.604 -0.1213 -0.1521 -0.0752
 5383SOL    HW227612   0.509   3.057  15.709  1.0174 -0.2363  1.2979
 5384SOL     OW27613   2.436   3.822   0.468 -0.5688  0.0016  0.8349
 5384SOL    HW127614   2.454   3.746   0.523  0.9976  0.3185  0.7628
 5384SOL    HW227615   2.372   3.872   0.519 -0.5374 -0.8539  1.7102
 5385SOL     OW27616   3.922   0.505   3.427 -0.2256  0.5800  0.2001
 5385SOL    HW127617   3.883   0.434   3.377  1.0526 -1.2053  1.7157
 5385SOL    HW227618   3.952   0.562   3.356 -1.4988  0.7178 -0.2195
 5386SOL     OW27619   3.339   1.740   8.653 -0.7078  0.7736  1.0278
 5386SOL    HW127620   3.245   1.756   8.650 -0.5433  1.2394 -1.6772
 5386SOL    HW227621   3.340   1.645   8.651  3.0169  0.8255  0.2065
 5387SOL     OW27622   2.201   2.988  14.961 -0.2394  0.2278  0.1270
 5387SOL    HW127623   2.181   2.919  14.899 -0.3567  0.0811  0.3305
 5387SOL    HW227624   2.117   2.992  15.007 -0.7122  0.4715 -0.7679
 5388SOL     OW27625   1.820   0.564   7.524 -0.3421 -0.0629 -0.1564
 5388SOL    HW127626   1.890   0.614   7.482 -0.5194 -1.0283 -1.6107
 5388SOL    HW227627   1.874   0.496   7.566  1.5348  0.5710 -1.5307
 5389SOL     OW27628   2.723   1.071   3.979  0.2714 -0.5883  0.1991
 5389SOL    HW127629   2.654   1.070   4.045  1.1573 -1.6461  1.0985
 5389SOL    HW227630   2.792   1.009   4.001  2.0204  1.0246 -0.6902
 5390SOL     OW27631   1.786   2.057   7.141 -0.0243 -0.1035  0.0588
 5390SOL    HW127632   1.767   2.141   7.100 -1.9088 -0.6253 -0.1288
 5390SOL    HW227633   1.730   2.058   7.218 -0.6439  1.3086 -0.4076
 5391SOL     OW27634   3.709   0.507   2.413 -0.4900 -1.2800  0.3976
 5391SOL    HW127635   3.633   0.533   2.362 -0.1430  3.1984  2.1060
 5391SOL    HW227636   3.726   0.585   2.466  0.3834 -1.3390  0.2105
 5392SOL     OW27637   3.429   3.455   6.581 -0.0394 -0.1502 -0.1665
 5392SOL    HW127638   3.354   3.498   6.620  0.6020  1.2417 -0.4743
 5392SOL    HW227639   3.410   3.451   6.488 -0.6607 -1.7981  0.0245
 5393SOL     OW27640   1.113   0.354   3.124  0.2571  1.2148  0.5812
 5393SOL    HW127641   1.144   0.326   3.210 -2.5160  0.3888  1.3166
 5393SOL    HW227642   1.099   0.448   3.132  1.7595  1.2837  2.3496
 5394SOL     OW27643   3.622   1.044  11.973  0.0416  0.3764 -0.2866
 5394SOL    HW127644   3.716   1.036  11.993  0.5334  1.2366 -2.1591
 5394SOL    HW227645   3.609   1.139  11.972 -2.0914  0.0842 -0.4656
 5395SOL     OW27646   0.978   1.299   3.179  0.2904 -0.4926  0.0082
 5395SOL    HW127647   1.006   1.379   3.133 -1.1742 -1.5637 -2.7538
 5395SOL    HW227648   1.063   1.256   3.186  0.6976  0.6638  2.2867
 5396SOL     OW27649   0.863   0.544   2.417  0.0048 -0.3078  0.4717
 5396SOL    HW127650   0.787   0.589   2.454  0.1864  2.1318 -2.1250
 5396SOL    HW227651   0.828   0.474   2.360 -1.9828  1.7101 -0.7733
 5397SOL     OW27652   3.461   3.699   7.990  0.1509  0.5014  0.3584
 5397SOL    HW127653   3.427   3.706   7.901 -1.6483 -1.2127  0.9176
 5397SOL    HW227654   3.402   3.757   8.038 -0.1696 -1.3250  2.1503
 5398SOL     OW27655   1.740   4.341   2.991 -0.1118 -0.5045 -0.0028
 5398SOL    HW127656   1.835   4.342   3.005  0.2768 -0.0755 -2.7796
 5398SOL    HW227657   1.711   4.412   3.049  0.1136 -0.8771  0.5675
 5399SOL     OW27658   3.117   1.723  10.739 -0.1473  0.3375 -0.5024
 5399SOL    HW127659   3.117   1.672  10.820  0.0867  0.8121 -0.2051
 5399SOL    HW227660   3.078   1.807  10.765  0.9069  0.6404  0.0804
 5400SOL     OW27661   2.163   2.455   2.009 -0.2249  0.3790 -0.1887
 5400SOL    HW127662   2.166   2.508   2.089  1.3728 -1.0775  0.7199
 5400SOL    HW227663   2.125   2.520   1.950 -2.0908  0.4573  1.1037
 5401SOL     OW27664   2.293   1.595  10.198  0.3481 -0.1478  0.4098
 5401SOL    HW127665   2.290   1.558  10.286 -0.9511 -1.2235 -0.0885
 5401SOL    HW227666   2.368   1.548  10.163  1.1077  1.3195  0.0512
 5402SOL     OW27667   1.158   0.246   5.568 -0.3101  0.1989  0.4214
 5402SOL    HW127668   1.233   0.227   5.513  1.7029  1.0130  2.9000
 5402SOL    HW227669   1.164   0.342   5.576 -2.2321  0.2673  1.0986
 5403SOL     OW27670   4.534   1.845  14.031 -0.1198  0.2284  0.1223
 5403SOL    HW127671   4.503   1.929  13.995 -1.9852 -0.0916  0.9454
 5403SOL    HW227672   4.557   1.794  13.953 -1.1575  1.4065 -0.9788
 5404SOL     OW27673   0.324   4.143   4.147 -0.2791 -0.4195 -0.1955
 5404SOL    HW127674   0.242   4.118   4.106 -1.3547  0.2515  1.5632
 5404SOL    HW227675   0.338   4.065   4.201 -3.8076  0.6099  2.1993
 5405SOL     OW27676   4.170   2.070  13.557  0.2512 -0.2852  0.4617
 5405SOL    HW127677   4.170   2.025  13.641 -1.2691 -0.1751  0.5349
 5405SOL    HW227678   4.220   2.150  13.573 -2.4442  1.6595 -0.7642
 5406SOL     OW27679   0.019   4.686   4.191  0.4597  0.4775 -0.0791
 5406SOL    HW127680   0.063   4.611   4.232 -1.4933 -1.4599 -1.5067
 5406SOL    HW227681   4.686   4.645   4.130  0.5408 -1.0537  0.8691
 5407SOL     OW27682   2.571   2.885   6.970  0.5281 -0.3702  0.6181
 5407SOL    HW127683   2.568   2.879   7.065 -0.9866  1.4654  0.6828
 5407SOL    HW227684   2.599   2.794   6.954  1.9152 -0.0738  1.3597
 5408SOL     OW27685   0.986   0.240   8.439 -0.1688  0.5283 -0.3001
 5408SOL    HW127686   0.918   0.306   8.427 -1.8551 -0.7397  2.4615
 5408SOL    HW227687   0.969   0.205   8.526  2.4967  0.2252  0.0994
 5409SOL     OW27688   0.199   0.220   9.353 -0.4580 -0.0182 -0.3300
 5409SOL    HW127689   0.116   0.264   9.369 -0.2226  0.7082 -1.1093
 5409SOL    HW227690   0.176   0.191   9.264 -0.9942 -0.4236 -0.0588
 5410SOL     OW27691   1.326   3.001  11.259  0.2935  0.1578  0.0437
 5410SOL    HW127692   1.356   2.950  11.183 -0.7202 -0.1594 -0.1342
 5410SOL    HW227693   1.412   3.023  11.296  0.2978  0.4462 -0.1333
 5411SOL     OW27694   3.900   2.264  11.621 -0.5121  0.1722 -0.3839
 5411SOL    HW127695   3.974   2.211  11.650 -0.3084  1.7082  1.8712
 5411SOL    HW227696   3.823   2.227  11.664 -0.4686  0.3239 -0.1778
 5412SOL     OW27697   4.103   0.635   7.378 -0.6481 -0.4203  0.2612
 5412SOL    HW127698   4.142   0.698   7.438 -0.1936 -0.8465  0.4060
 5412SOL    HW227699   4.151   0.554   7.393  0.5773  0.6663  2.0943
 5413SOL     OW27700   3.522   2.228   7.940  0.3836  0.4199  0.3580
 5413SOL    HW127701   3.557   2.167   8.006  1.7922  2.1017  1.1541
 5413SOL    HW227702   3.526   2.307   7.993  0.7023  2.1753 -2.2886
 5414SOL     OW27703   0.320   3.388   4.153  0.6608 -0.4902  0.4436
 5414SOL    HW127704   0.301   3.438   4.073  1.3161  1.3614  1.4293
 5414SOL    HW227705   0.364   3.457   4.203 -2.1037  1.0127  0.8319
 5415SOL     OW27706   3.316   3.349   5.973 -0.2354 -0.1964  0.5178
 5415SOL    HW127707   3.223   3.330   5.975 -0.3160  0.1728  0.2209
 5415SOL    HW227708   3.352   3.263   5.996 -0.8846 -0.1029  1.9244
 5416SOL     OW27709   2.632   3.913   5.464  0.1575 -0.3264  0.3156
 5416SOL    HW127710   2.688   3.880   5.393  0.1446 -1.1622  0.6905
 5416SOL    HW227711   2.685   3.988   5.490  1.8632 -1.9836  1.6199
 5417SOL     OW27712   4.403   1.794  14.248 -0.4570  0.1293 -0.3792
 5417SOL    HW127713   4.444   1.722  14.296  1.4365  0.3335 -1.7042
 5417SOL    HW227714   4.466   1.802  14.177 -0.6740  1.1104 -0.4615
 5418SOL     OW27715   0.660   4.556   3.863  0.8866  0.6291  0.3856
 5418SOL    HW127716   0.723   4.623   3.837  2.8772 -1.7679 -0.9697
 5418SOL    HW227717   0.639   4.504   3.785  2.3085  0.9647 -0.2137
 5419SOL     OW27718   3.359   4.025   7.666  0.0512  0.1109  0.1482
 5419SOL    HW127719   3.380   4.000   7.756 -0.9416 -1.6653 -0.1287
 5419SOL    HW227720   3.443   4.057   7.633 -1.4028  3.8512  0.0718
 5420SOL     OW27721   1.922   1.094  12.070 -0.2124 -0.5749 -0.3200
 5420SOL    HW127722   1.896   1.186  12.081  3.6429  0.3408  1.0434
 5420SOL    HW227723   1.993   1.089  12.007  0.9699 -1.7893  1.1004
 5421SOL     OW27724   1.938   3.965   2.975 -0.0659  0.5666 -0.4298
 5421SOL    HW127725   1.932   4.059   2.959 -0.3306  0.6863  0.3725
 5421SOL    HW227726   1.852   3.940   3.008  0.5363 -0.6048  0.2853
 5422SOL     OW27727   0.260   1.112   3.754  0.6328 -0.0135 -0.8539
 5422SOL    HW127728   0.264   1.115   3.849  1.9557 -1.6268 -0.8720
 5422SOL    HW227729   0.233   1.201   3.729  1.4589  0.0411 -1.5378
 5423SOL     OW27730   1.811   1.477  13.737 -0.1493  0.3260  0.0921
 5423SOL    HW127731   1.879   1.412  13.718  0.1106  0.6362 -0.0571
 5423SOL    HW227732   1.823   1.474  13.832 -1.0599  1.1737  0.2328
 5424SOL     OW27733   4.437   2.617   8.328 -0.3624  0.1886 -0.0677
 5424SOL    HW127734   4.345   2.595   8.313 -0.2359 -0.1282 -0.3725
 5424SOL    HW227735   4.442   2.678   8.254  1.4851  1.2493  0.9288
 5425SOL     OW27736   2.129   1.407  16.765  0.1477  0.2052 -0.1332
 5425SOL    HW127737   2.168   1.449  16.841 -1.8908  0.5550  0.7151
 5425SOL    HW227738   2.047   1.372  16.799 -0.4921  3.2086  1.3977
 5426SOL     OW27739   3.325   4.627  16.957 -0.4807 -0.9538 -0.2178
 5426SOL    HW127740   3.339   4.584  16.873 -0.1118  1.1591 -1.2496
 5426SOL    HW227741   3.393   4.577  17.001 -1.4908 -1.2829  0.9828
 5427SOL     OW27742   2.742   0.616   6.350  0.0226 -0.1857  0.0245
 5427SOL    HW127743   2.722   0.652   6.436  1.2687 -0.9277  0.6335
 5427SOL    HW227744   2.834   0.591   6.360  0.3349 -0.7538 -4.2164
 5428SOL     OW27745   3.648   1.716   2.873  0.5781  0.1454 -0.0694
 5428SOL    HW127746   3.623   1.798   2.832 -1.6495 -0.4578  0.0930
 5428SOL    HW227747   3.736   1.696   2.840  0.0190 -2.7921  0.1903
 5429SOL     OW27748   3.739   1.463   7.312  0.2629 -0.3323  0.2191
 5429SOL    HW127749   3.789   1.533   7.271  0.0791 -0.0346  0.4981
 5429SOL    HW227750   3.676   1.449   7.242 -1.1378  1.2444  1.1475
 5430SOL     OW27751   4.271   1.014   5.258 -0.6793  0.5409 -0.2453
 5430SOL    HW127752   4.353   1.053   5.288  0.0011 -1.0954  0.0032
 5430SOL    HW227753   4.209   1.021   5.330  0.8998 -1.5075  1.3078
 5431SOL     OW27754   1.314   2.890   6.386 -0.2354 -0.2132 -0.5576
 5431SOL    HW127755   1.336   2.979   6.358 -0.7943 -0.1226 -0.7141
 5431SOL    HW227756   1.299   2.843   6.304  0.1322 -0.3913 -0.5216
 5432SOL     OW27757   2.656   0.007   8.231 -0.2351  0.2786  0.2445
 5432SOL    HW127758   2.568   4.724   8.196  0.3776 -0.8563 -0.9429
 5432SOL    HW227759   2.718   4.718   8.160  0.0217  0.6236  0.3852
 5433SOL     OW27760   2.478   3.943   9.887  0.2705  0.3464 -0.6854
 5433SOL    HW127761   2.429   3.861   9.882  1.1525 -0.3495  2.1519
 5433SOL    HW227762   2.433   3.999   9.950  0.7841  1.1723 -1.0441
 5434SOL     OW27763   2.408   4.404   7.150  0.6920  0.2260  0.3010
 5434SOL    HW127764   2.425   4.339   7.218  0.9094  0.2617  0.2783
 5434SOL    HW227765   2.392   4.350   7.073 -1.2242  1.1747  0.0178
 5435SOL     OW27766   1.435   3.083  12.982 -0.2715 -0.1620 -0.7144
 5435SOL    HW127767   1.398   3.033  12.909 -1.2043 -0.2347 -0.1942
 5435SOL    HW227768   1.405   3.173  12.973 -5.7211 -1.8223  0.5891
 5436SOL     OW27769   3.855   3.721  10.785  0.3018  0.2662  0.3925
 5436SOL    HW127770   3.845   3.799  10.840  1.6594  0.7481 -0.0327
 5436SOL    HW227771   3.828   3.649  10.842  0.4536 -2.1815 -2.6409
 5437SOL     OW27772   3.447   3.363   7.417  0.2855  0.3826 -0.3146
 5437SOL    HW127773   3.392   3.328   7.487  1.5618 -1.3263 -0.1544
 5437SOL    HW227774   3.438   3.298   7.348  0.3755 -0.2797  0.2909
 5438SOL     OW27775   4.002   0.783   9.993 -0.8551  0.1100 -0.4911
 5438SOL    HW127776   4.056   0.827  10.059 -1.7046  1.7892 -0.8912
 5438SOL    HW227777   3.995   0.693  10.024  1.3098  0.4569  0.9811
 5439SOL     OW27778   3.749   3.635   3.922  0.5422  0.1459  0.2038
 5439SOL    HW127779   3.734   3.645   4.016 -1.5000 -2.3908  0.1471
 5439SOL    HW227780   3.664   3.616   3.883  0.1591  0.0970  1.0466
 5440SOL     OW27781   2.323   2.326  16.597 -0.8094 -0.5669  0.3596
 5440SOL    HW127782   2.270   2.404  16.585  0.5285  0.2261 -0.4704
 5440SOL    HW227783   2.365   2.323  16.511 -1.2795 -3.6333  0.2468
 5441SOL     OW27784   0.292   1.859   7.743  0.2783 -0.4583  0.3631
 5441SOL    HW127785   0.243   1.846   7.824 -1.8423 -1.7510 -1.1228
 5441SOL    HW227786   0.375   1.870   7.790  0.6792 -1.1455 -0.1730
 5442SOL     OW27787   1.920   0.790   8.899 -0.3635  0.7645  0.1373
 5442SOL    HW127788   1.829   0.820   8.904  0.1487  2.4979 -1.0760
 5442SOL    HW227789   1.961   0.849   8.961  0.3876  2.3417 -1.8496
 5443SOL     OW27790   1.699   1.729   2.206 -0.4945  0.2906 -0.2106
 5443SOL    HW127791   1.788   1.762   2.197 -0.1486 -1.3442 -2.9450
 5443SOL    HW227792   1.670   1.757   2.120  0.6437 -0.1945 -0.7608
 5444SOL     OW27793   2.590   1.783   0.053 -0.1958  0.8612 -0.4685
 5444SOL    HW127794   2.577   1.778  17.670  0.3580 -2.5731 -0.3781
 5444SOL    HW227795   2.537   1.862   0.062 -2.0225 -0.7977  3.6670
 5445SOL     OW27796   3.102   4.526   0.052  0.2169 -0.4476 -0.1005
 5445SOL    HW127797   3.020   4.482   0.077 -0.4970  0.2986 -1.1390
 5445SOL    HW227798   3.161   4.450   0.057  0.0493 -0.4710  1.7843
 5446SOL     OW27799   0.099   2.964  11.511 -0.2770 -0.0759 -0.6154
 5446SOL    HW127800   0.074   2.952  11.420 -2.3988 -1.1575  0.1084
 5446SOL    HW227801   0.028   3.025  11.530  0.2083  0.0924  0.6703
 5447SOL     OW27802   0.453   2.798   0.107 -0.3144 -0.2763  0.0981
 5447SOL    HW127803   0.400   2.827   0.182 -1.0113 -0.8188 -0.1821
 5447SOL    HW227804   0.391   2.747   0.055  1.4870 -1.4484 -0.8491
 5448SOL     OW27805   1.303   1.506   4.842 -0.6262  0.4802  0.2213
 5448SOL    HW127806   1.313   1.424   4.793  0.4457 -2.1229  4.7253
 5448SOL    HW227807   1.392   1.538   4.826 -0.9474 -0.0578 -2.5495
 5449SOL     OW27808   3.458   0.608   0.963 -0.7225 -0.2644  0.4559
 5449SOL    HW127809   3.385   0.581   1.019  0.1070 -1.1080  1.1383
 5449SOL    HW227810   3.413   0.688   0.935 -0.2743 -0.1754 -0.0046
 5450SOL     OW27811   2.460   0.490   8.508  0.3658 -0.3289  0.2075
 5450SOL    HW127812   2.416   0.423   8.560  1.3596 -1.3605 -0.2966
 5450SOL    HW227813   2.542   0.472   8.553  1.5237  0.1048 -1.7230
 5451SOL     OW27814   3.721   1.381   7.802  0.1132  0.5854 -0.3553
 5451SOL    HW127815   3.692   1.326   7.875 -0.0652 -0.9850 -1.6047
 5451SOL    HW227816   3.768   1.310   7.759 -1.2587 -1.6039  1.7683
 5452SOL     OW27817   0.337   2.832   0.632 -0.1092  0.2192 -0.4983
 5452SOL    HW127818   0.279   2.895   0.676 -1.3683 -1.1790 -0.1787
 5452SOL    HW227819   0.332   2.757   0.690 -3.5895 -0.5424 -1.8159
 5453SOL     OW27820   0.483   3.795  12.825  0.2631  0.1185 -0.2246
 5453SOL    HW127821   0.524   3.872  12.866 -1.4054  1.9670 -2.0248
 5453SOL    HW227822   0.563   3.762  12.786 -0.1560 -0.8376 -0.2688
 5454SOL     OW27823   4.519   2.982  14.523  0.2335 -0.4397  0.2519
 5454SOL    HW127824   4.493   2.940  14.441 -1.0869 -0.3317  0.6240
 5454SOL    HW227825   4.433   2.993  14.563 -0.0594  0.8897 -0.7193
 5455SOL     OW27826   2.121   0.008   4.079 -0.1059 -0.2909 -0.6314
 5455SOL    HW127827   2.104   4.654   4.128 -0.7811  0.4858  0.4267
 5455SOL    HW227828   2.032   0.043   4.075 -0.7583 -1.8598  0.0513
 5456SOL     OW27829   4.410   3.615   4.850  0.5436 -0.0169  0.1540
 5456SOL    HW127830   4.380   3.616   4.941  0.2726 -1.3049  0.0694
 5456SOL    HW227831   4.327   3.648   4.816  1.3558  0.8818 -0.9528
 5457SOL     OW27832   0.987   3.918  14.953  0.0832  0.1898 -0.3372
 5457SOL    HW127833   1.000   3.966  14.871  0.4246 -2.2352 -1.6990
 5457SOL    HW227834   0.934   3.846  14.919 -1.4738  0.8515  0.6853
 5458SOL     OW27835   3.746   2.294  17.533  0.3477 -0.1837  0.1443
 5458SOL    HW127836   3.757   2.388  17.549  0.4606  0.2306 -2.4593
 5458SOL    HW227837   3.666   2.285  17.482  0.1345  2.3366  0.0385
 5459SOL     OW27838   3.235   0.887   3.612 -0.1626  0.4958 -0.0226
 5459SOL    HW127839   3.317   0.863   3.655 -0.8575 -0.1100  0.9666
 5459SOL    HW227840   3.192   0.935   3.682 -1.7797 -0.6821 -0.2185
 5460SOL     OW27841   4.659   2.269   3.159  0.2589  0.1611 -0.6500
 5460SOL    HW127842   4.681   2.354   3.197 -0.6777 -0.1223  0.5024
 5460SOL    HW227843   0.014   2.222   3.170 -0.2648 -0.4435  0.7056
 5461SOL     OW27844   0.409   4.010   3.620  0.4304 -0.0679 -0.0269
 5461SOL    HW127845   0.324   4.039   3.653 -0.2526  1.0144 -2.6995
 5461SOL    HW227846   0.382   3.999   3.529 -0.5821  1.4293  0.0896
 5462SOL     OW27847   4.022   3.774   7.638  0.1174 -0.5101 -0.1658
 5462SOL    HW127848   3.945   3.765   7.581  0.2750  0.9351 -0.6012
 5462SOL    HW227849   4.095   3.756   7.579 -0.6484 -0.1881 -1.2156
 5463SOL     OW27850   1.544   2.479  11.904 -0.6367 -0.2885  0.6128
 5463SOL    HW127851   1.609   2.429  11.854  0.6676 -0.6306  2.6519
 5463SOL    HW227852   1.525   2.550  11.842 -0.3776 -0.5191  0.2649
 5464SOL     OW27853   3.838   1.739  12.978  1.3244  0.5269 -0.4730
 5464SOL    HW127854   3.744   1.753  12.971  1.3181  0.8920  0.3279
 5464SOL    HW227855   3.869   1.687  12.904  1.1355 -1.2965  0.7363
 5465SOL     OW27856   1.432   3.872  13.397  0.4254 -0.3156 -0.5757
 5465SOL    HW127857   1.513   3.916  13.372  0.5952  0.5364  1.4675
 5465SOL    HW227858   1.449   3.884  13.490 -0.7530  2.7680 -0.7620
 5466SOL     OW27859   1.770   0.451   2.254  0.2787 -0.7805  0.0457
 5466SOL    HW127860   1.681   0.465   2.223  0.6088  0.0020 -0.5545
 5466SOL    HW227861   1.807   0.535   2.226 -0.9473 -0.8558 -1.7930
 5467SOL     OW27862   2.304   4.620   8.598 -0.1453 -1.1286  0.2389
 5467SOL    HW127863   2.277   4.573   8.677 -0.0174 -3.6823 -1.2510
 5467SOL    HW227864   2.262   4.575   8.526 -1.3256  0.7212 -0.2417
 5468SOL     OW27865   0.949   4.722   3.314 -0.9331 -0.2789  0.3010
 5468SOL    HW127866   0.971   0.048   3.390  2.5519  0.3359 -1.1611
 5468SOL    HW227867   0.929   4.643   3.364 -1.6461  0.6334  1.4502
 5469SOL     OW27868   4.564   3.342  16.215  0.2941 -0.2199 -0.5835
 5469SOL    HW127869   4.563   3.246  16.223 -1.4705 -0.1317  0.1200
 5469SOL    HW227870   4.481   3.368  16.255  0.5350 -0.4511  0.0633
 5470SOL     OW27871   0.117   3.923  11.583 -0.8224 -0.0084 -0.0626
 5470SOL    HW127872   0.131   3.999  11.639  0.2566 -0.8811  0.8538
 5470SOL    HW227873   0.027   3.902  11.606 -1.0739  1.2692  0.0762
 5471SOL     OW27874   4.437   1.537   5.242  0.4770 -0.2557 -0.0775
 5471SOL    HW127875   4.438   1.450   5.202 -0.6655 -0.2682 -0.0783
 5471SOL    HW227876   4.464   1.599   5.174  1.5117  1.2561  1.7045
 5472SOL     OW27877   3.748   0.527   4.644 -0.0727 -0.0331  0.1852
 5472SOL    HW127878   3.775   0.527   4.736  2.4820 -1.4401 -0.5656
 5472SOL    HW227879   3.835   0.541   4.606 -0.7402 -1.5809 -1.8911
 5473SOL     OW27880   0.015   1.575  14.122  0.1870 -0.0035 -0.0620
 5473SOL    HW127881   4.659   1.601  14.084 -0.1796  1.6633  1.8957
 5473SOL    HW227882   0.033   1.502  14.062  1.1246 -0.1962  0.4566
 5474SOL     OW27883   1.980   1.722   1.090  0.1725 -0.0080 -0.6355
 5474SOL    HW127884   1.936   1.638   1.098 -0.2661  0.2056 -0.8183
 5474SOL    HW227885   1.917   1.786   1.055 -1.9508 -0.5869  2.1997
 5475SOL     OW27886   4.681   1.832  17.611 -0.3327 -0.2461 -0.5249
 5475SOL    HW127887   0.023   1.847  17.674  0.4757 -0.7398 -1.2978
 5475SOL    HW227888   4.640   1.763  17.662 -1.7532 -0.6265 -2.1726
 5476SOL     OW27889   3.513   1.776   5.657 -0.4127 -0.5270  0.1374
 5476SOL    HW127890   3.458   1.783   5.735  1.7462  3.1532  1.3585
 5476SOL    HW227891   3.602   1.800   5.682 -1.2208  1.1564  1.4074
 5477SOL     OW27892   3.262   0.195   6.334  0.2718  0.1018  0.6739
 5477SOL    HW127893   3.355   0.200   6.312  0.0795  1.0898  0.0939
 5477SOL    HW227894   3.233   0.111   6.299  1.3678  0.2293 -0.5276
 5478SOL     OW27895   2.806   2.313   6.535  0.8719 -0.0451 -0.2260
 5478SOL    HW127896   2.870   2.382   6.552 -0.2292  1.2896 -1.4504
 5478SOL    HW227897   2.727   2.332   6.585  0.8875 -0.6868  0.0457
 5479SOL     OW27898   1.299   4.142   3.769  0.2598 -0.6874 -0.3959
 5479SOL    HW127899   1.232   4.183   3.825  0.2650  0.5663 -1.3062
 5479SOL    HW227900   1.356   4.216   3.749 -1.9027  1.1774  0.3345
 5480SOL     OW27901   4.294   2.535   5.898 -0.2958 -0.4612 -0.7268
 5480SOL    HW127902   4.344   2.454   5.906 -1.0980 -0.9083 -0.1764
 5480SOL    HW227903   4.361   2.592   5.860 -2.1503  1.9519 -0.3649
 5481SOL     OW27904   2.825   3.145   7.301  0.0403 -0.0089  0.2049
 5481SOL    HW127905   2.799   3.110   7.216  0.4487 -1.2691  0.5995
 5481SOL    HW227906   2.744   3.148   7.351 -1.2876  2.3499 -2.0953
 5482SOL     OW27907   0.324   0.727  11.341  1.0137  0.1710  0.5425
 5482SOL    HW127908   0.407   0.748  11.297  0.0969 -1.0175 -1.7422
 5482SOL    HW227909   0.291   0.651  11.293  1.4118  0.6500 -0.5074
 5483SOL     OW27910   2.833   0.813   3.665  0.3526  0.0149  0.1179
 5483SOL    HW127911   2.888   0.735   3.673  1.5274  0.7927 -0.2253
 5483SOL    HW227912   2.899   0.876   3.637 -0.8796  2.2311  2.2485
 5484SOL     OW27913   4.598   4.215   6.910  0.2624  0.3563  0.2557
 5484SOL    HW127914   4.590   4.177   6.997 -0.0249  0.7937  0.4212
 5484SOL    HW227915   4.692   4.205   6.895  0.2538  1.4100 -0.5836
 5485SOL     OW27916   3.747   2.073  17.271  0.5040  0.0210 -0.1752
 5485SOL    HW127917   3.721   2.148  17.217 -2.2648 -0.2573  0.7319
 5485SOL    HW227918   3.687   2.009  17.234  0.7034 -0.3230  0.1033
 5486SOL     OW27919   2.404   0.182   6.907 -0.0476 -0.0558  0.0419
 5486SOL    HW127920   2.476   0.155   6.850 -0.0645  1.1049 -0.5142
 5486SOL    HW227921   2.356   0.099   6.915 -1.0543  0.2365 -2.8959
 5487SOL     OW27922   2.305   0.122   9.257  0.2450  0.0803 -0.0005
 5487SOL    HW127923   2.256   0.072   9.323 -0.6402  1.3282  0.2847
 5487SOL    HW227924   2.351   0.171   9.325  0.8099  1.0630 -1.0991
 5488SOL     OW27925   3.215   4.156  16.378  0.3045 -0.0033 -0.5597
 5488SOL    HW127926   3.289   4.197  16.423  0.3804 -1.0649  0.2568
 5488SOL    HW227927   3.253   4.174  16.292  0.8925 -0.5584 -0.4064
 5489SOL     OW27928   2.637   4.280   7.846 -0.0271 -0.5588 -0.1728
 5489SOL    HW127929   2.648   4.274   7.941 -2.0213 -1.7942 -0.0136
 5489SOL    HW227930   2.698   4.216   7.808 -1.3797 -0.4055 -2.6503
 5490SOL     OW27931   4.543   1.413  16.406  0.2387  0.0094  0.3221
 5490SOL    HW127932   4.517   1.505  16.415 -1.3205 -0.4225  0.3013
 5490SOL    HW227933   4.636   1.423  16.427 -0.2767  1.0178  2.0905
 5491SOL     OW27934   0.332   1.887   0.614 -0.2491 -0.0676  0.0266
 5491SOL    HW127935   0.276   1.818   0.578 -0.5889  0.2383 -0.0281
 5491SOL    HW227936   0.330   1.850   0.703 -0.3130  0.8293  0.3961
 5492SOL     OW27937   2.965   4.426  14.663  0.4074  0.2030 -0.3615
 5492SOL    HW127938   3.045   4.478  14.655 -0.1434  1.0223 -0.4495
 5492SOL    HW227939   2.981   4.352  14.603  0.1535 -0.7458  0.7442
 5493SOL     OW27940   0.385   2.057   8.010 -0.4421  0.2188 -0.3529
 5493SOL    HW127941   0.299   2.097   8.027 -1.1041 -0.4235 -2.2065
 5493SOL    HW227942   0.432   2.139   8.005 -0.2405  0.1795  0.8080
 5494SOL     OW27943   2.111   1.071   4.304  0.2198  0.1470  0.0154
 5494SOL    HW127944   2.201   1.104   4.308 -0.4811  2.1554 -0.8404
 5494SOL    HW227945   2.063   1.133   4.360 -0.7228 -1.9171  1.5132
 5495SOL     OW27946   3.038   1.616   1.380 -0.5541 -0.1889 -0.3225
 5495SOL    HW127947   3.030   1.553   1.309  0.4966 -0.4510 -0.2024
 5495SOL    HW227948   2.962   1.604   1.437  0.7409  3.1838  2.1786
 5496SOL     OW27949   4.505   2.014   3.761  0.2266  0.0210 -0.0405
 5496SOL    HW127950   4.533   1.924   3.777 -0.1086 -0.2847 -1.2054
 5496SOL    HW227951   4.427   2.005   3.706  0.5918 -1.5231 -0.2783
 5497SOL     OW27952   3.125   1.562  17.562  0.1984  0.3256  0.1013
 5497SOL    HW127953   3.104   1.469  17.561  0.0429  0.3724 -1.0080
 5497SOL    HW227954   3.120   1.562  17.467 -1.0743  3.6337  0.1716
 5498SOL     OW27955   0.285   4.461   5.559  0.0265  0.1880  0.0443
 5498SOL    HW127956   0.303   4.370   5.583 -2.0953  0.1297  1.3857
 5498SOL    HW227957   0.337   4.460   5.478 -0.5692  3.2338 -0.3750
 5499SOL     OW27958   0.882   1.011   5.227 -0.0545 -0.2666 -0.1416
 5499SOL    HW127959   0.915   0.981   5.312 -1.5019 -1.2780  0.0544
 5499SOL    HW227960   0.941   1.076   5.188 -0.6066  2.1021  3.0090
 5500SOL     OW27961   0.002   2.530  10.487  0.4792 -0.2351 -0.0456
 5500SOL    HW127962   4.680   2.531  10.569 -0.6989  2.3552 -0.8032
 5500SOL    HW227963   0.094   2.524  10.516  0.9775  2.1093 -1.1481
 5501SOL     OW27964   1.230   0.242   8.572  0.1809 -0.0262  0.2365
 5501SOL    HW127965   1.162   0.231   8.506  1.0484 -1.7751 -0.3579
 5501SOL    HW227966   1.237   0.153   8.607  1.1182 -0.2552 -0.5305
 5502SOL     OW27967   2.708   1.558   5.718 -0.3430  0.4258 -0.7439
 5502SOL    HW127968   2.614   1.559   5.700 -0.1410 -1.4290 -1.9083
 5502SOL    HW227969   2.731   1.480   5.668 -1.0747 -0.6876  0.6671
 5503SOL     OW27970   1.994   0.275   5.815 -0.2443 -0.1560  0.2230
 5503SOL    HW127971   2.077   0.317   5.792 -1.7384  2.4855 -0.3510
 5503SOL    HW227972   2.026   0.190   5.843  1.1705  1.0451  2.2318
 5504SOL     OW27973   4.441   1.549  12.142 -0.7157 -0.2722  0.0854
 5504SOL    HW127974   4.354   1.529  12.177 -0.0497  0.5654  2.1903
 5504SOL    HW227975   4.436   1.642  12.162  1.3718  0.2576 -1.9031
 5505SOL     OW27976   2.215   3.835   0.629  0.2040 -0.5453  0.0797
 5505SOL    HW127977   2.179   3.747   0.627 -0.6621 -0.1821 -0.1638
 5505SOL    HW227978   2.245   3.843   0.720 -0.4191 -0.4679  0.2792
 5506SOL     OW27979   4.315   3.633   5.103  0.0630  0.1550  0.1207
 5506SOL    HW127980   4.224   3.660   5.109  0.4972  1.7601 -0.5744
 5506SOL    HW227981   4.337   3.638   5.196 -1.4151 -0.7880  0.5119
 5507SOL     OW27982   0.767   0.640   9.221 -0.0993 -0.1643 -0.2961
 5507SOL    HW127983   0.699   0.581   9.190 -0.9235  0.0388  1.1102
 5507SOL    HW227984   0.844   0.598   9.184 -0.4139  0.5396 -1.7467
 5508SOL     OW27985   3.541   0.633   7.302  0.1784  0.0759 -0.2339
 5508SOL    HW127986   3.512   0.722   7.283 -3.2264 -0.9628  0.0045
 5508SOL    HW227987   3.594   0.617   7.224  1.4052  2.0757  0.1993
 5509SOL     OW27988   4.601   1.644   0.097  0.0054 -0.3129  0.3651
 5509SOL    HW127989   4.627   1.589   0.023 -0.3296  0.9389 -0.6822
 5509SOL    HW227990   4.536   1.592   0.144 -0.4087 -0.5933 -0.5189
 5510SOL     OW27991   1.608   0.742   6.674  0.1955 -1.2766  0.1648
 5510SOL    HW127992   1.574   0.660   6.712 -0.0898 -1.2144  0.0430
 5510SOL    HW227993   1.649   0.765   6.758 -0.1324  1.7113 -0.5061
 5511SOL     OW27994   4.121   1.351   4.513  0.1867 -0.1442  0.1035
 5511SOL    HW127995   4.184   1.424   4.508 -0.4404  0.4183  0.4022
 5511SOL    HW227996   4.074   1.387   4.588 -2.7429  0.2326 -1.9225
 5512SOL     OW27997   1.743   1.058   1.036 -0.4107 -0.1795  0.3421
 5512SOL    HW127998   1.826   1.065   0.989 -1.0870 -1.7802 -1.0689
 5512SOL    HW227999   1.682   1.066   0.962 -1.0826 -0.1568  0.8906
 5513SOL     OW28000   1.458   2.906   5.036  0.0551 -0.1180 -0.4237
 5513SOL    HW128001   1.480   2.996   5.014 -2.8436  0.0916 -2.5082
 5513SOL    HW228002   1.390   2.928   5.100 -0.6452 -1.1949 -0.7903
 5514SOL     OW28003   0.485   2.439  11.563  0.0941  0.5985  0.2925
 5514SOL    HW128004   0.418   2.372  11.576 -0.3975  1.1131  0.3874
 5514SOL    HW228005   0.472   2.498  11.637 -0.5207 -0.6866  1.2032
 5515SOL     OW28006   1.198   0.861   7.044 -0.5604 -0.0584 -0.4644
 5515SOL    HW128007   1.228   0.794   7.105 -0.7626  1.5645  1.4297
 5515SOL    HW228008   1.204   0.812   6.962 -0.8290  0.7556 -0.9680
 5516SOL     OW28009   3.421   3.407   6.309 -0.3804  0.0840  0.6177
 5516SOL    HW128010   3.493   3.364   6.262  0.1169  2.4589 -0.7496
 5516SOL    HW228011   3.357   3.335   6.304 -1.2342  0.9881 -1.4424
 5517SOL     OW28012   0.833   1.557   7.809 -0.0241  0.7073  0.1239
 5517SOL    HW128013   0.760   1.541   7.869  0.6125 -0.7866  0.4908
 5517SOL    HW228014   0.883   1.476   7.806 -1.0549  0.0610  0.2419
 5518SOL     OW28015   4.634   1.408   4.047  0.2571  0.0405  0.1962
 5518SOL    HW128016   4.693   1.422   4.121  2.6304 -0.0243 -1.6785
 5518SOL    HW228017   4.577   1.484   4.033  2.2567  1.1256 -2.0098
 5519SOL     OW28018   4.657   3.667  17.451 -0.1791 -0.9675 -0.3361
 5519SOL    HW128019   4.709   3.743  17.477 -0.9739 -0.7651  0.6356
 5519SOL    HW228020   4.678   3.600  17.515 -0.2326 -1.4749 -0.8462
 5520SOL     OW28021   4.286   3.354   2.491  0.3646 -0.5694  0.4082
 5520SOL    HW128022   4.364   3.396   2.527  0.5255 -1.7021  1.3563
 5520SOL    HW228023   4.316   3.268   2.463  1.2656 -0.2308  0.3063
 5521SOL     OW28024   3.623   2.128   3.621 -0.0678  0.2034 -0.3588
 5521SOL    HW128025   3.648   2.186   3.548  1.2004  0.7015  0.4755
 5521SOL    HW228026   3.564   2.072   3.571 -1.4607 -0.1835  1.7391
 5522SOL     OW28027   3.385   2.734   4.248 -0.3302  0.0783  0.2274
 5522SOL    HW128028   3.361   2.822   4.218  2.3932  1.3731  1.8446
 5522SOL    HW228029   3.441   2.756   4.323  0.9623 -0.1635 -0.6577
 5523SOL     OW28030   3.808   3.888  15.065  0.5809  0.0219  0.3052
 5523SOL    HW128031   3.766   3.843  14.992 -1.0223  0.6155  0.8597
 5523SOL    HW228032   3.883   3.923  15.017 -0.8155 -0.7251 -2.3797
 5524SOL     OW28033   4.560   1.503  16.009 -0.5263 -0.1212  0.6619
 5524SOL    HW128034   4.544   1.596  16.024 -2.0935 -0.4479  1.0970
 5524SOL    HW228035   4.472   1.466  16.017  0.0801 -1.6572  0.3584
 5525SOL     OW28036   3.887   3.350   2.852  0.1130  0.2205  0.4033
 5525SOL    HW128037   3.822   3.292   2.892 -1.3701  0.7909 -1.1883
 5525SOL    HW228038   3.891   3.432   2.901  0.5093  0.5487 -0.1692
 5526SOL     OW28039   3.474   3.029   7.515 -0.1373  0.0720  0.1160
 5526SOL    HW128040   3.469   2.957   7.577 -3.4312  0.4149  0.2755
 5526SOL    HW228041   3.412   3.093   7.551 -0.2831  0.8171 -1.4433
 5527SOL     OW28042   0.527   0.577  12.999 -0.0618 -0.1129  0.4567
 5527SOL    HW128043   0.538   0.667  13.029  1.5335  0.5957 -2.2930
 5527SOL    HW228044   0.442   0.552  13.034 -0.0727 -0.1303  0.4175
 5528SOL     OW28045   1.088   1.866   3.950 -0.2245  0.3086  0.8100
 5528SOL    HW128046   1.120   1.777   3.964  0.4785  0.2341 -1.2458
 5528SOL    HW228047   1.091   1.894   4.041 -1.5737 -1.9729  1.5558
 5529SOL     OW28048   1.566   2.064   1.730 -0.4392 -0.2157 -0.0439
 5529SOL    HW128049   1.647   2.030   1.769  0.8244 -0.7472 -3.1138
 5529SOL    HW228050   1.542   2.111   1.809 -1.6641 -0.2063 -0.4251
 5530SOL     OW28051   2.432   2.792  11.952 -0.2626 -0.1887 -0.2198
 5530SOL    HW128052   2.357   2.738  11.928 -1.7789  1.0860  1.6871
 5530SOL    HW228053   2.419   2.866  11.893 -2.0138  0.1644  0.6130
 5531SOL     OW28054   1.598   3.900   6.769  0.1960  0.1725  0.1113
 5531SOL    HW128055   1.604   3.843   6.846  1.1995  0.1846  0.0535
 5531SOL    HW228056   1.519   3.862   6.730 -0.0399 -0.4393  1.1701
 5532SOL     OW28057   0.731   4.197   7.043 -0.2916 -0.6479  0.0120
 5532SOL    HW128058   0.655   4.195   7.101 -0.4869 -1.3171 -0.2601
 5532SOL    HW228059   0.804   4.202   7.104 -0.6595  0.8072  0.3124
 5533SOL     OW28060   1.400   0.339   0.260  0.4724 -0.4682  0.6563
 5533SOL    HW128061   1.369   0.389   0.336  1.1431 -0.1101  0.6917
 5533SOL    HW228062   1.437   0.260   0.299  1.3737 -0.0034  0.7262
 5534SOL     OW28063   0.583   1.615   0.344  0.0930  0.1824  0.5290
 5534SOL    HW128064   0.549   1.697   0.308  0.7661  0.9347  1.5977
 5534SOL    HW228065   0.573   1.619   0.439 -1.7629 -4.9369  0.5467
 5535SOL     OW28066   1.865   1.570  13.283  0.7824  0.0753  0.2425
 5535SOL    HW128067   1.816   1.590  13.363 -0.6781  0.7655 -0.8348
 5535SOL    HW228068   1.931   1.505  13.308 -0.7672 -1.3996  0.5154
 5536SOL     OW28069   0.286   1.196  16.732  0.0794 -0.0458 -0.1563
 5536SOL    HW128070   0.302   1.274  16.680  0.4391  1.0774  1.6489
 5536SOL    HW228071   0.341   1.128  16.694 -0.1800 -0.2589 -0.1528
 5537SOL     OW28072   1.691   4.283  11.915  0.2950  1.0769  0.1906
 5537SOL    HW128073   1.677   4.224  11.841 -1.8627  2.7210 -0.7055
 5537SOL    HW228074   1.754   4.236  11.971  2.3068 -0.9122 -3.7532
 5538SOL     OW28075   3.516   3.742   5.342  0.1032 -0.3033  0.2019
 5538SOL    HW128076   3.591   3.697   5.380 -0.7435 -1.0525  0.9639
 5538SOL    HW228077   3.454   3.669   5.347 -0.0542 -0.1192  0.9048
 5539SOL     OW28078   1.410   1.598   2.253 -0.0819 -0.4758 -0.6999
 5539SOL    HW128079   1.490   1.610   2.305  0.1333  1.2643 -1.4367
 5539SOL    HW228080   1.371   1.644   2.327  0.5261  1.5413 -1.6221
 5540SOL     OW28081   0.595   4.424   7.879  0.4700 -0.0235 -0.6511
 5540SOL    HW128082   0.605   4.345   7.932  1.4994  0.5622  0.0115
 5540SOL    HW228083   0.687   4.434   7.853  0.3713  1.3249 -0.4519
 5541SOL     OW28084   3.049   2.207   6.362 -0.5785  0.4581  0.0704
 5541SOL    HW128085   3.088   2.265   6.428 -0.4431 -0.9631  1.2374
 5541SOL    HW228086   3.031   2.129   6.415  3.3630  0.6640  1.6701
 5542SOL     OW28087   3.935   2.537   3.742 -0.5509  0.2967  0.5033
 5542SOL    HW128088   3.929   2.587   3.824 -1.4027  0.9074  0.0681
 5542SOL    HW228089   3.848   2.497   3.748 -0.3808 -0.4309 -2.2652
 5543SOL     OW28090   0.097   4.622   5.455 -0.0507  0.1391 -0.0554
 5543SOL    HW128091   0.149   4.568   5.514 -1.4004  0.8309  1.7809
 5543SOL    HW228092   0.015   4.576   5.472  1.1441 -1.9873 -0.0202
 5544SOL     OW28093   0.581   0.910   4.061 -0.3151 -0.6322  0.2824
 5544SOL    HW128094   0.667   0.914   4.104 -0.8141  0.7406  1.1835
 5544SOL    HW228095   0.591   0.943   3.972 -0.1254 -0.7183  0.2727
 5545SOL     OW28096   3.403   0.983   4.619 -0.0906  0.1542 -0.0065
 5545SOL    HW128097   3.462   1.059   4.615  0.2953 -0.3292 -3.0783
 5545SOL    HW228098   3.330   1.026   4.664 -2.6974 -2.2137 -1.9858
 5546SOL     OW28099   3.505   3.630  16.625  0.4875  0.5764  0.1896
 5546SOL    HW128100   3.560   3.681  16.566  0.0846  1.3280  0.4593
 5546SOL    HW228101   3.553   3.623  16.707 -2.5698  0.3906  1.9527
 5547SOL     OW28102   0.587   3.305   7.371 -0.0705  0.0832  0.3790
 5547SOL    HW128103   0.598   3.320   7.464 -0.7966 -0.2838  0.5262
 5547SOL    HW228104   0.491   3.298   7.378 -0.0795 -1.9705 -1.7961
 5548SOL     OW28105   2.879   3.803   2.839 -0.0593 -0.0607 -0.3399
 5548SOL    HW128106   2.843   3.749   2.768  0.3042  1.3517 -1.6019
 5548SOL    HW228107   2.808   3.790   2.902  0.6370 -0.3930  0.3643
 5549SOL     OW28108   2.752   3.447   5.379 -0.4282  0.6211 -0.8194
 5549SOL    HW128109   2.701   3.507   5.325 -1.8771 -0.7767 -1.0160
 5549SOL    HW228110   2.724   3.359   5.351 -1.5720  0.5885  0.4026
 5550SOL     OW28111   2.521   3.225   5.795 -0.0002 -0.0855 -0.6159
 5550SOL    HW128112   2.484   3.201   5.710  0.5066  0.7154 -1.0639
 5550SOL    HW228113   2.453   3.188   5.851  1.0992  0.7816  1.3158
 5551SOL     OW28114   1.309   2.064   8.302 -0.4084 -0.2887  0.0487
 5551SOL    HW128115   1.362   2.134   8.263  0.8042 -1.0705  0.2741
 5551SOL    HW228116   1.265   2.111   8.372 -3.1196  0.8061 -2.3662
 5552SOL     OW28117   3.169   3.698   6.947  0.1055  0.5435 -0.2555
 5552SOL    HW128118   3.173   3.746   6.864 -0.6011 -1.4461 -1.4310
 5552SOL    HW228119   3.246   3.730   6.995  1.2181 -0.2439 -1.5249
 5553SOL     OW28120   0.123   3.428  13.552  0.6898  0.2900  0.0336
 5553SOL    HW128121   0.076   3.507  13.578  1.9627  1.1341 -0.1985
 5553SOL    HW228122   0.127   3.377  13.633  3.3789  0.4339  0.0079
 5554SOL     OW28123   1.233   0.989   3.389 -0.1644 -0.1157  0.4141
 5554SOL    HW128124   1.292   0.968   3.461  0.2342 -1.0662 -0.1919
 5554SOL    HW228125   1.246   0.909   3.338  0.2757 -0.9592  1.8431
 5555SOL     OW28126   1.038   2.573   2.100 -0.2435  0.1839 -0.1491
 5555SOL    HW128127   1.055   2.575   2.194 -2.0038  2.7234  0.1243
 5555SOL    HW228128   1.112   2.528   2.060 -0.4504 -0.1722 -0.1298
 5556SOL     OW28129   3.251   1.544   2.335 -0.2004 -0.0654 -0.0401
 5556SOL    HW128130   3.183   1.596   2.379 -2.7391 -3.5784  0.1846
 5556SOL    HW228131   3.327   1.603   2.341 -0.0509 -0.2969  0.3356
 5557SOL     OW28132   0.059   4.330   3.571 -0.0964  0.1114  0.2424
 5557SOL    HW128133   4.708   4.282   3.548  0.7371 -0.1858 -1.9225
 5557SOL    HW228134   0.087   4.350   3.482 -0.6547 -2.2073 -0.4517
 5558SOL     OW28135   1.588   3.313   4.686  0.2155 -0.3892 -0.1169
 5558SOL    HW128136   1.528   3.247   4.719  0.9321  0.1002  2.1385
 5558SOL    HW228137   1.547   3.334   4.602  0.3151 -1.1018 -0.3426
 5559SOL     OW28138   2.214   3.471  17.377 -0.0008 -0.3470  0.7120
 5559SOL    HW128139   2.264   3.551  17.393 -0.4868  0.0448  0.2570
 5559SOL    HW228140   2.270   3.394  17.362  1.2892  0.5118  1.1820
 5560SOL     OW28141   3.491   3.836   8.487 -1.0649  0.7751  0.1414
 5560SOL    HW128142   3.436   3.759   8.501 -2.1244  1.5410  0.1206
 5560SOL    HW228143   3.577   3.794   8.478 -1.0867  0.7697 -0.0537
 5561SOL     OW28144   2.697   1.975   3.419  0.7813  0.0432 -0.6148
 5561SOL    HW128145   2.736   1.891   3.394 -0.3425 -0.0967 -1.8846
 5561SOL    HW228146   2.711   1.980   3.514 -0.2827 -1.7330 -0.3571
 5562SOL     OW28147   3.512   4.573   7.615 -0.0733  0.2413 -0.2100
 5562SOL    HW128148   3.496   4.579   7.710  1.0578  2.7199 -0.1705
 5562SOL    HW228149   3.426   4.574   7.573 -0.3088 -1.5358  0.2380
 5563SOL     OW28150   4.544   1.947   9.478  0.1504 -0.0436 -0.6504
 5563SOL    HW128151   4.509   1.927   9.565 -0.8682  0.5614 -0.9162
 5563SOL    HW228152   4.596   2.027   9.486 -2.8844  1.8641  0.0934
 5564SOL     OW28153   0.670   3.121   8.445 -0.2630 -0.4631 -0.0399
 5564SOL    HW128154   0.665   3.056   8.375  0.8068  1.7221 -2.1445
 5564SOL    HW228155   0.667   3.206   8.401  1.6759 -0.8443 -0.8972
 5565SOL     OW28156   2.880   0.090   9.787 -0.2334  0.4759 -0.3720
 5565SOL    HW128157   2.854   0.055   9.702 -3.6253  0.9809  0.4532
 5565SOL    HW228158   2.972   0.067   9.797 -0.2729  0.6223  0.3777
 5566SOL     OW28159   1.588   3.035   3.461  0.6987  0.1472  0.1765
 5566SOL    HW128160   1.586   2.977   3.537  0.3762 -1.4350 -1.0317
 5566SOL    HW228161   1.538   2.979   3.402 -1.5729 -0.3194  2.5812
 5567SOL     OW28162   0.079   0.118   8.296 -0.3147  0.3876  0.5735
 5567SOL    HW128163   0.031   0.201   8.288 -0.5809  0.3129  1.3800
 5567SOL    HW228164   0.118   0.123   8.383 -0.0822 -1.8099  0.6023
 5568SOL     OW28165   3.603   4.196   4.751 -0.4764  0.2095 -0.3489
 5568SOL    HW128166   3.617   4.222   4.842 -0.2781  0.9365 -0.5908
 5568SOL    HW228167   3.514   4.163   4.765 -1.5360  3.6149  0.8592
 5569SOL     OW28168   1.476   0.332   8.495 -0.8235 -0.6631 -0.1937
 5569SOL    HW128169   1.398   0.280   8.516 -1.6704  1.1108  1.1224
 5569SOL    HW228170   1.538   0.320   8.566  0.1343  1.4816 -0.6532
 5570SOL     OW28171   3.544   0.636  12.486  0.3236  0.0814 -0.2633
 5570SOL    HW128172   3.503   0.711  12.530 -2.3567  0.0095 -2.6768
 5570SOL    HW228173   3.604   0.614  12.557  0.6202 -1.2017 -0.9251
 5571SOL     OW28174   4.339   1.075   8.211 -0.4020 -0.3945 -0.2989
 5571SOL    HW128175   4.323   1.166   8.185 -2.8031 -0.9523 -0.8269
 5571SOL    HW228176   4.396   1.046   8.140  1.8570  2.0818  0.5186
 5572SOL     OW28177   0.273   3.065   2.376 -0.0536  0.5186  0.1771
 5572SOL    HW128178   0.286   3.008   2.300  0.6768 -1.1118  1.5081
 5572SOL    HW228179   0.322   3.009   2.436  0.5877 -1.0969 -1.8364
 5573SOL     OW28180   0.965   3.688   3.115 -0.1871  0.2816  0.6259
 5573SOL    HW128181   0.947   3.655   3.202  1.7195 -0.0510  0.9081
 5573SOL    HW228182   1.059   3.668   3.109 -0.3312 -0.2330  0.0810
 5574SOL     OW28183   4.640   2.891  12.647  0.0217  0.0494  0.5713
 5574SOL    HW128184   4.651   2.837  12.725 -2.6863 -2.8525 -1.0431
 5574SOL    HW228185   4.727   2.882  12.609  0.3585 -0.6822  1.5143
 5575SOL     OW28186   0.399   1.302   5.764  0.1213 -0.1023  0.2027
 5575SOL    HW128187   0.465   1.358   5.804 -0.4284  0.4862  0.2872
 5575SOL    HW228188   0.447   1.285   5.684  3.1806 -1.3218  2.2930
 5576SOL     OW28189   2.281   3.952  15.690  0.1277 -0.1355  0.1099
 5576SOL    HW128190   2.234   3.962  15.607  3.4206 -1.1829 -1.8658
 5576SOL    HW228191   2.246   3.868  15.720 -0.0288 -0.4764 -1.0406
 5577SOL     OW28192   3.910   2.963   3.082 -0.8793  0.3366 -0.0437
 5577SOL    HW128193   3.944   3.017   3.011 -0.8136  1.0312  0.5073
 5577SOL    HW228194   3.911   2.874   3.048  1.3123  0.0303  0.8120
 5578SOL     OW28195   1.657   0.438   6.217 -0.0812  0.1163  0.5771
 5578SOL    HW128196   1.715   0.477   6.151 -1.5732  0.4711 -0.5365
 5578SOL    HW228197   1.691   0.492   6.288  2.0876  2.2280 -2.0684
 5579SOL     OW28198   3.107   1.500  17.297  0.3003  0.9824  0.1712
 5579SOL    HW128199   3.107   1.429  17.232 -1.3267 -0.2964  1.5623
 5579SOL    HW228200   3.031   1.547  17.264  0.1655  1.0840  0.6254
 5580SOL     OW28201   3.129   4.312   4.420  0.1908  0.2827 -0.6505
 5580SOL    HW128202   3.111   4.403   4.399 -0.9598  0.1541 -0.2443
 5580SOL    HW228203   3.154   4.279   4.334  1.3737 -0.9843  0.1800
 5581SOL     OW28204   2.354   4.479  13.892 -0.5914 -0.1851  0.0933
 5581SOL    HW128205   2.439   4.461  13.852 -0.9465  1.0581 -1.1810
 5581SOL    HW228206   2.289   4.466  13.823  0.0414 -3.3505  0.1036
 5582SOL     OW28207   3.446   0.442   8.116 -0.4627  0.1063  0.3548
 5582SOL    HW128208   3.475   0.351   8.111  0.5771  0.3908  1.2112
 5582SOL    HW228209   3.534   0.480   8.113 -0.8396  0.8697 -0.8509
 5583SOL     OW28210   2.674   1.570   6.938  0.1117 -0.0268  0.0548
 5583SOL    HW128211   2.687   1.654   6.895 -1.1917  0.0766 -0.1299
 5583SOL    HW228212   2.583   1.546   6.921 -1.2029  5.0586 -0.1031
 5584SOL     OW28213   3.281   2.043   1.900  0.2733 -0.5097 -0.3056
 5584SOL    HW128214   3.349   2.006   1.843  1.6328 -0.5771  1.3648
 5584SOL    HW228215   3.343   2.095   1.951  0.7148  0.6386 -1.9896
 5585SOL     OW28216   3.208   1.289   1.927 -0.0035 -0.3238 -0.5486
 5585SOL    HW128217   3.278   1.316   1.986 -0.7566  0.1040  0.1464
 5585SOL    HW228218   3.149   1.264   1.998 -0.0254 -1.0191 -0.8101
 5586SOL     OW28219   2.582   0.109   9.446 -0.1529  0.1086  0.4355
 5586SOL    HW128220   2.657   0.149   9.491 -0.4283  0.4614  0.5786
 5586SOL    HW228221   2.508   0.169   9.452 -0.3129  0.3963 -3.9884
 5587SOL     OW28222   1.814   4.255   2.719 -0.2859 -0.3604  0.5527
 5587SOL    HW128223   1.779   4.285   2.802 -1.3661  0.0431 -0.0526
 5587SOL    HW228224   1.900   4.297   2.722 -0.2681 -0.2900 -0.7168
 5588SOL     OW28225   3.829   4.533   2.439  0.4444  0.3067  0.4678
 5588SOL    HW128226   3.774   4.567   2.368  0.6950 -1.5421 -0.6135
 5588SOL    HW228227   3.831   4.606   2.502 -0.5793  0.9770 -0.2623
 5589SOL     OW28228   1.010   1.617   3.425 -0.7484 -0.0722 -0.0598
 5589SOL    HW128229   1.036   1.627   3.334 -2.2328  1.3463 -0.3106
 5589SOL    HW228230   0.991   1.707   3.453  0.1900  0.0955  0.0432
 5590SOL     OW28231   0.307   0.529  10.859 -0.4436 -0.7447 -0.8124
 5590SOL    HW128232   0.258   0.593  10.911 -0.8047 -2.0996  0.5049
 5590SOL    HW228233   0.236   0.477  10.822 -2.1886  1.1710 -0.1055
 5591SOL     OW28234   2.529   1.180   4.828 -0.3397 -0.2537  0.2119
 5591SOL    HW128235   2.619   1.202   4.854  0.5490 -0.0589 -3.0890
 5591SOL    HW228236   2.488   1.261   4.798  0.4109 -0.2214 -0.7377
 5592SOL     OW28237   2.282   3.950   1.001  0.2937  0.2749 -0.3746
 5592SOL    HW128238   2.376   3.964   1.011  0.1608  0.9030 -0.0334
 5592SOL    HW228239   2.238   4.032   1.025 -0.7978 -0.5474  0.4311
 5593SOL     OW28240   2.150   2.522   6.234  0.2729  0.1855  0.0530
 5593SOL    HW128241   2.148   2.528   6.329  3.9213 -0.4335  0.1441
 5593SOL    HW228242   2.061   2.487   6.228  0.6676 -0.5208 -1.6917
 5594SOL     OW28243   0.878   0.745   6.723 -0.4674 -0.3538 -0.1967
 5594SOL    HW128244   0.945   0.712   6.782  0.8999  0.5295 -1.2712
 5594SOL    HW228245   0.916   0.779   6.642 -0.0758  1.1399  0.6336
 5595SOL     OW28246   3.001   4.516   4.898 -0.5956 -0.0569 -0.0231
 5595SOL    HW128247   3.038   4.565   4.825 -0.7777  0.9038  0.5297
 5595SOL    HW228248   3.071   4.487   4.957  1.3547 -0.5013 -2.5550
 5596SOL     OW28249   0.394   1.710   5.945 -0.3171  0.5908 -0.0320
 5596SOL    HW128250   0.472   1.746   5.905 -0.3521  0.1172 -0.5277
 5596SOL    HW228251   0.434   1.692   6.030  0.3529 -1.1222 -0.7155
 5597SOL     OW28252   4.691   0.944   1.992  0.2115  0.1876  0.5720
 5597SOL    HW128253   0.052   0.977   1.982  0.1241  0.3168  0.2146
 5597SOL    HW228254   4.702   0.912   2.081  1.1976  1.4960  0.9236
 5598SOL     OW28255   4.203   3.873   8.926 -0.3331 -0.0923 -0.9878
 5598SOL    HW128256   4.255   3.805   8.884  0.4516  1.3296 -2.2923
 5598SOL    HW228257   4.182   3.936   8.857 -2.2449 -0.9140 -1.1477
 5599SOL     OW28258   1.184   2.248   5.534 -0.1371  0.5410 -0.0537
 5599SOL    HW128259   1.180   2.296   5.452 -1.5717  2.0213  0.8683
 5599SOL    HW228260   1.140   2.169   5.503 -1.2125  0.7289  0.9412
 5600SOL     OW28261   1.642   1.292  15.260 -0.0711  0.6235 -0.2171
 5600SOL    HW128262   1.596   1.213  15.233  1.9267 -0.4100 -0.5330
 5600SOL    HW228263   1.666   1.330  15.176 -1.8055 -2.7743 -2.2317
 5601SOL     OW28264   0.980   4.278   8.736 -0.2785 -0.0181  0.2067
 5601SOL    HW128265   0.927   4.355   8.755  0.6991  0.2184  1.9433
 5601SOL    HW228266   0.921   4.203   8.745  1.1862 -1.2438 -0.5605
 5602SOL     OW28267   2.805   1.399  15.215  0.0643 -0.4094 -0.2468
 5602SOL    HW128268   2.825   1.434  15.129 -2.7030  3.5291  0.7466
 5602SOL    HW228269   2.810   1.473  15.276  0.3048 -0.1177 -0.6191
 5603SOL     OW28270   1.775   0.961  10.765  0.4404 -0.4405  0.2145
 5603SOL    HW128271   1.785   1.051  10.797 -0.9706 -0.7726  1.5650
 5603SOL    HW228272   1.823   0.982  10.685  0.8289  0.4023  0.6647
 5604SOL     OW28273   1.775   3.521   3.059 -0.2343 -0.1622  0.9078
 5604SOL    HW128274   1.807   3.487   2.975  0.5622  0.8245  0.8065
 5604SOL    HW228275   1.779   3.443   3.115 -1.5922 -1.6965 -1.0968
 5605SOL     OW28276   0.669   1.324   3.984  0.1872 -0.3363  0.5952
 5605SOL    HW128277   0.646   1.275   4.063 -1.7251 -0.1886  0.1193
 5605SOL    HW228278   0.590   1.373   3.965  0.1653 -0.9193 -0.8466
 5606SOL     OW28279   0.585   3.843  11.536  0.2179  0.0002 -0.0126
 5606SOL    HW128280   0.526   3.882  11.601 -0.2053  0.6402 -0.7920
 5606SOL    HW228281   0.659   3.904  11.539  0.0268  0.1550  1.5943
 5607SOL     OW28282   3.553   4.424   6.405  0.3090  0.1175  0.2766
 5607SOL    HW128283   3.628   4.407   6.461  1.5815  2.8638 -0.6035
 5607SOL    HW228284   3.481   4.404   6.465  0.1683 -0.2392 -0.0133
 5608SOL     OW28285   1.875   2.947   9.346 -0.0034  0.1643 -0.0261
 5608SOL    HW128286   1.959   2.965   9.304  1.0333  0.6701  2.2123
 5608SOL    HW228287   1.875   2.852   9.333  2.3005  0.0280  0.9766
 5609SOL     OW28288   3.552   1.497   7.611  0.4752  0.2570 -0.0640
 5609SOL    HW128289   3.525   1.407   7.594 -1.5331  0.4035  2.3919
 5609SOL    HW228290   3.617   1.483   7.681 -0.1087 -3.7297 -0.3216
 5610SOL     OW28291   3.627   0.355   2.672 -0.4143 -0.5458  0.2217
 5610SOL    HW128292   3.531   0.353   2.664 -0.4793  0.2594  0.8118
 5610SOL    HW228293   3.644   0.439   2.631 -1.0849 -1.0163 -1.0298
 5611SOL     OW28294   0.666   3.438   5.572  0.0631  0.2507  0.6451
 5611SOL    HW128295   0.650   3.530   5.596  1.4751  0.5979  0.3129
 5611SOL    HW228296   0.736   3.423   5.636  0.8490 -0.3806 -0.3645
 5612SOL     OW28297   2.349   3.611   7.519 -0.4336 -0.5424  0.3654
 5612SOL    HW128298   2.419   3.566   7.566 -1.9420 -0.1550  2.9872
 5612SOL    HW228299   2.313   3.651   7.599 -0.8522 -0.4676  0.1397
 5613SOL     OW28300   2.535   3.116   2.215 -0.3492 -0.2794  0.0434
 5613SOL    HW128301   2.504   3.140   2.128 -0.8993 -1.2920 -0.0461
 5613SOL    HW228302   2.631   3.117   2.210 -0.3380 -2.1930 -0.0700
 5614SOL     OW28303   1.071   4.523   5.431  0.3365  0.7061  0.1061
 5614SOL    HW128304   1.012   4.596   5.450  1.8172  2.0362 -0.4057
 5614SOL    HW228305   1.088   4.525   5.337  1.7351 -1.1923  0.3292
 5615SOL     OW28306   0.954   1.832   0.409  0.2613 -0.1674  0.1118
 5615SOL    HW128307   1.005   1.878   0.475  0.4397  0.9500 -0.8231
 5615SOL    HW228308   0.878   1.801   0.458 -0.2132 -0.6379 -0.9155
 5616SOL     OW28309   4.366   3.672   9.864 -0.1573 -0.0631 -0.4219
 5616SOL    HW128310   4.288   3.638   9.821  1.0946 -0.1155 -2.6569
 5616SOL    HW228311   4.437   3.638   9.810  0.9217 -0.2643  1.1377
 5617SOL     OW28312   4.055   1.122   2.117 -0.3338  0.3491  0.3846
 5617SOL    HW128313   4.076   1.094   2.028 -0.9269  1.2972 -0.0465
 5617SOL    HW228314   4.096   1.059   2.178  0.3991  1.6275  1.2095
 5618SOL     OW28315   1.179   1.271  11.883 -0.5280  0.2605  0.0598
 5618SOL    HW128316   1.192   1.204  11.816  1.3938 -0.6431  1.3207
 5618SOL    HW228317   1.191   1.220  11.964  0.8715 -1.0078 -0.9333
 5619SOL     OW28318   3.059   4.692   3.356  0.3937 -0.0836 -0.0750
 5619SOL    HW128319   3.057   0.019   3.434 -1.7941 -0.2638  0.0031
 5619SOL    HW228320   3.134   0.003   3.312 -0.1070 -0.2230 -1.0544
 5620SOL     OW28321   2.702   1.048  12.855 -0.3882 -0.0218  0.3601
 5620SOL    HW128322   2.731   1.021  12.768  1.9135  1.0391  0.8014
 5620SOL    HW228323   2.662   1.134  12.844 -0.0769  0.2923  1.6187
 5621SOL     OW28324   1.930   1.282   8.061 -0.0698  0.0589  0.1342
 5621SOL    HW128325   1.866   1.263   8.130 -0.1625  1.8349  0.5582
 5621SOL    HW228326   1.901   1.242   7.979  1.2337  0.8276 -0.6878
 5622SOL     OW28327   3.398   0.797   2.602 -0.6374  0.0487 -0.3853
 5622SOL    HW128328   3.329   0.746   2.643 -0.4501  2.0450  2.4627
 5622SOL    HW228329   3.468   0.778   2.665  1.1022  3.0307 -1.3884
 5623SOL     OW28330   1.195   0.556   5.643 -0.0667  0.2281 -0.0591
 5623SOL    HW128331   1.186   0.559   5.547  2.8354 -2.1664 -0.4054
 5623SOL    HW228332   1.279   0.601   5.647 -0.3193  0.6976 -0.0557
 5624SOL     OW28333   0.338   0.241   7.570 -0.1586  0.3680  0.0239
 5624SOL    HW128334   0.330   0.146   7.576  0.5873  0.2377 -1.0997
 5624SOL    HW228335   0.409   0.251   7.507  0.1167  0.1797  0.3036
 5625SOL     OW28336   2.870   1.639  17.224  0.7417  0.2917  0.2248
 5625SOL    HW128337   2.812   1.712  17.244 -0.2355 -0.4007 -0.0559
 5625SOL    HW228338   2.812   1.562  17.219  0.3201  0.6463 -0.3040
 5626SOL     OW28339   3.958   4.706   6.254  0.5235  0.2425 -0.3397
 5626SOL    HW128340   4.019   0.025   6.196  1.3352  0.3497  0.5951
 5626SOL    HW228341   4.015   4.643   6.298 -0.0261  1.3287  1.9364
 5627SOL     OW28342   0.353   2.598   9.150 -0.1013  0.3198  0.2272
 5627SOL    HW128343   0.417   2.550   9.203 -0.6312 -2.5647 -1.8124
 5627SOL    HW228344   0.386   2.561   9.068 -2.8042 -0.5803 -0.4340
 5628SOL     OW28345   2.983   2.474   3.939  0.1525 -0.5389 -0.2905
 5628SOL    HW128346   2.912   2.493   3.878  3.0954 -0.2685 -3.5949
 5628SOL    HW228347   2.931   2.418   3.996  2.7376 -0.7638  1.8454
 5629SOL     OW28348   0.396   4.192   6.330 -0.1179  0.0058  0.1608
 5629SOL    HW128349   0.407   4.141   6.249 -2.5127  1.4564 -1.0739
 5629SOL    HW228350   0.479   4.182   6.376 -0.4571 -0.2671  0.7185
 5630SOL     OW28351   2.414   3.377  16.267  0.7150  0.5011  0.1074
 5630SOL    HW128352   2.432   3.310  16.201  2.5510  1.1895 -0.1106
 5630SOL    HW228353   2.421   3.460  16.220 -0.9583  0.6608  0.1681
 5631SOL     OW28354   0.275   1.996   2.173  0.2228 -0.1968 -0.2119
 5631SOL    HW128355   0.339   1.965   2.108  1.4348  0.2744  0.7410
 5631SOL    HW228356   0.227   2.057   2.118 -0.6021 -1.6778 -1.1390
 5632SOL     OW28357   0.899   1.408   0.857  0.3953 -0.1981  0.0471
 5632SOL    HW128358   0.989   1.414   0.890  0.0134  0.8279  0.9328
 5632SOL    HW228359   0.922   1.421   0.765 -0.7625 -2.3792 -0.5310
 5633SOL     OW28360   0.568   0.161   9.892 -0.1425  0.9156  0.4455
 5633SOL    HW128361   0.522   0.112   9.960 -2.1519  2.1770 -0.0021
 5633SOL    HW228362   0.497   0.189   9.835  2.4500 -1.1627 -3.7808
 5634SOL     OW28363   3.820   0.909   6.131 -0.4294 -0.2920 -0.4282
 5634SOL    HW128364   3.863   0.981   6.177 -2.5326  1.1266 -0.7288
 5634SOL    HW228365   3.864   0.906   6.046  0.6459  0.0282  0.1157
 5635SOL     OW28366   0.553   2.029  16.671  0.2460 -0.1484  0.0013
 5635SOL    HW128367   0.642   1.996  16.662  0.0027 -0.1296 -2.6587
 5635SOL    HW228368   0.538   2.033  16.765 -1.5361  0.2422 -0.2887
 5636SOL     OW28369   2.271   3.962  16.701 -0.4685  0.1575  0.5372
 5636SOL    HW128370   2.291   3.968  16.607 -1.2434  1.3865  0.4627
 5636SOL    HW228371   2.268   4.054  16.724  0.7176  0.3478 -0.0328
 5637SOL     OW28372   3.113   3.132   8.836 -0.0954  0.3899 -0.2745
 5637SOL    HW128373   3.098   3.116   8.929 -2.2954 -0.9521 -0.8794
 5637SOL    HW228374   3.106   3.042   8.805 -2.3077  0.7381 -0.7596
 5638SOL     OW28375   1.575   0.986   5.699  0.3214 -0.1735 -0.4591
 5638SOL    HW128376   1.504   1.019   5.754  1.2493 -1.3139  1.4243
 5638SOL    HW228377   1.565   0.892   5.711 -0.6337  0.1229  1.0629
 5639SOL     OW28378   1.412   2.998   4.537  0.5348  0.9109 -0.0250
 5639SOL    HW128379   1.463   2.934   4.586 -1.8304  0.1208  1.3835
 5639SOL    HW228380   1.488   3.043   4.500  0.4349  0.8675 -0.2899
 5640SOL     OW28381   3.946   2.173  13.261 -0.0602 -0.1065  0.2768
 5640SOL    HW128382   3.955   2.157  13.167 -1.0357 -0.5043  0.2486
 5640SOL    HW228383   4.006   2.104  13.287 -0.2022  0.3194  1.7008
 5641SOL     OW28384   4.714   2.271  11.654 -0.4065  0.4024 -0.3984
 5641SOL    HW128385   4.687   2.289  11.744 -0.8427 -0.0833 -0.4341
 5641SOL    HW228386   0.037   2.350  11.635  0.1319  0.7362  2.3385
 5642SOL     OW28387   3.454   2.893   3.421 -0.3530  0.0890 -0.0659
 5642SOL    HW128388   3.507   2.968   3.392 -1.8113  0.3279 -2.1047
 5642SOL    HW228389   3.416   2.861   3.340  1.0922 -0.4976 -0.4936
 5643SOL     OW28390   3.268   1.169  14.051 -0.2661 -0.1368 -0.1740
 5643SOL    HW128391   3.242   1.261  14.043 -0.4491 -0.2041 -0.3618
 5643SOL    HW228392   3.230   1.165  14.139 -1.2123 -2.9076 -0.6954
 5644SOL     OW28393   3.789   3.106   6.373  0.3638 -0.3806 -0.2626
 5644SOL    HW128394   3.747   3.024   6.349 -2.1341  0.8345 -0.0741
 5644SOL    HW228395   3.768   3.119   6.465  0.8837  0.6824 -0.2924
 5645SOL     OW28396   1.873   0.590   2.806  0.6081 -0.9877 -0.3220
 5645SOL    HW128397   1.838   0.509   2.767  0.3208 -0.8169 -0.4256
 5645SOL    HW228398   1.873   0.569   2.899  0.2484  0.2636 -0.0427
 5646SOL     OW28399   2.085   4.181   3.322  0.5365  0.5814  0.4273
 5646SOL    HW128400   2.066   4.223   3.239 -0.2786  1.8776  1.2715
 5646SOL    HW228401   2.118   4.261   3.364 -0.1975  1.2625 -0.3097
 5647SOL     OW28402   2.028   3.396   7.965  0.0019 -0.1782  0.2145
 5647SOL    HW128403   1.970   3.352   8.026  0.7427 -0.8374  0.4477
 5647SOL    HW228404   1.965   3.461   7.935  1.4386  1.4051  0.6047
 5648SOL     OW28405   4.264   3.956   2.436 -0.8655 -0.6595  0.0051
 5648SOL    HW128406   4.182   3.950   2.387 -2.6993 -2.4826  3.2490
 5648SOL    HW228407   4.304   3.871   2.416 -0.4735 -0.0208 -1.8306
 5649SOL     OW28408   1.447   0.473   3.226  0.4040  0.1841 -0.2352
 5649SOL    HW128409   1.524   0.429   3.263 -0.5824 -0.1855  1.4083
 5649SOL    HW228410   1.419   0.407   3.163  1.3834  0.0728 -0.5577
 5650SOL     OW28411   4.235   3.935   0.350 -0.3759  0.2448  0.2993
 5650SOL    HW128412   4.295   3.956   0.278  1.0283 -1.6315  0.9179
 5650SOL    HW228413   4.156   3.899   0.311  0.1754  1.4534 -1.9792
 5651SOL     OW28414   2.876   4.544   1.938 -0.0159 -0.1491  0.1174
 5651SOL    HW128415   2.791   4.582   1.916  0.5546  1.1600  0.1665
 5651SOL    HW228416   2.930   4.621   1.919  1.1457 -1.4737 -2.0006
 5652SOL     OW28417   1.226   3.598   5.877  0.8065  0.2385 -0.3743
 5652SOL    HW128418   1.164   3.610   5.948  0.6504 -2.4589 -0.0386
 5652SOL    HW228419   1.185   3.653   5.811  1.0877  1.8954  0.8371
 5653SOL     OW28420   3.598   1.502  12.677 -0.6444 -0.1514  0.4458
 5653SOL    HW128421   3.598   1.577  12.618  0.6101  0.4553  1.1977
 5653SOL    HW228422   3.567   1.550  12.753  0.1035  1.0811 -0.0320
 5654SOL     OW28423   3.016   4.357   7.958  0.0787  0.2082 -0.2235
 5654SOL    HW128424   3.082   4.391   8.019  1.0871 -1.0763 -0.5930
 5654SOL    HW228425   3.010   4.268   7.992  0.8625 -0.1401 -0.9969
 5655SOL     OW28426   0.454   1.736   2.439  0.0348 -0.2716 -0.1345
 5655SOL    HW128427   0.544   1.721   2.409  0.3660 -0.7484  1.1038
 5655SOL    HW228428   0.443   1.648   2.475  0.0895 -0.4725 -0.6008
 5656SOL     OW28429   1.228   4.598  15.967 -0.1913 -0.4480  0.2645
 5656SOL    HW128430   1.305   4.557  15.927  1.4249  1.0280  1.8739
 5656SOL    HW228431   1.261   4.676  16.011  0.2489 -0.6649  0.3197
 5657SOL     OW28432   1.467   3.577  12.122  0.1990  0.1150 -0.0770
 5657SOL    HW128433   1.484   3.613  12.036  0.0662  2.2492  0.7842
 5657SOL    HW228434   1.469   3.661  12.168  0.0296 -0.0412  0.2248
 5658SOL     OW28435   2.316   4.064   2.124 -0.1176 -0.3236 -0.4221
 5658SOL    HW128436   2.398   4.109   2.109  1.9068 -2.7338  3.2339
 5658SOL    HW228437   2.255   4.136   2.109 -1.2664 -1.1850  0.0480
 5659SOL     OW28438   4.171   4.086   5.022 -0.0496  0.1495  0.6061
 5659SOL    HW128439   4.112   4.062   5.094 -2.1236 -0.3866 -1.2865
 5659SOL    HW228440   4.111   4.117   4.954  2.0017 -0.9614 -1.6982
 5660SOL     OW28441   4.377   3.857   3.935 -0.0372 -0.3158 -0.4260
 5660SOL    HW128442   4.354   3.949   3.944 -1.0040 -0.3636 -2.5353
 5660SOL    HW228443   4.334   3.817   4.011  1.6364  1.5701  1.4934
 5661SOL     OW28444   3.900   3.607   2.332  0.0688  0.0851 -0.5562
 5661SOL    HW128445   3.820   3.648   2.365  0.7754 -0.3321  1.7003
 5661SOL    HW228446   3.952   3.591   2.411 -0.1188 -0.5035 -0.5546
 5662SOL     OW28447   3.572   3.719   5.775  0.1375 -0.1517 -0.3653
 5662SOL    HW128448   3.515   3.642   5.770 -1.6056  1.0793  0.4805
 5662SOL    HW228449   3.538   3.773   5.846  0.9123 -1.0407  0.6926
 5663SOL     OW28450   3.334   3.219   7.667 -0.0566 -0.0010  0.6118
 5663SOL    HW128451   3.405   3.255   7.721  1.3800  0.7695 -1.8187
 5663SOL    HW228452   3.282   3.178   7.736  1.5612 -2.6932  0.1792
 5664SOL     OW28453   1.799   0.840   6.321 -0.0111 -0.0235  0.4769
 5664SOL    HW128454   1.890   0.813   6.330 -0.2619 -0.7159  0.8802
 5664SOL    HW228455   1.795   0.901   6.394  1.4893  0.4814  0.1358
 5665SOL     OW28456   1.096   2.500  11.396  0.6217  0.4219 -0.2044
 5665SOL    HW128457   1.080   2.587  11.360 -1.2466  0.2059  0.1014
 5665SOL    HW228458   1.093   2.514  11.491  2.1787  0.3441 -0.1420
 5666SOL     OW28459   3.487   3.060   8.430 -0.3332 -0.0057 -0.0579
 5666SOL    HW128460   3.510   3.064   8.523 -0.9441 -1.8417  0.1568
 5666SOL    HW228461   3.489   3.152   8.401  0.0371  0.8837  2.7960
 5667SOL     OW28462   2.070   0.281   9.235 -0.4961  0.1399  0.3734
 5667SOL    HW128463   2.141   0.217   9.243 -0.5983 -0.4505 -3.5605
 5667SOL    HW228464   2.094   0.356   9.289  2.1975 -0.1144 -0.4789
 5668SOL     OW28465   0.073   0.180   9.115 -0.3987 -0.1596  0.1726
 5668SOL    HW128466   0.103   0.124   9.044 -0.4049 -1.1820  0.9821
 5668SOL    HW228467   4.709   0.155   9.126 -0.5516 -0.0990 -0.9728
 5669SOL     OW28468   1.990   0.820   4.438 -0.2164  0.4135 -0.2823
 5669SOL    HW128469   2.048   0.746   4.420  1.8690  2.4954 -2.2217
 5669SOL    HW228470   2.032   0.884   4.380 -1.3082 -0.4203 -2.0077
 5670SOL     OW28471   4.127   4.287  15.146  0.1458  0.1480  0.0667
 5670SOL    HW128472   4.202   4.296  15.204 -0.7279  2.5161  0.8531
 5670SOL    HW228473   4.119   4.373  15.104  0.1269 -0.4397 -1.1354
 5671SOL     OW28474   2.217   0.917   5.659  0.0414  0.2579  0.3255
 5671SOL    HW128475   2.251   0.924   5.570  1.8516 -1.5487  0.8851
 5671SOL    HW228476   2.160   0.841   5.655  1.4514 -0.7264 -1.3382
 5672SOL     OW28477   0.650   2.513   5.030  0.8312 -0.2042  0.3005
 5672SOL    HW128478   0.591   2.500   4.956 -1.3192 -1.5431  2.2681
 5672SOL    HW228479   0.584   2.534   5.096  1.5755 -0.7073  1.2129
 5673SOL     OW28480   3.620   0.092   1.686  0.1467  0.0631  0.5943
 5673SOL    HW128481   3.594   0.013   1.638  0.2556 -1.0197  2.3037
 5673SOL    HW228482   3.531   0.127   1.682  0.2444  0.4435  1.7167
 5674SOL     OW28483   3.234   0.315  14.990  0.3594 -0.3610 -0.1272
 5674SOL    HW128484   3.211   0.228  15.024  2.6851 -1.2130 -0.6894
 5674SOL    HW228485   3.323   0.301  14.957 -0.2776 -0.9447 -1.5965
 5675SOL     OW28486   1.496   2.526   6.028  0.1987 -0.1082  0.3072
 5675SOL    HW128487   1.557   2.600   6.028 -2.1260  1.8123 -0.2569
 5675SOL    HW228488   1.439   2.549   6.101 -0.9618 -0.3225 -0.5426
 5676SOL     OW28489   0.231   4.302   5.143  0.3204  0.4947 -0.0236
 5676SOL    HW128490   0.142   4.334   5.158 -0.7631 -1.6841 -1.8098
 5676SOL    HW228491   0.229   4.300   5.048  2.0985 -0.6534 -0.0313
 5677SOL     OW28492   0.893   3.573   9.762  0.0664 -0.3139 -0.4503
 5677SOL    HW128493   0.884   3.651   9.817  1.4513  0.2230 -1.0124
 5677SOL    HW228494   0.961   3.612   9.708 -0.4946  3.3585  1.4593
 5678SOL     OW28495   1.581   0.193   6.848  0.4256  0.2232 -0.0406
 5678SOL    HW128496   1.590   0.100   6.827  0.4742  0.6624 -1.9899
 5678SOL    HW228497   1.553   0.221   6.761  1.9913 -1.6056 -1.1427
 5679SOL     OW28498   1.734   1.764   9.287  0.1810  0.0951  0.2221
 5679SOL    HW128499   1.641   1.777   9.268  0.5909  0.5471 -1.4457
 5679SOL    HW228500   1.764   1.844   9.242 -2.1589  0.7841 -0.0856
 5680SOL     OW28501   1.634   4.472   8.765  0.4984 -0.0896 -0.7387
 5680SOL    HW128502   1.587   4.522   8.832  1.3099  1.7839 -1.5440
 5680SOL    HW228503   1.598   4.384   8.767  0.8377 -0.1859  1.2821
 5681SOL     OW28504   1.732   0.669   5.200 -0.2401 -0.6744 -0.1960
 5681SOL    HW128505   1.737   0.610   5.125 -1.2347  0.7153 -1.3352
 5681SOL    HW228506   1.770   0.614   5.269  1.2502  1.6283  0.8168
 5682SOL     OW28507   3.597   1.664   8.489  0.5670 -0.1820  0.2370
 5682SOL    HW128508   3.551   1.725   8.547  1.7765  2.0322 -1.1126
 5682SOL    HW228509   3.626   1.595   8.549  0.1927  2.5448  3.5643
 5683SOL     OW28510   1.224   3.976   6.908 -0.2927  0.6488 -0.1321
 5683SOL    HW128511   1.291   4.019   6.961 -1.1286 -1.1317  2.3473
 5683SOL    HW228512   1.242   3.981   6.814 -1.9632  1.2690 -0.4130
 5684SOL     OW28513   3.921   0.869  15.750  0.1042 -0.3669  0.4669
 5684SOL    HW128514   4.005   0.839  15.715  0.2003 -1.2396  1.4624
 5684SOL    HW228515   3.878   0.912  15.676 -2.1078 -4.7295 -0.8051
 5685SOL     OW28516   1.143   3.087   6.744  0.5602 -0.2113 -0.2770
 5685SOL    HW128517   1.170   3.123   6.828 -2.0228  1.5939 -0.2287
 5685SOL    HW228518   1.201   3.012   6.753  0.3130 -0.3155  0.4140
 5686SOL     OW28519   2.762   0.775   2.054 -0.2723  0.6150  0.0526
 5686SOL    HW128520   2.673   0.785   2.087 -0.4871  0.0882 -0.3887
 5686SOL    HW228521   2.790   0.866   2.067  1.8422  0.0119 -0.2166
 5687SOL     OW28522   0.410   1.923   4.771  0.7874  0.3235  0.0263
 5687SOL    HW128523   0.347   1.873   4.822  0.6697 -0.8102 -1.2173
 5687SOL    HW228524   0.362   2.006   4.760  0.5422  0.3030  0.9846
 5688SOL     OW28525   2.020   0.355  15.923 -0.2156  0.3768 -0.0280
 5688SOL    HW128526   1.992   0.438  15.884 -0.8696  0.4564  0.6074
 5688SOL    HW228527   1.938   0.317  15.956  0.9238 -0.0911  2.2840
 5689SOL     OW28528   0.139   0.630   6.731  0.3669  0.0817 -0.2547
 5689SOL    HW128529   0.154   0.540   6.759 -0.0700  0.3856  0.9816
 5689SOL    HW228530   0.208   0.658   6.672 -0.8737  0.0597 -1.7352
 5690SOL     OW28531   2.247   0.630   1.157 -0.1904  0.1217 -0.6865
 5690SOL    HW128532   2.254   0.562   1.224  1.4587  1.0820  0.1174
 5690SOL    HW228533   2.156   0.660   1.159 -0.1736  0.2242 -1.2928
 5691SOL     OW28534   4.243   2.232   0.120 -0.2145  0.2966 -0.8250
 5691SOL    HW128535   4.221   2.315   0.163  1.9271  0.2224  0.3921
 5691SOL    HW228536   4.229   2.172   0.193 -1.0555 -0.9995 -2.0582
 5692SOL     OW28537   1.688   2.881   8.643 -0.2484 -0.1894  0.5206
 5692SOL    HW128538   1.712   2.956   8.697 -0.4789 -0.2737  0.7434
 5692SOL    HW228539   1.606   2.856   8.687  0.4370 -2.7891  0.3234
 5693SOL     OW28540   1.929   4.403   4.663 -0.6198  0.4371  0.0710
 5693SOL    HW128541   2.023   4.414   4.648 -0.3301  0.2836  1.7231
 5693SOL    HW228542   1.912   4.315   4.631 -1.1973  0.6522 -0.2154
 5694SOL     OW28543   2.363   3.106   9.524  0.0123 -0.5152  0.7350
 5694SOL    HW128544   2.428   3.056   9.573 -1.0632 -2.4237  0.2227
 5694SOL    HW228545   2.369   3.056   9.442  0.9258 -1.8532  1.6087
 5695SOL     OW28546   0.120   0.943  16.099 -0.6781  0.1270  0.0812
 5695SOL    HW128547   0.054   0.874  16.107 -3.6500  3.1011  1.2198
 5695SOL    HW228548   0.206   0.901  16.100  0.8229  3.1589 -2.2222
 5696SOL     OW28549   3.169   1.821  10.085 -0.3725 -0.0474 -0.3152
 5696SOL    HW128550   3.141   1.895  10.032  0.0037  0.1770 -0.1997
 5696SOL    HW228551   3.152   1.844  10.177  3.1759 -0.7358  0.5073
 5697SOL     OW28552   3.199   0.850  12.026  0.2048  0.1387 -0.2268
 5697SOL    HW128553   3.221   0.926  11.972  0.5305 -0.1522 -0.5063
 5697SOL    HW228554   3.180   0.782  11.961 -3.1056  0.0774  0.7948
 5698SOL     OW28555   1.924   4.667  15.808 -0.3614  0.2530 -0.1704
 5698SOL    HW128556   1.928   4.623  15.893  0.0898 -0.1154 -0.3815
 5698SOL    HW228557   1.831   4.684  15.795 -0.6768  1.0264  3.0511
 5699SOL     OW28558   1.605   2.607   1.549 -0.2766  0.2748 -0.0405
 5699SOL    HW128559   1.516   2.634   1.574 -0.7748 -0.0854 -1.4506
 5699SOL    HW228560   1.636   2.675   1.490  1.8469  0.1648  0.9525
 5700SOL     OW28561   4.427   2.647   4.287 -0.8384  0.1380 -0.8079
 5700SOL    HW128562   4.333   2.665   4.296 -1.1022 -0.3917 -2.4771
 5700SOL    HW228563   4.465   2.658   4.374  0.4593  1.0624 -1.4837
 5701SOL     OW28564   2.737   4.290  15.655 -0.1801  0.7911 -0.2953
 5701SOL    HW128565   2.780   4.248  15.581 -2.0671 -0.0560 -0.9034
 5701SOL    HW228566   2.674   4.226  15.689 -0.3279  2.6535  2.9954
 5702SOL     OW28567   1.858   3.591   8.464 -0.4688  0.8039  0.9609
 5702SOL    HW128568   1.774   3.545   8.464  0.3239 -0.6208  0.3205
 5702SOL    HW228569   1.922   3.522   8.445 -0.2493  1.3829 -0.3888
 5703SOL     OW28570   3.526   3.160  11.345  0.4713 -0.1252  0.2139
 5703SOL    HW128571   3.442   3.150  11.302  0.5247 -2.0202  0.5578
 5703SOL    HW228572   3.591   3.161  11.275 -1.9596  1.0704 -2.0236
 5704SOL     OW28573   3.677   2.965   5.418 -0.1600 -0.0217 -0.7445
 5704SOL    HW128574   3.698   3.043   5.367  0.0556  0.8971  0.7800
 5704SOL    HW228575   3.751   2.905   5.406 -1.3273 -1.5734 -0.0755
 5705SOL     OW28576   0.926   2.175   2.380 -0.2984 -0.0986  0.3059
 5705SOL    HW128577   1.006   2.200   2.334 -0.8561 -1.8404 -1.6120
 5705SOL    HW228578   0.938   2.213   2.467  1.8766 -3.5167  1.4896
 5706SOL     OW28579   2.039   4.167  12.933 -0.5211 -0.6971  0.2484
 5706SOL    HW128580   2.125   4.190  12.968 -0.5900 -0.1807  0.0810
 5706SOL    HW228581   2.027   4.080  12.971  1.9454 -0.7782  0.8214
 5707SOL     OW28582   1.470   0.273  13.482  0.3916 -0.4875 -0.0531
 5707SOL    HW128583   1.499   0.200  13.428  0.8070 -0.4607  0.1376
 5707SOL    HW228584   1.533   0.277  13.553 -0.7527 -2.7438  1.0704
 5708SOL     OW28585   3.935   1.436   1.554 -0.0914  0.1525  0.3133
 5708SOL    HW128586   3.973   1.379   1.621  0.6408  1.9336  1.4117
 5708SOL    HW228587   3.981   1.401   1.478  1.0109  0.3548  0.8909
 5709SOL     OW28588   0.256   0.751   1.247 -0.5803 -0.4443 -0.0397
 5709SOL    HW128589   0.349   0.770   1.237 -0.9432  1.1751 -0.2401
 5709SOL    HW228590   0.254   0.722   1.339 -0.0938  0.8625  0.3805
 5710SOL     OW28591   0.218   0.879  16.357  0.6250  0.4171 -0.9078
 5710SOL    HW128592   0.152   0.948  16.350  0.4809  0.5021  1.4269
 5710SOL    HW228593   0.287   0.915  16.302  0.7678 -0.1751 -1.1203
 5711SOL     OW28594   2.581   1.004   6.676  0.3040 -0.2056  0.2348
 5711SOL    HW128595   2.498   1.050   6.682  0.3972  0.0926 -0.7408
 5711SOL    HW228596   2.623   1.070   6.731  0.5605 -1.5404  1.6459
 5712SOL     OW28597   4.078   1.355   1.317 -0.1767  0.2524  0.5385
 5712SOL    HW128598   4.113   1.441   1.291 -0.2453  0.6052  1.5869
 5712SOL    HW228599   4.015   1.334   1.248  0.8634 -0.4892 -0.1750
 5713SOL     OW28600   0.541   4.683   2.416 -0.5765  0.7209 -0.3020
 5713SOL    HW128601   0.570   0.005   2.339 -4.5254 -0.5363 -2.6052
 5713SOL    HW228602   0.463   4.639   2.382 -0.0600  0.9131 -1.7157
 5714SOL     OW28603   0.633   2.079   2.385  0.3360 -0.5276 -0.4265
 5714SOL    HW128604   0.589   2.163   2.401  2.8838  0.9377 -0.9536
 5714SOL    HW228605   0.718   2.093   2.427 -0.7464  1.8268  0.9727
 5715SOL     OW28606   2.264   1.512   0.043  0.0636 -0.0565  0.3180
 5715SOL    HW128607   2.291   1.604   0.048 -0.8232  0.2062  0.2450
 5715SOL    HW228608   2.246   1.489   0.134 -0.5524  2.5582  0.8620
 5716SOL     OW28609   4.145   2.431   5.705  0.4625 -0.1081  0.3217
 5716SOL    HW128610   4.122   2.348   5.747 -2.0326  2.0970  3.3593
 5716SOL    HW228611   4.192   2.479   5.773  0.0082 -0.4536  0.8898
 5717SOL     OW28612   4.289   1.790  12.429 -0.1578  0.1573  0.0663
 5717SOL    HW128613   4.355   1.772  12.362  1.7371  1.6215  1.5590
 5717SOL    HW228614   4.218   1.799  12.365  0.9378 -1.7426 -1.4421
 5718SOL     OW28615   1.002   1.291   4.277 -0.5820  0.0257  0.1840
 5718SOL    HW128616   1.036   1.246   4.200 -2.9405 -1.6065  0.0950
 5718SOL    HW228617   1.078   1.290   4.335  0.6367  0.1229 -1.4195
 5719SOL     OW28618   1.005   2.972   6.135  0.6297  0.0882 -0.4667
 5719SOL    HW128619   1.062   2.957   6.060 -0.4075  2.7209 -1.7588
 5719SOL    HW228620   1.046   3.046   6.178 -2.3476  1.9424 -0.8386
 5720SOL     OW28621   3.994   1.828   4.892  0.2550 -0.0041 -0.0143
 5720SOL    HW128622   3.940   1.823   4.971  1.4316 -0.7104  0.7465
 5720SOL    HW228623   4.050   1.903   4.914  2.9035 -1.9626 -0.1283
 5721SOL     OW28624   3.182   0.689   2.743  0.2361  0.3275  0.0647
 5721SOL    HW128625   3.149   0.778   2.755  1.3362  0.5986  1.0782
 5721SOL    HW228626   3.118   0.664   2.676  1.0039 -1.0111 -0.1718
 5722SOL     OW28627   4.661   4.417  12.365  0.5705 -0.3395  0.7530
 5722SOL    HW128628   4.699   4.504  12.373  1.4160 -0.8064  1.7693
 5722SOL    HW228629   4.672   4.386  12.455  0.6460  0.6145  1.0691
 5723SOL     OW28630   3.402   0.792   8.647 -0.5018  0.2784  0.5238
 5723SOL    HW128631   3.427   0.701   8.634 -0.2299  0.3123  0.8098
 5723SOL    HW228632   3.450   0.844   8.582 -0.5303  1.3201  1.3290
 5724SOL     OW28633   2.397   4.696   1.889 -0.0347  0.0076 -0.0731
 5724SOL    HW128634   2.342   0.016   1.952  1.2700 -2.2668  2.7551
 5724SOL    HW228635   2.332   4.640   1.846 -0.1911 -0.6226  1.0016
 5725SOL     OW28636   1.428   2.274   4.784 -0.0478  0.1354  0.8481
 5725SOL    HW128637   1.505   2.243   4.735  0.0415  0.7740  0.5839
 5725SOL    HW228638   1.440   2.266   4.878 -0.6452  0.9029  0.9863
 5726SOL     OW28639   1.288   0.563   2.236 -0.1796 -0.1833 -0.0110
 5726SOL    HW128640   1.295   0.608   2.320 -1.0106  1.1562 -0.6619
 5726SOL    HW228641   1.336   0.626   2.182 -1.5131 -1.1912 -2.3420
 5727SOL     OW28642   1.368   3.031   8.470 -0.1399 -0.0838  0.7062
 5727SOL    HW128643   1.357   2.937   8.462  0.5713 -0.1369  0.2990
 5727SOL    HW228644   1.308   3.047   8.397  0.5991 -0.0865  0.0921
 5728SOL     OW28645   2.419   3.396   3.494 -0.3510 -0.2235  0.0550
 5728SOL    HW128646   2.339   3.385   3.545  0.1533  0.1490  0.9314
 5728SOL    HW228647   2.475   3.374   3.568 -2.1769  0.2862  1.5890
 5729SOL     OW28648   3.687   4.524   0.579 -0.0894  0.5469 -0.6365
 5729SOL    HW128649   3.656   4.529   0.489 -0.3760  0.7912 -0.5244
 5729SOL    HW228650   3.714   4.615   0.590  0.9042  0.1139  0.5467
 5730SOL     OW28651   3.651   2.456   7.327 -0.2618 -0.4962  0.3776
 5730SOL    HW128652   3.735   2.443   7.284  0.1275  0.9533  0.7076
 5730SOL    HW228653   3.593   2.429   7.255  0.4544  0.4930 -0.5649
 5731SOL     OW28654   2.355   1.238  12.294 -0.3734  0.2542 -0.1407
 5731SOL    HW128655   2.435   1.189  12.313 -0.4137  0.3348  0.2407
 5731SOL    HW228656   2.290   1.175  12.324 -0.2917  0.6938  0.9645
 5732SOL     OW28657   1.754   2.960  13.912  0.0893  0.0352 -0.4436
 5732SOL    HW128658   1.822   2.909  13.955  0.0532 -1.9861 -2.7888
 5732SOL    HW228659   1.746   2.926  13.823  0.2082  0.2600 -0.5399
 5733SOL     OW28660   2.424   3.834   3.238  0.2680  0.5160  0.4909
 5733SOL    HW128661   2.373   3.753   3.233  0.3229  0.5884 -1.1540
 5733SOL    HW228662   2.509   3.798   3.263 -0.1791 -0.8426  0.0501
 5734SOL     OW28663   2.064   0.972   9.055  0.5293  0.5670 -0.2424
 5734SOL    HW128664   2.108   1.056   9.070  1.8025 -0.4903  1.8847
 5734SOL    HW228665   2.064   0.927   9.139  0.0057  1.0957  0.0396
 5735SOL     OW28666   3.276   0.004   8.169  0.0332  0.2526  0.2483
 5735SOL    HW128667   3.296   0.072   8.234  0.1541  0.6747 -0.2287
 5735SOL    HW228668   3.221   0.049   8.105  2.9791  0.9606 -1.8403
 5736SOL     OW28669   3.696   4.410   3.832  0.5702  0.4064  0.4412
 5736SOL    HW128670   3.605   4.396   3.806  1.2656 -1.9231 -0.7508
 5736SOL    HW228671   3.746   4.348   3.779 -0.0573  1.1212 -0.9622
 5737SOL     OW28672   1.034   2.265   3.670 -0.1097 -0.1792  0.0077
 5737SOL    HW128673   1.022   2.174   3.698  0.8490 -0.4439 -0.4468
 5737SOL    HW228674   0.975   2.271   3.595 -0.6302 -0.3502  0.4042
 5738SOL     OW28675   1.894   1.476   8.699  0.4968 -0.5172  0.1385
 5738SOL    HW128676   1.986   1.498   8.710  0.1409  0.3370  1.4561
 5738SOL    HW228677   1.865   1.418   8.770 -0.3776 -0.0404  0.1815
 5739SOL     OW28678   3.465   3.882   2.551 -0.1013  0.3242  0.3531
 5739SOL    HW128679   3.385   3.910   2.593 -0.2730  0.2357  0.0866
 5739SOL    HW228680   3.540   3.914   2.601 -0.1358 -1.3632  1.4805
 5740SOL     OW28681   2.335   2.475   5.406  0.3602 -0.3090  0.3557
 5740SOL    HW128682   2.396   2.469   5.480  0.3397 -1.4783  0.2688
 5740SOL    HW228683   2.381   2.529   5.341  0.7398  1.0384  1.7486
 5741SOL     OW28684   2.845   3.950   4.424  0.5006  0.5643  0.1787
 5741SOL    HW128685   2.923   3.995   4.390 -1.3852  1.2465 -3.2053
 5741SOL    HW228686   2.891   3.874   4.460  0.4571  0.0719 -0.7916
 5742SOL     OW28687   0.337   2.492  12.564  0.4491 -0.4058  0.7515
 5742SOL    HW128688   0.248   2.512  12.593  0.5861 -0.9070  1.5072
 5742SOL    HW228689   0.375   2.425  12.622 -3.1978 -0.2401  3.3100
 5743SOL     OW28690   3.687   1.877   2.284  0.7129 -0.3439 -0.2665
 5743SOL    HW128691   3.759   1.940   2.288 -1.0619  1.7780 -1.6483
 5743SOL    HW228692   3.726   1.789   2.281 -2.9998 -1.9283 -2.6095
 5744SOL     OW28693   4.660   0.930   2.929  0.0036 -0.1336 -0.3255
 5744SOL    HW128694   0.013   0.939   2.879 -0.1272  2.6695 -0.0272
 5744SOL    HW228695   4.616   0.996   2.875  0.0011 -2.1021 -2.7189
 5745SOL     OW28696   2.674   2.416   7.158  0.1853 -0.0604  0.0328
 5745SOL    HW128697   2.719   2.440   7.239 -2.3920  1.4064  1.0648
 5745SOL    HW228698   2.744   2.367   7.116  1.9063  1.0427  1.6039
 5746SOL     OW28699   3.703   3.395   2.619 -0.3863  0.4479 -0.1485
 5746SOL    HW128700   3.716   3.309   2.658  1.0561  0.6576 -0.1852
 5746SOL    HW228701   3.769   3.408   2.551 -0.2217 -1.1730 -0.2779
 5747SOL     OW28702   0.613   0.853   5.469  0.1011 -0.2398 -0.3523
 5747SOL    HW128703   0.619   0.764   5.434 -1.8420 -0.6725  0.4185
 5747SOL    HW228704   0.594   0.823   5.558 -2.6349 -0.3007 -0.9745
 5748SOL     OW28705   0.251   2.582   0.039  0.7392  0.0825 -0.0089
 5748SOL    HW128706   0.171   2.622   0.073  1.0792 -0.0627  0.9408
 5748SOL    HW228707   0.235   2.489   0.026 -3.6018  0.8756 -0.2415
 5749SOL     OW28708   4.469   1.234   8.942  0.0906  0.4894 -0.0348
 5749SOL    HW128709   4.545   1.193   8.900 -0.4144 -0.2014 -0.2778
 5749SOL    HW228710   4.515   1.288   9.006 -0.7599  1.5843 -0.3626
 5750SOL     OW28711   2.362   1.919   7.553  0.2405 -0.7346 -0.1705
 5750SOL    HW128712   2.451   1.931   7.585  0.8797 -1.8052 -1.5453
 5750SOL    HW228713   2.314   1.900   7.634  0.7894  0.2887  0.3827
 5751SOL     OW28714   2.723   4.518   3.345 -0.4041  0.3941 -0.1183
 5751SOL    HW128715   2.689   4.600   3.381 -1.8668  0.6802 -2.1628
 5751SOL    HW228716   2.685   4.454   3.406 -0.8214  1.4919  0.7846
 5752SOL     OW28717   4.242   0.547   9.909  0.3041  0.0026 -0.2642
 5752SOL    HW128718   4.283   0.633   9.903 -0.4229  0.4662  1.3932
 5752SOL    HW228719   4.195   0.543   9.825 -1.4382 -0.3925  0.7224
 5753SOL     OW28720   4.177   1.313   0.280  0.3501 -0.1600  0.2608
 5753SOL    HW128721   4.146   1.390   0.233  0.1338  0.4737  1.4336
 5753SOL    HW228722   4.092   1.274   0.301 -0.2223  0.8323 -0.2276
 5754SOL     OW28723   4.396   3.497  10.839 -0.1062  0.2133  0.2807
 5754SOL    HW128724   4.365   3.544  10.762 -1.1371 -0.1083  0.4983
 5754SOL    HW228725   4.491   3.506  10.831 -0.0706  0.3557  0.8674
 5755SOL     OW28726   3.747   2.988   1.009  0.0067  0.2043  0.3601
 5755SOL    HW128727   3.662   3.004   0.967  0.3841 -4.2455 -2.0412
 5755SOL    HW228728   3.804   3.047   0.960  0.7313 -1.8045 -1.1858
 5756SOL     OW28729   2.399   0.433   5.863 -0.2693 -0.7782  0.1848
 5756SOL    HW128730   2.316   0.475   5.883 -1.1309 -1.0989 -2.6333
 5756SOL    HW228731   2.455   0.510   5.854  0.0163 -0.8125  1.8032
 5757SOL     OW28732   3.744   1.630  14.952  0.4017 -0.2091 -0.0360
 5757SOL    HW128733   3.826   1.587  14.929 -0.0119 -1.6781  1.2021
 5757SOL    HW228734   3.765   1.715  14.912  1.1460  0.2521  1.3075
 5758SOL     OW28735   0.778   4.046   1.466  0.1035 -0.1396  0.6361
 5758SOL    HW128736   0.761   4.060   1.373  0.0482  0.2669  0.7063
 5758SOL    HW228737   0.755   3.954   1.475 -1.4564 -0.0119 -1.8508
 5759SOL     OW28738   1.420   4.414   3.784  0.2930  0.2603 -0.2199
 5759SOL    HW128739   1.484   4.456   3.842 -0.1446  0.2611  0.2717
 5759SOL    HW228740   1.378   4.495   3.755 -2.0855 -0.7679  0.3140
 5760SOL     OW28741   3.883   3.965  17.552  0.1035  0.3421  1.1212
 5760SOL    HW128742   3.889   4.013  17.469 -1.0067 -0.7516  0.4251
 5760SOL    HW228743   3.922   3.882  17.526 -1.5970 -0.4543  1.1384
 5761SOL     OW28744   3.671   4.231  14.249  0.0976 -0.1822 -0.1016
 5761SOL    HW128745   3.623   4.149  14.248  0.2622 -0.2871  0.8404
 5761SOL    HW228746   3.753   4.185  14.233  0.6959  0.6474  0.5546
 5762SOL     OW28747   2.535   1.477  10.120  0.2337  0.3161 -0.9034
 5762SOL    HW128748   2.550   1.467  10.026 -1.2121  0.3410 -1.1439
 5762SOL    HW228749   2.567   1.391  10.149  2.4200  1.0782 -1.0912
 5763SOL     OW28750   3.748   3.951   3.025  0.1690  0.4861  0.1662
 5763SOL    HW128751   3.766   4.036   2.985 -0.7105  0.8520  0.5579
 5763SOL    HW228752   3.818   3.946   3.091  0.3243  1.0719  0.0507
 5764SOL     OW28753   4.113   4.185   7.974  0.2243  0.2828 -1.5174
 5764SOL    HW128754   4.119   4.143   7.888  1.1529 -3.3014  0.2950
 5764SOL    HW228755   4.129   4.117   8.039  0.9156  1.6562 -0.2319
 5765SOL     OW28756   0.485   1.729  11.702  0.9682  0.3639  0.5651
 5765SOL    HW128757   0.542   1.795  11.741  0.2952  0.4787  1.3740
 5765SOL    HW228758   0.494   1.735  11.607 -2.4549  3.6923  0.4377
 5766SOL     OW28759   4.324   1.920  11.698  0.2664  0.2621 -0.7816
 5766SOL    HW128760   4.379   1.998  11.693  0.1392  0.3851 -0.1948
 5766SOL    HW228761   4.363   1.863  11.765 -3.3298 -1.2620  0.0045
 5767SOL     OW28762   0.631   3.089   9.803 -0.8848 -0.4402  0.0640
 5767SOL    HW128763   0.691   3.050   9.868  0.6204 -0.2445 -1.2091
 5767SOL    HW228764   0.557   3.103   9.862 -1.1949 -0.9894 -0.2043
 5768SOL     OW28765   2.400   1.099   8.925  0.2035  0.4209 -0.8455
 5768SOL    HW128766   2.466   1.167   8.938  1.9715 -1.9810  2.7413
 5768SOL    HW228767   2.339   1.128   8.994 -0.6974  1.3825 -2.0465
 5769SOL     OW28768   1.070   3.906   9.386  0.2498 -0.2044 -0.2489
 5769SOL    HW128769   1.096   3.925   9.296  0.2283 -1.4950 -0.5269
 5769SOL    HW228770   0.981   3.942   9.387  0.2849 -0.1436  1.3044
 5770SOL     OW28771   2.875   2.750   1.841 -0.0548 -0.1493 -0.9471
 5770SOL    HW128772   2.912   2.662   1.838 -1.1620 -0.6632  0.4874
 5770SOL    HW228773   2.908   2.781   1.756  0.8409 -1.2024 -0.9933
 5771SOL     OW28774   0.791   0.255   3.716  0.3534 -0.3443  0.4101
 5771SOL    HW128775   0.760   0.329   3.664 -1.5277 -1.9345 -0.7546
 5771SOL    HW228776   0.725   0.235   3.783 -0.7944 -2.6119 -1.4010
 5772SOL     OW28777   0.665   3.386   0.071 -0.0210 -0.1757 -0.3834
 5772SOL    HW128778   0.675   3.355  17.692  1.4095  0.5013 -0.4517
 5772SOL    HW228779   0.646   3.303   0.115  0.3863  0.1022  0.3122
 5773SOL     OW28780   3.456   2.366  11.022 -0.2037 -0.0292  0.1965
 5773SOL    HW128781   3.460   2.271  11.027 -1.1350 -0.1578 -1.3892
 5773SOL    HW228782   3.435   2.387  11.113  0.2904  1.7203 -0.0947
 5774SOL     OW28783   4.541   0.299   5.026 -0.0560  0.4579 -0.2156
 5774SOL    HW128784   4.500   0.238   5.087 -1.9528  1.7006 -0.2520
 5774SOL    HW228785   4.550   0.373   5.086  0.2658 -0.1559  0.4841
 5775SOL     OW28786   0.630   4.198   9.451 -0.0759 -0.5324 -0.2374
 5775SOL    HW128787   0.591   4.225   9.367  1.3246  0.5227 -0.5488
 5775SOL    HW228788   0.584   4.117   9.473  0.6156 -0.5446  1.1315
 5776SOL     OW28789   0.898   1.621  16.090  0.0250 -0.1969  0.5619
 5776SOL    HW128790   0.900   1.683  16.017  2.7671 -1.6580 -0.6108
 5776SOL    HW228791   0.940   1.543  16.053  1.3368  0.7621  0.0395
 5777SOL     OW28792   0.986   1.032   4.368  0.4711  0.1900  0.6783
 5777SOL    HW128793   1.073   1.019   4.406  0.1963  1.8260  1.8604
 5777SOL    HW228794   0.980   1.126   4.351 -0.2237 -0.1103 -0.7462
 5778SOL     OW28795   1.942   3.598   1.247 -0.2397  0.1530  0.2967
 5778SOL    HW128796   1.851   3.570   1.258  0.2501 -1.3409  0.5640
 5778SOL    HW228797   1.962   3.634   1.334 -1.9849  1.3009  0.2223
 5779SOL     OW28798   1.567   0.574   5.503  0.0595 -0.2242  0.5918
 5779SOL    HW128799   1.580   0.493   5.454 -0.4401 -0.5715  1.0282
 5779SOL    HW228800   1.646   0.620   5.476 -1.9485  0.4812 -3.9596
 5780SOL     OW28801   1.784   1.446  14.196 -1.0984  0.3960  0.2654
 5780SOL    HW128802   1.719   1.469  14.262 -1.6165  0.8113 -0.3925
 5780SOL    HW228803   1.782   1.357  14.232  3.0380  0.7097  1.1882
 5781SOL     OW28804   1.274   3.389   6.135  0.2871  0.1361 -0.1990
 5781SOL    HW128805   1.325   3.414   6.058  1.3060  0.7883  0.6938
 5781SOL    HW228806   1.214   3.464   6.136 -1.0542 -0.9159 -1.3835
 5782SOL     OW28807   3.442   4.277   4.093 -0.3523  0.3080 -0.1131
 5782SOL    HW128808   3.471   4.190   4.069  2.0645  1.9588 -3.1885
 5782SOL    HW228809   3.472   4.276   4.183  1.0169  1.6578 -0.5491
 5783SOL     OW28810   3.691   0.240   4.798  0.1848 -0.4107 -0.1520
 5783SOL    HW128811   3.720   0.184   4.726  1.4341 -0.8955  0.7365
 5783SOL    HW228812   3.669   0.316   4.744  0.9856 -0.2242 -0.2069
 5784SOL     OW28813   1.069   2.533   2.909 -0.0805 -0.3584  0.7426
 5784SOL    HW128814   1.134   2.463   2.917 -0.8721 -1.3398 -1.2890
 5784SOL    HW228815   1.090   2.565   2.821  0.2844  1.2903  1.4364
 5785SOL     OW28816   2.775   4.370   5.672  0.3634 -0.2306  0.2585
 5785SOL    HW128817   2.784   4.297   5.733 -1.4174  0.3749  1.2425
 5785SOL    HW228818   2.717   4.339   5.603 -0.1995 -0.3365  0.7832
 5786SOL     OW28819   3.846   2.736   6.029  0.8155  0.6974  0.6003
 5786SOL    HW128820   3.855   2.797   5.955 -1.5876  1.1913  0.7144
 5786SOL    HW228821   3.761   2.755   6.069 -0.2841  3.0650 -2.8694
 5787SOL     OW28822   1.786   2.156   4.101 -0.0465 -0.3281  0.0019
 5787SOL    HW128823   1.740   2.236   4.124 -0.2501 -0.5689  0.4419
 5787SOL    HW228824   1.833   2.180   4.022  0.0480  0.1792  0.2141
 5788SOL     OW28825   3.294   0.965   6.385 -0.0774 -0.2370  0.2874
 5788SOL    HW128826   3.358   1.014   6.437 -0.7545  0.4071  0.5115
 5788SOL    HW228827   3.210   0.995   6.418  0.3941  1.1061  0.2561
 5789SOL     OW28828   2.601   0.338  13.719 -0.1123  0.3875  0.5023
 5789SOL    HW128829   2.603   0.386  13.636  1.3148  0.6266  0.6622
 5789SOL    HW228830   2.524   0.370  13.765 -2.0344 -1.0407 -1.7239
 5790SOL     OW28831   3.771   3.089   0.517  0.0943  0.2440 -0.0431
 5790SOL    HW128832   3.844   3.146   0.493  1.1234 -0.5463  1.2159
 5790SOL    HW228833   3.706   3.128   0.458  0.9906  0.4762 -0.8709
 5791SOL     OW28834   3.184   1.243   0.809  0.5693 -0.0839 -0.8149
 5791SOL    HW128835   3.179   1.171   0.873  1.1999  0.7449  0.1675
 5791SOL    HW228836   3.179   1.198   0.725  1.0967 -2.0149  0.1858
 5792SOL     OW28837   0.279   2.603  16.899  0.6220 -0.7591 -0.1053
 5792SOL    HW128838   0.245   2.678  16.850  0.0273 -1.2504 -0.4378
 5792SOL    HW228839   0.242   2.618  16.986  0.5561 -0.3282 -0.2088
 5793SOL     OW28840   4.691   2.753   7.707  0.2404  0.2145  0.4473
 5793SOL    HW128841   0.036   2.760   7.769 -0.0047 -0.4980  0.8185
 5793SOL    HW228842   4.671   2.659   7.712  0.4106  0.1490 -0.1589
 5794SOL     OW28843   0.655   0.017  13.751 -0.1592 -0.6177 -0.1225
 5794SOL    HW128844   0.567   0.040  13.780  0.4008  1.2110  0.0952
 5794SOL    HW228845   0.706   0.021  13.832  1.5766 -0.1006 -1.2439
 5795SOL     OW28846   1.496   3.358   7.918  0.5639 -0.6314  0.4064
 5795SOL    HW128847   1.591   3.350   7.911  0.4986  1.1255 -2.2710
 5795SOL    HW228848   1.488   3.376   8.012  0.6240 -0.0308  0.2979
 5796SOL     OW28849   3.725   0.166   8.684 -0.2528  0.0618  0.4112
 5796SOL    HW128850   3.697   0.101   8.749 -2.1728 -1.8782 -2.3703
 5796SOL    HW228851   3.648   0.222   8.673  1.5747  2.0489 -2.0946
 5797SOL     OW28852   0.903   4.330  10.336 -0.7491  0.1077  0.4043
 5797SOL    HW128853   0.868   4.418  10.349  1.6327  1.1850 -0.4328
 5797SOL    HW228854   0.917   4.293  10.423 -1.3692  0.2374  0.5585
 5798SOL     OW28855   2.065   4.168   1.632  0.0707  0.2617  0.0776
 5798SOL    HW128856   2.079   4.093   1.689  2.5432  2.9014  2.9584
 5798SOL    HW228857   2.071   4.128   1.546 -0.4164  0.4120 -0.0294
 5799SOL     OW28858   4.125   2.370  16.665 -1.1609 -0.5417 -0.6552
 5799SOL    HW128859   4.108   2.332  16.751 -2.7718  2.5734  0.4182
 5799SOL    HW228860   4.034   2.374  16.635 -0.9845  1.1756 -0.9982
 5800SOL     OW28861   0.369   2.078   5.343 -0.3817  0.2696 -0.5162
 5800SOL    HW128862   0.321   2.025   5.280 -1.6791  0.7827  0.0421
 5800SOL    HW228863   0.378   2.024   5.422  0.7722  0.2459 -0.6518
 5801SOL     OW28864   2.300   0.915  14.931  0.1920  0.9757 -0.2679
 5801SOL    HW128865   2.295   0.831  14.976  1.2489  1.6488  1.1111
 5801SOL    HW228866   2.234   0.962  14.981  2.1346  3.3818  0.0327
 5802SOL     OW28867   2.787   3.060   8.604  0.2856 -0.8460 -0.3326
 5802SOL    HW128868   2.717   3.033   8.545 -0.5360 -0.7774  0.6077
 5802SOL    HW228869   2.798   2.972   8.642  3.6972 -0.3982 -0.2098
 5803SOL     OW28870   1.144   4.682   8.443 -0.2034 -0.0250 -0.2276
 5803SOL    HW128871   1.166   4.689   8.536 -0.2618  2.4211 -0.3989
 5803SOL    HW228872   1.050   4.667   8.447 -0.0679 -0.3491  1.8684
 5804SOL     OW28873   1.722   4.417   5.482  0.3466 -0.9577 -0.1901
 5804SOL    HW128874   1.743   4.444   5.392 -0.1591  0.4055  0.1009
 5804SOL    HW228875   1.756   4.328   5.469  0.0407 -1.1596  0.4084
 5805SOL     OW28876   3.148   4.164   8.175 -0.0233  0.1602  0.3619
 5805SOL    HW128877   3.221   4.104   8.193  2.9342  3.3569 -0.9999
 5805SOL    HW228878   3.157   4.225   8.248  0.2602 -1.1915  1.4718
 5806SOL     OW28879   4.020   0.235   9.374  0.2869 -0.2214  0.3317
 5806SOL    HW128880   4.011   0.304   9.309  2.0149  0.0115  0.3453
 5806SOL    HW228881   4.024   0.288   9.454  0.4879 -1.2392  1.0072
 5807SOL     OW28882   2.576   2.932   1.685 -0.0182  0.7444 -0.0504
 5807SOL    HW128883   2.636   2.929   1.610 -1.7598 -1.9039 -1.3489
 5807SOL    HW228884   2.631   2.974   1.751  1.2152  0.1611 -0.7014
 5808SOL     OW28885   1.777   1.833   1.778 -0.6163  0.1129 -0.3673
 5808SOL    HW128886   1.756   1.748   1.739  0.7290 -0.4194  0.0659
 5808SOL    HW228887   1.871   1.831   1.798 -0.6136  1.0688 -0.2676
 5809SOL     OW28888   3.578   1.391   5.861 -0.2184 -0.5846 -0.4336
 5809SOL    HW128889   3.664   1.355   5.884  0.5796  0.4807 -1.8334
 5809SOL    HW228890   3.602   1.480   5.835  0.1958 -0.6844 -0.3960
 5810SOL     OW28891   2.774   1.029   4.687 -0.5539 -0.8898  0.2811
 5810SOL    HW128892   2.699   1.069   4.643  1.4783  2.2836 -0.2576
 5810SOL    HW228893   2.738   0.965   4.749  0.6468 -1.9558 -0.1365
 5811SOL     OW28894   1.417   0.756  13.254 -0.3296  0.3065  0.7515
 5811SOL    HW128895   1.489   0.819  13.251  1.3660 -1.6702  0.0923
 5811SOL    HW228896   1.360   0.778  13.181 -0.0591  1.9809  1.0398
 5812SOL     OW28897   0.840   3.725  12.149 -0.1919 -0.3946 -0.4149
 5812SOL    HW128898   0.922   3.751  12.192  0.2916  0.1710 -1.6885
 5812SOL    HW228899   0.857   3.768  12.066 -2.1594  0.4037 -0.3935
 5813SOL     OW28900   3.848   2.064   1.709 -0.4058 -0.6162  0.4598
 5813SOL    HW128901   3.841   1.979   1.752 -1.3708 -1.7033 -1.8865
 5813SOL    HW228902   3.919   2.053   1.646  0.9337  2.3405  1.4255
 5814SOL     OW28903   3.840   0.901  16.012  0.4290 -0.6670  0.4701
 5814SOL    HW128904   3.923   0.921  16.055  1.4187 -3.0894 -0.3208
 5814SOL    HW228905   3.860   0.880  15.921 -1.8257 -2.4125  0.3701
 5815SOL     OW28906   1.252   1.140  10.402  0.1131  0.3947 -0.3658
 5815SOL    HW128907   1.214   1.214  10.448  1.7003  1.2041 -0.3818
 5815SOL    HW228908   1.230   1.172  10.314 -2.7121  0.2704  0.2965
 5816SOL     OW28909   0.935   1.864   4.322 -0.1454  0.4343 -0.3614
 5816SOL    HW128910   0.972   1.952   4.308  0.1287  0.0765 -1.8634
 5816SOL    HW228911   0.883   1.884   4.400 -2.1758 -0.4326 -1.4893
 5817SOL     OW28912   4.516   1.000   3.524  0.0509  0.1133 -0.5947
 5817SOL    HW128913   4.442   1.025   3.469  1.0054 -0.5295 -2.1598
 5817SOL    HW228914   4.573   0.952   3.463 -0.8915 -2.2677  0.4326
 5818SOL     OW28915   3.160   1.507   1.031 -0.3741  0.0932 -0.5187
 5818SOL    HW128916   3.192   1.579   1.085  0.3875  0.3649 -1.3284
 5818SOL    HW228917   3.233   1.448   1.050 -0.4281 -0.2239 -1.2988
 5819SOL     OW28918   4.016   2.063   7.458  0.2438 -0.8988  0.2258
 5819SOL    HW128919   3.983   1.974   7.462  0.5385 -0.9589  1.1949
 5819SOL    HW228920   3.968   2.083   7.377  0.5831  1.4054  0.5971
 5820SOL     OW28921   3.007   1.495   7.774 -0.3937 -0.4315 -0.0791
 5820SOL    HW128922   3.035   1.505   7.683 -0.3602 -1.3004 -0.1661
 5820SOL    HW228923   3.055   1.563   7.819  0.0801  0.3171 -1.7145
 5821SOL     OW28924   1.756   4.100   6.670  0.4058 -0.0729  0.3067
 5821SOL    HW128925   1.685   4.164   6.668  1.9132  1.5419 -1.7295
 5821SOL    HW228926   1.711   4.018   6.686 -2.4420  1.2680 -0.7623
 5822SOL     OW28927   2.140   2.262   6.433  0.1306  0.1119  0.0485
 5822SOL    HW128928   2.163   2.348   6.471 -1.0652  0.2647  0.4092
 5822SOL    HW228929   2.182   2.200   6.493 -0.7770  0.5770  1.1585
 5823SOL     OW28930   0.031   2.977  16.070 -0.0941 -0.4297  0.0037
 5823SOL    HW128931   0.067   2.962  16.158 -0.1138  1.4287  0.3269
 5823SOL    HW228932   4.682   3.030  16.092  0.8207  1.1273 -0.5082
 5824SOL     OW28933   3.777   3.581  10.032  0.2377 -0.2301 -0.5695
 5824SOL    HW128934   3.757   3.600   9.940  0.7463 -0.3977 -0.7117
 5824SOL    HW228935   3.865   3.616  10.042  1.5509 -3.2383 -1.6504
 5825SOL     OW28936   3.699   4.194   7.275  0.0417 -0.1669  0.8909
 5825SOL    HW128937   3.768   4.128   7.281 -0.4645 -0.6066  1.7585
 5825SOL    HW228938   3.760   4.264   7.251 -0.7301  0.8575  1.9213
 5826SOL     OW28939   3.026   0.906  15.090 -0.1795 -0.0192 -0.2328
 5826SOL    HW128940   3.041   0.823  15.044 -0.5872  0.5393 -1.3765
 5826SOL    HW228941   3.102   0.897  15.148  1.2819 -1.1528 -2.3165
 5827SOL     OW28942   1.617   0.490   6.977  0.1515 -0.3293  0.6732
 5827SOL    HW128943   1.589   0.405   6.943  4.5479 -1.2960 -0.5826
 5827SOL    HW228944   1.600   0.545   6.902  0.2490  1.6626  2.1166
 5828SOL     OW28945   0.973   3.648  10.488 -0.1526 -0.3344 -0.4031
 5828SOL    HW128946   0.894   3.684  10.527 -0.7982 -1.9988 -0.1909
 5828SOL    HW228947   1.037   3.634  10.558 -0.2799 -0.2405 -0.2681
 5829SOL     OW28948   4.556   0.406   0.746  0.3926 -0.1563 -0.8961
 5829SOL    HW128949   4.612   0.397   0.823  2.3536  1.4647 -2.1133
 5829SOL    HW228950   4.500   0.478   0.774 -0.0945 -1.3618  1.2179
 5830SOL     OW28951   0.533   1.004   0.894 -0.2563 -0.4864  0.2521
 5830SOL    HW128952   0.447   1.044   0.883 -0.2599 -0.7368 -0.5786
 5830SOL    HW228953   0.547   0.996   0.989 -0.6543 -0.1213  0.3421
 5831SOL     OW28954   3.071   2.917   8.696 -0.1370  0.3199  0.3629
 5831SOL    HW128955   3.119   2.854   8.750 -3.0381 -0.5108  1.9981
 5831SOL    HW228956   2.991   2.871   8.670  0.9682 -0.5612 -1.4958
 5832SOL     OW28957   0.041   3.162   5.302 -0.0839  0.1315 -0.9928
 5832SOL    HW128958   4.724   3.099   5.246 -1.1581 -1.3503  1.5689
 5832SOL    HW228959   0.078   3.103   5.367  1.5004  2.7910  0.5099
 5833SOL     OW28960   4.650   0.352   9.412 -0.0717 -0.3164 -0.9594
 5833SOL    HW128961   4.675   0.335   9.503 -1.0615  0.5713 -0.5187
 5833SOL    HW228962   4.671   0.446   9.413 -0.4966 -0.2244  0.0801
 5834SOL     OW28963   1.152   2.351  10.006  0.3793  0.2037  0.0077
 5834SOL    HW128964   1.107   2.415   9.951 -2.2869  1.1193  3.2507
 5834SOL    HW228965   1.236   2.392  10.027  0.9292  0.0225 -1.8532
 5835SOL     OW28966   3.783   3.469  10.664  0.5253  0.2332 -0.2237
 5835SOL    HW128967   3.822   3.509  10.742  0.8161  0.3455 -0.4262
 5835SOL    HW228968   3.854   3.485  10.601  0.3962 -1.4723 -0.7990
 5836SOL     OW28969   1.708   0.396   3.074 -0.0297  0.0351  0.0852
 5836SOL    HW128970   1.728   0.376   2.983  1.2856 -1.1622  0.6378
 5836SOL    HW228971   1.692   0.306   3.103  0.0976  0.7836  2.4887
 5837SOL     OW28972   4.033   0.311   2.864  0.2310  0.6610 -0.7858
 5837SOL    HW128973   4.010   0.306   2.771 -0.4554  1.0210 -0.6409
 5837SOL    HW228974   4.080   0.394   2.854 -1.0427  1.6503  1.5941
 5838SOL     OW28975   0.834   3.319   2.882  0.6480  0.5464  0.2261
 5838SOL    HW128976   0.911   3.375   2.871  2.0681 -1.3850  0.3032
 5838SOL    HW228977   0.787   3.364   2.952  1.2817 -1.3059  1.8135
 5839SOL     OW28978   1.813   3.919  13.577  0.1030 -0.3150 -0.0158
 5839SOL    HW128979   1.900   3.884  13.596  0.0207 -1.3211 -1.4507
 5839SOL    HW228980   1.807   3.876  13.492 -0.6724  1.0612 -0.6594
 5840SOL     OW28981   1.292   0.555   7.617 -0.1481  0.3561 -0.1507
 5840SOL    HW128982   1.369   0.502   7.631  2.0275  4.1024  2.0914
 5840SOL    HW228983   1.225   0.504   7.663 -1.7105  1.1081 -1.5640
 5841SOL     OW28984   4.246   2.867   2.520  0.6856  0.5821 -0.4698
 5841SOL    HW128985   4.227   2.936   2.583 -0.3249  0.2724 -0.4391
 5841SOL    HW228986   4.261   2.785   2.566 -1.5110 -0.5150 -1.6957
 5842SOL     OW28987   0.633   2.890   9.606  0.6449 -0.2241  0.3850
 5842SOL    HW128988   0.580   2.814   9.630 -0.3179  0.8592  1.6698
 5842SOL    HW228989   0.632   2.948   9.682 -0.7602 -0.9218  0.9056
 5843SOL     OW28990   2.524   1.733   5.360  0.4921 -0.0742  0.4739
 5843SOL    HW128991   2.520   1.763   5.450  1.5327 -0.0521  0.5126
 5843SOL    HW228992   2.431   1.713   5.355  0.2607  1.3826 -1.3939
 5844SOL     OW28993   1.036   3.879   4.593 -0.2282 -0.3461  0.3443
 5844SOL    HW128994   0.953   3.913   4.626 -0.3941 -0.9396  0.5343
 5844SOL    HW228995   1.089   3.889   4.672 -2.7456  0.3943  1.9499
 5845SOL     OW28996   2.231   1.998   5.190  0.3600 -0.0303  0.3042
 5845SOL    HW128997   2.148   1.998   5.141  0.1828  1.3244  0.5938
 5845SOL    HW228998   2.223   2.083   5.234 -0.2394  0.7154 -1.2250
 5846SOL     OW28999   3.073   1.101   6.543  0.3520 -0.0838 -0.7738
 5846SOL    HW129000   3.056   1.153   6.621 -0.8170 -0.1833 -0.9558
 5846SOL    HW229001   2.990   1.054   6.543  0.5210 -0.3677  2.5200
 5847SOL     OW29002   3.830   2.234   8.198 -0.1645 -0.0729 -0.7666
 5847SOL    HW129003   3.770   2.162   8.183  0.4779 -0.7396 -0.1279
 5847SOL    HW229004   3.772   2.297   8.155  0.5727  0.2206 -1.3569
 5848SOL     OW29005   2.068   2.515  12.364  0.1807  0.2193 -0.1608
 5848SOL    HW129006   2.130   2.580  12.397 -1.7577  1.6297  0.7557
 5848SOL    HW229007   2.022   2.485  12.443 -1.3235  0.7113 -0.8443
 5849SOL     OW29008   2.286   4.140  17.120  0.6029  0.0356 -0.0467
 5849SOL    HW129009   2.319   4.137  17.030  1.7250  1.9337  0.2906
 5849SOL    HW229010   2.198   4.173  17.104  0.4062 -0.9279 -0.9833
 5850SOL     OW29011   2.907   1.465   7.033 -0.2785  0.8581  0.5506
 5850SOL    HW129012   2.920   1.560   7.021  1.5312  0.4542 -0.7382
 5850SOL    HW229013   2.817   1.464   7.003 -0.3560 -0.1051  0.8295
 5851SOL     OW29014   2.049   4.248   9.942 -0.1366 -0.4460 -0.0778
 5851SOL    HW129015   1.993   4.324   9.926 -1.8216 -1.1470  2.4120
 5851SOL    HW229016   2.029   4.230  10.034  0.0910  0.5648  0.1730
 5852SOL     OW29017   3.053   3.296   1.109  0.6184  0.0522  0.4670
 5852SOL    HW129018   3.133   3.246   1.093 -0.3374 -0.8784 -1.4769
 5852SOL    HW229019   3.068   3.386   1.078 -0.0139  0.8116  2.3883
 5853SOL     OW29020   1.507   1.038   4.049 -0.0876 -0.0654 -0.3529
 5853SOL    HW129021   1.517   1.077   4.136 -0.7173 -2.6278  0.8905
 5853SOL    HW229022   1.487   1.117   3.999 -0.1402  1.1578  1.6135
 5854SOL     OW29023   1.352   2.143   6.280 -0.0026  0.1390  0.2525
 5854SOL    HW129024   1.428   2.173   6.330  1.6350 -2.1380 -0.9036
 5854SOL    HW229025   1.300   2.121   6.357 -0.8579 -0.5422 -0.5206
 5855SOL     OW29026   4.679   3.517   7.555 -0.6270 -0.2750 -0.1678
 5855SOL    HW129027   4.727   3.453   7.607  1.7225  2.6936  1.3083
 5855SOL    HW229028   0.025   3.570   7.524 -0.0442 -0.3951  1.0216
 5856SOL     OW29029   0.565   2.771  15.177  0.9494  0.0341 -0.6990
 5856SOL    HW129030   0.601   2.688  15.209 -1.2311 -0.4239  0.5617
 5856SOL    HW229031   0.576   2.758  15.083  0.0282  0.9280 -0.9246
 5857SOL     OW29032   3.639   2.975  13.069 -0.0323  0.1645 -0.6625
 5857SOL    HW129033   3.594   3.016  12.995 -0.8033 -1.0388 -0.8638
 5857SOL    HW229034   3.600   2.888  13.061  0.0821 -0.1228  1.9894
 5858SOL     OW29035   0.128   4.028   3.399  0.3989  0.5183  0.4401
 5858SOL    HW129036   0.136   3.954   3.459  0.0009  0.9586  1.0481
 5858SOL    HW229037   0.040   4.058   3.422 -0.8771 -2.3883 -0.5845
 5859SOL     OW29038   2.818   3.798   8.202  0.1530  0.3572  0.2264
 5859SOL    HW129039   2.892   3.754   8.245  0.3657 -1.6398 -2.1483
 5859SOL    HW229040   2.818   3.747   8.121  2.1755 -1.8273  1.5855
 5860SOL     OW29041   2.057   0.880  14.517  0.1200 -0.0868  0.0323
 5860SOL    HW129042   2.126   0.924  14.566 -0.3736  1.5580 -0.7715
 5860SOL    HW229043   1.992   0.859  14.584 -1.6036 -1.8355 -2.1732
 5861SOL     OW29044   1.809   1.847  16.844  0.5317 -0.0053  0.1665
 5861SOL    HW129045   1.782   1.911  16.909 -1.0312 -0.2731 -0.2194
 5861SOL    HW229046   1.788   1.769  16.895 -1.6814  0.1987 -0.4527
 5862SOL     OW29047   0.688   0.580   0.921 -0.0065  0.1542  0.1548
 5862SOL    HW129048   0.660   0.500   0.966 -0.2982 -0.2477 -0.7445
 5862SOL    HW229049   0.770   0.600   0.966  0.5754  0.6322 -1.1086
 5863SOL     OW29050   4.042   3.016   8.951 -0.4717  0.2185 -0.0128
 5863SOL    HW129051   4.124   3.058   8.925 -0.0957 -0.6454 -0.2146
 5863SOL    HW229052   4.016   2.987   8.864 -0.3934 -0.0469  0.0546
 5864SOL     OW29053   2.424   3.549   2.996 -0.0025 -0.0035 -0.3562
 5864SOL    HW129054   2.346   3.531   2.944  1.0435  1.0895 -2.2942
 5864SOL    HW229055   2.387   3.563   3.083 -0.3327 -0.7177 -0.3873
 5865SOL     OW29056   1.476   1.411   0.095 -0.2190  0.4056 -0.0682
 5865SOL    HW129057   1.548   1.426   0.156 -1.0734  0.1817  0.9962
 5865SOL    HW229058   1.516   1.389   0.010  0.1460 -2.3317  0.8067
 5866SOL     OW29059   2.472   1.810   7.910  0.9172 -0.0111 -0.0804
 5866SOL    HW129060   2.443   1.720   7.898 -0.8325  0.6339 -0.7995
 5866SOL    HW229061   2.521   1.801   7.992  1.0859 -1.9629 -0.3927
 5867SOL     OW29062   4.651   2.701   0.986 -0.0671  0.1210  0.8606
 5867SOL    HW129063   4.647   2.770   1.052 -0.9152  0.9371 -0.0375
 5867SOL    HW229064   0.014   2.669   0.983 -0.2419 -0.1155 -2.7322
 5868SOL     OW29065   0.067   4.239   8.936 -0.3873 -0.2663  0.0427
 5868SOL    HW129066   0.056   4.208   9.025  2.1097  0.0234  0.4538
 5868SOL    HW229067   0.007   4.314   8.937  0.4383  0.4594 -2.1385
 5869SOL     OW29068   3.130   3.963  14.667  0.3950  0.1982  0.1038
 5869SOL    HW129069   3.066   3.909  14.713  0.1271  1.1721  0.8751
 5869SOL    HW229070   3.204   3.930  14.718  0.4027 -1.2615 -0.8603
 5870SOL     OW29071   4.215   3.213   1.953  0.0835  0.5803 -0.1505
 5870SOL    HW129072   4.134   3.252   1.921  0.6208  0.5052 -1.5965
 5870SOL    HW229073   4.208   3.244   2.043 -2.0940  0.8880 -0.4191
 5871SOL     OW29074   0.245   2.865   6.415 -0.1809 -0.2522 -0.3623
 5871SOL    HW129075   0.169   2.848   6.359 -1.0041  0.2578  0.6098
 5871SOL    HW229076   0.200   2.839   6.495  1.1294 -0.0114  0.4422
 5872SOL     OW29077   2.767   1.115   7.502  0.2579  0.1313  0.0832
 5872SOL    HW129078   2.715   1.126   7.581 -0.0328 -2.9648  0.3190
 5872SOL    HW229079   2.798   1.026   7.517  1.2299  0.2903 -0.9755
 5873SOL     OW29080   3.913   0.803  13.611  0.1574 -0.0189 -0.0371
 5873SOL    HW129081   3.864   0.724  13.633  1.5825 -1.0814 -0.6845
 5873SOL    HW229082   3.844   0.850  13.564  1.1864  0.5152 -1.0272
 5874SOL     OW29083   2.909   1.974  12.793  0.6711 -0.0250  0.2014
 5874SOL    HW129084   2.989   1.930  12.822  0.0736 -0.6256  0.9457
 5874SOL    HW229085   2.888   2.048  12.850  1.9451  0.3485  0.1790
 5875SOL     OW29086   2.048   4.278   3.031 -0.1816  0.0916 -0.2501
 5875SOL    HW129087   2.036   4.325   2.949  1.4268  0.9957  0.0364
 5875SOL    HW229088   2.133   4.238   3.015  0.6971  1.7491  0.2353
 5876SOL     OW29089   1.048   3.413   8.492 -0.1393  0.7160 -0.6474
 5876SOL    HW129090   0.971   3.417   8.549 -1.5576 -0.9225 -2.4796
 5876SOL    HW229091   1.058   3.508   8.488  2.9351  0.5136  1.8988
 5877SOL     OW29092   0.498   3.464   4.394  0.6931  0.2384 -0.1100
 5877SOL    HW129093   0.487   3.375   4.430  2.1937  0.5863  1.2098
 5877SOL    HW229094   0.497   3.514   4.475  0.6088 -0.3340  0.2408
 5878SOL     OW29095   2.018   3.449   9.569  0.0754 -0.5747 -0.6740
 5878SOL    HW129096   2.062   3.475   9.488 -0.3189  1.5514 -0.2092
 5878SOL    HW229097   1.932   3.483   9.545  0.4355  1.3178  0.6756
 5879SOL     OW29098   1.196   3.495  13.419 -0.0970 -0.6873 -0.2301
 5879SOL    HW129099   1.130   3.559  13.393  2.5916  1.9486 -0.5383
 5879SOL    HW229100   1.226   3.461  13.335  0.3968  0.7625 -0.6294
 5880SOL     OW29101   2.851   3.164   1.019 -0.4775 -0.6722  0.1739
 5880SOL    HW129102   2.938   3.200   1.036 -0.2547 -0.7845 -0.7472
 5880SOL    HW229103   2.799   3.225   1.071  2.4613  2.1585 -0.2228
 5881SOL     OW29104   3.800   3.724   2.100 -0.7340  0.6208  0.0317
 5881SOL    HW129105   3.837   3.700   2.185  0.4937 -1.7168 -1.1309
 5881SOL    HW229106   3.879   3.709   2.047 -2.1522 -3.4420 -0.9786
 5882SOL     OW29107   3.962   0.593  12.048 -0.4193  0.4937 -0.1748
 5882SOL    HW129108   3.951   0.499  12.038  1.0956  0.3230 -0.2858
 5882SOL    HW229109   3.928   0.612  12.135 -1.0896  0.6682 -0.4767
 5883SOL     OW29110   2.914   2.045   8.017  0.4752 -0.2161  0.7374
 5883SOL    HW129111   2.897   1.980   7.948 -3.1635  1.9423 -0.4152
 5883SOL    HW229112   2.986   1.999   8.061  0.4560 -0.1505  0.8353
 5884SOL     OW29113   4.227   4.173  16.922  0.2425 -0.0009 -0.6271
 5884SOL    HW129114   4.305   4.220  16.950  0.4052  0.0792 -1.2004
 5884SOL    HW229115   4.203   4.122  16.998  2.7028  0.1123  0.2126
 5885SOL     OW29116   4.326   2.676   1.412 -0.0694 -0.5052 -0.3779
 5885SOL    HW129117   4.284   2.689   1.327  2.3167  0.5197 -1.3973
 5885SOL    HW229118   4.317   2.581   1.421 -1.1055 -0.5365 -1.7715
 5886SOL     OW29119   3.815   2.064   3.056  0.2428  0.4671  0.5573
 5886SOL    HW129120   3.821   1.998   2.987 -1.8436  0.8180  0.0463
 5886SOL    HW229121   3.820   2.145   3.007  2.3482  0.1924  0.3315
 5887SOL     OW29122   1.618   1.364   3.675  0.0104  0.2059 -0.2778
 5887SOL    HW129123   1.597   1.271   3.671  0.4216  0.2340 -3.2578
 5887SOL    HW229124   1.649   1.371   3.765  1.3260  0.3032 -0.7463
 5888SOL     OW29125   2.947   2.315  12.551 -0.3248  0.4007 -0.0077
 5888SOL    HW129126   2.901   2.238  12.519  0.7337 -0.9201  1.6775
 5888SOL    HW229127   2.878   2.371  12.586 -1.6049  0.6827 -3.0054
 5889SOL     OW29128   0.977   0.410   1.808 -0.1534  0.1459  0.1619
 5889SOL    HW129129   0.977   0.469   1.884 -0.2688 -0.4854  0.6523
 5889SOL    HW229130   1.056   0.440   1.763  2.2059 -1.7117  3.0964
 5890SOL     OW29131   3.883   1.639   7.194  0.2813 -0.6416 -0.1625
 5890SOL    HW129132   3.978   1.649   7.193 -0.0301  2.2978  2.5220
 5890SOL    HW229133   3.861   1.678   7.109  2.1183  1.7836  0.4907
 5891SOL     OW29134   2.968   1.967   4.250 -0.2212 -0.2380 -0.1343
 5891SOL    HW129135   2.940   1.967   4.158 -0.5236 -0.6145 -0.0430
 5891SOL    HW229136   3.063   1.964   4.240 -0.0654 -0.2238  1.2696
 5892SOL     OW29137   1.371   1.083   5.255  1.0389 -0.4729  0.6494
 5892SOL    HW129138   1.402   1.000   5.217  1.0430  0.5349 -1.5455
 5892SOL    HW229139   1.347   1.056   5.344  1.3484  0.1608  0.9163
 5893SOL     OW29140   1.963   1.235   4.482  0.2484  0.4845  0.0920
 5893SOL    HW129141   1.959   1.329   4.464  0.5058  0.0720 -2.1259
 5893SOL    HW229142   1.928   1.224   4.570 -0.1222  2.2383  0.1590
 5894SOL     OW29143   4.437   3.910   4.444  0.3783  0.3044  0.4377
 5894SOL    HW129144   4.440   3.866   4.528 -0.0557 -2.5474 -1.0435
 5894SOL    HW229145   4.374   3.981   4.449 -0.6394 -0.5840  0.1644
 5895SOL     OW29146   3.140   0.442   4.543  0.0565  0.0480  0.1540
 5895SOL    HW129147   3.122   0.361   4.591  0.1539  0.8898  1.5945
 5895SOL    HW229148   3.050   0.472   4.529 -0.0090 -0.8040 -1.2622
 5896SOL     OW29149   3.036   2.988  16.920 -0.0756  0.5370  0.2949
 5896SOL    HW129150   3.051   2.990  17.015 -0.1305 -2.2550  0.3811
 5896SOL    HW229151   2.940   2.995  16.915  0.0643  1.1706 -1.4360
 5897SOL     OW29152   0.929   1.476   8.146  0.1989  0.6021 -0.5247
 5897SOL    HW129153   0.991   1.541   8.114  1.0010  0.5749  0.9345
 5897SOL    HW229154   0.860   1.488   8.081 -0.3735 -0.2458 -0.0755
 5898SOL     OW29155   1.923   0.068   3.295 -0.1655 -0.6623 -0.1291
 5898SOL    HW129156   1.890   0.080   3.384 -1.4264 -0.8249 -0.5650
 5898SOL    HW229157   1.867   4.722   3.269  0.7353 -0.6497 -2.1454
 5899SOL     OW29158   2.415   3.500   1.887 -0.1004  0.5220  0.4122
 5899SOL    HW129159   2.458   3.418   1.908  3.2121  1.7848 -1.5289
 5899SOL    HW229160   2.494   3.553   1.878  0.8818 -0.9760  0.2074
 5900SOL     OW29161   3.522   2.064   0.297 -0.5823  0.4144  0.7481
 5900SOL    HW129162   3.589   2.060   0.228 -1.7686 -1.2636 -0.2864
 5900SOL    HW229163   3.493   2.152   0.273  1.0690  0.9372  0.6337
 5901SOL     OW29164   3.950   1.869   5.491 -0.0963 -0.2216  0.0107
 5901SOL    HW129165   3.902   1.786   5.499 -1.4535  0.5029 -0.6230
 5901SOL    HW229166   4.039   1.838   5.505  0.8321  3.0562  1.1952
 5902SOL     OW29167   2.290   0.229   9.658 -0.3186 -0.3226  0.4308
 5902SOL    HW129168   2.228   0.178   9.606 -0.3441  0.8489 -0.6942
 5902SOL    HW229169   2.344   0.257   9.584  1.1049 -0.2704  1.4726
 5903SOL     OW29170   4.370   0.691   8.614  0.2136  0.7008 -0.4399
 5903SOL    HW129171   4.297   0.631   8.630  1.7589 -1.1290 -0.3005
 5903SOL    HW229172   4.364   0.732   8.701  0.9796  2.3161 -1.1674
 5904SOL     OW29173   3.826   1.696   5.965 -0.2850  0.4295  0.3275
 5904SOL    HW129174   3.866   1.663   5.885 -1.0895  0.5238 -0.1167
 5904SOL    HW229175   3.847   1.632   6.033 -0.8254  0.1089  0.1927
 5905SOL     OW29176   3.234   0.849   5.922  0.0121  0.1414  0.2284
 5905SOL    HW129177   3.206   0.804   6.001  2.8484 -1.4333  0.3426
 5905SOL    HW229178   3.275   0.922   5.968  1.0210 -1.5420  1.9820
 5906SOL     OW29179   0.319   1.097   4.556 -0.0466 -0.0397 -0.1311
 5906SOL    HW129180   0.353   1.184   4.576  0.7191 -0.3956  0.1188
 5906SOL    HW229181   0.233   1.100   4.597  1.1389 -0.8742  2.4263
 5907SOL     OW29182   0.117   1.748  15.756 -0.5169 -0.3557 -0.3623
 5907SOL    HW129183   0.080   1.661  15.768 -0.5547 -0.1885  0.7515
 5907SOL    HW229184   0.095   1.755  15.663 -1.7413 -1.6014 -0.1705
 5908SOL     OW29185   1.863   3.465   9.277  0.1121 -0.9269 -0.6321
 5908SOL    HW129186   1.937   3.525   9.278  0.4700 -1.3852  0.3435
 5908SOL    HW229187   1.847   3.464   9.183 -1.4158  3.1190 -0.3997
 5909SOL     OW29188   1.848   2.997   6.484  0.8160 -0.0434 -0.5199
 5909SOL    HW129189   1.781   2.975   6.550 -0.2884  0.1413 -1.5822
 5909SOL    HW229190   1.918   2.958   6.537  0.6799  0.8401  0.3137
 5910SOL     OW29191   0.155   1.479  17.415  0.0121  0.2490  0.5174
 5910SOL    HW129192   0.196   1.393  17.426  0.8716  0.4624 -1.0046
 5910SOL    HW229193   0.186   1.525  17.493  3.0628 -0.9394 -0.0019
 5911SOL     OW29194   4.064   4.020   8.514  0.0075  0.6997  0.7362
 5911SOL    HW129195   4.155   3.989   8.516  0.2531  1.5266  2.2866
 5911SOL    HW229196   4.070   4.098   8.459 -0.2036 -0.4825 -0.9442
 5912SOL     OW29197   1.475   0.715   0.354  0.5485 -0.5535 -0.1255
 5912SOL    HW129198   1.477   0.629   0.396  1.0577 -1.2432 -1.5646
 5912SOL    HW229199   1.515   0.703   0.268  1.1801 -0.0938  0.1028
 5913SOL     OW29200   0.415   4.170   2.239  0.6144 -0.3470 -0.5285
 5913SOL    HW129201   0.373   4.203   2.160 -0.7388 -2.2422 -0.6179
 5913SOL    HW229202   0.433   4.082   2.206  0.6588 -0.7906  0.6733
 5914SOL     OW29203   3.908   1.153   5.023 -0.0428 -0.3789  0.5304
 5914SOL    HW129204   3.991   1.169   4.978 -1.3812 -3.1302 -2.8820
 5914SOL    HW229205   3.892   1.247   5.030  1.2763 -0.2583  1.7571
 5915SOL     OW29206   0.142   4.407   3.987  0.2141  0.1237 -0.3935
 5915SOL    HW129207   0.098   4.353   4.054 -1.3564  0.0315 -1.4806
 5915SOL    HW229208   0.218   4.438   4.035  1.1652 -2.3095 -0.3330
 5916SOL     OW29209   2.192   2.359  13.333 -0.2805  0.3800 -0.0811
 5916SOL    HW129210   2.168   2.428  13.394 -1.4976  0.2551 -0.4269
 5916SOL    HW229211   2.287   2.362  13.345 -0.0924 -1.6229 -1.0340
 5917SOL     OW29212   2.356   3.326   2.427  0.3807 -0.4258  0.5906
 5917SOL    HW129213   2.429   3.366   2.380 -0.0958 -0.8942 -0.5425
 5917SOL    HW229214   2.290   3.391   2.402 -0.2689 -0.4926  2.1523
 5918SOL     OW29215   3.591   0.607  12.101 -0.0205  0.2958 -1.0284
 5918SOL    HW129216   3.653   0.622  12.029 -1.1454  0.4375 -1.9762
 5918SOL    HW229217   3.517   0.569  12.054  0.2916  0.4600 -1.6600
 5919SOL     OW29218   4.133   0.267   4.703 -0.6383  0.2287 -0.0285
 5919SOL    HW129219   4.209   0.255   4.645 -0.4663 -0.6840  0.3751
 5919SOL    HW229220   4.061   0.258   4.641 -0.6404  2.8731 -0.3819
 5920SOL     OW29221   2.440   2.449  13.340  0.2944 -0.0485 -0.1297
 5920SOL    HW129222   2.427   2.436  13.434 -2.4913  2.7241 -0.1218
 5920SOL    HW229223   2.527   2.489  13.347  0.2188  0.4949 -2.3145
 5921SOL     OW29224   2.873   4.586   3.140 -0.0840  0.2845  0.0998
 5921SOL    HW129225   2.813   4.555   3.208  1.3948 -0.4667  1.0566
 5921SOL    HW229226   2.947   4.601   3.199  0.4033 -0.3839 -0.3586
 5922SOL     OW29227   1.918   2.424   7.361  0.0448 -0.1286 -0.1016
 5922SOL    HW129228   1.824   2.419   7.379  0.2142  1.1509  1.1920
 5922SOL    HW229229   1.944   2.473   7.439  1.5166 -0.5032 -0.3531
 5923SOL     OW29230   0.931   4.572   2.906  0.5633  0.1857 -0.0424
 5923SOL    HW129231   0.879   4.635   2.957 -2.7413 -1.8591 -0.9110
 5923SOL    HW229232   0.992   4.537   2.971  0.0264 -2.7495 -1.1250
 5924SOL     OW29233   0.681   1.399   7.318 -0.0959  0.5897 -0.2770
 5924SOL    HW129234   0.602   1.453   7.313 -0.0663  0.7435  0.9785
 5924SOL    HW229235   0.750   1.464   7.304 -0.6915  1.6085  1.4352
 5925SOL     OW29236   1.024   2.928   7.029  0.1499 -0.4012 -0.5549
 5925SOL    HW129237   1.048   3.019   7.047 -0.2534 -0.5531  0.7051
 5925SOL    HW229238   0.981   2.945   6.945  2.4097  0.2886 -1.5602
 5926SOL     OW29239   1.840   2.949   6.230 -0.1514 -0.1316  0.1711
 5926SOL    HW129240   1.923   2.902   6.218  1.4449  2.2045  2.1199
 5926SOL    HW229241   1.838   2.953   6.325 -0.8566 -0.9701  0.1960
 5927SOL     OW29242   0.008   3.610  13.035  0.0666  0.2914 -0.5730
 5927SOL    HW129243   4.701   3.532  12.992  1.8750 -0.9994  0.3172
 5927SOL    HW229244   0.097   3.622  13.001  0.8407 -1.1057  1.0044
 5928SOL     OW29245   2.307   1.154   3.910  0.5407 -0.4890 -0.1583
 5928SOL    HW129246   2.291   1.075   3.961  1.4713  0.6381  1.9138
 5928SOL    HW229247   2.346   1.216   3.972  2.1095  0.0107 -1.6413
 5929SOL     OW29248   3.646   0.290   3.497 -0.0223 -0.4289 -0.6095
 5929SOL    HW129249   3.621   0.374   3.534 -0.1908 -0.7851  0.0840
 5929SOL    HW229250   3.609   0.293   3.408  2.2396 -2.9135 -1.6267
 5930SOL     OW29251   4.200   3.235   9.864 -0.3208 -0.3563 -0.1876
 5930SOL    HW129252   4.285   3.250   9.905 -0.9042 -0.2769  0.9905
 5930SOL    HW229253   4.195   3.147   9.827 -1.6324  0.1506 -1.1808
 5931SOL     OW29254   2.627   3.480   5.754 -0.4359 -0.0342  0.5994
 5931SOL    HW129255   2.577   3.399   5.750 -0.5398  0.0182  0.8197
 5931SOL    HW229256   2.587   3.531   5.684  1.0201  2.0716  1.2982
 5932SOL     OW29257   4.666   3.752  10.626 -0.0829  0.2404  0.2578
 5932SOL    HW129258   4.723   3.717  10.558 -1.4186 -1.7683  0.1770
 5932SOL    HW229259   4.664   3.682  10.691  0.8259  1.2772  1.4043
 5933SOL     OW29260   2.067   1.944  11.659  0.5820  0.1859 -0.2350
 5933SOL    HW129261   2.159   1.923  11.674 -0.0281 -1.0800  1.7414
 5933SOL    HW229262   2.066   2.008  11.730  1.0136 -0.0188 -0.0528
 5934SOL     OW29263   0.974   1.887   7.803  0.5979 -0.1147  0.1093
 5934SOL    HW129264   0.907   1.956   7.800 -0.2466 -1.0504 -2.8200
 5934SOL    HW229265   1.052   1.935   7.831 -1.1649  2.6391  0.3170
 5935SOL     OW29266   3.806   1.932   9.094 -0.0543  0.5162  0.4123
 5935SOL    HW129267   3.883   1.951   9.040 -0.6657  1.3403 -0.1591
 5935SOL    HW229268   3.842   1.931   9.183 -1.5282  1.7348  1.0125
 5936SOL     OW29269   0.786   3.812   6.236 -0.3562 -0.4800  0.1349
 5936SOL    HW129270   0.695   3.823   6.208 -0.1018  0.1160 -0.4644
 5936SOL    HW229271   0.833   3.801   6.154 -0.5799 -0.7914  0.0433
 5937SOL     OW29272   2.795   2.341   2.038 -0.5714 -0.2407 -0.3096
 5937SOL    HW129273   2.747   2.394   1.975 -1.2411 -0.0870  0.3196
 5937SOL    HW229274   2.770   2.256   2.000  0.4288 -0.8844  0.4620
 5938SOL     OW29275   3.355   3.486   4.681  0.1140  0.7178  0.2504
 5938SOL    HW129276   3.310   3.527   4.607 -1.6133 -1.5595  0.0154
 5938SOL    HW229277   3.445   3.469   4.651 -0.6959 -0.8685 -1.3002
 5939SOL     OW29278   4.114   3.571   6.280  0.4828  0.0745  0.1513
 5939SOL    HW129279   4.102   3.478   6.298  2.0501 -0.3183 -0.8744
 5939SOL    HW229280   4.038   3.613   6.321  0.3148  0.5788 -0.6882
 5940SOL     OW29281   2.290   4.526   5.480 -0.2581 -0.0344  0.0763
 5940SOL    HW129282   2.329   4.493   5.399  0.4789  1.3748 -0.1466
 5940SOL    HW229283   2.362   4.541   5.541  0.5710  0.1280 -0.9317
 5941SOL     OW29284   3.207   2.724   3.285 -0.6016 -0.1521 -0.2174
 5941SOL    HW129285   3.243   2.704   3.199 -0.2396  2.5929 -0.7161
 5941SOL    HW229286   3.202   2.820   3.283 -0.4515 -0.1538 -0.6642
 5942SOL     OW29287   1.644   1.051  11.909 -1.0217  0.0710  0.0965
 5942SOL    HW129288   1.611   1.140  11.911  1.5639  1.0384  0.1567
 5942SOL    HW229289   1.593   1.004  11.974 -1.5508 -1.6014 -1.5268
 5943SOL     OW29290   2.554   2.013   2.700  0.7489 -0.4677 -0.2577
 5943SOL    HW129291   2.573   2.037   2.791  0.0447  0.5431 -0.3777
 5943SOL    HW229292   2.585   2.093   2.657 -0.3865  0.3515  0.4624
 5944SOL     OW29293   0.512   3.203   8.844 -0.3363  0.1161 -0.7073
 5944SOL    HW129294   0.460   3.186   8.766  2.0298  2.0717 -2.7510
 5944SOL    HW229295   0.597   3.193   8.801  0.6249 -0.9645  1.4483
 5945SOL     OW29296   0.004   1.873   3.017 -0.5590 -0.5905  0.4305
 5945SOL    HW129297   4.719   1.849   3.109 -2.8212 -1.2197 -0.0460
 5945SOL    HW229298   0.074   1.936   3.035 -1.6544  0.8650 -0.4974
 5946SOL     OW29299   0.692   4.061   6.796  0.0212  0.2508 -0.8746
 5946SOL    HW129300   0.722   4.040   6.885 -2.0519  1.3212  0.0788
 5946SOL    HW229301   0.773   4.091   6.756  0.1835  2.8139  1.3928
 5947SOL     OW29302   1.500   0.720   3.664  0.2552 -0.4435  0.5941
 5947SOL    HW129303   1.469   0.784   3.600  0.0759 -0.4076  0.7169
 5947SOL    HW229304   1.431   0.654   3.659  0.4393 -0.4451 -1.7508
 5948SOL     OW29305   2.650   0.077   4.550 -0.4661  0.1582  0.4673
 5948SOL    HW129306   2.712   0.011   4.518 -0.0916  0.0115  1.4798
 5948SOL    HW229307   2.575   0.053   4.496 -0.1246  0.0126  0.0513
 5949SOL     OW29308   1.508   3.337   1.603  0.3528 -0.3857  0.3300
 5949SOL    HW129309   1.575   3.328   1.671  1.5255  0.7144 -0.6937
 5949SOL    HW229310   1.430   3.368   1.650  1.0784  3.6806 -1.1552
 5950SOL     OW29311   2.902   1.721  14.756  0.8822 -0.4689 -0.0642
 5950SOL    HW129312   2.985   1.764  14.774  0.9064 -1.0108  1.0817
 5950SOL    HW229313   2.934   1.662  14.688 -1.1858  0.6559 -2.0288
 5951SOL     OW29314   1.026   3.518   8.203 -0.6052  0.2578  0.1497
 5951SOL    HW129315   1.003   3.506   8.295  0.1790 -0.6669  0.2235
 5951SOL    HW229316   1.104   3.572   8.217 -0.8396  0.7993 -0.6360
 5952SOL     OW29317   2.851   4.493   4.207 -0.7272  0.9160  0.2999
 5952SOL    HW129318   2.772   4.493   4.154  0.3758  1.1986 -1.3324
 5952SOL    HW229319   2.925   4.507   4.147 -0.2823  1.3060  0.9403
 5953SOL     OW29320   0.825   2.257   6.318  0.0761  0.1930  0.2967
 5953SOL    HW129321   0.769   2.227   6.389  0.7303 -3.6797 -0.8412
 5953SOL    HW229322   0.811   2.351   6.332 -0.8523 -0.0869  1.1977
 5954SOL     OW29323   3.784   3.895   4.193  0.3579  0.4973 -0.2109
 5954SOL    HW129324   3.813   3.904   4.283 -0.7265  1.5092  0.0415
 5954SOL    HW229325   3.763   3.802   4.186  2.0234  0.1113 -0.0449
 5955SOL     OW29326   3.371   2.115   2.296  0.2379 -0.0290  0.6082
 5955SOL    HW129327   3.435   2.063   2.344 -0.4926 -0.4188  1.1653
 5955SOL    HW229328   3.395   2.103   2.204  0.0049  2.2840  0.2517
 5956SOL     OW29329   2.678   2.598   8.513  0.0365  0.1917 -0.2690
 5956SOL    HW129330   2.585   2.598   8.490  0.0255 -0.6740 -0.2413
 5956SOL    HW229331   2.698   2.507   8.490 -1.7777 -0.2376 -0.1740
 5957SOL     OW29332   4.548   1.707   9.891 -0.8354  0.2464  0.0786
 5957SOL    HW129333   4.584   1.718   9.979  0.1079  1.8817 -0.5136
 5957SOL    HW229334   4.531   1.613   9.885  1.8212 -0.3218  1.5620
 5958SOL     OW29335   0.495   1.006  16.394  0.3734 -0.2123 -0.2645
 5958SOL    HW129336   0.470   1.098  16.385 -0.4607 -0.6420 -2.1420
 5958SOL    HW229337   0.477   0.994  16.487 -0.7909 -0.0749 -0.4815
 5959SOL     OW29338   4.216   2.764   6.252 -0.2100 -0.0761  0.0598
 5959SOL    HW129339   4.252   2.803   6.172 -1.2553  1.4933  0.3518
 5959SOL    HW229340   4.161   2.835   6.285 -0.6760  0.1232 -1.1300
 5960SOL     OW29341   2.293   0.923  11.778 -0.4462  0.4758  0.7243
 5960SOL    HW129342   2.243   0.988  11.827  0.9364  3.3046 -1.6362
 5960SOL    HW229343   2.358   0.906  11.846  1.4628  0.0249 -1.2000
 5961SOL     OW29344   1.161   2.921  12.009  0.9174 -0.3222  0.1343
 5961SOL    HW129345   1.193   2.886  11.926  3.6215  2.0088  0.1656
 5961SOL    HW229346   1.231   2.980  12.037  0.7943 -0.3247  0.4351
 5962SOL     OW29347   3.242   1.631  15.703  0.0226 -0.3744 -0.1726
 5962SOL    HW129348   3.174   1.586  15.653 -0.3236  0.5613 -0.5543
 5962SOL    HW229349   3.219   1.719  15.673  1.4405  1.0274  2.8482
 5963SOL     OW29350   2.455   2.458  10.221  0.1866 -0.0106  0.2548
 5963SOL    HW129351   2.513   2.522  10.180  0.5014 -0.6823 -0.3254
 5963SOL    HW229352   2.514   2.390  10.253 -1.9997 -1.2745  1.6472
 5964SOL     OW29353   3.336   1.853   4.357  0.1234 -0.1956 -0.2487
 5964SOL    HW129354   3.395   1.787   4.392 -0.2227  0.7047  2.0317
 5964SOL    HW229355   3.377   1.860   4.270  1.2209  0.8606  0.3587
 5965SOL     OW29356   2.141   1.963   7.740 -0.6037 -0.7721 -0.5831
 5965SOL    HW129357   2.097   2.035   7.695  4.7183  0.4574 -3.8623
 5965SOL    HW229358   2.065   1.944   7.795 -0.0758  0.6115  0.6036
 5966SOL     OW29359   3.083   0.320   9.854  0.0875  0.2655  0.2320
 5966SOL    HW129360   3.063   0.404   9.813 -3.5709 -0.1498  1.1520
 5966SOL    HW229361   3.009   0.273   9.815  0.5034  1.5571 -2.0985
 5967SOL     OW29362   4.443   3.473  13.460 -0.5514 -0.2203 -0.4693
 5967SOL    HW129363   4.486   3.462  13.545 -1.2208  0.5723 -0.0392
 5967SOL    HW229364   4.422   3.566  13.460  0.8043  0.0877  0.9663
 5968SOL     OW29365   1.593   2.142  13.941  0.4898  0.6087  0.1010
 5968SOL    HW129366   1.628   2.207  14.001  2.0765  0.3045 -0.4956
 5968SOL    HW229367   1.610   2.064  13.994  0.7235 -0.0221 -0.8985
 5969SOL     OW29368   2.680   3.362   0.746 -0.7497  0.5849  0.1290
 5969SOL    HW129369   2.649   3.440   0.700  0.1298  0.1098 -1.2661
 5969SOL    HW229370   2.601   3.338   0.794  0.2201  1.1396  2.0157
 5970SOL     OW29371   3.137   3.514   7.405  0.3509  0.0728 -0.1148
 5970SOL    HW129372   3.148   3.463   7.486 -0.2435  1.0588  0.5768
 5970SOL    HW229373   3.101   3.447   7.346 -0.4124 -1.1479  1.7194
 5971SOL     OW29374   3.846   1.167  11.720  0.2810  0.2079  0.1468
 5971SOL    HW129375   3.814   1.094  11.668 -1.0959  0.6818  0.3146
 5971SOL    HW229376   3.905   1.119  11.778  0.4657  0.3235  0.0544
 5972SOL     OW29377   1.492   0.302  13.177 -0.2934 -0.5603  0.1928
 5972SOL    HW129378   1.406   0.268  13.153 -0.3553 -0.7474  0.6828
 5972SOL    HW229379   1.541   0.229  13.214 -0.3313 -0.9404 -0.5119
 5973SOL     OW29380   2.839   3.257   4.678  0.4113  0.5339  0.2704
 5973SOL    HW129381   2.744   3.272   4.679 -0.2526 -3.7769  2.1830
 5973SOL    HW229382   2.841   3.194   4.750 -0.0459 -1.3619 -1.3521
 5974SOL     OW29383   0.972   0.542  11.896  0.0839  0.3025  0.0905
 5974SOL    HW129384   1.005   0.484  11.829 -1.2529 -0.9404  0.5098
 5974SOL    HW229385   0.904   0.592  11.851 -0.3488  0.2017  0.6251
 5975SOL     OW29386   2.262   2.284   9.981  0.2512  0.7880  1.0013
 5975SOL    HW129387   2.317   2.214   9.945  0.1028  1.8948 -1.3548
 5975SOL    HW229388   2.181   2.280   9.930  1.2241 -1.4505 -0.3895
 5976SOL     OW29389   2.788   0.968  15.016  0.3177  0.8184 -0.2205
 5976SOL    HW129390   2.865   0.948  15.069  1.0372  1.0052 -1.2004
 5976SOL    HW229391   2.824   0.938  14.933  0.7157 -1.6043  0.8072
 5977SOL     OW29392   1.896   1.736   0.432 -0.0454 -0.1888  0.2027
 5977SOL    HW129393   1.976   1.741   0.380 -1.4073  0.8167 -1.8215
 5977SOL    HW229394   1.931   1.788   0.504 -0.7947  1.8050 -0.8622
 5978SOL     OW29395   2.798   2.789   8.693  0.3109  0.5098  0.0264
 5978SOL    HW129396   2.760   2.785   8.780 -0.3860  3.6033 -0.1341
 5978SOL    HW229397   2.757   2.711   8.655 -0.5243  0.3968  1.1794
 5979SOL     OW29398   1.795   1.698  15.208 -0.4000 -0.1469  0.1856
 5979SOL    HW129399   1.775   1.739  15.125  0.9093  0.5525  0.2115
 5979SOL    HW229400   1.706   1.687  15.241 -0.3617  0.2571  0.4214
 5980SOL     OW29401   1.526   4.624   5.994  0.3855 -0.0158 -0.2651
 5980SOL    HW129402   1.592   4.557   6.008  0.3106 -0.5407 -2.4074
 5980SOL    HW229403   1.569   4.706   6.020 -2.5499  0.9988  1.3701
 5981SOL     OW29404   4.580   3.092  14.192  0.0329  0.0695 -0.9269
 5981SOL    HW129405   4.668   3.069  14.162 -0.2195 -0.7228 -1.0475
 5981SOL    HW229406   4.537   3.008  14.208  0.1175  0.0108 -1.0127
 5982SOL     OW29407   3.278   2.352   2.450 -0.9990  0.3918 -0.2930
 5982SOL    HW129408   3.221   2.387   2.382 -0.6162  0.6008 -0.5070
 5982SOL    HW229409   3.339   2.297   2.399 -0.5846  0.3654  0.2357
 5983SOL     OW29410   1.492   4.571   8.960  0.3745 -0.2059  0.3198
 5983SOL    HW129411   1.436   4.494   8.963  1.1850 -0.7933  0.4864
 5983SOL    HW229412   1.485   4.608   9.049 -0.5912 -1.1195  0.6179
 5984SOL     OW29413   0.461   2.185  10.531  0.3306  0.1344  0.1987
 5984SOL    HW129414   0.405   2.119  10.570  0.1892  0.4086  0.4568
 5984SOL    HW229415   0.508   2.211  10.610  2.2212 -0.1531 -0.8042
 5985SOL     OW29416   2.306   0.508  10.052 -0.3902 -0.4436 -0.0609
 5985SOL    HW129417   2.283   0.433   9.997  0.8866 -1.5664  0.9331
 5985SOL    HW229418   2.237   0.571  10.030 -0.4342  0.3451  2.3082
 5986SOL     OW29419   1.639   2.707   2.233 -0.2162 -0.5873  0.3593
 5986SOL    HW129420   1.562   2.736   2.184 -1.1951 -2.9068  0.5114
 5986SOL    HW229421   1.712   2.766   2.214 -1.7260  1.0779 -0.3003
 5987SOL     OW29422   3.750   3.810   9.086 -0.0529  0.9643 -0.3295
 5987SOL    HW129423   3.793   3.787   9.169  1.5025 -1.2372 -1.7382
 5987SOL    HW229424   3.810   3.769   9.025 -0.5523  0.4425 -0.4667
 5988SOL     OW29425   4.286   2.878   6.006  0.1466 -0.1823 -0.0154
 5988SOL    HW129426   4.382   2.880   6.009  0.0669  2.4734  0.8088
 5988SOL    HW229427   4.259   2.864   5.915  1.9504  1.0163 -0.7430
 5989SOL     OW29428   3.393   1.709   7.598  0.1535 -0.2480 -0.7586
 5989SOL    HW129429   3.455   1.637   7.593 -0.7793 -1.0637 -0.4618
 5989SOL    HW229430   3.411   1.741   7.686  1.1548 -0.6739 -0.8135
 5990SOL     OW29431   2.188   0.980   8.820  0.1357  0.3926  0.0946
 5990SOL    HW129432   2.120   0.972   8.887 -0.3745 -0.6048 -0.5330
 5990SOL    HW229433   2.268   1.015   8.860  0.9485 -0.2241 -0.9991
 5991SOL     OW29434   3.199   3.433  12.972  0.1327  0.2415 -0.0292
 5991SOL    HW129435   3.147   3.354  12.953  0.7041 -0.3150  0.6930
 5991SOL    HW229436   3.183   3.497  12.903 -2.6360  1.2757  1.5667
 5992SOL     OW29437   2.060   2.212  12.330 -0.2249  0.3301 -0.1779
 5992SOL    HW129438   2.051   2.207  12.425  0.7365 -2.7704 -0.2522
 5992SOL    HW229439   2.113   2.291  12.318  2.1362 -1.5631 -2.4865
 5993SOL     OW29440   4.052   1.869   0.496 -0.1893  0.4917  0.1342
 5993SOL    HW129441   3.989   1.798   0.506 -1.4694  1.3741 -1.7506
 5993SOL    HW229442   4.071   1.901   0.584  1.2545  0.9001 -0.3158
 5994SOL     OW29443   3.288   0.977   3.976  0.4095  0.2526  0.2674
 5994SOL    HW129444   3.216   0.947   3.920  1.1692 -1.6798  0.3280
 5994SOL    HW229445   3.253   0.991   4.064  0.9023 -0.8475  0.6391
 5995SOL     OW29446   0.265   2.671   7.421 -0.0212  1.1345 -0.3475
 5995SOL    HW129447   0.259   2.752   7.471 -1.1987 -0.5604  2.2417
 5995SOL    HW229448   0.225   2.693   7.337 -1.3795 -0.4117 -0.1025
 5996SOL     OW29449   1.027   2.464   8.223  0.0781  0.8407 -0.0775
 5996SOL    HW129450   1.120   2.473   8.202  0.0181  0.4387 -0.5259
 5996SOL    HW229451   1.000   2.554   8.240  0.9209  1.1428 -0.3228
 5997SOL     OW29452   1.854   1.679   5.658 -0.2353  0.1897  0.1543
 5997SOL    HW129453   1.836   1.654   5.568  1.5294 -0.5482 -0.0050
 5997SOL    HW229454   1.806   1.617   5.713  0.7436  0.8284  1.7468
 5998SOL     OW29455   1.731   1.272  10.904 -0.5583  0.3186  0.2960
 5998SOL    HW129456   1.700   1.221  10.978 -0.6386 -1.8677 -1.2429
 5998SOL    HW229457   1.806   1.319  10.940 -0.5330 -0.7260  1.6080
 5999SOL     OW29458   2.297   0.569   8.300 -0.0434  0.9455  0.0823
 5999SOL    HW129459   2.279   0.492   8.246 -0.5335  0.7635  0.5083
 5999SOL    HW229460   2.363   0.534   8.360  2.4011  0.5733 -2.8604
 6000SOL     OW29461   1.798   4.346   9.848 -0.2334 -0.1572  0.0870
 6000SOL    HW129462   1.781   4.384   9.762 -1.8605 -0.3420  0.3423
 6000SOL    HW229463   1.738   4.399   9.901  0.3833  1.0756 -0.4382
 6001SOL     OW29464   0.108   0.088   1.654  0.0249 -0.5464 -0.2137
 6001SOL    HW129465   0.172   0.158   1.662 -1.1814  0.3683  1.2374
 6001SOL    HW229466   0.061   0.103   1.736 -1.6377 -0.5747 -1.1599
 6002SOL     OW29467   2.040   2.956   9.711 -0.7519  0.2989  0.1340
 6002SOL    HW129468   2.099   2.923   9.643 -1.6557  0.2265 -0.6082
 6002SOL    HW229469   2.052   2.890   9.780 -2.4695 -0.0019  0.1422
 6003SOL     OW29470   1.095   0.563   2.838  0.3101 -0.1227  0.2517
 6003SOL    HW129471   1.087   0.525   2.925 -1.5790 -0.0305  0.1080
 6003SOL    HW229472   1.183   0.530   2.817  0.8119  0.0765  1.9890
 6004SOL     OW29473   3.740   2.955  14.734 -0.0715  0.4930 -0.3958
 6004SOL    HW129474   3.666   2.897  14.717  1.2845 -0.6543 -2.3417
 6004SOL    HW229475   3.701   3.034  14.697  0.3235  0.6224 -0.5358
 6005SOL     OW29476   3.735   3.165  10.642 -0.2885 -0.1882  0.0081
 6005SOL    HW129477   3.743   3.259  10.625  0.2111 -0.4374 -1.1776
 6005SOL    HW229478   3.825   3.131  10.640 -0.2929 -0.2372  0.9716
 6006SOL     OW29479   0.056   3.264  13.772  0.0254  0.3161 -0.2286
 6006SOL    HW129480   0.049   3.171  13.751  0.3570  1.0515 -3.5983
 6006SOL    HW229481   0.003   3.267  13.851 -0.6812 -0.0669 -0.6858
 6007SOL     OW29482   0.188   0.029  13.861 -0.0876  0.6960  0.5140
 6007SOL    HW129483   0.100   4.727  13.885  0.7271 -2.8125 -0.9100
 6007SOL    HW229484   0.204   4.716  13.776  1.4779  0.1077  1.0934
 6008SOL     OW29485   4.281   4.573   8.958  0.2771  0.0667  0.2901
 6008SOL    HW129486   4.309   4.528   8.878 -0.2842  1.9494 -0.9738
 6008SOL    HW229487   4.197   4.530   8.974 -0.1116  0.6767 -0.1193
 6009SOL     OW29488   2.895   1.588   3.999 -0.0497 -0.1577  0.5302
 6009SOL    HW129489   2.928   1.677   3.985  1.4724 -0.3850  2.7034
 6009SOL    HW229490   2.974   1.541   3.974  0.6374  1.8788 -1.0546
 6010SOL     OW29491   3.376   1.087   7.833 -0.2336 -0.3859  0.5612
 6010SOL    HW129492   3.312   1.092   7.904 -1.7599 -2.0518 -0.7070
 6010SOL    HW229493   3.388   1.182   7.825  0.1325 -0.2553  2.6229
 6011SOL     OW29494   2.689   3.211   6.368  0.3028  0.2270  0.0554
 6011SOL    HW129495   2.690   3.260   6.450  0.1137 -0.8142  0.6845
 6011SOL    HW229496   2.596   3.189   6.374  1.0343 -2.6071  0.9347
 6012SOL     OW29497   2.239   2.634   1.077 -0.3146  0.1558 -0.0074
 6012SOL    HW129498   2.154   2.620   1.118 -0.8444 -0.9571 -1.4841
 6012SOL    HW229499   2.294   2.648   1.154  0.0381  1.3267 -0.4641
 6013SOL     OW29500   2.972   1.824  15.085  0.9447 -0.3337 -0.3896
 6013SOL    HW129501   3.037   1.836  15.017  1.1217 -1.2095 -0.3718
 6013SOL    HW229502   2.914   1.888  15.043 -2.5572 -1.5062  2.5673
 6014SOL     OW29503   3.627   3.733   3.158 -0.0532  0.4800 -0.2964
 6014SOL    HW129504   3.617   3.679   3.080  0.4398 -0.0786  0.0339
 6014SOL    HW229505   3.672   3.809   3.122  0.1667 -0.0145 -1.0524
 6015SOL     OW29506   3.078   0.262  17.328  0.1755  0.2258 -0.0691
 6015SOL    HW129507   3.142   0.224  17.269 -1.4249 -0.8205 -1.1427
 6015SOL    HW229508   2.998   0.232  17.285 -0.3914  2.0499 -0.2631
 6016SOL     OW29509   1.502   1.610   9.028  0.1207 -0.1213  0.4073
 6016SOL    HW129510   1.475   1.524   9.062  0.7790 -0.8641 -0.9553
 6016SOL    HW229511   1.417   1.654   9.025  0.8288  1.2428  0.8529
 6017SOL     OW29512   4.590   4.362   2.515  0.1275 -0.4769 -0.0231
 6017SOL    HW129513   4.545   4.281   2.491 -0.7624 -0.0649  0.2648
 6017SOL    HW229514   4.520   4.426   2.505 -1.9426 -3.0224 -1.6146
 6018SOL     OW29515   0.834   3.735   5.733 -0.0359  0.0708  0.6537
 6018SOL    HW129516   0.841   3.757   5.825 -0.5665  2.0436  0.2277
 6018SOL    HW229517   0.877   3.814   5.698  1.2133 -0.1389  1.7051
 6019SOL     OW29518   0.601   4.421   8.625  0.0538 -0.1942  0.3933
 6019SOL    HW129519   0.637   4.447   8.710 -1.4444  0.3816  0.8647
 6019SOL    HW229520   0.679   4.443   8.574 -0.3654 -1.0740 -0.6277
 6020SOL     OW29521   1.648   2.084   2.312  0.2550  0.0023 -0.3720
 6020SOL    HW129522   1.560   2.117   2.329  0.8358  0.4254  1.8326
 6020SOL    HW229523   1.639   1.989   2.302  1.0730 -0.0518 -0.6051
 6021SOL     OW29524   0.885   2.324  11.355  0.5286 -0.3915 -0.0330
 6021SOL    HW129525   0.946   2.398  11.347 -1.3395  0.9755 -1.7548
 6021SOL    HW229526   0.868   2.338  11.448 -0.2839  2.5452 -0.6071
 6022SOL     OW29527   0.726   0.862   0.794  0.5613  0.0124 -0.2976
 6022SOL    HW129528   0.669   0.927   0.835 -1.3175 -0.7242 -1.7558
 6022SOL    HW229529   0.670   0.784   0.798 -0.4774  0.7219 -0.8441
 6023SOL     OW29530   4.621   0.270   8.650  0.0332  0.2602  0.6263
 6023SOL    HW129531   4.577   0.353   8.635 -0.5496 -0.3372 -0.9640
 6023SOL    HW229532   4.587   0.251   8.737  0.3254  2.6322  1.2542
 6024SOL     OW29533   3.754   0.667  11.891  0.2234 -0.5790  0.3546
 6024SOL    HW129534   3.822   0.650  11.956  0.6138  2.6814  0.7760
 6024SOL    HW229535   3.807   0.656  11.812 -1.7207  1.3588 -1.2070
 6025SOL     OW29536   2.087   0.422   6.794 -0.0790  0.0934  0.3520
 6025SOL    HW129537   2.071   0.353   6.859  0.6502  0.2022  0.6432
 6025SOL    HW229538   2.138   0.371   6.730  1.3373  1.6476  0.2551
 6026SOL     OW29539   3.651   0.534  10.169 -0.5895 -0.2303  0.6704
 6026SOL    HW129540   3.633   0.463  10.107 -1.9978 -0.3893  1.2568
 6026SOL    HW229541   3.588   0.514  10.239  1.4484 -1.2631  2.2151
 6027SOL     OW29542   3.068   3.898   7.325  0.0042  0.0155  0.1720
 6027SOL    HW129543   3.019   3.831   7.277 -2.0251  0.0829  2.1576
 6027SOL    HW229544   3.132   3.839   7.365 -0.8361 -0.6295  0.5658
 6028SOL     OW29545   4.485   2.645   9.006  0.0562  0.6160 -0.1021
 6028SOL    HW129546   4.541   2.708   8.961  0.7783  0.2103  0.2205
 6028SOL    HW229547   4.543   2.569   9.008 -1.4746 -0.5604 -0.7720
 6029SOL     OW29548   1.889   1.222   4.747 -0.2877 -0.0997 -0.3312
 6029SOL    HW129549   1.958   1.230   4.813  0.1727  1.6857 -1.0306
 6029SOL    HW229550   1.862   1.133   4.766 -2.5029  0.4538 -0.9305
 6030SOL     OW29551   0.556   2.691   4.200 -0.4619 -0.2270 -0.3648
 6030SOL    HW129552   0.637   2.656   4.238  0.6953  1.5540 -1.2064
 6030SOL    HW229553   0.491   2.698   4.270 -1.4967  1.3570 -1.5036
 6031SOL     OW29554   3.559   2.158   7.440 -0.2381  0.2430 -0.9134
 6031SOL    HW129555   3.566   2.253   7.446  1.3959  0.0937 -0.3710
 6031SOL    HW229556   3.566   2.146   7.535  0.3421 -1.1457 -1.1250
 6032SOL     OW29557   1.967   2.690  15.061 -0.4412 -0.1589  0.0796
 6032SOL    HW129558   1.983   2.729  14.976  0.2031 -1.2540 -0.3082
 6032SOL    HW229559   1.952   2.601  15.029  0.8551  0.0885 -1.2303
 6033SOL     OW29560   2.243   1.502  15.010 -0.2353 -0.7641 -0.4221
 6033SOL    HW129561   2.288   1.585  14.995  0.0835 -1.1201 -1.4442
 6033SOL    HW229562   2.238   1.501  15.105 -1.4523  0.3628 -0.4701
 6034SOL     OW29563   3.738   3.181   4.635  0.1751 -0.1634  0.8081
 6034SOL    HW129564   3.714   3.251   4.696 -1.0175  0.3506 -0.2307
 6034SOL    HW229565   3.676   3.113   4.659 -0.9109  0.7209  0.5583
 6035SOL     OW29566   0.699   2.612   9.028 -0.1293 -0.1518 -0.4592
 6035SOL    HW129567   0.696   2.693   9.079 -2.8544 -1.2185  1.0486
 6035SOL    HW229568   0.743   2.552   9.088  1.3589  0.1352 -1.2692
 6036SOL     OW29569   3.037   2.172  15.577 -1.0384  0.5955 -0.2877
 6036SOL    HW129570   2.996   2.246  15.532 -0.1491 -0.2494 -2.4926
 6036SOL    HW229571   3.009   2.095  15.527  0.8762 -0.7126  0.6794
 6037SOL     OW29572   0.756   2.974   6.040  0.3340  0.3727  0.3968
 6037SOL    HW129573   0.830   2.956   6.099 -0.0497 -1.2406  0.3882
 6037SOL    HW229574   0.794   2.965   5.953 -1.6098 -3.2154 -0.0624
 6038SOL     OW29575   2.011   0.008   7.099  0.6329 -0.8122  0.3083
 6038SOL    HW129576   2.010   0.060   7.180  2.2078 -0.3246  0.0172
 6038SOL    HW229577   1.983   4.651   7.133  0.3719 -0.9360 -0.2095
 6039SOL     OW29578   3.856   0.958   3.138 -0.5224  0.2278  0.5811
 6039SOL    HW129579   3.884   0.947   3.229  1.0723 -3.0376 -0.2909
 6039SOL    HW229580   3.794   1.027   3.162 -0.7701  0.2107  0.0067
 6040SOL     OW29581   2.419   4.094   6.201 -0.0906 -0.2784 -0.5526
 6040SOL    HW129582   2.429   4.158   6.131 -2.0094 -0.8480 -1.3244
 6040SOL    HW229583   2.456   4.140   6.276 -0.9497 -0.4492 -0.0242
 6041SOL     OW29584   2.392   0.992   4.678  0.3547 -0.2843 -0.1285
 6041SOL    HW129585   2.415   1.016   4.588  0.1033 -1.1200 -0.4193
 6041SOL    HW229586   2.412   1.073   4.725 -2.7132  2.0491 -2.8197
 6042SOL     OW29587   2.496   1.273   8.058  0.2629 -0.0923 -0.4400
 6042SOL    HW129588   2.404   1.297   8.047  0.3585  1.0679  1.3422
 6042SOL    HW229589   2.492   1.185   8.097 -0.9810  0.3434  0.4101
 6043SOL     OW29590   2.613   1.855  13.927 -0.1738  0.2708  0.2940
 6043SOL    HW129591   2.671   1.922  13.889 -1.9216  1.6993  0.1725
 6043SOL    HW229592   2.661   1.848  14.010 -1.0227  0.5922  0.8084
 6044SOL     OW29593   1.780   4.204   1.677 -0.2727  0.0106  0.1189
 6044SOL    HW129594   1.869   4.167   1.674 -0.0565  0.5194  0.2993
 6044SOL    HW229595   1.798   4.285   1.724 -0.1370 -0.6893  1.2555
 6045SOL     OW29596   3.676   2.425   8.084 -0.5700  0.4986 -0.2742
 6045SOL    HW129597   3.730   2.478   8.025 -1.6568  2.0976  0.1574
 6045SOL    HW229598   3.625   2.495   8.125 -1.7302 -0.4130 -0.1837
 6046SOL     OW29599   1.569   2.862   6.938 -0.2488  0.7082 -0.2082
 6046SOL    HW129600   1.542   2.943   6.981 -1.3362 -0.1003  0.6577
 6046SOL    HW229601   1.564   2.806   7.015  2.9362 -0.1814 -0.6457
 6047SOL     OW29602   0.395   1.983  15.828 -0.4235 -0.0066 -0.3618
 6047SOL    HW129603   0.331   1.994  15.899  1.1833 -1.1551  1.2721
 6047SOL    HW229604   0.459   1.927  15.872  0.1818 -0.2512 -1.5574
 6048SOL     OW29605   1.167   1.292   7.600  0.1263 -0.4498  0.2832
 6048SOL    HW129606   1.213   1.359   7.549 -0.4700 -0.4252 -0.2251
 6048SOL    HW229607   1.203   1.213   7.561 -1.0973 -0.4261 -0.8810
 6049SOL     OW29608   2.598   1.270   7.177 -0.5603  0.1905 -0.0526
 6049SOL    HW129609   2.575   1.352   7.220 -0.9751  0.1283 -0.1611
 6049SOL    HW229610   2.564   1.286   7.089 -0.2236  1.1569 -0.0047
 6050SOL     OW29611   0.268   3.672  12.988 -0.2267  0.7413 -0.0067
 6050SOL    HW129612   0.303   3.601  13.043  1.9659  2.2278  0.5309
 6050SOL    HW229613   0.341   3.703  12.934  2.0725  0.2906  2.8591
 6051SOL     OW29614   4.523   1.036   8.402 -0.0835  0.2546 -0.9194
 6051SOL    HW129615   4.580   1.099   8.359  1.6266 -0.5139  0.1983
 6051SOL    HW229616   4.455   1.045   8.336 -0.7358  1.4486 -0.0920
 6052SOL     OW29617   1.460   4.673   9.947  0.4700  0.0790  0.1030
 6052SOL    HW129618   1.401   4.606   9.980  2.7283 -1.0081  1.9431
 6052SOL    HW229619   1.434   0.015  10.007  1.8504 -0.2047  1.0266
 6053SOL     OW29620   0.215   0.136   8.529  0.1213 -0.1974 -0.1450
 6053SOL    HW129621   0.185   0.205   8.587  1.7541 -1.1267  1.8045
 6053SOL    HW229622   0.311   0.139   8.538  0.1000 -1.0386  0.3714
 6054SOL     OW29623   2.178   2.379   4.930 -0.3557  0.0408  0.6374
 6054SOL    HW129624   2.268   2.347   4.920  0.0191  1.2724  0.1264
 6054SOL    HW229625   2.181   2.472   4.909 -1.6983  0.4162  2.1325
 6055SOL     OW29626   0.882   4.028   3.962 -0.1282 -0.5340 -0.4179
 6055SOL    HW129627   0.950   3.975   4.003  0.8885  1.0404 -0.0262
 6055SOL    HW229628   0.809   4.006   4.020  1.9754  0.4345  2.6170
 6056SOL     OW29629   3.772   0.498   3.794  0.3014  0.6353 -0.2876
 6056SOL    HW129630   3.725   0.557   3.853  2.2556  2.1909 -0.2913
 6056SOL    HW229631   3.706   0.494   3.724  0.5576  1.0108 -0.5506
 6057SOL     OW29632   3.312   2.117   4.811 -0.4638  0.4497  0.8382
 6057SOL    HW129633   3.355   2.071   4.739 -0.9072 -0.0567  0.9064
 6057SOL    HW229634   3.232   2.153   4.775  0.9599  2.0556 -0.7373
 6058SOL     OW29635   2.415   1.240   1.577 -0.0131  0.2643 -0.1673
 6058SOL    HW129636   2.430   1.324   1.534 -1.5159  0.8311  0.4120
 6058SOL    HW229637   2.358   1.192   1.516 -0.8416  0.6511  0.2970
 6059SOL     OW29638   2.374   1.200   6.687 -0.3680 -0.3698 -0.1150
 6059SOL    HW129639   2.297   1.245   6.721  0.6449  0.9749  0.3999
 6059SOL    HW229640   2.431   1.276   6.673 -2.1994  0.5393 -2.7409
 6060SOL     OW29641   3.269   0.618   4.861 -0.0035  0.1148 -0.5152
 6060SOL    HW129642   3.339   0.596   4.799  0.2208 -0.5029 -0.0410
 6060SOL    HW229643   3.268   0.713   4.864  1.2069  0.0903  0.4196
 6061SOL     OW29644   3.511   3.042   1.788  0.8125 -0.3310  0.2213
 6061SOL    HW129645   3.548   3.087   1.712  0.1162 -0.3089 -0.1048
 6061SOL    HW229646   3.449   2.985   1.743 -1.8953 -0.9076  4.6654
 6062SOL     OW29647   0.216   2.300   5.037 -0.2275 -0.1881  0.0462
 6062SOL    HW129648   0.194   2.361   5.107 -0.1366  1.3073 -1.2312
 6062SOL    HW229649   0.138   2.246   5.043  0.1379 -0.5843  1.1707
 6063SOL     OW29650   1.943   3.943  10.644  0.3095  0.1246  0.4958
 6063SOL    HW129651   1.893   3.894  10.578 -0.0224 -0.0254  0.8585
 6063SOL    HW229652   1.902   3.911  10.724  2.6003 -1.2427  1.1300
 6064SOL     OW29653   0.679   4.409  15.063  0.3040  0.3496  0.4326
 6064SOL    HW129654   0.768   4.383  15.089  0.6503  2.3692  1.2977
 6064SOL    HW229655   0.691   4.427  14.970 -0.5131  0.1474  0.2972
 6065SOL     OW29656   2.121   1.801  14.905  0.2785 -0.5322  0.1243
 6065SOL    HW129657   2.144   1.749  14.828  0.2386 -1.3289  0.6506
 6065SOL    HW229658   2.026   1.803  14.887  0.0675 -1.0112  1.2020
 6066SOL     OW29659   0.879   1.146   4.876 -0.3130 -0.2403  0.5109
 6066SOL    HW129660   0.785   1.140   4.857  0.7150 -0.1615 -4.3921
 6066SOL    HW229661   0.907   1.089   4.805 -0.8870  0.0183  0.0807
 6067SOL     OW29662   1.817   1.171  17.172  0.1254 -0.2802  0.4734
 6067SOL    HW129663   1.892   1.113  17.158 -0.1714 -0.1870 -1.4932
 6067SOL    HW229664   1.843   1.217  17.251 -0.2185  0.5032  0.1298
 6068SOL     OW29665   3.400   4.524   2.624 -0.5482 -0.3834 -0.0313
 6068SOL    HW129666   3.314   4.522   2.665  0.0254  1.6749  1.3085
 6068SOL    HW229667   3.385   4.593   2.559 -0.2124  0.5428  0.8663
 6069SOL     OW29668   1.895   4.711   9.494 -0.2863  0.2985  0.5810
 6069SOL    HW129669   1.848   4.641   9.539  0.1580 -0.6642 -0.4545
 6069SOL    HW229670   1.868   0.054   9.553 -0.2455  0.1745  0.7483
 6070SOL     OW29671   1.923   1.762   8.315  0.5429  0.1628  0.0270
 6070SOL    HW129672   1.859   1.696   8.341  1.2817 -1.0631 -1.2300
 6070SOL    HW229673   1.953   1.725   8.231  1.1219  0.8497 -0.0745
 6071SOL     OW29674   2.234   3.255   2.995 -0.6469 -0.7231 -0.3346
 6071SOL    HW129675   2.298   3.238   2.925 -2.1354  1.0212 -2.1125
 6071SOL    HW229676   2.232   3.351   2.987  1.1152 -0.7998 -1.6944
 6072SOL     OW29677   1.921   2.268   8.839  0.2377 -0.0926  0.3939
 6072SOL    HW129678   1.855   2.245   8.905 -2.7193  2.0791 -1.8186
 6072SOL    HW229679   1.878   2.349   8.810 -0.1993  0.1056  1.5779
 6073SOL     OW29680   4.416   1.053   7.003  0.6169  0.5021  0.6659
 6073SOL    HW129681   4.361   1.005   6.941 -1.6033 -0.1881  3.1923
 6073SOL    HW229682   4.472   1.099   6.940 -2.0233  0.3922 -1.7197
 6074SOL     OW29683   2.389   1.696   7.399  0.4015  0.3471 -0.3640
 6074SOL    HW129684   2.367   1.770   7.455  0.5703  0.6589 -0.7061
 6074SOL    HW229685   2.414   1.747   7.322  2.2335 -3.2797 -2.1952
 6075SOL     OW29686   4.568   1.796  16.677 -0.1965  0.0125 -0.3938
 6075SOL    HW129687   4.558   1.767  16.587 -2.3966  0.7801 -0.4056
 6075SOL    HW229688   4.566   1.714  16.726  0.6621  0.5072  0.4778
 6076SOL     OW29689   1.479   2.577   4.848 -0.3579  0.6717 -0.3958
 6076SOL    HW129690   1.421   2.511   4.811 -1.0199  1.6717 -1.1332
 6076SOL    HW229691   1.566   2.539   4.834 -0.7404 -0.0842 -0.7094
 6077SOL     OW29692   1.619   2.876  15.098  0.1673  0.0450 -0.5405
 6077SOL    HW129693   1.612   2.780  15.105  2.6168 -0.0483  0.5851
 6077SOL    HW229694   1.591   2.904  15.185 -1.9766 -1.7121 -0.6479
 6078SOL     OW29695   0.142   1.711  10.816  0.1931  0.7082 -0.3077
 6078SOL    HW129696   0.218   1.658  10.794 -2.8284 -3.3457 -0.9845
 6078SOL    HW229697   0.118   1.665  10.897 -1.9275 -1.3158 -2.0878
 6079SOL     OW29698   4.287   1.735  13.376 -0.0203 -0.2154 -0.2900
 6079SOL    HW129699   4.244   1.655  13.407 -0.3863 -0.6902 -2.0072
 6079SOL    HW229700   4.367   1.696  13.340  0.7459  0.8283  0.3086
 6080SOL     OW29701   3.392   1.298   8.867 -0.3318  0.5295 -0.1033
 6080SOL    HW129702   3.453   1.228   8.844 -1.3396 -0.9003  1.5653
 6080SOL    HW229703   3.405   1.297   8.962  0.1294 -0.4398 -0.1812
 6081SOL     OW29704   0.332   2.940   5.853  0.0431 -0.4260 -0.1857
 6081SOL    HW129705   0.411   2.907   5.812 -0.3117 -1.6070  0.0892
 6081SOL    HW229706   0.363   3.022   5.892  2.8361  1.2159 -5.8584
 6082SOL     OW29707   0.097   0.028   3.119  0.4585  0.2173  0.4375
 6082SOL    HW129708   0.058   0.000   3.036 -2.0678  1.8279  1.0963
 6082SOL    HW229709   0.187   4.725   3.103 -0.5960 -1.6462 -1.8163
 6083SOL     OW29710   3.704   1.087   3.468 -0.9055  0.2028  0.3598
 6083SOL    HW129711   3.760   1.011   3.449  0.2193  1.8453 -2.7350
 6083SOL    HW229712   3.694   1.082   3.563 -1.8289 -4.3588  0.0294
 6084SOL     OW29713   1.389   1.162  11.633  0.0432 -0.1482 -0.3494
 6084SOL    HW129714   1.357   1.167  11.543 -0.0142  2.5634 -0.1619
 6084SOL    HW229715   1.349   1.079  11.657  2.9329 -1.5525 -0.2894
 6085SOL     OW29716   2.002   0.070   3.775  0.8024 -0.0973 -0.0478
 6085SOL    HW129717   2.080   0.095   3.726  0.4299 -0.1225 -0.6476
 6085SOL    HW229718   1.972   0.159   3.795  1.1689 -0.1663  0.8431
 6086SOL     OW29719   0.364   3.744   4.969  0.0779 -0.0938  0.2019
 6086SOL    HW129720   0.384   3.696   5.049  0.2207 -0.7940 -0.2502
 6086SOL    HW229721   0.271   3.723   4.960 -0.0734  0.6342  0.0887
 6087SOL     OW29722   2.096   2.196   2.728 -0.0233 -0.0939 -0.1815
 6087SOL    HW129723   2.065   2.179   2.817 -0.5440 -0.1234 -0.3716
 6087SOL    HW229724   2.044   2.129   2.684 -0.1321  0.5772 -1.0779
 6088SOL     OW29725   0.171   2.215   7.387 -0.2173  0.0341 -0.2447
 6088SOL    HW129726   0.192   2.230   7.479 -0.7805 -0.1930 -0.0773
 6088SOL    HW229727   0.213   2.284   7.336 -0.8067  0.6409  0.0812
 6089SOL     OW29728   1.261   2.955   9.282  0.1628  0.4082 -0.7834
 6089SOL    HW129729   1.281   2.876   9.332 -0.8749  0.6757  0.0815
 6089SOL    HW229730   1.212   3.006   9.347  0.0554  0.3870 -0.8480
 6090SOL     OW29731   0.782   3.756   2.907  0.1010  0.1804 -0.6775
 6090SOL    HW129732   0.717   3.816   2.945 -1.8527 -2.3782  0.0288
 6090SOL    HW229733   0.821   3.718   2.986 -2.5933 -2.5980 -0.7092
 6091SOL     OW29734   3.740   2.912   7.668 -0.1539 -0.1637  0.3244
 6091SOL    HW129735   3.833   2.934   7.657  0.3643 -0.9269  3.2609
 6091SOL    HW229736   3.746   2.817   7.666  0.8439 -0.0513 -2.0929
 6092SOL     OW29737   3.680   2.573   1.432 -0.3583 -0.0499  0.0682
 6092SOL    HW129738   3.642   2.514   1.367  3.1326 -1.0456 -1.0667
 6092SOL    HW229739   3.639   2.658   1.417  0.0318  0.1704  0.2350
 6093SOL     OW29740   2.368   1.621   3.603 -0.2928 -0.2278  0.4569
 6093SOL    HW129741   2.407   1.543   3.643  0.6200  0.2214  0.4335
 6093SOL    HW229742   2.452   1.654   3.570 -0.1792 -1.1268 -0.1315
 6094SOL     OW29743   3.348   0.084   4.042  0.5642 -0.2152  0.1694
 6094SOL    HW129744   3.349   4.722   4.009  0.9943 -0.9149  2.0263
 6094SOL    HW229745   3.428   0.130   4.016 -0.9560  1.6806 -1.1509
 6095SOL     OW29746   3.020   1.338  17.094 -0.0142  0.3001  0.4135
 6095SOL    HW129747   3.084   1.267  17.087 -0.9409 -0.3202 -1.5195
 6095SOL    HW229748   3.054   1.389  17.021 -3.3176  2.2015  0.2030
 6096SOL     OW29749   4.260   0.838   2.896  0.7423 -0.6446 -0.8051
 6096SOL    HW129750   4.293   0.927   2.895 -1.2673  0.1198  0.1345
 6096SOL    HW229751   4.338   0.787   2.873 -0.4101 -2.9016  0.2309
 6097SOL     OW29752   3.299   4.608   2.068 -0.6745  0.0685 -0.1213
 6097SOL    HW129753   3.348   4.677   2.112  0.2841 -0.2611 -0.6652
 6097SOL    HW229754   3.372   4.547   2.059  1.1659  2.0052  1.6829
 6098SOL     OW29755   1.732   0.783   6.913 -0.0163 -0.2402 -0.0180
 6098SOL    HW129756   1.764   0.867   6.880 -0.0220  0.0952  0.8220
 6098SOL    HW229757   1.813   0.732   6.923  1.9643  2.1788 -3.6669
 6099SOL     OW29758   3.562   4.148   6.573 -0.2030 -0.4151  1.0719
 6099SOL    HW129759   3.615   4.182   6.645  1.3962  0.1918 -0.3929
 6099SOL    HW229760   3.620   4.167   6.500 -1.1383  0.8379  0.6481
 6100SOL     OW29761   2.451   3.287  10.556 -0.0207  0.1415 -0.2036
 6100SOL    HW129762   2.514   3.260  10.622 -0.6622  2.0524  1.1858
 6100SOL    HW229763   2.372   3.310  10.606 -0.8580 -1.1066 -0.9559
 6101SOL     OW29764   3.465   1.887   1.532  0.2442  0.2966 -0.2265
 6101SOL    HW129765   3.371   1.877   1.518  0.1799 -0.9408  1.0618
 6101SOL    HW229766   3.495   1.796   1.520 -2.3647 -0.4162 -1.2913
 6102SOL     OW29767   0.599   1.372  16.026  0.6446 -0.6980  0.4905
 6102SOL    HW129768   0.628   1.340  15.940 -2.2461 -1.7553 -0.1081
 6102SOL    HW229769   0.515   1.324  16.028 -0.8906  1.9599 -0.6144
 6103SOL     OW29770   0.189   3.172  11.040  0.2117  0.2542 -0.0236
 6103SOL    HW129771   0.237   3.094  11.068 -0.3784 -0.0995  0.0108
 6103SOL    HW229772   0.205   3.227  11.116 -0.1336 -1.8813  1.5754
 6104SOL     OW29773   0.007   1.679  15.302  0.3032  0.2357 -0.2701
 6104SOL    HW129774   4.682   1.607  15.335 -1.7209  1.2639 -1.2584
 6104SOL    HW229775   0.096   1.644  15.312  0.0036 -1.4053 -3.3966
 6105SOL     OW29776   4.399   3.115  11.971  0.6958  0.0537 -0.6642
 6105SOL    HW129777   4.389   3.161  12.054  1.0439  1.7383 -1.5480
 6105SOL    HW229778   4.474   3.058  11.982  0.1826 -0.2532  1.2046
 6106SOL     OW29779   4.087   1.513   4.803  0.3847  0.2223  0.0999
 6106SOL    HW129780   4.086   1.436   4.859 -0.4589  0.1393 -0.0340
 6106SOL    HW229781   4.126   1.578   4.862  1.2455  0.6217 -0.9029
 6107SOL     OW29782   2.367   3.876   8.050 -0.4078  0.0419  0.4618
 6107SOL    HW129783   2.360   3.971   8.038 -1.9621 -0.3125 -1.5534
 6107SOL    HW229784   2.423   3.860   7.974  2.0014 -0.5999  2.3789
 6108SOL     OW29785   1.984   1.182   8.797  0.2853 -0.0488  0.0866
 6108SOL    HW129786   2.012   1.097   8.831  2.0139  0.7877  0.7718
 6108SOL    HW229787   2.023   1.196   8.711  0.2440 -2.6540 -0.3334
 6109SOL     OW29788   3.742   3.877   4.688  0.3396  0.0748 -0.3496
 6109SOL    HW129789   3.679   3.949   4.680 -0.6259 -0.9388 -1.8124
 6109SOL    HW229790   3.780   3.889   4.775  0.4283  0.4908 -0.4488
 6110SOL     OW29791   1.052   3.745   7.076 -0.2149 -0.9892  0.4525
 6110SOL    HW129792   1.106   3.807   7.027 -0.0106 -1.1060  0.5274
 6110SOL    HW229793   1.076   3.753   7.168 -1.1966  2.6668  0.3972
 6111SOL     OW29794   0.624   1.372   8.954  0.4134  0.8748 -0.0626
 6111SOL    HW129795   0.536   1.384   8.991  0.6377  1.2038  0.3635
 6111SOL    HW229796   0.646   1.461   8.928  0.2469  0.1261 -2.7199
 6112SOL     OW29797   2.657   3.220   7.518  0.2780  0.1953 -0.3015
 6112SOL    HW129798   2.695   3.283   7.579  0.1659  2.0694 -2.1861
 6112SOL    HW229799   2.563   3.235   7.527  0.0006 -0.4713 -2.0911
 6113SOL     OW29800   2.423   0.689  13.519 -0.1149  0.1108  0.0868
 6113SOL    HW129801   2.461   0.768  13.557 -1.2505  0.5824  0.2261
 6113SOL    HW229802   2.425   0.639  13.601  3.3809  1.0006  0.5586
 6114SOL     OW29803   1.197   0.771   7.490 -0.1738  0.1979 -0.4547
 6114SOL    HW129804   1.235   0.687   7.518 -0.8125 -0.1260 -0.5651
 6114SOL    HW229805   1.125   0.774   7.554  1.0211  0.3161  0.8959
 6115SOL     OW29806   0.902   1.296  14.454 -0.3745  0.2404 -0.3148
 6115SOL    HW129807   0.825   1.280  14.399 -0.8968 -1.0880  0.7944
 6115SOL    HW229808   0.917   1.207  14.488 -0.1595 -0.0007 -1.0383
 6116SOL     OW29809   1.690   1.006   3.350  0.2357 -0.1328  0.4016
 6116SOL    HW129810   1.753   1.050   3.407  0.5460 -0.2402  0.1422
 6116SOL    HW229811   1.615   0.989   3.407 -1.2568  0.4939 -1.3875
 6117SOL     OW29812   3.113   0.896  16.351  0.9449 -0.3704  0.0914
 6117SOL    HW129813   3.039   0.893  16.291  0.6727 -1.8945  0.5107
 6117SOL    HW229814   3.145   0.985  16.334  0.9744 -0.6638 -1.4376
 6118SOL     OW29815   2.426   3.262   2.782 -0.3373 -0.9125  0.6322
 6118SOL    HW129816   2.448   3.258   2.689 -0.2936 -0.1296  0.6047
 6118SOL    HW229817   2.515   3.274   2.816 -0.4198 -2.4801  1.4137
 6119SOL     OW29818   3.793   3.619   0.026  0.0494  0.0308  0.1381
 6119SOL    HW129819   3.734   3.613   0.102 -1.1768 -1.7995 -0.9608
 6119SOL    HW229820   3.748   3.689  17.690  3.9461  2.5233  0.1751
 6120SOL     OW29821   3.167   1.861   4.639 -0.1566  0.0615  0.1498
 6120SOL    HW129822   3.144   1.772   4.666  1.1152  0.5469  2.8988
 6120SOL    HW229823   3.260   1.857   4.618 -0.3049 -0.4474 -0.4026
 6121SOL     OW29824   3.319   0.505   0.324  0.2539  0.4336  0.2999
 6121SOL    HW129825   3.362   0.434   0.373 -0.0667 -0.2211 -0.3670
 6121SOL    HW229826   3.262   0.548   0.388 -0.5735  0.3583 -0.3926
 6122SOL     OW29827   0.879   2.141  10.673  0.0534  0.0145  0.7067
 6122SOL    HW129828   0.975   2.137  10.671  0.0775  0.7279  0.3021
 6122SOL    HW229829   0.851   2.096  10.752 -0.9698 -1.7702 -0.6804
 6123SOL     OW29830   2.102   4.164   5.544  0.3349  0.1067 -0.4094
 6123SOL    HW129831   2.011   4.166   5.516 -0.0795 -3.6248  0.6738
 6123SOL    HW229832   2.125   4.257   5.533  2.8193 -0.3376  1.1889
 6124SOL     OW29833   1.467   2.299   9.087 -0.1299 -0.8046  0.4676
 6124SOL    HW129834   1.502   2.259   9.166  0.4797 -0.0023  0.6020
 6124SOL    HW229835   1.445   2.382   9.128 -0.0130 -1.8705  2.6653
 6125SOL     OW29836   2.550   2.761   2.543 -0.0427  0.7676  0.6711
 6125SOL    HW129837   2.604   2.702   2.596  0.4366  0.3314 -0.2983
 6125SOL    HW229838   2.507   2.817   2.608 -0.2892  1.3808 -0.0287
 6126SOL     OW29839   2.160   3.674   2.141 -0.4093 -0.3336 -0.2337
 6126SOL    HW129840   2.185   3.729   2.067 -0.5714 -2.3595 -1.8156
 6126SOL    HW229841   2.135   3.743   2.202 -1.5514 -0.3267 -0.7229
 6127SOL     OW29842   2.209   0.171   3.597 -0.1431 -0.1361 -0.6201
 6127SOL    HW129843   2.304   0.174   3.590 -0.2658 -0.6619 -2.5780
 6127SOL    HW229844   2.185   0.181   3.505 -1.4381 -0.0692 -0.2783
 6128SOL     OW29845   0.114   3.954  11.320 -0.4720 -0.2864 -0.3789
 6128SOL    HW129846   0.209   3.958  11.308 -0.7100 -2.5150 -2.8871
 6128SOL    HW229847   0.103   3.929  11.412 -3.1048  0.8144 -0.3931
 6129SOL     OW29848   1.349   3.750   6.664 -0.2593  0.6450  0.2188
 6129SOL    HW129849   1.260   3.724   6.643 -0.1139  0.5596 -0.3081
 6129SOL    HW229850   1.392   3.665   6.670  0.3301  0.8182 -1.4731
 6130SOL     OW29851   3.998   1.236   7.913 -0.1785  0.0167 -0.0239
 6130SOL    HW129852   3.968   1.169   7.973 -0.0206 -0.4746 -0.4952
 6130SOL    HW229853   3.932   1.217   7.847 -1.7624  1.9856  0.9989
 6131SOL     OW29854   0.872   0.758   2.175 -0.1407 -0.8126 -0.8088
 6131SOL    HW129855   0.914   0.822   2.118  0.0333  0.3237  0.6037
 6131SOL    HW229856   0.782   0.787   2.188 -0.8364 -2.0968 -2.6736
 6132SOL     OW29857   3.367   1.545  14.730  0.2324  0.3376  0.0018
 6132SOL    HW129858   3.376   1.540  14.635 -0.6961 -2.5973  0.0508
 6132SOL    HW229859   3.425   1.475  14.760  0.2885  1.2577  1.9990
 6133SOL     OW29860   4.227   1.961   3.639  0.0989  0.4922  0.5685
 6133SOL    HW129861   4.253   1.871   3.619  1.0862  0.7074  0.8877
 6133SOL    HW229862   4.132   1.954   3.629  0.3221  0.8122 -1.9401
 6134SOL     OW29863   1.124   4.461   2.196 -0.4594  0.3183 -0.0795
 6134SOL    HW129864   1.105   4.492   2.107  1.9378 -2.0875 -1.4347
 6134SOL    HW229865   1.184   4.389   2.177  0.2614  1.3065 -1.5241
 6135SOL     OW29866   2.938   0.221  11.488 -0.1868 -0.0534 -0.4180
 6135SOL    HW129867   3.011   0.162  11.465 -1.4494 -0.9516 -2.1433
 6135SOL    HW229868   2.958   0.258  11.574 -0.8945  2.1697 -1.2179
 6136SOL     OW29869   0.307   2.811   7.153 -0.5199 -1.1231  1.0310
 6136SOL    HW129870   0.275   2.821   7.063  0.2404 -0.0722  0.8739
 6136SOL    HW229871   0.309   2.900   7.188  0.4405 -1.0174  0.7146
 6137SOL     OW29872   0.063   0.803   7.905 -0.7227 -0.1973  0.2579
 6137SOL    HW129873   0.022   0.723   7.872 -0.8555  0.3412 -0.8663
 6137SOL    HW229874   0.017   0.868   7.853 -0.5768 -0.4432 -0.1743
 6138SOL     OW29875   1.196   3.205   2.107 -0.0170 -0.2422 -0.0299
 6138SOL    HW129876   1.235   3.199   2.194  1.8823 -1.8737 -1.0014
 6138SOL    HW229877   1.106   3.191   2.137 -0.0347 -0.0040  0.0305
 6139SOL     OW29878   1.930   3.060   2.165 -0.6372  0.8465  0.7033
 6139SOL    HW129879   2.002   3.078   2.226  0.8453 -1.1054 -0.4957
 6139SOL    HW229880   1.887   2.976   2.182  1.0503 -0.1417  0.0604
 6140SOL     OW29881   3.144   3.638   4.194 -0.5423  0.1637  0.6548
 6140SOL    HW129882   3.067   3.688   4.167  0.9762  2.1952  0.0938
 6140SOL    HW229883   3.217   3.679   4.148 -1.6042 -0.0665 -1.2167
 6141SOL     OW29884   1.746   2.084   8.615  0.0694  0.8999 -0.4417
 6141SOL    HW129885   1.760   2.036   8.534  1.0054 -1.8597  1.3802
 6141SOL    HW229886   1.813   2.036   8.663  1.5569  1.3562 -2.0347
 6142SOL     OW29887   3.643   3.951  12.848 -0.1002 -0.1015 -0.4732
 6142SOL    HW129888   3.601   4.021  12.898 -0.1857  0.9741 -2.0424
 6142SOL    HW229889   3.588   3.921  12.776  1.0740 -1.0107 -0.9925
 6143SOL     OW29890   1.552   3.100   6.292 -0.9404 -0.3192 -0.7099
 6143SOL    HW129891   1.569   3.089   6.386  2.2674  1.8924 -1.0161
 6143SOL    HW229892   1.633   3.138   6.258  1.0919 -3.3749  0.7341
 6144SOL     OW29893   2.014   1.012   1.691 -0.2329 -0.5280  0.4876
 6144SOL    HW129894   1.925   1.042   1.673 -0.1149 -1.8854 -2.3298
 6144SOL    HW229895   2.020   0.925   1.652  0.2517  0.6227 -1.9920
 6145SOL     OW29896   1.345   2.519   2.695  0.1584  0.5780  0.2557
 6145SOL    HW129897   1.421   2.505   2.638 -0.1107  2.8081 -0.6414
 6145SOL    HW229898   1.396   2.507   2.776  0.2752  1.2754  0.2860
 6146SOL     OW29899   1.476   4.016   4.373  0.5923 -0.0015  0.3387
 6146SOL    HW129900   1.514   3.998   4.287 -2.5056  2.6745 -1.5877
 6146SOL    HW229901   1.388   4.035   4.340  0.7267  0.3145  0.1666
 6147SOL     OW29902   2.881   1.025   9.547  0.4275 -0.5350  0.1203
 6147SOL    HW129903   2.810   1.089   9.546  0.5878 -0.3570  0.0535
 6147SOL    HW229904   2.835   0.945   9.570  2.2088 -1.4884  0.3896
 6148SOL     OW29905   0.298   1.199   7.717 -0.4375 -0.3853  0.1738
 6148SOL    HW129906   0.350   1.221   7.639 -0.6198 -0.4625  0.0304
 6148SOL    HW229907   0.359   1.153   7.775  1.4272 -1.1449 -2.3620
 6149SOL     OW29908   1.785   4.378   6.427 -0.1062  0.6310 -0.0858
 6149SOL    HW129909   1.807   4.286   6.412  1.2010  1.0993 -0.9796
 6149SOL    HW229910   1.856   4.405   6.484  0.4709 -1.9076  0.3900
 6150SOL     OW29911   3.940   2.725  10.839  0.7430 -0.1903 -0.1672
 6150SOL    HW129912   4.030   2.703  10.863  1.0545  3.7807  2.1990
 6150SOL    HW229913   3.918   2.664  10.769 -0.2475 -1.7956  1.5269
 6151SOL     OW29914   0.199   2.246  17.249  0.0179  0.5770 -0.7570
 6151SOL    HW129915   0.105   2.262  17.251 -0.1733 -0.8175  1.2046
 6151SOL    HW229916   0.227   2.337  17.247 -0.3895  0.6742 -1.9111
 6152SOL     OW29917   3.003   2.777   2.877 -0.1692  0.2048  0.3905
 6152SOL    HW129918   3.010   2.712   2.947 -0.2897 -2.2711 -1.9055
 6152SOL    HW229919   3.018   2.853   2.934  2.1728  1.6515 -2.1151
 6153SOL     OW29920   2.889   0.243   6.180  0.1120 -0.3045  0.4336
 6153SOL    HW129921   2.909   0.165   6.232 -0.3406 -0.1074  0.9006
 6153SOL    HW229922   2.798   0.223   6.158 -0.0994 -0.1012  1.1419
 6154SOL     OW29923   2.844   3.578  17.184 -0.2836 -0.3326 -0.3581
 6154SOL    HW129924   2.767   3.630  17.209  1.1621  1.5021  0.3023
 6154SOL    HW229925   2.853   3.613  17.096 -3.1978 -1.0932 -0.9563
 6155SOL     OW29926   4.239   0.914   6.830 -0.4885 -0.2664  0.2091
 6155SOL    HW129927   4.198   0.986   6.781 -1.1954 -0.6786  0.2012
 6155SOL    HW229928   4.210   0.837   6.781  0.6910 -0.1198 -0.7352
 6156SOL     OW29929   3.090   0.853   5.681  0.3672 -0.5521 -0.2276
 6156SOL    HW129930   3.024   0.808   5.734 -1.5168 -0.4119 -2.4463
 6156SOL    HW229931   3.152   0.855   5.754 -0.1537  0.3888  0.1887
 6157SOL     OW29932   1.536   4.180   4.793 -0.6361 -0.6498 -0.9445
 6157SOL    HW129933   1.536   4.176   4.698 -1.5135  0.0617 -0.9829
 6157SOL    HW229934   1.471   4.251   4.796 -2.1517 -2.0072 -1.3484
 6158SOL     OW29935   0.583   1.663   6.997 -0.4312  0.4843  0.0615
 6158SOL    HW129936   0.572   1.614   7.079  2.0476 -0.1321  0.0208
 6158SOL    HW229937   0.580   1.754   7.026 -0.7880  0.8879 -1.2435
 6159SOL     OW29938   1.863   1.338  16.568 -0.2467 -0.5536 -0.5162
 6159SOL    HW129939   1.818   1.365  16.489  0.1307 -0.9818 -0.8751
 6159SOL    HW229940   1.887   1.417  16.617  2.1262 -1.5852  0.0162
 6160SOL     OW29941   0.127   1.725   4.621  0.0813  0.4353 -0.0725
 6160SOL    HW129942   0.214   1.763   4.633  0.1557  0.2326  0.0404
 6160SOL    HW229943   0.086   1.783   4.557  1.7748  1.2093 -0.4434
 6161SOL     OW29944   4.254   2.523  13.336 -0.1225  0.1774  0.0858
 6161SOL    HW129945   4.170   2.497  13.298 -1.5642  2.8437  1.4067
 6161SOL    HW229946   4.287   2.581  13.267  0.8851  0.5367  0.8651
 6162SOL     OW29947   2.538   0.256   8.091 -0.0726 -0.1370 -0.1795
 6162SOL    HW129948   2.543   0.163   8.069  1.7003  0.1367 -0.9226
 6162SOL    HW229949   2.630   0.280   8.091 -0.6796  2.1208  0.7393
 6163SOL     OW29950   2.179   3.970  10.116 -0.2377 -0.1977  0.3833
 6163SOL    HW129951   2.259   3.968  10.169 -0.8037 -0.8348  1.2134
 6163SOL    HW229952   2.116   3.952  10.186  0.4976 -0.5107  0.9586
 6164SOL     OW29953   2.504   3.747   2.327  0.1717 -0.0009 -0.0658
 6164SOL    HW129954   2.410   3.748   2.344  0.3244  2.1339  0.5653
 6164SOL    HW229955   2.511   3.659   2.288  0.7678 -0.1689  0.4294
 6165SOL     OW29956   0.853   3.999   2.799  0.1145  0.0270 -0.3084
 6165SOL    HW129957   0.821   3.909   2.798  1.3279 -0.4031 -0.2344
 6165SOL    HW229958   0.782   4.047   2.757 -1.5871 -0.0832  2.3873
 6166SOL     OW29959   1.815   4.615   4.545  0.0975 -0.4238 -0.5068
 6166SOL    HW129960   1.873   4.561   4.599  0.1014  0.0778 -0.0024
 6166SOL    HW229961   1.738   4.558   4.537  0.3544 -0.9362  0.5888
 6167SOL     OW29962   2.173   3.543   2.950 -0.7360 -0.5006  0.0943
 6167SOL    HW129963   2.140   3.615   3.003 -2.2466 -0.6013 -0.7086
 6167SOL    HW229964   2.111   3.548   2.877 -0.7482 -1.6311  0.0267
 6168SOL     OW29965   1.709   4.392   4.178 -0.0655  0.4543  0.4963
 6168SOL    HW129966   1.681   4.438   4.099  0.7240 -1.9256 -1.1637
 6168SOL    HW229967   1.705   4.302   4.146 -0.8058  0.3775  0.8253
 6169SOL     OW29968   4.089   4.400   9.076 -0.0951 -0.3357 -0.3789
 6169SOL    HW129969   4.015   4.340   9.065  1.6766 -2.8700  1.5974
 6169SOL    HW229970   4.152   4.338   9.112 -0.4460 -1.1897 -1.2293
 6170SOL     OW29971   2.289   4.345   6.624 -0.0473 -0.1043  0.5671
 6170SOL    HW129972   2.331   4.429   6.606 -0.4477 -0.3420 -1.5316
 6170SOL    HW229973   2.342   4.292   6.565  1.8995  1.3900  0.9548
 6171SOL     OW29974   2.497   2.034  17.635 -0.0321 -0.5538  0.9684
 6171SOL    HW129975   2.410   2.043  17.597  1.1591  2.2566 -1.0465
 6171SOL    HW229976   2.511   2.125  17.661 -2.4584 -0.4327  1.8578
 6172SOL     OW29977   0.098   1.469   2.624  0.4941 -0.1509 -0.7982
 6172SOL    HW129978   0.153   1.547   2.627  0.7212 -0.3439  0.2387
 6172SOL    HW229979   0.092   1.459   2.719 -2.0361  0.8302 -0.8464
 6173SOL     OW29980   2.528   3.456   7.635  0.2909 -0.0315  0.3454
 6173SOL    HW129981   2.620   3.466   7.660  0.5367 -1.6291  0.0716
 6173SOL    HW229982   2.499   3.428   7.722 -1.3840  0.7212  0.0290
 6174SOL     OW29983   0.049   1.012   5.120 -0.2998 -0.0990  0.2484
 6174SOL    HW129984   0.111   1.020   5.193  0.4668  1.7071 -0.6180
 6174SOL    HW229985   0.091   0.944   5.068  1.7733  1.0840  0.4092
 6175SOL     OW29986   1.033   1.248  13.192  0.1246  0.0805  0.2623
 6175SOL    HW129987   1.118   1.220  13.226  1.1949 -0.0069 -2.4254
 6175SOL    HW229988   1.033   1.189  13.117 -0.9731 -1.4508  1.4709
 6176SOL     OW29989   4.607   1.226   4.391 -0.6428 -0.0995 -0.1739
 6176SOL    HW129990   4.638   1.313   4.365  0.4017 -0.3235  0.2997
 6176SOL    HW229991   4.552   1.217   4.313  1.6788  0.1958 -1.8445
 6177SOL     OW29992   1.126   3.469   6.664  0.3748  0.2496  0.0504
 6177SOL    HW129993   1.035   3.487   6.641  1.1294  3.0098 -0.7856
 6177SOL    HW229994   1.134   3.474   6.759 -0.4173 -2.4864  0.2674
 6178SOL     OW29995   2.979   3.712   8.425 -0.0430  0.6005  0.5582
 6178SOL    HW129996   3.020   3.785   8.472  0.5705  0.4629  0.2279
 6178SOL    HW229997   2.940   3.661   8.496 -1.4793 -1.1967 -1.5254
 6179SOL     OW29998   3.070   1.172   3.433  0.2208 -0.0110 -0.2737
 6179SOL    HW129999   3.027   1.094   3.468  1.1368 -0.7662 -0.8459
 6179SOL    HW230000   3.016   1.180   3.354 -1.3395  0.6471  0.8666
 6180SOL     OW30001   3.348   4.078   3.369 -0.1643  0.3508 -0.5340
 6180SOL    HW130002   3.418   4.015   3.353 -0.5495 -0.0368 -0.6767
 6180SOL    HW230003   3.320   4.101   3.280 -1.4406 -2.4724 -0.8664
 6181SOL     OW30004   3.632   3.790  16.458  0.3402  0.2159  0.7168
 6181SOL    HW130005   3.722   3.809  16.430  1.0194 -2.2077  1.2486
 6181SOL    HW230006   3.597   3.869  16.417  1.8413  1.2943  1.4796
 6182SOL     OW30007   2.175   1.322   6.819 -0.0320  0.0708 -0.4481
 6182SOL    HW130008   2.155   1.413   6.798  0.6211 -0.3668 -2.9285
 6182SOL    HW230009   2.095   1.292   6.864  0.2136  0.4616  0.2537
 6183SOL     OW30010   3.438   1.576  16.682  0.1182  0.2911  0.2312
 6183SOL    HW130011   3.434   1.598  16.775 -2.3388  1.4569 -0.1472
 6183SOL    HW230012   3.471   1.657  16.643  0.2581  0.6370  1.0627
 6184SOL     OW30013   0.293   0.399   6.443  0.1517  0.3129  0.5503
 6184SOL    HW130014   0.277   0.310   6.473 -0.0074 -0.7938 -2.8415
 6184SOL    HW230015   0.379   0.420   6.480  0.7135 -0.3351 -0.4093
 6185SOL     OW30016   2.937   4.002  12.224 -0.6502  0.0239 -0.7554
 6185SOL    HW130017   2.993   3.928  12.198  0.6798  0.6536  0.3035
 6185SOL    HW230018   2.990   4.032  12.298 -0.4839  1.1278 -1.3266
 6186SOL     OW30019   0.387   0.960   9.045  0.0200 -0.1033 -0.3012
 6186SOL    HW130020   0.342   0.875   9.048 -0.8393  0.3796  0.6978
 6186SOL    HW230021   0.450   0.941   8.976  0.0021 -1.9897  0.2016
 6187SOL     OW30022   2.987   2.162   9.988 -0.0851 -0.1507 -0.0618
 6187SOL    HW130023   3.009   2.210   9.908  3.3267 -0.4352  0.7158
 6187SOL    HW230024   2.893   2.181   9.999 -0.2645 -0.8328 -0.4452
 6188SOL     OW30025   0.419   2.227   7.086 -0.3331 -0.0091  0.3456
 6188SOL    HW130026   0.346   2.283   7.113 -0.1582  0.9149 -1.1020
 6188SOL    HW230027   0.466   2.297   7.041 -1.1618 -1.3343 -2.6199
 6189SOL     OW30028   4.148   4.690   8.508 -0.4717 -0.1765 -0.3369
 6189SOL    HW130029   4.162   0.027   8.439 -2.3664  0.6331  0.0470
 6189SOL    HW230030   4.070   4.715   8.557  0.1287  2.4973 -0.7892
 6190SOL     OW30031   1.092   1.940   0.595 -0.2741  0.3848  0.1551
 6190SOL    HW130032   1.142   2.018   0.619 -0.3717  0.0009  1.6090
 6190SOL    HW230033   1.121   1.866   0.647 -0.7463 -0.6498 -1.0590
 6191SOL     OW30034   3.727   4.718  15.123  0.2990  0.5751 -0.0967
 6191SOL    HW130035   3.780   4.650  15.164  0.4453 -0.3462 -1.7798
 6191SOL    HW230036   3.649   4.670  15.094 -0.2659  1.8641 -0.6999
 6192SOL     OW30037   0.633   0.296  15.133  0.3200 -0.1215 -0.4921
 6192SOL    HW130038   0.591   0.329  15.212  1.5194  2.1458 -0.7722
 6192SOL    HW230039   0.669   0.378  15.098 -0.2205 -0.3663 -1.6275
 6193SOL     OW30040   3.979   1.767   7.764 -0.6405  0.1749  0.0908
 6193SOL    HW130041   3.907   1.812   7.808  1.2386  3.2602  0.0180
 6193SOL    HW230042   4.054   1.805   7.810 -1.1347  3.5331 -1.8798
 6194SOL     OW30043   2.195   1.963   8.217  0.0979  0.2632 -0.4119
 6194SOL    HW130044   2.211   1.876   8.181 -0.0156 -0.3450  1.0076
 6194SOL    HW230045   2.243   2.015   8.152  1.1104  4.2005  3.5001
 6195SOL     OW30046   2.351   2.448   0.503  0.2838 -0.6202 -0.2170
 6195SOL    HW130047   2.259   2.474   0.499  1.0483  2.0294 -0.3077
 6195SOL    HW230048   2.364   2.466   0.596  1.7654  0.0331 -0.5456
 6196SOL     OW30049   2.129   1.145  11.902 -0.3898 -0.5303  0.0756
 6196SOL    HW130050   2.198   1.166  11.965 -0.2500 -0.2000 -0.1855
 6196SOL    HW230051   2.130   1.220  11.843 -2.3555  0.1393  0.8974
 6197SOL     OW30052   0.010   2.826   8.151  0.0513  0.0960 -0.2405
 6197SOL    HW130053   0.050   2.777   8.079  0.8268  0.2615  0.0796
 6197SOL    HW230054   4.643   2.815   8.142  0.1003 -1.6952  1.5927
 6198SOL     OW30055   3.122   0.108   5.457 -0.3017  0.1181 -0.5243
 6198SOL    HW130056   3.098   0.198   5.479 -0.9171 -0.0742 -0.4255
 6198SOL    HW230057   3.204   0.139   5.419 -0.2082 -1.5849 -1.6593
 6199SOL     OW30058   4.429   2.449   8.744 -0.1406 -0.8587 -0.1122
 6199SOL    HW130059   4.499   2.514   8.736 -0.2825 -0.5245  1.3353
 6199SOL    HW230060   4.479   2.371   8.772 -0.8975 -1.9844 -1.9178
 6200SOL     OW30061   2.894   0.306  13.618  0.1882 -0.0144 -0.7024
 6200SOL    HW130062   2.886   0.281  13.526  0.6867  1.3621 -1.1231
 6200SOL    HW230063   2.827   0.249  13.656  2.1745 -2.1977 -0.4084
 6201SOL     OW30064   1.695   1.461  15.485 -0.3531 -0.1768  0.2386
 6201SOL    HW130065   1.654   1.413  15.413 -0.3612  1.0637 -0.5674
 6201SOL    HW230066   1.663   1.550  15.474 -1.8856 -0.7620  0.0239
 6202SOL     OW30067   3.726   4.244   5.364  0.3523 -0.5210 -0.5704
 6202SOL    HW130068   3.638   4.279   5.348  0.3541 -0.5518 -0.6518
 6202SOL    HW230069   3.719   4.186   5.440  1.0293  0.3517  0.1451
 6203SOL     OW30070   4.159   0.134   8.303  0.0924  0.0614  0.7743
 6203SOL    HW130071   4.126   0.059   8.254  0.2426  1.2410 -1.1373
 6203SOL    HW230072   4.098   0.205   8.282  0.7345  0.2360 -0.4849
 6204SOL     OW30073   1.413   4.620  13.292 -0.4061  0.2211 -0.2727
 6204SOL    HW130074   1.355   4.579  13.228 -0.3625  0.3891 -0.4210
 6204SOL    HW230075   1.412   4.541  13.346 -0.2619  0.3119 -0.1370
 6205SOL     OW30076   3.072   3.377  16.751  0.6165 -0.2908 -0.0671
 6205SOL    HW130077   3.052   3.343  16.664 -1.1460  0.9288 -0.1490
 6205SOL    HW230078   3.137   3.447  16.741 -1.4057  1.6381  0.0947
 6206SOL     OW30079   0.244   2.357   5.545 -0.0151 -0.0677  0.1254
 6206SOL    HW130080   0.293   2.388   5.622  1.4296 -0.3761 -0.6690
 6206SOL    HW230081   0.268   2.417   5.474  0.6388  0.3367  0.6801
 6207SOL     OW30082   3.498   4.331   7.889 -0.4332  0.1376 -0.4291
 6207SOL    HW130083   3.498   4.427   7.891  0.6981  0.1491 -1.1417
 6207SOL    HW230084   3.464   4.305   7.974 -0.3245 -2.3515 -1.1417
 6208SOL     OW30085   1.870   0.720  14.295 -0.0838 -0.2646 -0.4732
 6208SOL    HW130086   1.953   0.678  14.317  0.3219  1.3934  1.1493
 6208SOL    HW230087   1.809   0.652  14.323  2.0773 -1.8641  0.4060
 6209SOL     OW30088   3.863   3.828   4.444  0.3157  0.5840 -0.2382
 6209SOL    HW130089   3.890   3.739   4.468  0.2115  0.2985 -1.1718
 6209SOL    HW230090   3.833   3.859   4.530  0.6684  0.6216 -0.1279
 6210SOL     OW30091   4.160   1.575   5.189  0.3345  0.3678  0.0311
 6210SOL    HW130092   4.254   1.559   5.187  0.2777 -0.4742  3.8765
 6210SOL    HW230093   4.163   1.660   5.233  0.4401  0.2882  0.1792
 6211SOL     OW30094   1.280   2.332   7.955  0.1346 -0.2122  0.3482
 6211SOL    HW130095   1.229   2.349   7.876 -0.2742  0.6860  0.8080
 6211SOL    HW230096   1.232   2.259   7.995 -0.1197 -0.1510  0.1606
 6212SOL     OW30097   4.286   3.785   7.945  0.7502 -1.0117  0.0212
 6212SOL    HW130098   4.193   3.808   7.950  0.5304 -1.9761  0.4245
 6212SOL    HW230099   4.321   3.870   7.921 -0.1742 -0.8087 -0.6102
 6213SOL     OW30100   0.854   3.528  15.508  0.1081 -0.6214 -0.1704
 6213SOL    HW130101   0.837   3.434  15.504  0.3482 -0.6918  0.4242
 6213SOL    HW230102   0.865   3.541  15.414  1.3537  2.3146  0.3915
 6214SOL     OW30103   2.489   0.202   2.747 -1.0204 -0.4434 -0.1754
 6214SOL    HW130104   2.580   0.177   2.758 -0.6369  0.6760 -0.7626
 6214SOL    HW230105   2.451   0.195   2.834  0.4497 -1.4634  0.3800
 6215SOL     OW30106   2.221   0.920   2.845 -0.4087  0.0520 -0.0150
 6215SOL    HW130107   2.129   0.893   2.844  0.1314 -1.8331  0.9606
 6215SOL    HW230108   2.254   0.854   2.784 -0.5692 -1.7960  1.8849
 6216SOL     OW30109   2.019   3.133   5.198  0.5080  0.1393  0.4018
 6216SOL    HW130110   1.960   3.058   5.212  0.2931  0.2045 -0.1597
 6216SOL    HW230111   1.991   3.156   5.110  0.9996  0.3192  0.2927
 6217SOL     OW30112   3.080   2.538   4.909  0.0388  0.2512 -0.1439
 6217SOL    HW130113   3.026   2.468   4.873  0.6956  1.5477 -3.6618
 6217SOL    HW230114   3.130   2.568   4.833 -1.2603  0.4753 -0.9031
 6218SOL     OW30115   1.810   3.834  16.790  0.0252 -0.4416 -0.0913
 6218SOL    HW130116   1.883   3.855  16.849 -0.1550  1.8523 -0.6866
 6218SOL    HW230117   1.736   3.827  16.851  1.0885 -0.4948  1.2057
 6219SOL     OW30118   0.187   2.144   8.446  0.4362 -0.1268  0.6593
 6219SOL    HW130119   0.276   2.175   8.461  1.2434 -1.4447 -1.4743
 6219SOL    HW230120   0.180   2.070   8.505 -2.6127  0.4148  0.9880
 6220SOL     OW30121   1.203   0.038   2.712  0.5360 -0.7091 -0.0964
 6220SOL    HW130122   1.230   0.080   2.793 -4.2807  0.2847  1.0197
 6220SOL    HW230123   1.178   0.114   2.659 -0.7244 -0.9782  0.1110
 6221SOL     OW30124   0.158   1.963   7.288 -0.1183  0.2305 -0.0279
 6221SOL    HW130125   0.161   2.057   7.307 -0.8847  0.2396  0.0665
 6221SOL    HW230126   0.223   1.952   7.220 -1.2548  1.3581 -1.2805
 6222SOL     OW30127   3.229   3.771   5.523 -0.4835  0.2311  0.1141
 6222SOL    HW130128   3.282   3.787   5.602 -1.3114 -1.3199  0.9975
 6222SOL    HW230129   3.223   3.676   5.533  3.4592  0.1537  1.8325
 6223SOL     OW30130   0.683   3.706   4.859  0.1455  0.1373  0.0986
 6223SOL    HW130131   0.597   3.710   4.818  1.5780  0.3525 -2.9048
 6223SOL    HW230132   0.678   3.649   4.935  1.6725  3.0248  2.3519
 6224SOL     OW30133   3.832   0.122  13.533 -0.1961 -0.7468  0.2315
 6224SOL    HW130134   3.739   0.126  13.507  0.0879  0.3864 -0.5833
 6224SOL    HW230135   3.866   0.050  13.479  2.2367 -0.2633  1.1310
 6225SOL     OW30136   3.914   0.300   9.905  0.2785 -0.4542  0.7731
 6225SOL    HW130137   3.834   0.267   9.946  0.8115 -0.0564  2.1551
 6225SOL    HW230138   3.981   0.247   9.950  1.8428  1.3265  0.5367
 6226SOL     OW30139   2.504   1.870  14.590 -0.0399  0.4815 -0.1163
 6226SOL    HW130140   2.444   1.936  14.626 -1.3621 -0.2539 -0.9609
 6226SOL    HW230141   2.461   1.851  14.507  1.4421 -0.2516 -0.6954
 6227SOL     OW30142   0.944   3.272   2.205 -0.2953 -0.4979 -0.1908
 6227SOL    HW130143   0.887   3.307   2.137  1.3680  0.7850 -0.9043
 6227SOL    HW230144   0.886   3.265   2.281 -1.6654  2.1078 -1.0028
 6228SOL     OW30145   2.200   4.291   3.939  0.2237  0.4038 -0.0399
 6228SOL    HW130146   2.211   4.349   4.014  0.3781  1.3469 -0.7886
 6228SOL    HW230147   2.108   4.264   3.942  0.2848  0.0713 -1.4065
 6229SOL     OW30148   3.281   0.271  16.064  0.2168  0.1460 -0.2802
 6229SOL    HW130149   3.222   0.337  16.028  1.5351  1.7645  0.5611
 6229SOL    HW230150   3.328   0.322  16.129 -0.2162 -1.6823  1.4780
 6230SOL     OW30151   2.434   3.521  11.471 -0.3830  0.5733 -0.2698
 6230SOL    HW130152   2.445   3.433  11.507 -2.3307  0.0999 -0.8251
 6230SOL    HW230153   2.472   3.500  11.385 -0.7465  1.6016 -0.6868
 6231SOL     OW30154   1.749   4.111   9.995 -0.2526  0.2242 -0.4034
 6231SOL    HW130155   1.821   4.133  10.054 -2.8214  1.7038  2.1743
 6231SOL    HW230156   1.758   4.177   9.926  1.6929 -0.5390 -0.8827
 6232SOL     OW30157   2.397   4.262   8.475  0.0106  0.0245 -0.1951
 6232SOL    HW130158   2.463   4.252   8.544 -1.2178  2.1197  1.2587
 6232SOL    HW230159   2.393   4.176   8.433  1.1498 -0.7710  1.3316
 6233SOL     OW30160   0.278   2.242   6.597  0.1552 -0.1075 -0.8156
 6233SOL    HW130161   0.299   2.282   6.513  0.5743  0.3739 -0.4840
 6233SOL    HW230162   0.202   2.185   6.580 -0.0975  0.0684 -0.2762
 6234SOL     OW30163   2.951   1.315  17.577 -0.1342 -0.4379 -0.2029
 6234SOL    HW130164   2.942   1.238  17.633  0.0344  0.4294  1.0204
 6234SOL    HW230165   2.946   1.267  17.495  2.2400 -1.1958  0.0852
 6235SOL     OW30166   0.518   4.217   7.220  0.4176 -0.3314 -0.3233
 6235SOL    HW130167   0.479   4.304   7.229  0.3644 -0.2955 -0.9169
 6235SOL    HW230168   0.438   4.163   7.226  0.1008  0.0493 -1.1017
 6236SOL     OW30169   3.830   2.287   2.260  0.3770  0.4562  0.5354
 6236SOL    HW130170   3.861   2.205   2.299  2.6004  1.1907  0.3096
 6236SOL    HW230171   3.865   2.344   2.328  1.8884 -0.6515  0.6838
 6237SOL     OW30172   2.294   0.299   6.640 -0.3999  0.7485 -0.4989
 6237SOL    HW130173   2.313   0.248   6.718 -1.5314 -0.9938 -1.3798
 6237SOL    HW230174   2.308   0.238   6.568 -0.3655  0.4133 -0.2074
 6238SOL     OW30175   1.184   1.543   4.198  0.3947 -0.4789  0.5378
 6238SOL    HW130176   1.200   1.515   4.108  1.0016  2.0280 -0.1442
 6238SOL    HW230177   1.198   1.637   4.187  0.4020 -0.3023  2.0896
 6239SOL     OW30178   4.690   2.088   3.547 -0.3366  0.0454  0.0434
 6239SOL    HW130179   4.657   2.055   3.631 -1.0213 -0.1018 -0.2788
 6239SOL    HW230180   4.650   2.175   3.544 -0.9056 -0.2137  0.0664
 6240SOL     OW30181   2.145   0.368   8.724  0.2210  0.5541  0.0920
 6240SOL    HW130182   2.203   0.305   8.682 -3.0682 -0.8486 -2.3305
 6240SOL    HW230183   2.107   0.423   8.656 -0.1491 -1.7386 -1.5382
 6241SOL     OW30184   1.435   3.855  12.379  0.2873  0.3362  0.1107
 6241SOL    HW130185   1.495   3.904  12.322  2.4957 -1.8594  0.5323
 6241SOL    HW230186   1.372   3.924  12.401  0.9379  0.8620  0.3257
 6242SOL     OW30187   1.030   4.404  10.838 -0.0496  0.3009  0.0196
 6242SOL    HW130188   1.063   4.485  10.798  1.0122 -0.1914 -0.0921
 6242SOL    HW230189   0.969   4.433  10.906 -0.2441 -2.0474  0.8348
 6243SOL     OW30190   0.970   4.194   8.066 -0.3353 -0.0922 -0.3014
 6243SOL    HW130191   1.008   4.216   7.981  1.9517  0.4924  0.8742
 6243SOL    HW230192   1.013   4.261   8.119  1.5257 -1.3825 -0.1802
 6244SOL     OW30193   4.402   2.595   6.353 -0.0464 -0.2519  0.5108
 6244SOL    HW130194   4.340   2.662   6.324 -1.2013 -1.2112  0.7329
 6244SOL    HW230195   4.359   2.513   6.326  0.2246 -0.4486  0.6739
 6245SOL     OW30196   0.419   1.488  10.661  0.0238  0.4114  0.0033
 6245SOL    HW130197   0.339   1.449  10.695  0.5261 -0.2309  0.4411
 6245SOL    HW230198   0.466   1.410  10.631 -0.6981  0.0226 -0.1187
 6246SOL     OW30199   3.930   0.778   7.622  0.3238  0.8136 -0.4868
 6246SOL    HW130200   3.843   0.773   7.583 -0.2668  1.3185  0.7701
 6246SOL    HW230201   3.912   0.797   7.714  1.1889  0.4931 -0.2511
 6247SOL     OW30202   4.223   2.158   7.083 -0.3049  0.2894 -0.0435
 6247SOL    HW130203   4.238   2.064   7.092  0.3859  0.7073  3.0868
 6247SOL    HW230204   4.308   2.201   7.088  0.2766 -0.9748  0.8033
 6248SOL     OW30205   1.397   2.539   9.237  0.4687 -0.1126  0.0904
 6248SOL    HW130206   1.329   2.553   9.171 -0.2664 -1.8227  0.4716
 6248SOL    HW230207   1.383   2.613   9.296  0.1080  0.3516 -0.5823
 6249SOL     OW30208   2.861   0.500   9.678 -0.9174 -0.0550 -0.0645
 6249SOL    HW130209   2.883   0.562   9.608  2.2114 -1.4849 -0.3327
 6249SOL    HW230210   2.862   0.551   9.759 -1.6095  0.1963 -0.2122
 6250SOL     OW30211   3.855   4.583   3.720  0.5107 -0.1698  0.0038
 6250SOL    HW130212   3.787   4.533   3.765 -1.3073  0.4168 -2.0633
 6250SOL    HW230213   3.804   4.650   3.675  0.8752  1.4003  1.9180
 6251SOL     OW30214   4.072   2.679   9.385  0.1602 -0.1685  0.4444
 6251SOL    HW130215   4.143   2.743   9.384 -0.4171  0.4737  0.4845
 6251SOL    HW230216   4.069   2.645   9.296  0.7549 -0.2428  0.4531
 6252SOL     OW30217   0.293   3.012   0.951  0.4060 -0.3048 -0.0293
 6252SOL    HW130218   0.316   2.920   0.965 -1.1459 -1.1132 -2.6061
 6252SOL    HW230219   0.249   3.035   1.032  0.6525 -0.5660  0.1762
 6253SOL     OW30220   0.772   1.787   6.761  0.2757  1.2591 -0.6120
 6253SOL    HW130221   0.856   1.829   6.779  0.9742  0.6746 -2.5433
 6253SOL    HW230222   0.724   1.806   6.842  1.6880  0.0818  0.5131
 6254SOL     OW30223   0.595   1.495  10.063  0.4912  0.4550 -0.3094
 6254SOL    HW130224   0.587   1.434  10.136  0.9969 -0.5667 -1.1123
 6254SOL    HW230225   0.591   1.577  10.112 -0.2183  1.3575 -1.8722
 6255SOL     OW30226   3.529   1.147   4.406  0.5657  0.1383  0.0273
 6255SOL    HW130227   3.587   1.080   4.370  0.1906 -0.2552  0.1598
 6255SOL    HW230228   3.450   1.094   4.415 -0.3274  1.8431  2.1051
 6256SOL     OW30229   0.950   2.989   8.124 -0.4893  0.2694  0.1758
 6256SOL    HW130230   0.994   3.074   8.120 -1.0866  0.4458 -2.7803
 6256SOL    HW230231   0.867   3.003   8.170 -1.4585 -3.5561 -0.4228
 6257SOL     OW30232   1.478   0.760   6.265 -0.1933 -0.2928  0.3969
 6257SOL    HW130233   1.525   0.709   6.331  2.7555  1.9605  0.0189
 6257SOL    HW230234   1.386   0.741   6.284  0.1210  0.7314  2.9182
 6258SOL     OW30235   0.132   1.111  13.228 -0.8402 -0.4676 -0.0684
 6258SOL    HW130236   0.161   1.024  13.255 -1.6685 -0.5357  0.6169
 6258SOL    HW230237   0.094   1.090  13.142  0.2854 -1.8302 -0.2155
 6259SOL     OW30238   0.598   2.179  12.628  0.1223 -0.7056 -0.1191
 6259SOL    HW130239   0.609   2.130  12.709 -0.6677  1.9634  1.6025
 6259SOL    HW230240   0.514   2.147  12.596 -0.2739  2.5613 -2.3022
 6260SOL     OW30241   2.843   2.210   7.037  0.6674 -0.1610  0.5214
 6260SOL    HW130242   2.891   2.142   7.084  0.4585  1.6852  3.4587
 6260SOL    HW230243   2.917   2.270   7.047  0.3053 -0.2154  3.6269
 6261SOL     OW30244   2.624   1.660  10.337  0.0151  0.3381 -0.0481
 6261SOL    HW130245   2.624   1.672  10.242  0.9384 -0.9350 -0.2064
 6261SOL    HW230246   2.560   1.591  10.351  1.6312 -1.3259 -0.7532
 6262SOL     OW30247   3.627   0.478   7.803 -0.2694 -0.4211  0.0702
 6262SOL    HW130248   3.657   0.436   7.722 -2.4824  1.6351 -1.8205
 6262SOL    HW230249   3.701   0.469   7.864  0.3913  1.4533 -0.4477
 6263SOL     OW30250   0.561   2.555   5.292 -0.2008 -0.2437 -0.3108
 6263SOL    HW130251   0.495   2.487   5.303  1.4196 -1.8015 -0.1758
 6263SOL    HW230252   0.644   2.518   5.324 -0.0765 -0.2825 -0.6777
 6264SOL     OW30253   3.503   0.334   8.868  0.1247 -0.1343  0.1540
 6264SOL    HW130254   3.549   0.324   8.952  0.3907  1.0059  0.1397
 6264SOL    HW230255   3.497   0.240   8.849  1.7571  0.0001 -1.0231
 6265SOL     OW30256   2.270   4.077   4.446  0.3454  0.3845 -0.1514
 6265SOL    HW130257   2.244   3.994   4.486 -1.9110  0.5752 -1.1991
 6265SOL    HW230258   2.301   4.047   4.360  2.1358  0.6654  0.4076
 6266SOL     OW30259   0.694   2.487   8.182  0.3219  0.1166  0.0784
 6266SOL    HW130260   0.753   2.412   8.184 -0.8947 -0.8262  1.1751
 6266SOL    HW230261   0.623   2.456   8.127  0.9837  0.0774 -0.7558
 6267SOL     OW30262   4.098   1.234   0.817 -0.2591  0.6292 -0.3579
 6267SOL    HW130263   4.150   1.313   0.833 -0.2678 -0.0925  3.1218
 6267SOL    HW230264   4.156   1.158   0.814  0.1596  0.9084  0.7169
 6268SOL     OW30265   3.161   3.896  14.386 -0.0441  0.1043  0.4405
 6268SOL    HW130266   3.167   3.814  14.435  1.1622  1.7279  3.0057
 6268SOL    HW230267   3.159   3.966  14.452  0.5467  1.0677 -0.5595
 6269SOL     OW30268   0.597   1.097   5.356  0.3684  0.4692 -0.4407
 6269SOL    HW130269   0.682   1.112   5.315  1.2600  2.6033  2.1177
 6269SOL    HW230270   0.603   1.005   5.383 -1.6314  0.0880 -1.3429
 6270SOL     OW30271   2.484   4.068  11.435 -0.1545 -0.2408  0.5792
 6270SOL    HW130272   2.424   3.994  11.425 -1.8508  1.1533  0.4467
 6270SOL    HW230273   2.439   4.149  11.415  0.9599  0.1674 -0.2691
 6271SOL     OW30274   4.390   4.058   6.529  0.0705  0.2074  0.2030
 6271SOL    HW130275   4.386   4.115   6.606 -0.8631  0.4992 -0.0579
 6271SOL    HW230276   4.449   3.983   6.541  1.7636  1.6084  0.5523
 6272SOL     OW30277   0.131   3.378   3.021 -0.4043 -0.2937 -0.1656
 6272SOL    HW130278   0.148   3.471   3.013 -0.9869 -0.1776 -0.0243
 6272SOL    HW230279   0.157   3.348   3.108 -0.0655 -0.1200 -0.2096
 6273SOL     OW30280   3.399   3.315   5.366  0.1326 -0.6588  0.6155
 6273SOL    HW130281   3.308   3.284   5.366  0.8441 -2.7488 -1.4166
 6273SOL    HW230282   3.411   3.303   5.461 -0.8778 -0.9772  0.7065
 6274SOL     OW30283   3.088   1.237   5.579  0.3878 -0.2208  0.5035
 6274SOL    HW130284   3.177   1.201   5.582  1.3077  2.0808  0.1523
 6274SOL    HW230285   3.078   1.289   5.659  0.4857 -0.3760  0.6187
 6275SOL     OW30286   2.438   1.449   6.572  0.1821 -0.4103  0.0457
 6275SOL    HW130287   2.397   1.405   6.498  1.4903 -1.9346  0.2406
 6275SOL    HW230288   2.402   1.538   6.568  0.4518 -0.2926  0.1868
 6276SOL     OW30289   0.877   1.611   8.808  0.0021 -0.1441  0.0042
 6276SOL    HW130290   0.893   1.519   8.786 -0.2749  0.7441 -3.9424
 6276SOL    HW230291   0.792   1.619   8.849  0.0951  2.0085 -0.2365
 6277SOL     OW30292   3.479   1.217   9.149  0.7062 -0.1429  0.0697
 6277SOL    HW130293   3.544   1.148   9.160 -0.9936 -1.6883  0.4937
 6277SOL    HW230294   3.408   1.201   9.212  0.2375  1.9083  0.0670
 6278SOL     OW30295   3.930   0.520   6.508 -1.0313  0.2448 -0.4694
 6278SOL    HW130296   3.938   0.540   6.415 -0.6702  1.8998 -0.0786
 6278SOL    HW230297   3.918   0.610   6.538 -0.1816  1.4416 -3.7102
 6279SOL     OW30298   3.790   0.655   5.324 -0.0249  0.4578  0.0247
 6279SOL    HW130299   3.846   0.705   5.383 -1.0675  1.0211  0.5379
 6279SOL    HW230300   3.705   0.688   5.354  1.1948  0.0768  3.8365
 6280SOL     OW30301   1.268   3.825  10.598 -0.3277 -0.1976  0.3459
 6280SOL    HW130302   1.262   3.849  10.691  1.4365  2.1244 -0.1505
 6280SOL    HW230303   1.250   3.731  10.596 -0.0925 -0.2055 -1.3960
 6281SOL     OW30304   4.656   3.160  11.601  0.0274  0.1665  0.2675
 6281SOL    HW130305   4.689   3.232  11.654 -0.0340 -0.8453  1.6626
 6281SOL    HW230306   4.562   3.174  11.600 -0.2861 -1.8687 -0.1943
 6282SOL     OW30307   4.569   1.369   7.530  0.1563  0.7008 -0.0136
 6282SOL    HW130308   4.516   1.400   7.603  1.3474 -0.2155  1.2313
 6282SOL    HW230309   4.514   1.294   7.508  1.9864 -1.7217  3.6275
 6283SOL     OW30310   4.514   3.436  12.853 -0.0881 -0.2039  0.7838
 6283SOL    HW130311   4.503   3.357  12.906 -0.5302  0.1336  1.1892
 6283SOL    HW230312   4.425   3.470  12.845 -0.0129 -0.7000 -2.2025
 6284SOL     OW30313   3.746   2.404   0.570 -0.7099 -0.3580 -0.0457
 6284SOL    HW130314   3.812   2.473   0.577  1.3480 -2.2314 -1.0738
 6284SOL    HW230315   3.752   2.381   0.663 -0.2931 -0.3826 -0.0788
 6285SOL     OW30316   4.474   0.243   2.301  0.0232  0.1043 -0.2569
 6285SOL    HW130317   4.544   0.286   2.350  0.1177 -0.5486  0.1831
 6285SOL    HW230318   4.496   0.272   2.212 -1.3509 -3.5108 -1.7901
 6286SOL     OW30319   1.482   2.655   2.455 -0.7734  0.6011  0.0221
 6286SOL    HW130320   1.487   2.741   2.497 -0.9704  0.3255  0.6068
 6286SOL    HW230321   1.558   2.662   2.396  0.8340  0.6142  2.1102
 6287SOL     OW30322   3.119   3.219   2.328 -0.0855 -0.1071 -0.1810
 6287SOL    HW130323   3.202   3.265   2.336 -0.7644  0.8782  1.0978
 6287SOL    HW230324   3.101   3.262   2.244  1.4161  0.1583 -0.3645
 6288SOL     OW30325   3.958   4.265   0.483  0.6129 -0.3378  0.4381
 6288SOL    HW130326   4.053   4.266   0.493  0.6012  3.1638  0.4477
 6288SOL    HW230327   3.927   4.293   0.570  0.4154 -2.3056  0.9923
 6289SOL     OW30328   4.242   1.693   6.318 -0.0851 -0.5877  0.2364
 6289SOL    HW130329   4.333   1.696   6.348  0.2099 -2.8207 -0.4501
 6289SOL    HW230330   4.255   1.618   6.260  0.6145  0.4221 -0.9394
 6290SOL     OW30331   1.992   3.360   6.145 -0.8055  0.0668 -0.4799
 6290SOL    HW130332   2.041   3.348   6.226  0.3294 -1.2695 -1.3722
 6290SOL    HW230333   1.969   3.452   6.157  0.4105  0.2021  0.7149
 6291SOL     OW30334   3.676   2.347   3.452 -0.2317  0.3313 -0.1128
 6291SOL    HW130335   3.771   2.358   3.446 -0.0599 -0.0704  1.9789
 6291SOL    HW230336   3.652   2.375   3.364  2.9710 -1.9981 -1.7517
 6292SOL     OW30337   2.609   4.263  13.389 -0.0420 -0.3050  0.4175
 6292SOL    HW130338   2.630   4.334  13.449  1.2264 -0.4300  0.1215
 6292SOL    HW230339   2.536   4.228  13.441 -2.0547  0.9295 -1.5676
 6293SOL     OW30340   2.088   2.844   4.334  0.2828  0.0732 -0.4085
 6293SOL    HW130341   2.166   2.842   4.278 -1.5556  4.4231 -3.0778
 6293SOL    HW230342   2.125   2.797   4.410  0.6218 -0.4434 -0.8906
 6294SOL     OW30343   0.061   3.323  15.983 -0.1102  0.1891 -0.1784
 6294SOL    HW130344   0.116   3.395  15.951  1.3638  0.0906  2.1460
 6294SOL    HW230345   4.717   3.340  15.923 -0.2676 -1.7930 -0.5449
 6295SOL     OW30346   0.290   3.446   5.458  1.1992  0.2342 -0.3560
 6295SOL    HW130347   0.220   3.413   5.401 -0.2411  0.2496  1.4118
 6295SOL    HW230348   0.331   3.365   5.486  0.0192 -0.6457 -1.1563
 6296SOL     OW30349   1.765   2.634   4.234 -0.2923 -0.1154  0.0433
 6296SOL    HW130350   1.702   2.685   4.285  1.7367  1.2388  1.1712
 6296SOL    HW230351   1.760   2.674   4.148  1.0460 -0.9736 -0.4375
 6297SOL     OW30352   3.553   2.831   1.417 -0.0774  0.2513  1.1101
 6297SOL    HW130353   3.513   2.908   1.377  2.0833  0.7188 -0.1043
 6297SOL    HW230354   3.633   2.832   1.365 -0.4078 -0.4597  0.5851
 6298SOL     OW30355   3.463   3.305  11.574 -0.0430 -0.0819  0.2770
 6298SOL    HW130356   3.476   3.243  11.646  0.7065  0.6195  0.7552
 6298SOL    HW230357   3.489   3.247  11.503  0.5082 -0.3946  0.7320
 6299SOL     OW30358   2.517   0.031   6.706  0.4630 -0.7947 -0.3338
 6299SOL    HW130359   2.572   0.096   6.662  0.6122 -0.7334 -0.0560
 6299SOL    HW230360   2.577   4.685   6.716  0.5480 -0.7397 -0.4359
 6300SOL     OW30361   4.709   4.193  16.325 -0.0093 -0.0592  0.1374
 6300SOL    HW130362   0.031   4.254  16.379  0.8337 -0.2914 -0.3729
 6300SOL    HW230363   4.677   4.134  16.393  1.1060 -1.3813 -0.4930
 6301SOL     OW30364   0.611   1.142   4.794  0.3707 -0.4817 -0.4170
 6301SOL    HW130365   0.576   1.229   4.775 -0.2030 -0.8276 -0.9749
 6301SOL    HW230366   0.580   1.099   4.714 -1.1515  2.0670 -1.2041
 6302SOL     OW30367   4.168   1.179   2.696 -0.2252 -0.3371  0.0291
 6302SOL    HW130368   4.237   1.141   2.751 -0.0908 -1.2637 -0.7871
 6302SOL    HW230369   4.219   1.237   2.639 -0.3964 -1.2639 -1.0719
 6303SOL     OW30370   2.659   2.710   7.878 -0.3112 -0.1998 -0.6135
 6303SOL    HW130371   2.698   2.691   7.964 -0.5135 -0.0841 -0.4957
 6303SOL    HW230372   2.661   2.619   7.848 -0.8482 -0.2454 -0.5101
 6304SOL     OW30373   1.573   4.155   4.034  0.0760 -0.4967  0.0356
 6304SOL    HW130374   1.612   4.112   3.958 -0.5403 -1.7389  0.4090
 6304SOL    HW230375   1.484   4.163   4.001  0.8166 -1.9882 -2.3368
 6305SOL     OW30376   2.968   0.410  15.011  0.2971 -0.2741  0.3502
 6305SOL    HW130377   3.047   0.356  15.010  1.4903  1.5028 -0.3221
 6305SOL    HW230378   2.980   0.463  15.089  1.5818  1.3476 -0.9515
 6306SOL     OW30379   4.457   0.250  10.718  1.2322 -0.0603  0.1917
 6306SOL    HW130380   4.454   0.192  10.793  0.1450  1.2910  1.1983
 6306SOL    HW230381   4.544   0.226  10.685  2.2329  3.1003  0.4562
 6307SOL     OW30382   2.588   1.624   4.476  0.1897  0.2607 -0.3451
 6307SOL    HW130383   2.649   1.691   4.508  1.3967 -0.6773 -0.7163
 6307SOL    HW230384   2.509   1.675   4.496 -1.0633 -2.0801  0.6050
 6308SOL     OW30385   0.014   2.849  14.616  0.3840 -0.2600  0.2184
 6308SOL    HW130386   0.029   2.768  14.568 -0.7890 -1.6219  2.1723
 6308SOL    HW230387   4.652   2.873  14.593  0.6789  0.8529  0.2370
 6309SOL     OW30388   1.307   3.574  17.212 -0.0680  0.6335  0.1833
 6309SOL    HW130389   1.341   3.506  17.271  0.2030  0.6032 -0.0075
 6309SOL    HW230390   1.334   3.531  17.131  0.5497 -0.6059  1.0318
 6310SOL     OW30391   0.447   1.276   9.948 -0.2151 -0.9933 -0.3086
 6310SOL    HW130392   0.510   1.336   9.988  0.8956 -3.1324  1.1629
 6310SOL    HW230393   0.467   1.187   9.976 -0.0091 -0.9610 -0.3576
 6311SOL     OW30394   4.085   3.323  15.396 -0.5340  0.0666 -0.0813
 6311SOL    HW130395   4.047   3.280  15.319 -0.3949 -1.0774  0.4800
 6311SOL    HW230396   4.057   3.412  15.378  1.4012  0.6120 -0.4109
 6312SOL     OW30397   4.587   0.081   7.169 -0.2266  0.1640  0.1477
 6312SOL    HW130398   4.558   0.164   7.131 -0.3579  0.0112 -0.0844
 6312SOL    HW230399   4.680   0.093   7.188  0.0699 -0.5267 -0.8843
 6313SOL     OW30400   0.561   3.648   3.181  0.3376 -0.6220  0.2864
 6313SOL    HW130401   0.494   3.653   3.113  1.7090 -3.3075 -1.2618
 6313SOL    HW230402   0.510   3.659   3.261 -1.1351 -2.1924 -0.4543
 6314SOL     OW30403   3.807   3.744  17.404 -0.1785 -0.2055 -0.8195
 6314SOL    HW130404   3.771   3.673  17.351 -1.0149  0.6561 -1.4099
 6314SOL    HW230405   3.730   3.793  17.434 -0.3219 -1.2553  0.4965
 6315SOL     OW30406   4.107   0.082   7.999 -0.1971  0.5652  0.0322
 6315SOL    HW130407   4.197   0.082   7.966  0.3532 -0.2970  1.5105
 6315SOL    HW230408   4.071   4.724   7.976 -3.3054  0.9713  3.2479
 6316SOL     OW30409   0.739   0.047   7.851  0.3676  0.7810 -0.2347
 6316SOL    HW130410   0.660   0.034   7.902  1.7328 -1.4504  1.3174
 6316SOL    HW230411   0.761   4.685   7.825 -1.5620  0.0026  0.8756
 6317SOL     OW30412   0.537   1.882   7.580 -0.4458 -0.8514 -0.0919
 6317SOL    HW130413   0.549   1.817   7.649 -0.5848 -0.4979  0.2591
 6317SOL    HW230414   0.461   1.841   7.538 -1.4178  0.3611  0.5001
 6318SOL     OW30415   2.343   2.856   4.196 -0.1902 -0.3156  0.5629
 6318SOL    HW130416   2.408   2.875   4.128 -0.7985 -0.3822 -0.0343
 6318SOL    HW230417   2.324   2.768   4.166 -2.0176  0.0840  0.5217
 6319SOL     OW30418   1.639   2.306   3.022  0.5587 -0.1094 -0.4956
 6319SOL    HW130419   1.579   2.244   2.980 -1.7705  1.5346  0.4623
 6319SOL    HW230420   1.684   2.243   3.078 -0.3380  0.6186  1.0277
 6320SOL     OW30421   2.338   2.444   0.790 -0.5945 -0.4242  0.7636
 6320SOL    HW130422   2.375   2.526   0.824  0.8017 -0.5964 -0.3350
 6320SOL    HW230423   2.324   2.415   0.880  0.2818  2.1863  1.7368
 6321SOL     OW30424   4.428   4.697   6.987  0.1868 -0.3315  0.1362
 6321SOL    HW130425   4.509   4.727   7.028  0.2467 -1.6468  0.9656
 6321SOL    HW230426   4.382   0.054   6.983  0.0577 -0.4016  0.1548
 6322SOL     OW30427   0.945   3.376   9.279 -0.1067  0.2507  0.2513
 6322SOL    HW130428   1.024   3.380   9.225 -0.6825 -2.0741 -0.7460
 6322SOL    HW230429   0.932   3.464   9.316  0.9987  0.6306 -0.2529
 6323SOL     OW30430   2.594   1.830   7.662  0.3846  0.2089  0.3446
 6323SOL    HW130431   2.625   1.739   7.663  3.0048  1.1023  0.9423
 6323SOL    HW230432   2.542   1.817   7.741 -1.9346 -1.6112 -1.4626
 6324SOL     OW30433   4.488   3.424  11.906  0.1713  0.2034 -0.7643
 6324SOL    HW130434   4.552   3.407  11.836  1.1345 -0.1766  0.2017
 6324SOL    HW230435   4.535   3.391  11.982  0.3633  2.1409 -0.0360
 6325SOL     OW30436   2.407   0.732   7.767 -0.5525  0.8736  0.4776
 6325SOL    HW130437   2.461   0.679   7.710 -0.3877  1.4085  0.1314
 6325SOL    HW230438   2.471   0.752   7.835 -0.4490  0.4629  0.4997
 6326SOL     OW30439   0.127   1.842  11.536  0.0364  0.2343  0.0901
 6326SOL    HW130440   0.218   1.820  11.556  0.1702  0.7865  0.0900
 6326SOL    HW230441   0.109   1.880  11.623  0.4312  1.1697 -0.2325
 6327SOL     OW30442   4.341   0.724  15.485 -0.3654  0.0576 -0.2235
 6327SOL    HW130443   4.410   0.748  15.423  0.5936 -1.2747  0.3174
 6327SOL    HW230444   4.358   0.632  15.507 -2.0212 -0.2205 -0.0936
 6328SOL     OW30445   4.182   4.024  15.054  0.4182  0.2331  0.0856
 6328SOL    HW130446   4.152   4.092  15.115 -0.2282  0.5964 -0.6311
 6328SOL    HW230447   4.124   3.963  15.100 -0.0077  1.5607  1.3037
 6329SOL     OW30448   3.527   1.810   0.456  0.5016 -0.4249 -0.3443
 6329SOL    HW130449   3.489   1.882   0.407  0.8197  0.0503  0.1120
 6329SOL    HW230450   3.503   1.837   0.545 -0.9303  1.9918 -1.4780
 6330SOL     OW30451   2.725   0.377   7.803 -0.2404  0.6885 -0.5285
 6330SOL    HW130452   2.738   0.373   7.898 -0.2340 -0.6396 -0.5888
 6330SOL    HW230453   2.748   0.469   7.784 -0.6703  0.9903  0.4338
 6331SOL     OW30454   0.765   2.273   6.040  0.0185  0.3974  0.3343
 6331SOL    HW130455   0.833   2.227   5.991 -0.3498 -2.5579  2.6301
 6331SOL    HW230456   0.792   2.261   6.131 -1.2464  0.7563  0.7579
 6332SOL     OW30457   3.045   0.640  10.988 -0.1688  0.3666  0.2852
 6332SOL    HW130458   3.061   0.550  11.018 -1.0667 -0.6909 -2.4392
 6332SOL    HW230459   3.113   0.688  11.035 -0.6349  0.5644  0.7493
 6333SOL     OW30460   4.583   1.054   3.163  0.4582 -0.1186  0.2443
 6333SOL    HW130461   4.624   1.012   3.239  0.0499 -1.5685 -0.3565
 6333SOL    HW230462   4.604   1.001   3.087  1.1670 -1.0796  1.1063
 6334SOL     OW30463   4.088   1.432   9.321 -0.2001  0.3798  0.0422
 6334SOL    HW130464   4.160   1.437   9.385  0.4171  2.7983 -0.8108
 6334SOL    HW230465   4.014   1.474   9.365 -0.6161 -0.3051 -0.0057
 6335SOL     OW30466   0.248   0.649   4.203  0.6924 -0.3253 -0.0362
 6335SOL    HW130467   0.212   0.723   4.252  0.1493  0.5219 -1.7107
 6335SOL    HW230468   0.268   0.690   4.119  0.2849 -0.6537 -0.2913
 6336SOL     OW30469   2.840   4.407   7.246 -0.0617 -0.1366 -0.1335
 6336SOL    HW130470   2.776   4.336   7.235 -1.1430  0.9302 -0.7912
 6336SOL    HW230471   2.914   4.366   7.201 -0.3372 -0.0197 -0.6920
 6337SOL     OW30472   3.083   1.563   9.986  0.0344  0.5724 -0.1080
 6337SOL    HW130473   3.108   1.649  10.020  2.8800 -0.6490  0.8713
 6337SOL    HW230474   3.148   1.559   9.916 -1.1486 -2.6023 -1.0171
 6338SOL     OW30475   4.184   0.128   2.993  0.1733 -0.3070 -0.0351
 6338SOL    HW130476   4.160   0.057   2.933 -1.5709 -0.1691  0.4758
 6338SOL    HW230477   4.121   0.198   2.979 -0.8216 -0.6041  2.9146
 6339SOL     OW30478   3.432   0.025   3.486 -0.6298  0.0521 -0.0921
 6339SOL    HW130479   3.437   0.009   3.391  0.0865  1.6238 -0.3244
 6339SOL    HW230480   3.355   0.080   3.491 -0.4406  0.3883 -0.8496
 6340SOL     OW30481   3.799   2.521   7.837  0.3584  0.1662 -0.9452
 6340SOL    HW130482   3.866   2.561   7.893  0.4538  1.6304 -2.1051
 6340SOL    HW230483   3.834   2.519   7.748 -1.2178 -1.2229 -1.5368
 6341SOL     OW30484   0.102   3.423   7.992  0.5498  0.2902 -0.0558
 6341SOL    HW130485   0.115   3.383   7.906  1.9276  1.0403 -0.1903
 6341SOL    HW230486   0.190   3.426   8.028  1.3412  1.4256 -2.0517
 6342SOL     OW30487   0.935   3.292   9.759  0.4145  0.4339  0.1319
 6342SOL    HW130488   0.918   3.386   9.766  1.8862  0.6066  1.2866
 6342SOL    HW230489   1.027   3.295   9.787 -0.2791 -0.7070  2.4922
 6343SOL     OW30490   2.856   3.612  16.715 -0.4205 -0.5061 -0.4583
 6343SOL    HW130491   2.906   3.674  16.662  1.3727  0.5388  2.4736
 6343SOL    HW230492   2.876   3.540  16.655 -1.0593 -0.1971 -1.0481
 6344SOL     OW30493   0.229   2.191   3.320 -0.2723 -0.2534 -0.4014
 6344SOL    HW130494   0.175   2.245   3.378 -0.5986  0.0679 -1.0075
 6344SOL    HW230495   0.316   2.219   3.347 -0.9903  1.2694  0.3224
 6345SOL     OW30496   0.618   1.573   4.671 -0.1378 -1.2475 -0.4711
 6345SOL    HW130497   0.711   1.549   4.664 -0.0023 -1.8681  3.5113
 6345SOL    HW230498   0.629   1.667   4.687  3.3414 -1.6529 -0.4619
 6346SOL     OW30499   4.430   4.067   4.931 -0.0474 -0.2165 -0.6678
 6346SOL    HW130500   4.448   4.158   4.906 -0.3222  0.1645  0.5644
 6346SOL    HW230501   4.343   4.080   4.968  0.4268  4.4038 -1.1754
 6347SOL     OW30502   2.939   0.064   6.558  0.1325  0.0957 -0.3660
 6347SOL    HW130503   3.031   0.091   6.559  0.5584 -1.3103 -0.9819
 6347SOL    HW230504   2.894   0.147   6.570 -1.4317 -1.0108  1.4920
 6348SOL     OW30505   2.215   0.605   6.334  0.0418 -0.1046  0.2932
 6348SOL    HW130506   2.277   0.602   6.261  0.8826  1.5391  0.9380
 6348SOL    HW230507   2.276   0.581   6.405  0.6084  0.4230 -0.0180
 6349SOL     OW30508   4.018   3.981  15.265  0.5760  0.5470 -0.2821
 6349SOL    HW130509   3.950   4.015  15.322  0.1490  1.8460 -1.5783
 6349SOL    HW230510   4.062   3.909  15.310 -0.0266 -0.2850 -1.0183
 6350SOL     OW30511   0.482   3.928   2.126 -0.3396  0.1915 -0.4884
 6350SOL    HW130512   0.554   3.947   2.066  0.8750 -0.8393  0.6556
 6350SOL    HW230513   0.413   3.958   2.066  0.2746  1.9411 -0.3337
 6351SOL     OW30514   3.182   3.819   0.311  0.7073  0.5341  0.2692
 6351SOL    HW130515   3.269   3.835   0.350  2.0367 -2.6090 -1.4640
 6351SOL    HW230516   3.146   3.757   0.374  1.0723 -0.2727 -0.3137
 6352SOL     OW30517   0.996   1.780   9.026  0.3871 -0.4184  0.1872
 6352SOL    HW130518   0.922   1.748   8.974  0.1673  0.3403  0.0323
 6352SOL    HW230519   0.951   1.853   9.069 -1.2576 -1.1589 -0.2503
 6353SOL     OW30520   3.002   0.380   5.165  0.2825 -0.4824 -0.1170
 6353SOL    HW130521   3.039   0.468   5.168  0.6771 -0.6131 -1.4527
 6353SOL    HW230522   2.950   0.382   5.246 -0.6510  2.1519 -0.7957
 6354SOL     OW30523   2.366   0.836   7.387  0.0877 -0.1341  0.2602
 6354SOL    HW130524   2.304   0.794   7.447  0.4578 -1.0689 -0.0088
 6354SOL    HW230525   2.351   0.929   7.401 -1.5282 -0.0244 -2.1579
 6355SOL     OW30526   0.401   1.513  11.859  0.0822 -0.5864 -0.0942
 6355SOL    HW130527   0.361   1.524  11.772 -0.6674  1.5004  0.5037
 6355SOL    HW230528   0.412   1.606  11.879  0.9802 -1.0679  1.6116
 6356SOL     OW30529   3.117   0.673   0.509  0.5649 -0.5490  0.2055
 6356SOL    HW130530   3.027   0.660   0.538  0.1676 -2.7186 -1.9455
 6356SOL    HW230531   3.108   0.676   0.414  0.8848  0.9409  0.2308
 6357SOL     OW30532   0.719   2.553   2.647  0.3950  0.1453  0.4464
 6357SOL    HW130533   0.732   2.543   2.741  1.2298  3.0158  0.6424
 6357SOL    HW230534   0.694   2.463   2.625  3.1432 -0.1497 -1.4211
 6358SOL     OW30535   2.151   4.296   1.980  0.6221 -0.1348  0.7519
 6358SOL    HW130536   2.069   4.340   1.959  0.9168 -0.3448 -0.8426
 6358SOL    HW230537   2.208   4.357   1.934  1.2421  0.5359  2.4017
 6359SOL     OW30538   1.198   1.746   5.337  0.3161 -0.1111  0.4461
 6359SOL    HW130539   1.183   1.673   5.277  0.1899  0.9782 -0.8508
 6359SOL    HW230540   1.201   1.701   5.421  0.3103 -0.2945  0.3467
 6360SOL     OW30541   1.722   1.610   8.398  0.2361 -0.2399 -0.5895
 6360SOL    HW130542   1.697   1.604   8.490  1.4837 -1.1347 -0.3013
 6360SOL    HW230543   1.660   1.672   8.360  1.7508  0.5878 -1.7578
 6361SOL     OW30544   0.856   3.709   1.022  0.4961  0.1949 -0.0052
 6361SOL    HW130545   0.816   3.693   0.936  1.5256 -0.0353 -0.4439
 6361SOL    HW230546   0.898   3.623   1.030 -1.3375 -0.5888  1.0181
 6362SOL     OW30547   3.113   3.367   3.888 -0.0039  0.5532  0.1307
 6362SOL    HW130548   3.097   3.302   3.820 -0.6996  1.3144 -0.4295
 6362SOL    HW230549   3.097   3.451   3.844 -0.2885  1.0685  1.2296
 6363SOL     OW30550   1.511   3.932   9.203 -0.2091 -0.6203 -0.2988
 6363SOL    HW130551   1.575   3.883   9.255 -0.0783  1.2560  1.2980
 6363SOL    HW230552   1.427   3.891   9.227  0.7124 -1.0231  2.1963
 6364SOL     OW30553   3.602   2.519  12.184  0.2138  0.1641 -0.0224
 6364SOL    HW130554   3.569   2.516  12.094 -1.3880  1.2840  0.5121
 6364SOL    HW230555   3.537   2.459  12.223 -3.0861  2.3027 -2.2079
 6365SOL     OW30556   3.732   4.659   1.123 -0.2204  0.1399  0.4377
 6365SOL    HW130557   3.707   4.696   1.208 -1.7291  0.8171 -0.3162
 6365SOL    HW230558   3.744   0.011   1.072 -2.3506 -0.7255 -1.4132
 6366SOL     OW30559   1.088   4.376   3.683 -0.0006 -0.2499 -0.4296
 6366SOL    HW130560   1.110   4.300   3.628 -1.6021 -0.7871 -0.3195
 6366SOL    HW230561   1.109   4.349   3.772 -2.0526  1.5979  0.5944
 6367SOL     OW30562   1.654   2.801   1.333 -0.0548 -0.2259 -0.5094
 6367SOL    HW130563   1.749   2.809   1.343  0.0419  0.7727 -2.2695
 6367SOL    HW230564   1.621   2.887   1.359 -0.6281 -1.1287  1.8196
 6368SOL     OW30565   2.228   2.755   4.558 -0.2914 -0.2391 -0.3296
 6368SOL    HW130566   2.246   2.664   4.581 -0.8584  0.2255  1.9502
 6368SOL    HW230567   2.161   2.792   4.616 -0.4114 -0.2619 -0.4550
 6369SOL     OW30568   1.071   1.927   1.523  0.3060 -0.2113  0.6433
 6369SOL    HW130569   1.109   1.953   1.608  0.1480 -1.5821  1.1254
 6369SOL    HW230570   1.087   2.010   1.478  0.4736 -0.4585  0.2456
 6370SOL     OW30571   2.421   3.690  15.906  0.3399  0.1623  0.0708
 6370SOL    HW130572   2.329   3.702  15.879  0.0565 -2.0243  0.1201
 6370SOL    HW230573   2.418   3.707  16.000 -0.8907 -2.5189  0.5272
 6371SOL     OW30574   2.795   0.361   8.067  0.6913  0.1316  0.4055
 6371SOL    HW130575   2.851   0.348   8.144  0.0764 -1.5381  0.5748
 6371SOL    HW230576   2.799   0.456   8.058 -0.9401  0.2411  0.8492
 6372SOL     OW30577   2.008   0.886   1.326  0.5982 -0.8386  0.1519
 6372SOL    HW130578   2.041   0.817   1.268  0.5456 -1.2285  0.5875
 6372SOL    HW230579   1.989   0.842   1.409 -3.6497  0.0273 -0.3198
 6373SOL     OW30580   1.273   4.222  13.184 -0.0966 -0.6640 -0.3803
 6373SOL    HW130581   1.261   4.176  13.268  0.3230 -1.2863 -0.6631
 6373SOL    HW230582   1.282   4.151  13.122 -0.3792  0.6215 -1.8902
 6374SOL     OW30583   0.416   1.747   4.561 -0.3345 -0.3588 -0.2091
 6374SOL    HW130584   0.436   1.798   4.640  1.2076 -1.6110  0.2247
 6374SOL    HW230585   0.460   1.666   4.586  3.0589  1.8076  0.9673
 6375SOL     OW30586   3.516   2.552  11.934 -0.2174  0.0045 -0.1226
 6375SOL    HW130587   3.469   2.634  11.915  0.9857  0.3971 -1.3341
 6375SOL    HW230588   3.603   2.568  11.899  0.2409  0.6278  1.2856
 6376SOL     OW30589   0.296   1.507   4.375 -0.7352 -0.0082  0.0941
 6376SOL    HW130590   0.273   1.556   4.454 -1.7284 -1.3155  0.6037
 6376SOL    HW230591   0.378   1.551   4.350  0.6188 -1.4865  1.8757
 6377SOL     OW30592   1.448   3.731   7.980  0.3355 -0.0863  0.6203
 6377SOL    HW130593   1.539   3.701   7.978 -0.0113 -1.1077 -0.1636
 6377SOL    HW230594   1.449   3.826   7.986  2.2564 -0.0674 -0.0976
 6378SOL     OW30595   1.658   2.910   8.985  0.2733  0.5796 -0.0099
 6378SOL    HW130596   1.597   2.973   9.023  1.2089  2.4924 -1.7084
 6378SOL    HW230597   1.734   2.963   8.964  1.0442 -0.0328  1.2154
 6379SOL     OW30598   3.019   4.063   1.634 -0.3127 -0.4118  0.4987
 6379SOL    HW130599   3.042   3.978   1.597 -0.8575  0.9183 -2.9190
 6379SOL    HW230600   3.085   4.121   1.596 -1.1264 -0.3747 -0.8757
 6380SOL     OW30601   4.402   2.466  11.036 -0.1552 -0.0622 -0.0898
 6380SOL    HW130602   4.454   2.408  10.981 -2.1581 -1.0619 -0.9561
 6380SOL    HW230603   4.465   2.536  11.020  0.5747 -0.8628 -0.6923
 6381SOL     OW30604   2.623   4.069  14.842 -0.3583  0.3617  0.1998
 6381SOL    HW130605   2.596   4.096  14.755  0.4011 -0.4820 -0.3016
 6381SOL    HW230606   2.602   4.135  14.908  2.1721  1.0538  0.3096
 6382SOL     OW30607   2.201   3.250   1.283  0.1025  0.0646 -0.4707
 6382SOL    HW130608   2.176   3.309   1.213 -1.2881  1.0995  0.9072
 6382SOL    HW230609   2.140   3.176   1.279 -0.5192  0.6855 -2.3728
 6383SOL     OW30610   0.842   4.065   9.783 -0.4202 -0.0909  0.0250
 6383SOL    HW130611   0.764   4.114   9.756 -0.0779  1.3857  1.7293
 6383SOL    HW230612   0.853   4.097   9.873 -0.5163 -0.3659  0.1365
 6384SOL     OW30613   0.454   3.291   6.388  0.0857  0.5460  0.1536
 6384SOL    HW130614   0.446   3.203   6.424 -1.6945  0.6365 -0.0117
 6384SOL    HW230615   0.455   3.260   6.297  0.7904 -0.8247  0.6363
 6385SOL     OW30616   4.121   3.523   7.663  0.2664  0.6515  0.0575
 6385SOL    HW130617   4.185   3.543   7.595  0.9787  0.0990  0.5600
 6385SOL    HW230618   4.064   3.600   7.663 -0.0441  0.4204 -0.9005
 6386SOL     OW30619   3.159   2.487   2.801 -0.0625 -0.3138 -0.4516
 6386SOL    HW130620   3.079   2.532   2.772  0.0348  0.1458 -0.0139
 6386SOL    HW230621   3.128   2.399   2.781  1.3623 -0.5411 -1.7145
 6387SOL     OW30622   3.620   4.143   7.705 -0.7264 -0.0578 -0.5997
 6387SOL    HW130623   3.586   4.197   7.777 -3.8642 -0.6693 -1.6535
 6387SOL    HW230624   3.687   4.201   7.667  0.1258 -1.1109 -0.6912
 6388SOL     OW30625   4.140   1.487   3.743  0.2444 -0.4494  0.4987
 6388SOL    HW130626   4.075   1.496   3.674  1.3115  0.8221 -0.3617
 6388SOL    HW230627   4.213   1.544   3.716 -0.9879  0.9033  0.0202
 6389SOL     OW30628   2.670   2.254  10.016 -0.4472  0.4471  0.3296
 6389SOL    HW130629   2.602   2.207  10.065 -0.3486  0.8485  0.8630
 6389SOL    HW230630   2.679   2.334  10.069 -0.2091  1.2226 -0.8995
 6390SOL     OW30631   2.125   3.612   7.352  0.2103  0.0990  0.1906
 6390SOL    HW130632   2.091   3.525   7.370 -0.0464  0.3131  0.7387
 6390SOL    HW230633   2.207   3.615   7.402  2.1080 -0.4127 -2.8758
 6391SOL     OW30634   2.457   2.394   2.979 -0.3202 -0.3344 -0.0039
 6391SOL    HW130635   2.532   2.415   2.923 -2.2955  4.2244 -0.9652
 6391SOL    HW230636   2.388   2.386   2.914  0.5445 -0.8582 -0.8544
 6392SOL     OW30637   1.306   4.205  11.761  0.1195  0.2387 -0.3624
 6392SOL    HW130638   1.273   4.178  11.676 -1.3082 -0.4307  0.4119
 6392SOL    HW230639   1.320   4.299  11.750 -0.9005  0.4013 -0.2668
 6393SOL     OW30640   2.851   4.480  15.803  0.0069  1.0535 -0.3923
 6393SOL    HW130641   2.835   4.405  15.745 -2.5606 -0.3354  2.1145
 6393SOL    HW230642   2.792   4.464  15.876  1.4024 -1.5044  0.2017
 6394SOL     OW30643   3.945   1.589   3.530  0.1515  0.3601  0.0288
 6394SOL    HW130644   4.019   1.595   3.471 -1.8966  0.7316 -2.5027
 6394SOL    HW230645   3.891   1.522   3.489  0.7444  1.1908 -2.0961
 6395SOL     OW30646   0.852   0.502   0.186 -0.2269  0.1877 -0.2786
 6395SOL    HW130647   0.889   0.588   0.200  1.0177 -0.4338  0.2566
 6395SOL    HW230648   0.783   0.495   0.252 -1.3727 -1.6021 -1.6594
 6396SOL     OW30649   4.286   2.013   8.064  0.5560 -0.0823 -0.0428
 6396SOL    HW130650   4.205   2.064   8.070 -1.2751 -2.9293 -0.6759
 6396SOL    HW230651   4.350   2.076   8.097 -1.1457  1.2098  0.8161
 6397SOL     OW30652   2.890   0.852   4.037 -0.2887 -0.4162  0.2194
 6397SOL    HW130653   2.963   0.791   4.041 -1.7790 -2.3117 -0.9302
 6397SOL    HW230654   2.831   0.795   4.087 -1.6623 -0.4233 -1.4122
 6398SOL     OW30655   0.728   3.885   9.564  0.1262 -0.2293  0.3043
 6398SOL    HW130656   0.652   3.932   9.597 -0.4407 -1.6810  1.0793
 6398SOL    HW230657   0.799   3.913   9.623  0.9890  0.5706 -1.1154
 6399SOL     OW30658   1.428   1.117  14.246 -0.0510  0.5334  0.0631
 6399SOL    HW130659   1.484   1.045  14.275  2.1779  1.8788 -0.9722
 6399SOL    HW230660   1.483   1.186  14.208 -1.4776  2.5007  1.5977
 6400SOL     OW30661   3.935   3.928   3.228  0.1877  0.3068 -0.0819
 6400SOL    HW130662   3.915   3.838   3.253 -1.9653  0.6631 -0.5378
 6400SOL    HW230663   4.012   3.947   3.281 -0.4284 -0.1493  0.9859
 6401SOL     OW30664   2.528   0.971   2.851 -0.4013 -0.1235  0.0479
 6401SOL    HW130665   2.593   0.981   2.782  0.8067 -2.5113  0.8444
 6401SOL    HW230666   2.452   1.006   2.805 -0.8743  0.7789  1.4852
 6402SOL     OW30667   4.012   2.957   8.672  0.2055 -0.5064 -0.2203
 6402SOL    HW130668   3.944   2.890   8.666 -1.2264  0.9695 -0.4466
 6402SOL    HW230669   3.996   2.992   8.584 -0.5321  1.7378  0.8308
 6403SOL     OW30670   4.491   0.216   8.908  0.0901 -0.7035  0.0760
 6403SOL    HW130671   4.403   0.192   8.937 -1.2484 -0.0427 -3.3837
 6403SOL    HW230672   4.540   0.133   8.913 -1.5645 -1.6427  0.6494
 6404SOL     OW30673   2.283   0.177   6.402 -0.2866 -0.2306 -0.1647
 6404SOL    HW130674   2.341   0.177   6.326  0.8732  1.4984  0.7094
 6404SOL    HW230675   2.216   0.237   6.370  0.7530 -0.4439 -2.7058
 6405SOL     OW30676   3.193   4.647   8.775  0.7984  0.5668  0.4526
 6405SOL    HW130677   3.161   0.006   8.798  1.1804  0.7873  0.1335
 6405SOL    HW230678   3.131   4.621   8.706  1.9838  0.3910 -0.5390
 6406SOL     OW30679   0.347   0.104   2.110 -0.7546 -0.4841  0.0019
 6406SOL    HW130680   0.372   0.193   2.086  2.4324 -1.8217 -1.6473
 6406SOL    HW230681   0.263   0.115   2.155 -1.0014  1.3686 -0.9435
 6407SOL     OW30682   2.023   3.792   9.512  0.4704 -0.2331 -0.3271
 6407SOL    HW130683   2.006   3.813   9.420 -1.0411 -1.6558 -0.3693
 6407SOL    HW230684   1.980   3.867   9.553  2.8527  0.2100  1.3142
 6408SOL     OW30685   4.005   3.518  11.478  0.0571 -0.1940  0.0258
 6408SOL    HW130686   3.920   3.474  11.488  0.1414  0.5334  4.1554
 6408SOL    HW230687   3.992   3.541  11.386  1.1651  0.0923 -0.0504
 6409SOL     OW30688   4.229   2.276  14.723  0.5302  0.2239  0.2193
 6409SOL    HW130689   4.283   2.355  14.726  1.1070 -0.1650  0.1164
 6409SOL    HW230690   4.283   2.213  14.771 -2.0560 -2.4279 -0.3032
 6410SOL     OW30691   2.782   2.664  15.536 -0.0144 -0.1155 -0.1926
 6410SOL    HW130692   2.810   2.741  15.585 -0.3364  0.8000 -1.4360
 6410SOL    HW230693   2.815   2.679  15.447 -0.1858 -3.4052 -0.7838
 6411SOL     OW30694   1.819   4.098   7.381  0.4705  0.3297  0.6949
 6411SOL    HW130695   1.795   4.099   7.474  0.1989 -1.9979  0.6448
 6411SOL    HW230696   1.740   4.065   7.339  2.3830 -0.8842 -1.8792
 6412SOL     OW30697   0.527   1.576   3.911  0.4400 -0.0528 -0.1676
 6412SOL    HW130698   0.453   1.623   3.872  1.8239  1.0571 -1.4496
 6412SOL    HW230699   0.573   1.654   3.942 -0.1865  0.9360 -1.7254
 6413SOL     OW30700   1.359   4.061   5.431  0.2613 -0.1662 -0.4618
 6413SOL    HW130701   1.325   4.142   5.468  1.5510  0.2163 -0.0894
 6413SOL    HW230702   1.411   4.032   5.506  1.9028  2.1525 -0.6865
 6414SOL     OW30703   4.520   3.867   4.717 -0.1470  0.8799 -0.4335
 6414SOL    HW130704   4.501   3.950   4.760  1.3594  1.0884 -0.1544
 6414SOL    HW230705   4.490   3.806   4.784 -1.1669  0.9020 -0.8780
 6415SOL     OW30706   1.118   2.102   4.221 -0.9028 -0.2788 -0.1309
 6415SOL    HW130707   1.194   2.076   4.274  0.3843 -0.5013 -2.0604
 6415SOL    HW230708   1.164   2.123   4.140  0.2832 -0.6544  0.4400
 6416SOL     OW30709   2.061   0.128  13.734  0.2077 -0.1969  0.1257
 6416SOL    HW130710   2.147   0.149  13.771  0.7077 -0.8162 -0.6537
 6416SOL    HW230711   2.021   0.215  13.738  0.8977  0.2894 -2.8570
 6417SOL     OW30712   1.057   3.161   3.060  0.1887 -0.2871  0.0982
 6417SOL    HW130713   1.044   3.180   2.967  0.6831  0.0026  0.0871
 6417SOL    HW230714   0.979   3.199   3.100  0.1838 -0.7182  0.4869
 6418SOL     OW30715   4.344   1.174   4.491 -0.2445  0.1771 -0.3402
 6418SOL    HW130716   4.256   1.203   4.513 -0.0783 -1.3765  2.4060
 6418SOL    HW230717   4.368   1.239   4.425  2.1095 -0.6622 -0.3317
 6419SOL     OW30718   0.096   0.713   3.882 -0.4419  0.1606 -0.0298
 6419SOL    HW130719   0.186   0.743   3.894  0.3259 -2.0201 -0.3938
 6419SOL    HW230720   0.050   0.789   3.919  2.1913  0.4781  2.6440
 6420SOL     OW30721   1.884   3.097   4.735  0.3236  0.1583 -0.8296
 6420SOL    HW130722   1.841   3.098   4.650  0.1402 -0.4332 -0.7428
 6420SOL    HW230723   1.805   3.080   4.787  0.6536 -1.5179 -0.8769
 6421SOL     OW30724   4.508   4.068  17.104 -0.0443 -0.5189  0.2062
 6421SOL    HW130725   4.446   4.056  17.176 -1.0633 -0.8881 -0.7356
 6421SOL    HW230726   4.557   4.140  17.145  1.1600 -2.2687  1.8275
 6422SOL     OW30727   4.302   3.462   0.689  0.9823 -0.6102 -0.2446
 6422SOL    HW130728   4.298   3.541   0.635 -0.7033 -1.2158 -1.0293
 6422SOL    HW230729   4.354   3.406   0.632  1.7333  0.6920 -0.8249
 6423SOL     OW30730   0.960   0.048   4.103 -0.4277  0.1781  0.6927
 6423SOL    HW130731   0.886   4.716   4.100  0.3820 -0.8922  1.9144
 6423SOL    HW230732   0.934   0.097   4.180 -2.5534  0.9048 -0.5018
 6424SOL     OW30733   4.361   0.213   7.034 -0.7406  0.6821  0.9727
 6424SOL    HW130734   4.322   0.220   7.121  0.2216  1.5076  1.3373
 6424SOL    HW230735   4.300   0.253   6.972 -1.2234 -1.5096  0.0194
 6425SOL     OW30736   4.222   2.611   5.282  0.6687  0.4488 -0.3810
 6425SOL    HW130737   4.159   2.645   5.219  1.8403  2.8622 -0.2527
 6425SOL    HW230738   4.301   2.612   5.228  0.5168  1.3727 -0.5842
 6426SOL     OW30739   3.930   2.353   3.365  0.1230 -0.2949  0.2332
 6426SOL    HW130740   3.984   2.276   3.345  2.4245  1.7823 -1.4800
 6426SOL    HW230741   3.931   2.390   3.277 -0.0484 -0.1075  0.3096
 6427SOL     OW30742   0.179   3.273   7.045 -0.2825  0.1644  0.0955
 6427SOL    HW130743   0.163   3.307   7.133  2.1502  1.1392  0.1590
 6427SOL    HW230744   0.087   3.281   7.016 -0.0049 -1.1368 -1.1547
 6428SOL     OW30745   3.392   0.273   0.483 -0.6127 -0.4238  0.2086
 6428SOL    HW130746   3.363   0.184   0.502  3.1359 -1.8588 -0.7913
 6428SOL    HW230747   3.485   0.263   0.462 -0.9828 -2.4434 -0.4379
 6429SOL     OW30748   3.448   2.710   8.419 -0.1870 -0.1169 -0.5270
 6429SOL    HW130749   3.544   2.707   8.422 -0.1703  1.7496  0.6041
 6429SOL    HW230750   3.434   2.800   8.446  2.2122 -0.2085  0.9703
 6430SOL     OW30751   0.905   4.067   7.514  0.5587 -0.0014  0.0809
 6430SOL    HW130752   0.809   4.074   7.513  0.4745 -0.6384  2.7199
 6430SOL    HW230753   0.938   4.083   7.426 -0.5288  0.7243 -0.1959
 6431SOL     OW30754   2.027   4.251   8.267 -0.6228  0.1755 -0.3029
 6431SOL    HW130755   2.066   4.168   8.238  0.5901  0.4880  0.4102
 6431SOL    HW230756   2.024   4.308   8.190  0.9558  1.4279  0.5670
 6432SOL     OW30757   3.412   1.841   9.925 -0.0563  0.0218  0.2195
 6432SOL    HW130758   3.350   1.819   9.995 -0.9658 -0.6980 -0.8083
 6432SOL    HW230759   3.488   1.793   9.958  1.7236  1.8958 -1.1864
 6433SOL     OW30760   3.185   3.952  12.664 -0.1245 -0.3794  0.3768
 6433SOL    HW130761   3.138   3.996  12.735 -0.6691  0.2206 -0.3534
 6433SOL    HW230762   3.122   3.977  12.596  0.0583  1.8584  1.0459
 6434SOL     OW30763   0.143   0.334  13.538  0.2335  0.1214 -0.2495
 6434SOL    HW130764   0.058   0.296  13.559  0.0563  0.4088 -0.4453
 6434SOL    HW230765   0.157   0.329  13.444  3.0272  2.1347  0.0555
 6435SOL     OW30766   0.906   2.761  14.525 -0.0154 -0.5043  0.3105
 6435SOL    HW130767   0.882   2.839  14.476 -3.6360 -1.4526  0.5799
 6435SOL    HW230768   0.999   2.741  14.515  0.3569  1.6953 -0.4534
 6436SOL     OW30769   3.946   0.415   5.175  0.4774 -0.0894 -0.0335
 6436SOL    HW130770   3.929   0.495   5.225  0.0587 -1.2049  1.5983
 6436SOL    HW230771   3.861   0.408   5.133 -0.2532  3.0568  0.9372
 6437SOL     OW30772   3.712   1.440  12.989 -0.4099  0.4682  0.5181
 6437SOL    HW130773   3.766   1.485  13.055 -0.6287 -1.1830  1.8328
 6437SOL    HW230774   3.764   1.360  12.984 -0.1518  0.5737  1.4537
 6438SOL     OW30775   1.062   4.096  11.847 -0.5364  0.3651  0.4761
 6438SOL    HW130776   1.016   4.180  11.857 -1.1286 -0.1981  2.4235
 6438SOL    HW230777   1.146   4.123  11.811 -0.4985  0.2124  0.4480
 6439SOL     OW30778   1.021   0.579   4.872  0.2770 -0.4871  0.1953
 6439SOL    HW130779   0.962   0.506   4.856 -0.1767 -0.4033  1.5083
 6439SOL    HW230780   1.030   0.579   4.967 -0.7953  2.7308  0.3035
 6440SOL     OW30781   3.430   2.464   3.578 -0.3915  1.2953 -0.0643
 6440SOL    HW130782   3.499   2.529   3.561 -1.3326  2.7674  1.6915
 6440SOL    HW230783   3.437   2.415   3.497 -0.8398  2.7966 -1.0211
 6441SOL     OW30784   1.358   1.130   5.788  0.6342  0.3668 -0.3665
 6441SOL    HW130785   1.318   1.043   5.794 -0.3692  0.9595  1.7035
 6441SOL    HW230786   1.276   1.178   5.779 -0.2036 -0.7135  1.3147
 6442SOL     OW30787   2.268   2.064   3.634 -0.4058  0.6143 -0.0909
 6442SOL    HW130788   2.179   2.077   3.665 -0.8751 -0.2838 -1.0536
 6442SOL    HW230789   2.263   2.014   3.552 -1.0296 -0.5465  0.6536
 6443SOL     OW30790   0.495   0.921   3.758 -0.2518 -0.4736  0.1205
 6443SOL    HW130791   0.471   0.844   3.810  1.6173 -0.9835  0.2288
 6443SOL    HW230792   0.416   0.974   3.763  1.4848  2.1631 -0.4650
 6444SOL     OW30793   4.230   1.615   8.700  0.3735  0.1718 -0.2635
 6444SOL    HW130794   4.212   1.521   8.709 -1.3781  0.4282 -1.0465
 6444SOL    HW230795   4.178   1.640   8.624  0.2563 -3.3764 -1.3569
 6445SOL     OW30796   3.625   2.020   6.290  0.0324 -0.4990  0.2233
 6445SOL    HW130797   3.567   1.977   6.228  1.9270 -0.4586 -1.6124
 6445SOL    HW230798   3.574   2.009   6.370  0.1988 -0.4336  0.3397
 6446SOL     OW30799   0.447   1.249   7.453  0.1660 -0.1403 -0.3442
 6446SOL    HW130800   0.410   1.190   7.387 -1.0039 -1.2283  1.2556
 6446SOL    HW230801   0.493   1.305   7.391 -2.2134  1.6428 -0.4876
 6447SOL     OW30802   1.400   3.351  11.152  1.3641  0.4206 -0.0080
 6447SOL    HW130803   1.463   3.290  11.114  0.4945 -1.1537  1.0826
 6447SOL    HW230804   1.422   3.428  11.099  0.7870  2.1116  2.2141
 6448SOL     OW30805   2.761   3.912   0.882  0.0561  0.1540  0.1573
 6448SOL    HW130806   2.841   3.884   0.837 -1.1153 -0.1525 -1.7132
 6448SOL    HW230807   2.693   3.881   0.823 -0.6989  1.5027  0.3427
 6449SOL     OW30808   4.267   0.645   2.490 -0.1434  0.4244 -0.2156
 6449SOL    HW130809   4.181   0.620   2.523 -0.2324 -0.4292 -1.0732
 6449SOL    HW230810   4.311   0.560   2.483 -0.2328  0.2046  2.0000
 6450SOL     OW30811   0.290   2.780  10.008  0.3165 -0.2988  0.1742
 6450SOL    HW130812   0.296   2.840   9.933  2.2333 -0.0120  0.5670
 6450SOL    HW230813   0.335   2.704   9.971  0.9582 -0.0288  0.4039
 6451SOL     OW30814   0.075   0.437   5.807  0.7110 -0.7105  0.1774
 6451SOL    HW130815   4.726   0.458   5.753 -1.2316 -0.6216  2.9360
 6451SOL    HW230816   0.031   0.401   5.884  1.7796 -0.4224  0.9185
 6452SOL     OW30817   4.027   3.243   1.230  0.4115  0.8721  0.9290
 6452SOL    HW130818   4.091   3.185   1.188  0.6221  0.8410  1.2922
 6452SOL    HW230819   4.001   3.183   1.300  1.1854  0.2309  0.6712
 6453SOL     OW30820   1.192   1.863   5.642  0.7684 -0.0531  0.8621
 6453SOL    HW130821   1.214   1.770   5.650 -0.7872 -0.3939  1.2323
 6453SOL    HW230822   1.272   1.894   5.600 -0.4095  1.9860  0.1207
 6454SOL     OW30823   1.259   1.904   6.174 -0.9420 -0.1303 -0.2344
 6454SOL    HW130824   1.267   1.999   6.186  0.8164 -0.2951 -0.1546
 6454SOL    HW230825   1.200   1.885   6.246  2.7002 -0.5029  2.6637
 6455SOL     OW30826   0.005   2.928   5.147 -0.4978 -0.6771  0.7329
 6455SOL    HW130827   4.678   2.862   5.189  1.0488 -1.0187  2.2334
 6455SOL    HW230828   0.067   2.867   5.106  0.7864 -0.5235  2.4182
 6456SOL     OW30829   0.250   4.167   8.043 -0.3329  0.3452 -0.2052
 6456SOL    HW130830   0.342   4.152   8.022 -0.0611 -0.0147  1.2393
 6456SOL    HW230831   0.229   4.234   7.979  0.1748  0.6527 -0.0503
 6457SOL     OW30832   1.541   0.922   4.846 -0.7723  0.3137  0.0418
 6457SOL    HW130833   1.623   0.936   4.893 -1.5536 -0.6464  1.7043
 6457SOL    HW230834   1.486   0.930   4.924 -0.7575  2.8409 -0.2129
 6458SOL     OW30835   3.072   0.830   1.920  0.4123 -0.2907  0.9657
 6458SOL    HW130836   2.989   0.853   1.963  1.1915  2.0509  1.2360
 6458SOL    HW230837   3.076   0.906   1.862  1.9305 -0.6865  0.5645
 6459SOL     OW30838   0.192   2.105   2.700  0.0996 -0.0375 -0.4130
 6459SOL    HW130839   0.261   2.042   2.679 -0.5943 -1.1850  0.7271
 6459SOL    HW230840   0.156   2.116   2.612 -0.4690  0.7450 -0.0756
 6460SOL     OW30841   2.484   3.302   3.197 -0.0841 -0.2388 -0.2409
 6460SOL    HW130842   2.414   3.297   3.131 -0.7559  1.4433  0.3603
 6460SOL    HW230843   2.444   3.313   3.283  1.8146 -3.7188  1.1104
 6461SOL     OW30844   3.251   4.153   6.629  0.2435  0.1491  0.0100
 6461SOL    HW130845   3.324   4.102   6.595  2.2429  1.3231  2.6153
 6461SOL    HW230846   3.275   4.160   6.721 -0.0638 -2.2264  0.2766
 6462SOL     OW30847   1.031   2.139   4.999  0.2415 -0.0141  0.0435
 6462SOL    HW130848   0.978   2.087   4.939 -0.5021  0.9827 -0.1584
 6462SOL    HW230849   1.055   2.080   5.071  0.1255 -0.1223 -0.0079
 6463SOL     OW30850   0.793   1.648   5.397 -0.2506  0.0111 -0.4171
 6463SOL    HW130851   0.848   1.653   5.319  1.7220  2.9092  1.1644
 6463SOL    HW230852   0.774   1.554   5.398  1.2614 -0.3192 -2.0576
 6464SOL     OW30853   1.255   1.164   6.480  0.1707  0.8898  0.1269
 6464SOL    HW130854   1.315   1.104   6.525  0.7624  2.0139  0.8449
 6464SOL    HW230855   1.174   1.157   6.532  0.2032  0.8915  0.1783
 6465SOL     OW30856   4.295   0.313   5.493 -0.6338  0.1581  0.3943
 6465SOL    HW130857   4.298   0.223   5.523 -1.0522 -0.5913 -1.7979
 6465SOL    HW230858   4.322   0.305   5.401  1.1159 -1.6018  1.0649
 6466SOL     OW30859   0.349   1.255   8.737 -0.1747 -0.0655  0.1458
 6466SOL    HW130860   0.291   1.317   8.693 -1.5333 -1.4702 -0.0235
 6466SOL    HW230861   0.364   1.305   8.817  2.2025  0.2033 -0.4599
 6467SOL     OW30862   2.196   2.756   4.947 -0.4635 -0.6496  0.3907
 6467SOL    HW130863   2.291   2.770   4.940 -0.5702  0.3538  1.0681
 6467SOL    HW230864   2.181   2.779   5.038  1.4097  0.8115  0.3380
 6468SOL     OW30865   1.193   0.474   8.271 -0.5720 -0.2358  0.4520
 6468SOL    HW130866   1.175   0.557   8.226  0.7483  0.7107  1.7006
 6468SOL    HW230867   1.109   0.464   8.315 -0.3635 -0.5047  0.7894
 6469SOL     OW30868   1.951   2.270   1.270 -0.0105  0.1079 -0.1357
 6469SOL    HW130869   1.881   2.265   1.205 -1.2404  0.9740  1.1170
 6469SOL    HW230870   1.900   2.313   1.339  1.9046  1.5236  0.3923
 6470SOL     OW30871   2.170   3.463   9.355  0.0727 -0.1181 -0.3862
 6470SOL    HW130872   2.147   3.374   9.329  1.3196 -0.7743  0.7854
 6470SOL    HW230873   2.259   3.450   9.387  0.1550 -0.6251 -0.8237
 6471SOL     OW30874   0.243   0.168   6.663 -0.2742 -0.3730 -0.0434
 6471SOL    HW130875   0.192   0.174   6.583  1.7471  1.5353 -1.1811
 6471SOL    HW230876   0.223   0.083   6.704 -1.9311 -0.3135 -0.7562
 6472SOL     OW30877   2.010   3.995   2.526 -0.2053 -0.7215 -0.0197
 6472SOL    HW130878   2.035   3.969   2.615 -0.8852 -0.4269  0.2569
 6472SOL    HW230879   1.925   4.034   2.547  1.2379  2.9657 -1.0013
 6473SOL     OW30880   2.265   0.383   5.621  0.1083 -0.0775 -0.0439
 6473SOL    HW130881   2.306   0.413   5.702  0.4238  1.7177 -0.8608
 6473SOL    HW230882   2.329   0.400   5.552 -0.5025  0.2571 -0.5302
 6474SOL     OW30883   2.994   1.493   0.795  0.4951 -0.1821  0.0804
 6474SOL    HW130884   3.027   1.503   0.885 -2.4740  1.1741  1.0038
 6474SOL    HW230885   2.958   1.405   0.803 -0.5381  0.0613 -1.8986
 6475SOL     OW30886   3.459   1.373   0.773 -0.5387  0.0727 -0.2389
 6475SOL    HW130887   3.388   1.338   0.828  0.3808  1.8066  2.0681
 6475SOL    HW230888   3.492   1.295   0.730 -1.3895  0.5327 -1.7367
 6476SOL     OW30889   0.298   2.979   9.820 -0.0316 -0.2577 -0.1116
 6476SOL    HW130890   0.337   3.066   9.811 -0.4602 -0.1125 -0.5949
 6476SOL    HW230891   0.209   2.999   9.791 -0.0224  0.3991  0.3129
 6477SOL     OW30892   2.503   1.985   3.757  0.6299  0.5733  0.8514
 6477SOL    HW130893   2.478   2.003   3.848 -0.0331  1.7879  0.4252
 6477SOL    HW230894   2.419   1.999   3.714  0.0604 -0.1170  1.7224
 6478SOL     OW30895   4.637   0.541  13.202 -0.3630  0.8462  0.4267
 6478SOL    HW130896   4.568   0.547  13.268 -2.3020 -1.1285 -1.4503
 6478SOL    HW230897   4.653   0.446  13.201  2.8423  1.4088 -2.9162
 6479SOL     OW30898   2.872   2.709  17.319 -0.2328  0.0731  0.2626
 6479SOL    HW130899   2.920   2.782  17.279 -0.1195  0.6649  1.4727
 6479SOL    HW230900   2.782   2.741  17.308  0.5032  1.3289 -2.2342
 6480SOL     OW30901   0.749   3.621   1.404 -0.7724 -0.1692  0.3241
 6480SOL    HW130902   0.667   3.579   1.377 -0.3354 -0.2024 -0.9640
 6480SOL    HW230903   0.811   3.560   1.363 -0.8738  0.5577 -0.9060
 6481SOL     OW30904   0.679   0.977   2.223  0.2003  0.8775  0.0874
 6481SOL    HW130905   0.730   0.985   2.304 -0.3084 -1.6878  0.6666
 6481SOL    HW230906   0.657   1.068   2.206 -0.7852  0.2477 -2.0219
 6482SOL     OW30907   0.521   1.677   6.196  0.2918 -0.0957  0.0176
 6482SOL    HW130908   0.493   1.703   6.284 -0.2933 -2.0581  0.4008
 6482SOL    HW230909   0.559   1.758   6.162 -0.8923 -0.1370 -1.3788
 6483SOL     OW30910   2.731   1.522   8.714  0.1157 -0.5093  0.9342
 6483SOL    HW130911   2.693   1.601   8.675 -0.2342 -0.5199  1.2558
 6483SOL    HW230912   2.676   1.456   8.672 -0.4173  0.9271 -0.6325
 6484SOL     OW30913   2.646   3.794   4.554 -0.0415 -0.5893 -0.9025
 6484SOL    HW130914   2.610   3.833   4.633 -1.1852 -0.2790 -1.5841
 6484SOL    HW230915   2.715   3.856   4.528  0.0303 -1.1310 -1.9991
 6485SOL     OW30916   0.879   3.420   1.935 -0.1286 -0.2418  0.0441
 6485SOL    HW130917   0.847   3.503   1.900  0.2939  0.1079  0.4919
 6485SOL    HW230918   0.974   3.433   1.929 -0.1354  0.1848  0.7845
 6486SOL     OW30919   4.186   3.873   9.974 -0.0866  0.3980  0.3110
 6486SOL    HW130920   4.258   3.811   9.984  3.3883  4.3004 -1.0026
 6486SOL    HW230921   4.220   3.938   9.913  1.8352 -0.3125  0.6220
 6487SOL     OW30922   0.109   0.415   5.353 -0.3082  0.2406  0.0443
 6487SOL    HW130923   0.175   0.477   5.382  0.8176  0.0121 -1.9800
 6487SOL    HW230924   0.093   0.372   5.437  0.8038  0.3725  0.3245
 6488SOL     OW30925   0.424   2.246   6.236  0.0729  0.2212  0.2858
 6488SOL    HW130926   0.347   2.239   6.179  0.1392  1.1931  0.0862
 6488SOL    HW230927   0.407   2.320   6.294  1.6939  1.8513 -1.3431
 6489SOL     OW30928   4.436   3.222  10.037 -0.9012  0.3398 -0.4116
 6489SOL    HW130929   4.469   3.164  10.105  1.0762 -0.5008 -2.1010
 6489SOL    HW230930   4.512   3.273  10.010  1.0446 -1.9804  0.7160
 6490SOL     OW30931   2.503   3.780   4.141 -0.0343 -0.5292 -0.3540
 6490SOL    HW130932   2.521   3.783   4.235  0.2807  0.0874 -0.4355
 6490SOL    HW230933   2.580   3.732   4.112  1.0218  1.2737 -0.5310
 6491SOL     OW30934   1.008   0.133  13.071 -0.0424 -0.2595 -0.4178
 6491SOL    HW130935   0.971   0.105  12.988 -0.3393 -0.8400 -0.0921
 6491SOL    HW230936   0.930   0.110  13.122 -1.0835 -0.6310 -2.1761
 6492SOL     OW30937   3.450   2.016   7.202  0.2887  0.7893 -0.0695
 6492SOL    HW130938   3.523   2.001   7.141  1.1078  0.3371  1.0126
 6492SOL    HW230939   3.491   2.027   7.288  0.7318 -0.5245 -0.1066
 6493SOL     OW30940   0.225   3.286   2.632  0.2510  0.1067  0.0687
 6493SOL    HW130941   0.199   3.355   2.693 -0.1281  0.6615 -0.7286
 6493SOL    HW230942   0.260   3.224   2.696 -0.9392 -0.0824  0.5261
 6494SOL     OW30943   0.597   3.791   8.447 -0.1741 -0.4261 -0.0358
 6494SOL    HW130944   0.528   3.822   8.506  0.9104  1.5110  0.2415
 6494SOL    HW230945   0.557   3.743   8.375 -1.7809  1.7810 -0.6199
 6495SOL     OW30946   4.535   0.082   2.912  0.0687 -0.7673 -0.2042
 6495SOL    HW130947   4.624   0.110   2.892 -0.1244  0.7772  1.0850
 6495SOL    HW230948   4.493   0.033   2.841 -0.8648 -0.9246  0.4550
 6496SOL     OW30949   3.748   4.537   5.425  0.2932 -0.7403  0.2891
 6496SOL    HW130950   3.761   4.522   5.331  0.5062 -0.9314  0.3487
 6496SOL    HW230951   3.727   4.630   5.424 -3.3470 -1.5541  0.0732
 6497SOL     OW30952   0.356   1.976  11.021  0.5629  0.1144  0.1153
 6497SOL    HW130953   0.425   2.025  11.065  1.5129 -0.6264 -0.5520
 6497SOL    HW230954   0.293   1.975  11.093  0.2836  1.7334 -0.1000
 6498SOL     OW30955   1.793   1.659  13.530 -0.3255 -0.5315 -0.0631
 6498SOL    HW130956   1.775   1.608  13.609  0.3680  1.1813  1.1927
 6498SOL    HW230957   1.821   1.746  13.560 -0.5241 -0.4471 -0.1208
 6499SOL     OW30958   1.026   4.197   4.821 -0.0765  0.1846  0.3424
 6499SOL    HW130959   1.075   4.177   4.741 -0.6033  0.5156 -0.0660
 6499SOL    HW230960   0.938   4.163   4.808  0.3501 -0.7816 -0.0447
 6500SOL     OW30961   0.250   0.649  15.022 -0.5573 -1.2039  0.6669
 6500SOL    HW130962   0.208   0.567  14.997  1.0450 -2.4804  2.1406
 6500SOL    HW230963   0.328   0.663  14.969 -0.7081 -0.4298  0.6521
 6501SOL     OW30964   2.575   3.244   1.963  0.5348 -0.1453  0.8393
 6501SOL    HW130965   2.489   3.230   1.923  0.3930  2.2933  0.3209
 6501SOL    HW230966   2.629   3.184   1.911  0.7289  0.8345 -0.1082
 6502SOL     OW30967   2.098   1.672   5.410 -0.0971  0.3643  0.7881
 6502SOL    HW130968   2.137   1.703   5.491  1.3631 -2.7073  1.2654
 6502SOL    HW230969   2.060   1.586   5.429  1.6406 -0.6088 -0.1434
 6503SOL     OW30970   0.367   3.618   7.806  0.1804  0.2984  0.1867
 6503SOL    HW130971   0.293   3.670   7.774 -1.0577  0.2591  2.9504
 6503SOL    HW230972   0.420   3.682   7.854 -1.3727  0.7874  1.2504
 6504SOL     OW30973   4.200   3.786   4.583  0.5404 -0.1739  0.2816
 6504SOL    HW130974   4.185   3.782   4.678  1.1296  2.2229  0.4626
 6504SOL    HW230975   4.136   3.716   4.570  1.6166 -1.0344 -0.3527
 6505SOL     OW30976   2.959   2.116   2.867 -0.4997 -0.9383 -0.7433
 6505SOL    HW130977   3.035   2.124   2.924 -0.9129 -0.8076 -0.2113
 6505SOL    HW230978   2.987   2.136   2.778 -1.2401 -0.8504 -0.9619
 6506SOL     OW30979   4.038   3.947  15.583  0.3529  0.7190  0.0142
 6506SOL    HW130980   4.047   3.913  15.672  0.1402  0.1011 -0.1970
 6506SOL    HW230981   4.125   3.985  15.579 -0.1209  1.7515 -0.3099
 6507SOL     OW30982   2.636   1.743   2.432 -0.7580  0.3889 -0.7676
 6507SOL    HW130983   2.616   1.706   2.517 -2.0276  1.1411 -0.7442
 6507SOL    HW230984   2.554   1.791   2.422 -1.6503 -0.6712  1.5434
 6508SOL     OW30985   1.077   3.105   5.722 -0.6932 -0.0573 -0.2603
 6508SOL    HW130986   1.127   3.074   5.647 -0.5538 -2.4574  0.8546
 6508SOL    HW230987   1.130   3.061   5.789 -0.5143 -1.2024 -1.1763
 6509SOL     OW30988   0.934   2.544   7.624  0.5040  0.2727 -0.2520
 6509SOL    HW130989   0.903   2.521   7.536  0.1484 -1.3838  0.3130
 6509SOL    HW230990   0.846   2.548   7.660  0.3824  0.5354 -0.5763
 6510SOL     OW30991   4.498   4.443   2.822 -0.0144 -0.5066 -0.1776
 6510SOL    HW130992   4.519   4.531   2.792 -1.0821 -1.2132 -3.0560
 6510SOL    HW230993   4.578   4.396   2.797  0.4830 -0.2073  0.8835
 6511SOL     OW30994   2.601   4.176   3.264 -0.4135  0.4883  0.1728
 6511SOL    HW130995   2.610   4.101   3.323  0.5977  1.7174  1.5758
 6511SOL    HW230996   2.678   4.232   3.272 -1.2936  1.2906  3.0335
 6512SOL     OW30997   1.542   3.207   9.302 -0.4857 -1.0523  0.1156
 6512SOL    HW130998   1.627   3.203   9.346  0.7843  2.1027 -2.0231
 6512SOL    HW230999   1.573   3.245   9.220 -0.2285  0.2329  0.8165
 6513SOL     OW31000   4.394   0.846   8.845 -0.2608 -0.3206  0.4318
 6513SOL    HW131001   4.336   0.838   8.921 -0.4486  0.7632  0.4058
 6513SOL    HW231002   4.481   0.834   8.884  0.3912  0.1784 -0.8637
 6514SOL     OW31003   3.711   1.401   3.502 -0.6878 -0.0572  0.6380
 6514SOL    HW131004   3.720   1.307   3.488 -0.9716  0.1357 -0.7663
 6514SOL    HW231005   3.736   1.439   3.418 -0.5981 -0.3155  0.5484
 6515SOL     OW31006   2.967   3.432  12.111  0.0059  0.2268  0.1066
 6515SOL    HW131007   3.028   3.419  12.039 -0.1961  0.4525 -0.1020
 6515SOL    HW231008   2.975   3.527  12.116  0.4884  0.2777 -1.9492
 6516SOL     OW31009   2.695   1.508   6.477 -0.2468 -0.0692 -0.1170
 6516SOL    HW131010   2.750   1.481   6.551 -3.0760 -0.8497  1.6595
 6516SOL    HW231011   2.611   1.470   6.501 -1.4410  2.5406 -0.1033
 6517SOL     OW31012   4.104   3.976  13.466 -0.3294  0.4870  0.6908
 6517SOL    HW131013   4.095   3.885  13.497  1.7672 -0.4218 -1.3593
 6517SOL    HW231014   4.010   3.989  13.477 -1.0473 -2.0001 -2.6139
 6518SOL     OW31015   2.091   2.652   8.633  0.0077  0.0195  0.6392
 6518SOL    HW131016   2.015   2.669   8.576  1.0155  1.4404 -0.2545
 6518SOL    HW231017   2.095   2.556   8.633  0.0280  0.0213  0.1148
 6519SOL     OW31018   1.317   0.716   3.310 -0.0453 -0.1996 -0.4469
 6519SOL    HW131019   1.270   0.661   3.373 -0.1682  1.1192  0.6222
 6519SOL    HW231020   1.369   0.648   3.269 -2.1510 -1.9600 -0.2162
 6520SOL     OW31021   2.403   3.287   3.954  0.1282 -0.6144  0.1846
 6520SOL    HW131022   2.315   3.249   3.960  0.1169 -0.3872  1.4458
 6520SOL    HW231023   2.382   3.379   3.967  1.1073 -0.5592  1.3127
 6521SOL     OW31024   2.354   3.017  11.783  0.2626 -0.0398 -0.4220
 6521SOL    HW131025   2.425   2.989  11.725 -1.0318 -2.4693 -0.8424
 6521SOL    HW231026   2.400   3.089  11.824  0.7055 -0.7638  0.3621
 6522SOL     OW31027   2.067   1.420   6.210  0.0104  0.1401 -0.4345
 6522SOL    HW131028   2.080   1.497   6.156  1.8180  0.7343  0.8503
 6522SOL    HW231029   2.035   1.357   6.145 -1.0208 -0.1954  0.3857
 6523SOL     OW31030   3.364   0.540   2.494  0.3494 -0.5817 -0.2894
 6523SOL    HW131031   3.272   0.551   2.470  0.5563  1.9934  0.0738
 6523SOL    HW231032   3.401   0.628   2.481 -0.8756 -0.0002  0.1355
 6524SOL     OW31033   1.407   1.535  17.477  0.0620 -0.2165  0.0297
 6524SOL    HW131034   1.458   1.466  17.520  3.5141  1.8652 -0.7304
 6524SOL    HW231035   1.322   1.513  17.515 -1.3320  0.6093 -2.6061
 6525SOL     OW31036   2.705   3.976   1.808  0.1628 -0.2753  0.4451
 6525SOL    HW131037   2.772   3.916   1.842  1.7986  1.0916 -0.3067
 6525SOL    HW231038   2.723   4.055   1.859 -3.2602 -0.4981  1.9832
 6526SOL     OW31039   4.470   4.340   8.262 -0.3515  0.8317 -0.0250
 6526SOL    HW131040   4.424   4.291   8.330 -0.1321 -0.6433 -0.9436
 6526SOL    HW231041   4.557   4.348   8.301  0.4465 -1.5704 -1.3086
 6527SOL     OW31042   0.163   1.975   4.049  0.0805  0.3942  0.1929
 6527SOL    HW131043   0.259   1.974   4.051  0.1194  3.5957  0.5391
 6527SOL    HW231044   0.152   1.903   3.988  0.5794 -0.0280  0.6024
 6528SOL     OW31045   0.833   3.863  16.570 -0.4704  0.3814 -0.1116
 6528SOL    HW131046   0.767   3.800  16.600  1.1634 -1.2705 -0.0455
 6528SOL    HW231047   0.845   3.897  16.658  1.0524 -1.7227  0.4773
 6529SOL     OW31048   0.698   1.334   7.633 -0.5907  0.9114  0.1178
 6529SOL    HW131049   0.685   1.334   7.539  1.5327 -0.3863 -0.1540
 6529SOL    HW231050   0.773   1.276   7.647 -0.7261  0.4864 -0.9479
 6530SOL     OW31051   3.041   2.609  14.599 -0.0797  0.3777  0.2216
 6530SOL    HW131052   2.977   2.561  14.653 -1.2895  1.9237  0.1533
 6530SOL    HW231053   2.991   2.604  14.517 -0.6107  1.6793  0.4635
 6531SOL     OW31054   0.335   1.384   7.021 -0.3065 -0.0067 -0.4443
 6531SOL    HW131055   0.295   1.412   7.103  0.9443  1.3152 -0.2786
 6531SOL    HW231056   0.333   1.464   6.968  0.1470  0.0698 -0.3481
 6532SOL     OW31057   1.826   0.450   4.332 -0.4320 -0.1678  0.1659
 6532SOL    HW131058   1.814   0.374   4.390 -0.0789 -2.3921 -2.6274
 6532SOL    HW231059   1.831   0.519   4.398  0.3996 -0.2794  0.2190
 6533SOL     OW31060   0.135   0.925   2.735 -0.1356  0.6008 -0.1089
 6533SOL    HW131061   0.230   0.930   2.740 -0.1635  0.3115  0.7556
 6533SOL    HW231062   0.121   0.993   2.669 -3.8880 -3.1304 -3.1845
 6534SOL     OW31063   0.969   2.744  12.126 -0.9592  0.3358 -0.0773
 6534SOL    HW131064   1.034   2.800  12.083 -0.4338 -1.6807 -1.8828
 6534SOL    HW231065   0.979   2.782  12.214  0.2963 -1.4124  0.5466
 6535SOL     OW31066   3.740   0.264  15.133 -0.0009 -0.2612  0.1080
 6535SOL    HW131067   3.650   0.295  15.122 -0.2556 -0.4965  1.5459
 6535SOL    HW231068   3.745   0.169  15.147 -0.1846 -0.1308  1.0264
 6536SOL     OW31069   1.681   0.484   9.829 -0.1169 -0.1879  0.3926
 6536SOL    HW131070   1.684   0.396   9.790 -1.6815 -0.0455 -0.0531
 6536SOL    HW231071   1.644   0.458   9.914  0.9630 -0.9856  0.6227
 6537SOL     OW31072   2.386   4.505   4.404 -0.1127  0.4475 -0.3494
 6537SOL    HW131073   2.415   4.595   4.394 -1.4086  0.7753 -1.0785
 6537SOL    HW231074   2.450   4.462   4.462 -0.9134  0.3691  0.4789
 6538SOL     OW31075   1.935   1.593   2.767 -0.3830  0.5299 -0.0125
 6538SOL    HW131076   1.999   1.526   2.740 -0.0233  0.9413 -0.1813
 6538SOL    HW231077   1.871   1.539   2.813  0.0673 -1.2970 -1.5167
 6539SOL     OW31078   2.688   2.567   8.102  0.0492  0.1017 -0.1155
 6539SOL    HW131079   2.775   2.531   8.083  0.3048  1.1943 -1.0085
 6539SOL    HW231080   2.688   2.552   8.196  0.5589  1.4815  0.1024
 6540SOL     OW31081   4.138   3.374   8.092  0.2062 -0.4575  0.1987
 6540SOL    HW131082   4.108   3.381   8.001  0.9544 -1.0786 -0.0919
 6540SOL    HW231083   4.198   3.448   8.100 -0.2083 -0.1404  0.3537
 6541SOL     OW31084   2.001   1.169  14.086 -0.3304 -0.1868  0.4343
 6541SOL    HW131085   1.920   1.129  14.056 -0.6906  1.4694 -0.7392
 6541SOL    HW231086   2.014   1.128  14.172 -0.6411  1.8846  1.4539
 6542SOL     OW31087   3.676   0.758   7.518  0.0026 -0.0074  0.0831
 6542SOL    HW131088   3.683   0.726   7.428  0.2957  1.9599 -0.5801
 6542SOL    HW231089   3.630   0.686   7.561 -0.5064  0.8313  0.9464
 6543SOL     OW31090   2.118   1.653   8.915  0.2645  0.1413  0.5623
 6543SOL    HW131091   2.143   1.583   8.855  0.9699  0.0971  0.9025
 6543SOL    HW231092   2.114   1.602   8.996 -0.1057 -0.0966  0.3947
 6544SOL     OW31093   3.416   2.099   0.762  0.0937 -0.2662 -0.0338
 6544SOL    HW131094   3.366   2.125   0.684 -1.2517 -0.2170  0.8485
 6544SOL    HW231095   3.422   2.007   0.737 -1.0980  0.0231 -1.3843
 6545SOL     OW31096   1.543   0.493   2.089  0.0584 -0.4054 -0.1651
 6545SOL    HW131097   1.529   0.574   2.040 -0.9148 -0.0248  0.7415
 6545SOL    HW231098   1.492   0.433   2.035  0.4615 -2.1749  1.4098
 6546SOL     OW31099   4.087   2.949   5.256 -0.4187  0.2397 -0.0160
 6546SOL    HW131100   4.074   2.932   5.162  2.9964  0.9580 -0.6333
 6546SOL    HW231101   4.023   2.887   5.292  0.4161  1.0242  2.7319
 6547SOL     OW31102   3.496   0.870  12.181 -0.2725 -0.5854  0.3111
 6547SOL    HW131103   3.460   0.908  12.100 -1.1380 -0.1085  0.9156
 6547SOL    HW231104   3.536   0.790  12.148  2.3838  2.1591 -3.1268
 6548SOL     OW31105   3.539   1.543   6.803 -0.5010 -0.4439 -0.1140
 6548SOL    HW131106   3.549   1.542   6.708 -2.7638 -0.0410 -0.3593
 6548SOL    HW231107   3.443   1.547   6.801 -0.4299  0.6761 -1.4812
 6549SOL     OW31108   2.229   3.861   4.627 -0.2088  0.3110  0.2061
 6549SOL    HW131109   2.282   3.810   4.566 -0.3050  0.2569  0.1676
 6549SOL    HW231110   2.210   3.788   4.686 -1.5186 -1.4992 -2.4732
 6550SOL     OW31111   4.584   4.631   9.223 -0.1077 -0.7157 -0.6095
 6550SOL    HW131112   4.679   4.638   9.211 -0.3579 -1.6108 -3.1531
 6550SOL    HW231113   4.559   4.719   9.194  0.2962 -0.7979 -1.1995
 6551SOL     OW31114   2.504   0.019   4.347 -0.0285 -0.0118 -0.2024
 6551SOL    HW131115   2.446   0.073   4.292  1.3028  0.3666 -1.2362
 6551SOL    HW231116   2.592   0.049   4.324 -0.2670  0.4125 -0.5635
 6552SOL     OW31117   2.797   3.851   5.234  0.4278 -0.5520  0.1596
 6552SOL    HW131118   2.803   3.913   5.161 -1.0642  1.1534  1.4609
 6552SOL    HW231119   2.889   3.855   5.261  0.8422 -0.5300 -1.2524
 6553SOL     OW31120   1.651   2.212   3.591  0.1924 -0.0960 -0.3858
 6553SOL    HW131121   1.650   2.162   3.509 -0.7016  0.8500 -0.9423
 6553SOL    HW231122   1.557   2.226   3.603 -0.1591 -0.3774 -2.7028
 6554SOL     OW31123   4.666   2.080   4.163  0.3229  0.0060  0.0875
 6554SOL    HW131124   4.698   2.166   4.189 -0.3146  0.1680  0.3593
 6554SOL    HW231125   0.013   2.039   4.121  0.4945  1.0367 -0.6055
 6555SOL     OW31126   3.638   4.511   0.888 -0.1758 -0.2436 -0.0375
 6555SOL    HW131127   3.594   4.589   0.856 -0.6090 -1.1083 -1.5888
 6555SOL    HW231128   3.671   4.539   0.973 -3.3073 -1.9420  1.7378
 6556SOL     OW31129   3.341   0.884   2.182  0.1209 -0.6770 -0.4620
 6556SOL    HW131130   3.354   0.798   2.142 -1.6107 -0.4527 -1.5189
 6556SOL    HW231131   3.372   0.945   2.115 -0.5479 -0.5236 -0.6326
 6557SOL     OW31132   0.916   1.174   7.661  0.0264 -0.3618 -0.1703
 6557SOL    HW131133   0.882   1.114   7.594  1.1998 -2.5669  1.2178
 6557SOL    HW231134   1.006   1.186   7.633 -0.0148 -1.8818 -0.9484
 6558SOL     OW31135   4.001   4.302   6.263 -0.4497  0.8637 -0.0724
 6558SOL    HW131136   3.966   4.352   6.336 -1.6201  1.0006 -0.7303
 6558SOL    HW231137   4.080   4.348   6.234  1.4484 -1.9916  0.5773
 6559SOL     OW31138   2.883   2.751  15.314  0.1971  0.3714 -0.4947
 6559SOL    HW131139   2.946   2.821  15.297 -1.2553  1.3603 -1.8766
 6559SOL    HW231140   2.818   2.764  15.245 -2.2480 -1.2699  1.5050
 6560SOL     OW31141   1.907   3.728   7.007 -0.1861 -0.2353  0.6704
 6560SOL    HW131142   1.982   3.685   7.049  0.4568 -0.6318 -0.8858
 6560SOL    HW231143   1.872   3.656   6.956  0.7837  0.4960 -1.0247
 6561SOL     OW31144   3.698   3.400   6.660  0.0336 -0.1011  0.2755
 6561SOL    HW131145   3.611   3.437   6.646  0.8870  1.0444 -2.0051
 6561SOL    HW231146   3.744   3.440   6.586 -1.5743 -0.2506 -0.8125
 6562SOL     OW31147   0.526   1.570   4.207  0.1936 -0.0547 -0.4312
 6562SOL    HW131148   0.614   1.540   4.228  0.5322  1.0700 -0.2441
 6562SOL    HW231149   0.527   1.569   4.111  0.9558  2.9023 -0.4428
 6563SOL     OW31150   2.028   1.508  17.607 -1.2413  0.1776 -0.3299
 6563SOL    HW131151   2.123   1.512  17.624 -1.8089  3.5906  2.1370
 6563SOL    HW231152   2.038   1.443  17.537 -0.4621  0.4787 -0.4984
 6564SOL     OW31153   2.294   2.836  13.591  0.2258  0.4921 -0.1142
 6564SOL    HW131154   2.341   2.900  13.644  0.3291  0.0484  0.3239
 6564SOL    HW231155   2.229   2.891  13.548  1.7543  0.7509 -2.1170
 6565SOL     OW31156   3.357   3.077   6.029  0.4651  0.4996 -0.3619
 6565SOL    HW131157   3.270   3.087   6.068  0.5199 -0.3130 -0.0384
 6565SOL    HW231158   3.370   2.982   6.030 -0.9176  0.3029 -0.5086
 6566SOL     OW31159   0.155   0.683  11.012  0.4804  0.2182 -0.3328
 6566SOL    HW131160   0.072   0.723  11.039 -0.0203  1.1509 -3.2382
 6566SOL    HW231161   0.176   0.614  11.076  1.4395  0.2446 -0.6190
 6567SOL     OW31162   1.329   2.406   2.072 -0.0964 -0.6801 -0.1986
 6567SOL    HW131163   1.412   2.383   2.113  1.2529  3.0330 -0.8897
 6567SOL    HW231164   1.306   2.476   2.134  2.3405 -2.2694  2.4842
 6568SOL     OW31165   0.662   3.008   7.070 -0.5313  0.3705 -0.6317
 6568SOL    HW131166   0.722   3.059   7.123  0.0754 -0.6187 -0.3602
 6568SOL    HW231167   0.604   3.080   7.045 -1.4222 -0.6582 -1.5512
 6569SOL     OW31168   0.226   3.056   1.811  0.4620  0.1091  0.0009
 6569SOL    HW131169   0.166   3.102   1.871  0.2094 -0.0005 -0.1697
 6569SOL    HW231170   0.278   3.129   1.775  1.7662 -0.9224 -0.2085
 6570SOL     OW31171   4.653   0.908   3.991 -0.2421 -0.5053  0.2545
 6570SOL    HW131172   4.595   0.913   3.916 -0.1068  3.0183  0.3822
 6570SOL    HW231173   4.612   0.958   4.062 -0.9372 -0.8932  0.1207
 6571SOL     OW31174   2.665   2.547   2.870  0.2928 -0.2039  0.0647
 6571SOL    HW131175   2.744   2.507   2.908  1.5098  2.6308  0.5236
 6571SOL    HW231176   2.704   2.628   2.838 -1.4199  0.2898 -0.7226
 6572SOL     OW31177   1.173   3.873  15.169 -0.0438 -0.0235 -0.3882
 6572SOL    HW131178   1.210   3.961  15.172  1.3917 -0.6149 -0.9847
 6572SOL    HW231179   1.109   3.895  15.100 -0.0645  0.9873 -0.0521
 6573SOL     OW31180   3.229   2.179   1.526 -0.0187 -0.2054 -0.1168
 6573SOL    HW131181   3.289   2.133   1.584 -0.7826 -0.7638  0.2288
 6573SOL    HW231182   3.155   2.119   1.517  0.1235 -0.3505 -0.3326
 6574SOL     OW31183   4.313   3.562   2.160 -0.1344 -0.3753 -0.0303
 6574SOL    HW131184   4.388   3.535   2.213  0.3043  1.0555  0.0713
 6574SOL    HW231185   4.355   3.622   2.098  1.7714  1.7787  3.3831
 6575SOL     OW31186   1.181   1.400   3.970  0.1228 -0.0195  0.4439
 6575SOL    HW131187   1.101   1.428   3.926  0.1446 -1.2234 -0.3680
 6575SOL    HW231188   1.144   1.320   4.007  0.4273 -0.2719  0.2083
 6576SOL     OW31189   2.431   3.963   1.757  0.2415  0.4221 -0.0043
 6576SOL    HW131190   2.508   4.004   1.797  0.1355 -0.7106  1.3747
 6576SOL    HW231191   2.467   3.896   1.698  3.2592 -1.1941  3.6725
 6577SOL     OW31192   4.126   3.945   4.280  0.5389  0.6386  0.8700
 6577SOL    HW131193   4.163   3.969   4.366  0.2870  3.2059  0.2530
 6577SOL    HW231194   4.044   3.901   4.304  0.8365 -0.6478 -0.4421
 6578SOL     OW31195   0.918   0.644   3.423 -0.3607  0.5433  0.4957
 6578SOL    HW131196   1.001   0.612   3.457 -0.4725 -0.7581 -0.4531
 6578SOL    HW231197   0.918   0.733   3.458  0.5423  0.6671  0.1763
 6579SOL     OW31198   3.087   0.644   5.207  0.1788  0.0968  0.6081
 6579SOL    HW131199   3.094   0.684   5.294  1.0725  0.4845  0.3660
 6579SOL    HW231200   3.053   0.710   5.146  2.0326  0.7578  0.2913
 6580SOL     OW31201   2.351   1.986  13.926 -0.3775 -0.0201  0.6713
 6580SOL    HW131202   2.341   1.979  14.021 -0.9223  1.2528  0.7140
 6580SOL    HW231203   2.435   1.941  13.920  0.0721  0.7541  1.0940
 6581SOL     OW31204   3.111   0.021  11.492  0.4272 -0.2211  0.3929
 6581SOL    HW131205   3.064   4.671  11.521 -0.1105  0.1038  0.3833
 6581SOL    HW231206   3.165   0.025  11.571  1.0764 -0.1397 -0.0565
 6582SOL     OW31207   0.150   0.684   4.754  0.0857 -0.6248 -0.2307
 6582SOL    HW131208   0.159   0.769   4.797  0.0583  0.0691 -1.5950
 6582SOL    HW231209   0.088   0.640   4.812  0.8373 -0.0671  0.9830
 6583SOL     OW31210   4.451   3.603   8.541  0.4340 -0.1455  0.5338
 6583SOL    HW131211   4.475   3.562   8.458  4.0955 -0.9493  1.9551
 6583SOL    HW231212   4.526   3.576   8.594  0.8455 -0.2146 -0.0829
 6584SOL     OW31213   4.477   1.694   5.016 -0.0522 -0.3740 -0.0845
 6584SOL    HW131214   4.433   1.743   4.947  2.0870 -0.3470 -1.4479
 6584SOL    HW231215   4.560   1.696   4.968  0.2356  0.8590  0.4862
 6585SOL     OW31216   0.139   1.775   3.869  0.0178 -0.2706  0.0746
 6585SOL    HW131217   0.142   1.718   3.945 -0.8146  0.3401  0.5733
 6585SOL    HW231218   0.137   1.717   3.793  1.7250  2.5744 -2.1291
 6586SOL     OW31219   0.225   0.348  12.960  0.2400 -0.3131 -0.0396
 6586SOL    HW131220   0.202   0.257  12.980 -0.1278 -0.4911 -1.2346
 6586SOL    HW231221   0.312   0.338  12.920 -0.8576 -0.7016 -2.3723
 6587SOL     OW31222   4.474   4.579   1.289 -0.3752 -0.8154  0.4899
 6587SOL    HW131223   4.497   4.592   1.197  2.1555  3.1110  1.6730
 6587SOL    HW231224   4.528   4.647   1.329  0.3087 -1.4642  0.6634
 6588SOL     OW31225   4.690   4.433   5.151  0.0233 -0.1265 -0.4209
 6588SOL    HW131226   4.653   4.446   5.064  0.1469  1.0264 -0.3063
 6588SOL    HW231227   4.707   4.522   5.183  0.4431 -0.0649 -0.8188
 6589SOL     OW31228   4.501   3.191   4.354 -0.3277 -0.6161 -0.2053
 6589SOL    HW131229   4.583   3.240   4.363 -0.5273 -0.6050  1.5228
 6589SOL    HW231230   4.527   3.099   4.357 -0.7285 -0.6854  1.2701
 6590SOL     OW31231   1.460   3.444   7.346  0.3839 -0.5637 -0.6223
 6590SOL    HW131232   1.365   3.449   7.346  0.4771  1.4710 -0.8347
 6590SOL    HW231233   1.478   3.392   7.424 -1.4975 -0.1394  0.0805
 6591SOL     OW31234   3.415   1.425   8.420  0.4918 -0.3255  0.1780
 6591SOL    HW131235   3.321   1.442   8.417  0.5072 -0.5820 -2.4454
 6591SOL    HW231236   3.424   1.414   8.514  0.8394  0.8010  0.2881
 6592SOL     OW31237   0.048   2.655  10.050 -0.3845  0.4588  0.0807
 6592SOL    HW131238   0.135   2.689  10.073 -0.6463 -0.4541  2.4969
 6592SOL    HW231239   0.016   2.721   9.988  0.2269  2.0267  1.4280
 6593SOL     OW31240   1.835   2.311   2.296  0.9104 -0.2606 -0.3201
 6593SOL    HW131241   1.897   2.292   2.226  1.2968 -2.9126  0.7151
 6593SOL    HW231242   1.775   2.239   2.276  2.2918 -1.4353 -0.2324
 6594SOL     OW31243   2.598   3.117   4.078  0.6558 -0.0383 -0.0885
 6594SOL    HW131244   2.591   3.029   4.043 -1.3354 -1.0709  2.8654
 6594SOL    HW231245   2.514   3.158   4.057  1.1798  1.4238  0.6256
 6595SOL     OW31246   0.070   2.916   2.666 -0.4522 -0.2138 -0.2949
 6595SOL    HW131247   0.112   2.920   2.753 -0.8706  0.8265 -0.1376
 6595SOL    HW231248   0.146   2.895   2.613  1.5095  0.5960  2.1554
 6596SOL     OW31249   4.366   2.169   5.731  0.0369 -0.4928  0.5384
 6596SOL    HW131250   4.370   2.098   5.794 -0.6862 -0.3000  0.8119
 6596SOL    HW231251   4.399   2.243   5.782  1.4252 -0.1798 -0.8238
 6597SOL     OW31252   2.097   2.632   7.871  0.1495 -0.6517 -0.5756
 6597SOL    HW131253   2.124   2.685   7.796  0.1765 -0.9546 -0.7750
 6597SOL    HW231254   2.158   2.560   7.860  0.3716 -0.6229  0.4331
 6598SOL     OW31255   1.782   3.028  17.248 -0.2082 -0.2123  0.1440
 6598SOL    HW131256   1.750   3.035  17.338 -0.2044  0.2257  0.1101
 6598SOL    HW231257   1.749   3.111  17.213  1.1335  0.6688  0.9683
 6599SOL     OW31258   0.834   1.311   7.114 -0.0658 -0.0387 -0.1865
 6599SOL    HW131259   0.786   1.233   7.083 -0.5273  0.0451  0.3158
 6599SOL    HW231260   0.783   1.334   7.192 -1.2883 -1.4521 -0.5468
 6600SOL     OW31261   2.707   4.002  14.417 -0.2319  0.0997  0.3126
 6600SOL    HW131262   2.670   3.959  14.339  2.3863  1.5439 -1.6998
 6600SOL    HW231263   2.638   4.055  14.457  0.9543  1.0633  1.0803
 6601SOL     OW31264   3.028   1.801   2.250  0.2908  0.0049  0.1396
 6601SOL    HW131265   3.087   1.763   2.185  0.9486 -0.0503  0.7702
 6601SOL    HW231266   3.067   1.883   2.280 -0.9078  0.7127 -0.2178
 6602SOL     OW31267   1.284   1.809   4.161  0.4597  0.5110  0.5411
 6602SOL    HW131268   1.357   1.801   4.223 -0.1947  0.3967  1.2952
 6602SOL    HW231269   1.322   1.833   4.076  0.7975 -1.3645  0.1594
 6603SOL     OW31270   4.543   0.141   7.582 -0.4796 -0.7971  0.2605
 6603SOL    HW131271   4.545   0.196   7.660 -3.7919  0.6246 -0.6584
 6603SOL    HW231272   4.572   0.209   7.520 -2.0299 -1.5859 -1.3333
 6604SOL     OW31273   0.982   2.894  12.367 -0.1186  0.0591 -0.2087
 6604SOL    HW131274   0.920   2.963  12.343  1.5390  1.6301  0.0459
 6604SOL    HW231275   1.061   2.947  12.380  0.2372 -0.7605  0.9854
 6605SOL     OW31276   1.546   2.501  13.767  0.3505  0.2026  0.3792
 6605SOL    HW131277   1.456   2.481  13.742  0.5429  0.3534 -0.4337
 6605SOL    HW231278   1.591   2.505  13.682  2.5758  0.8642  1.5745
 6606SOL     OW31279   1.526   0.309  12.210  0.0913  0.2865 -0.2754
 6606SOL    HW131280   1.526   0.217  12.235 -4.1074  0.5576  0.8643
 6606SOL    HW231281   1.515   0.348  12.297 -2.1281 -0.2048 -0.3227
 6607SOL     OW31282   2.987   4.390   8.362  0.5833  0.0463  0.0108
 6607SOL    HW131283   2.986   4.442   8.442 -1.4424 -0.2686  0.2065
 6607SOL    HW231284   2.896   4.360   8.360  0.5864  0.0263  0.2284
 6608SOL     OW31285   2.244   3.567   7.991 -1.2151  0.2732  0.0986
 6608SOL    HW131286   2.253   3.587   7.897 -0.3719  0.6142  0.2491
 6608SOL    HW231287   2.190   3.488   7.989 -1.3597  0.3717  0.0927
 6609SOL     OW31288   3.142   4.457   3.105 -0.0105  0.1230 -0.2632
 6609SOL    HW131289   3.097   4.389   3.055  0.7880  0.0526 -0.8915
 6609SOL    HW231290   3.140   4.530   3.042 -1.3125  0.3419  0.0274
 6610SOL     OW31291   1.674   2.765  10.701 -0.7112  0.0881 -0.2590
 6610SOL    HW131292   1.701   2.837  10.758 -1.3581  1.3358 -1.5316
 6610SOL    HW231293   1.739   2.698  10.722 -1.0285 -0.2600 -0.3893
 6611SOL     OW31294   0.390   0.204   2.658 -0.0153  0.6849 -0.2816
 6611SOL    HW131295   0.432   0.118   2.666 -1.2961  0.1674  0.7816
 6611SOL    HW231296   0.312   0.171   2.613 -0.6534 -0.2711  1.5198
 6612SOL     OW31297   3.274   1.287   6.262  0.2516 -0.4285 -0.4921
 6612SOL    HW131298   3.320   1.349   6.206 -1.0592  1.3647  0.4195
 6612SOL    HW231299   3.240   1.220   6.202  1.5736 -1.7129  0.2003
 6613SOL     OW31300   0.983   3.540   3.368 -0.6797 -0.3537 -0.0806
 6613SOL    HW131301   0.966   3.557   3.461  1.7194 -0.7202  0.4177
 6613SOL    HW231302   1.060   3.483   3.369  1.1855  2.1671 -0.0287
 6614SOL     OW31303   1.605   3.683   9.764 -0.1434  0.2737  0.0817
 6614SOL    HW131304   1.647   3.769   9.752  0.7220  0.1011  1.8141
 6614SOL    HW231305   1.544   3.712   9.831  0.4903  1.7983  0.0100
 6615SOL     OW31306   1.626   3.052  10.184 -0.2965  0.5790 -0.5014
 6615SOL    HW131307   1.660   2.970  10.220  1.9762  1.5890 -0.3554
 6615SOL    HW231308   1.641   3.036  10.091 -2.1470 -1.1653 -0.4981
 6616SOL     OW31309   2.237   4.383   9.201  0.4319  0.3678 -0.4489
 6616SOL    HW131310   2.272   4.437   9.130  1.5956  1.9124  1.3202
 6616SOL    HW231311   2.277   4.298   9.181  0.8404  0.6222 -0.7019
 6617SOL     OW31312   1.177   1.961   0.169  0.3569 -0.1628  0.5515
 6617SOL    HW131313   1.201   1.868   0.175 -0.6742 -0.5670 -1.8551
 6617SOL    HW231314   1.243   2.010   0.218 -0.0594  0.3421  0.6085
 6618SOL     OW31315   1.437   1.166   0.699  0.0038 -0.5135 -0.2271
 6618SOL    HW131316   1.399   1.189   0.614  0.0031  1.8457  0.4351
 6618SOL    HW231317   1.356   1.160   0.749  1.9568  2.1436  3.2028
 6619SOL     OW31318   3.193   1.128  14.305 -0.4935 -0.7128  0.4237
 6619SOL    HW131319   3.111   1.094  14.341 -2.1365  0.5337 -2.1157
 6619SOL    HW231320   3.228   1.161  14.388  0.6980 -1.6131  0.2813
 6620SOL     OW31321   3.188   1.751  14.521  0.4318 -0.4962 -0.6967
 6620SOL    HW131322   3.130   1.687  14.563 -0.7123  1.4609  0.6800
 6620SOL    HW231323   3.232   1.715  14.443  0.6968 -1.7396  0.0170
 6621SOL     OW31324   4.504   1.097   4.949 -0.7020 -0.3778  0.3136
 6621SOL    HW131325   4.441   1.036   4.910  1.3849 -1.9745 -0.5590
 6621SOL    HW231326   4.580   1.041   4.960  0.8124  2.2061  3.0432
 6622SOL     OW31327   2.170   2.049  15.367  0.0080 -0.2735 -0.0697
 6622SOL    HW131328   2.122   1.997  15.303 -0.9678  0.8165 -0.2317
 6622SOL    HW231329   2.168   1.998  15.448 -3.2997  0.0997  0.0619
 6623SOL     OW31330   2.548   1.409   5.045  0.2439 -0.5804 -0.1373
 6623SOL    HW131331   2.511   1.497   5.034  3.5381  0.9149  0.8251
 6623SOL    HW231332   2.615   1.423   4.978 -1.1373 -0.7594 -1.5541
 6624SOL     OW31333   1.508   4.219   8.810 -0.2877 -0.1889 -0.1835
 6624SOL    HW131334   1.545   4.158   8.874  1.3143 -1.1320 -2.0354
 6624SOL    HW231335   1.470   4.157   8.748  0.3187 -1.7836  1.0384
 6625SOL     OW31336   1.945   1.217   6.058 -0.3316  0.0171 -0.0609
 6625SOL    HW131337   1.958   1.124   6.072 -0.7643 -0.3405 -2.0116
 6625SOL    HW231338   1.850   1.226   6.063 -0.2059  1.5969 -0.4685
 6626SOL     OW31339   3.861   2.630   4.728 -0.5034 -0.1930  0.1768
 6626SOL    HW131340   3.943   2.674   4.749 -0.4589 -0.3378  0.3100
 6626SOL    HW231341   3.864   2.657   4.636 -0.0477 -1.2651 -0.1338
 6627SOL     OW31342   4.133   4.580   6.421  0.1611  0.4265 -0.2138
 6627SOL    HW131343   4.132   4.555   6.514  0.8508  2.3072  0.2900
 6627SOL    HW231344   4.219   4.553   6.390  0.3412  0.4282  0.2928
 6628SOL     OW31345   0.685   2.646   7.691 -0.0262  0.5145  0.4668
 6628SOL    HW131346   0.637   2.714   7.739 -1.4620  0.6428 -1.1180
 6628SOL    HW231347   0.658   2.674   7.603  0.5514 -1.4931 -0.3407
 6629SOL     OW31348   4.324   2.083   0.507 -0.3346 -0.1602  0.2823
 6629SOL    HW131349   4.266   2.047   0.441  0.3513  2.4604 -1.7360
 6629SOL    HW231350   4.306   2.028   0.584  1.6328  0.1522  0.9781
 6630SOL     OW31351   3.999   0.199   3.683  0.1677 -0.7496  0.5299
 6630SOL    HW131352   4.048   0.272   3.645 -0.1798  0.0898  1.7123
 6630SOL    HW231353   4.007   0.135   3.611  1.1345  1.3675 -1.2254
 6631SOL     OW31354   2.540   2.573   9.107  0.5396 -0.8438  0.4873
 6631SOL    HW131355   2.611   2.565   9.171  3.1552 -1.8131 -2.5509
 6631SOL    HW231356   2.473   2.611   9.163  1.5510  0.8303  0.5460
 6632SOL     OW31357   3.973   1.296  14.559 -0.5709 -0.2392  0.2629
 6632SOL    HW131358   3.931   1.268  14.478  1.0210  0.0020 -0.6236
 6632SOL    HW231359   4.046   1.346  14.524 -0.4495 -1.9881 -1.9434
 6633SOL     OW31360   0.660   3.364   9.975 -0.0547 -0.0575 -0.6297
 6633SOL    HW131361   0.731   3.427   9.987 -0.9453  1.3086 -2.6110
 6633SOL    HW231362   0.613   3.409   9.905 -0.8837 -3.0223 -1.9608
 6634SOL     OW31363   4.226   1.528   2.833  0.0403 -0.3755  0.1773
 6634SOL    HW131364   4.307   1.535   2.784 -1.0345  1.3698 -1.3160
 6634SOL    HW231365   4.167   1.508   2.760 -0.5219 -1.0421  0.8091
 6635SOL     OW31366   1.411   0.472   0.508  0.3082 -0.1296  0.3216
 6635SOL    HW131367   1.450   0.414   0.573 -0.0422 -0.8139 -0.0750
 6635SOL    HW231368   1.338   0.501   0.563 -0.4889 -1.3037 -0.0954
 6636SOL     OW31369   1.309   4.037   6.654  0.3247 -0.0335  0.2433
 6636SOL    HW131370   1.385   4.087   6.623 -1.2352  1.9034 -0.4800
 6636SOL    HW231371   1.328   3.954   6.611 -1.9497 -0.6925  0.5008
 6637SOL     OW31372   3.935   0.405   9.172 -0.2642  0.1948  0.0465
 6637SOL    HW131373   3.848   0.369   9.155  0.5537 -1.9530  0.3824
 6637SOL    HW231374   3.919   0.498   9.155  3.2466  0.6677 -0.5146
 6638SOL     OW31375   1.894   0.725  13.005 -0.0850  0.4382 -0.2632
 6638SOL    HW131376   1.895   0.753  13.097  0.0225  1.2724 -0.5173
 6638SOL    HW231377   1.806   0.758  12.983 -1.1175 -2.3162 -0.2254
 6639SOL     OW31378   3.168   3.088   9.909  0.5721 -0.0352 -0.1709
 6639SOL    HW131379   3.202   3.030   9.841  1.9157  0.8088 -0.2267
 6639SOL    HW231380   3.245   3.101   9.963  1.0217 -0.0011 -0.8185
 6640SOL     OW31381   0.887   2.186   3.227 -0.0880  0.1443 -0.4083
 6640SOL    HW131382   0.969   2.221   3.194  0.6570 -0.0594  1.2467
 6640SOL    HW231383   0.891   2.094   3.199  1.1828 -0.5761  2.1171
 6641SOL     OW31384   0.517   3.865   6.257  0.2892  0.3334  0.2166
 6641SOL    HW131385   0.471   3.786   6.228  0.7723  0.1054  0.0714
 6641SOL    HW231386   0.500   3.871   6.351  2.5560 -1.7276  0.7772
 6642SOL     OW31387   0.589   3.035  14.600  0.6761  0.1457 -0.6680
 6642SOL    HW131388   0.616   3.020  14.509 -1.6798 -1.8578 -1.0550
 6642SOL    HW231389   0.507   2.985  14.595  0.6462 -0.0174  1.6338
 6643SOL     OW31390   0.095   1.431  16.418 -0.6468  0.4920  0.1174
 6643SOL    HW131391   0.147   1.454  16.495  0.8245  0.2469 -0.7870
 6643SOL    HW231392   0.114   1.497  16.351  0.3615  0.2369  0.1509
 6644SOL     OW31393   2.226   4.129  13.770 -0.4877  0.1485 -0.2760
 6644SOL    HW131394   2.183   4.136  13.855 -2.1348  2.3064 -1.2849
 6644SOL    HW231395   2.168   4.190  13.723  0.1759  0.0112 -1.2730
 6645SOL     OW31396   1.120   3.645   5.217  0.2826  0.0864 -0.2721
 6645SOL    HW131397   1.204   3.682   5.189  0.0284  0.4589 -0.5466
 6645SOL    HW231398   1.148   3.572   5.271 -1.0447  1.2363  1.9933
 6646SOL     OW31399   0.128   1.917   8.247 -0.1383 -0.6635 -0.2702
 6646SOL    HW131400   0.122   1.986   8.313  0.5883 -1.5038  0.6739
 6646SOL    HW231401   0.204   1.867   8.279 -1.2904 -2.7313 -0.8091
 6647SOL     OW31402   2.726   0.087   4.221  0.1458  0.4648  1.1614
 6647SOL    HW131403   2.771   0.023   4.166  1.4817 -0.1245  2.9725
 6647SOL    HW231404   2.798   0.146   4.243  0.3745  0.4095  0.5599
 6648SOL     OW31405   2.577   3.071   3.539 -0.0476 -0.2390 -0.7560
 6648SOL    HW131406   2.535   2.989   3.513 -2.2616  0.8933 -0.6798
 6648SOL    HW231407   2.502   3.104   3.587  0.1958 -0.6796 -0.0688
 6649SOL     OW31408   1.272   0.544   5.354 -0.3220 -0.1658  0.2614
 6649SOL    HW131409   1.314   0.614   5.303 -0.9034 -0.3235 -0.4386
 6649SOL    HW231410   1.342   0.480   5.343  0.3837  0.3979  1.4914
 6650SOL     OW31411   3.699   4.001   8.826 -0.4452 -0.0491 -0.4290
 6650SOL    HW131412   3.772   3.940   8.834  2.6968  3.8304  0.4605
 6650SOL    HW231413   3.751   4.074   8.792 -2.0392  1.0217 -0.5323
 6651SOL     OW31414   3.277   1.513   3.403  0.2095 -0.5770 -0.2882
 6651SOL    HW131415   3.263   1.593   3.453 -0.4693 -0.2064 -1.0769
 6651SOL    HW231416   3.366   1.538   3.378  0.1177 -1.6751 -1.7198
 6652SOL     OW31417   3.790   1.748  11.415 -1.1191  0.4015 -0.5960
 6652SOL    HW131418   3.808   1.816  11.481 -0.3074  0.7612 -1.1827
 6652SOL    HW231419   3.846   1.792  11.351  2.4054  0.0769  2.2108
 6653SOL     OW31420   2.110   1.884   7.419  0.0332  0.2225 -0.1781
 6653SOL    HW131421   2.194   1.884   7.466 -0.5361  0.6621  0.8432
 6653SOL    HW231422   2.078   1.969   7.450  1.4241  0.2326  1.2574
 6654SOL     OW31423   1.792   2.548   8.219  0.2630 -0.4095 -0.1020
 6654SOL    HW131424   1.812   2.622   8.277 -0.3298  0.7721 -1.3987
 6654SOL    HW231425   1.698   2.537   8.229  0.0230  1.0621 -0.5848
 6655SOL     OW31426   4.245   3.492  11.765 -0.3507  0.5362 -0.0390
 6655SOL    HW131427   4.319   3.519  11.819 -0.2207  1.0120 -0.4572
 6655SOL    HW231428   4.267   3.401  11.746 -2.8283 -0.3065  1.0478
 6656SOL     OW31429   0.390   2.892   2.568  0.0220 -0.2436  0.0885
 6656SOL    HW131430   0.400   2.812   2.619 -1.0351 -1.4695 -1.6569
 6656SOL    HW231431   0.401   2.957   2.638  2.3609 -2.2964  1.5893
 6657SOL     OW31432   1.331   2.759   8.484  0.7809  0.4751 -0.4300
 6657SOL    HW131433   1.249   2.713   8.464  1.7311 -1.3663 -0.0946
 6657SOL    HW231434   1.377   2.693   8.536 -2.4573 -0.2748  1.5294
 6658SOL     OW31435   0.236   3.927  12.833 -0.1173  0.4524  0.0139
 6658SOL    HW131436   0.184   3.847  12.838  2.1036 -1.0463 -0.6724
 6658SOL    HW231437   0.322   3.891  12.810 -0.2625 -2.1566  3.6210
 6659SOL     OW31438   3.971   2.957   1.958 -0.1565 -0.3344  0.4785
 6659SOL    HW131439   4.012   2.873   1.935  1.0811  0.6082 -0.7053
 6659SOL    HW231440   3.878   2.934   1.961  0.2148 -1.9640 -0.3734
 6660SOL     OW31441   2.464   1.860   5.605 -0.0552 -0.3247  0.0801
 6660SOL    HW131442   2.388   1.916   5.590 -0.8949 -1.0335  1.6652
 6660SOL    HW231443   2.502   1.913   5.676  1.0750  0.8297 -1.3744
 6661SOL     OW31444   0.962   3.831   6.008  0.0994  0.2517 -0.0942
 6661SOL    HW131445   0.925   3.915   5.980  1.3067  0.2459 -1.7381
 6661SOL    HW231446   1.039   3.868   6.050  1.4190 -1.7167 -0.7530
 6662SOL     OW31447   2.824   0.186   3.341  0.1486 -0.1557  0.3324
 6662SOL    HW131448   2.841   0.138   3.422 -1.8080 -0.0245  0.8114
 6662SOL    HW231449   2.817   0.277   3.371 -3.2625 -1.0024  2.0606
 6663SOL     OW31450   3.510   0.180  16.493  0.1391  0.1928  0.0543
 6663SOL    HW131451   3.539   0.143  16.576 -3.2930  0.8807  1.5847
 6663SOL    HW231452   3.589   0.178  16.440  1.1489  1.3124  1.4969
 6664SOL     OW31453   2.396   1.691   8.793  0.0874 -0.5818  0.9156
 6664SOL    HW131454   2.435   1.613   8.831 -0.9853 -1.5248  0.0715
 6664SOL    HW231455   2.456   1.758   8.825  1.0398 -0.7505 -0.5071
 6665SOL     OW31456   1.420   2.770   2.096  0.5814  0.5300  0.2695
 6665SOL    HW131457   1.356   2.834   2.064  0.9882  0.8068  0.0039
 6665SOL    HW231458   1.364   2.721   2.156  2.3993 -1.4713  0.3194
 6666SOL     OW31459   1.286   4.607   0.537 -0.2581 -0.6683  0.6440
 6666SOL    HW131460   1.242   4.578   0.618  1.2053  0.8928  1.9947
 6666SOL    HW231461   1.356   4.543   0.527  0.0079 -0.6070  2.0955
 6667SOL     OW31462   0.565   1.952   2.117 -0.4568  0.2783  0.4359
 6667SOL    HW131463   0.611   1.974   2.198  2.2270  0.1896 -1.0493
 6667SOL    HW231464   0.485   1.908   2.144 -1.2339  0.1383 -2.1640
 6668SOL     OW31465   4.326   1.732   4.286  0.4020 -0.4769  0.2337
 6668SOL    HW131466   4.275   1.717   4.206  1.7995  0.2019 -0.7832
 6668SOL    HW231467   4.336   1.827   4.283 -1.3735 -0.2262  2.2491
 6669SOL     OW31468   3.470   3.956   0.212 -0.6649 -0.3042  0.0955
 6669SOL    HW131469   3.454   3.941   0.305  1.8536  0.0716  0.6067
 6669SOL    HW231470   3.563   3.935   0.204  0.0412  3.3845 -1.5304
 6670SOL     OW31471   1.054   0.020  13.870  0.6088 -0.4388 -0.1321
 6670SOL    HW131472   1.117   0.068  13.924  0.6908  1.3778 -1.8215
 6670SOL    HW231473   0.969   0.055  13.896  1.3437  1.0173  0.3142
 6671SOL     OW31474   3.261   3.360   3.419 -1.1836  0.5492  0.2170
 6671SOL    HW131475   3.297   3.307   3.491  0.8788  0.7034 -0.6922
 6671SOL    HW231476   3.168   3.344   3.433 -1.2002  0.6894  0.2669
 6672SOL     OW31477   1.718   0.052   5.842 -0.2502  0.0685  0.4869
 6672SOL    HW131478   1.747   0.026   5.754 -3.1271 -0.2186 -0.3617
 6672SOL    HW231479   1.748   4.713   5.904  0.5211 -0.1668 -0.1351
 6673SOL     OW31480   3.397   3.697   7.723  0.2003 -0.1260  0.1876
 6673SOL    HW131481   3.330   3.636   7.691 -0.0767  0.9108 -1.1993
 6673SOL    HW231482   3.416   3.746   7.644 -0.2637 -2.7438 -1.5485
 6674SOL     OW31483   4.179   1.450   0.563  0.0045  0.4801  0.4638
 6674SOL    HW131484   4.084   1.450   0.550 -0.1692  0.3802  1.7099
 6674SOL    HW231485   4.220   1.425   0.480  0.0144  1.2369  0.2376
 6675SOL     OW31486   1.795   3.732   2.468 -0.1630  0.0295  0.3819
 6675SOL    HW131487   1.786   3.827   2.480 -0.6517  0.1787 -1.1603
 6675SOL    HW231488   1.738   3.724   2.391 -1.2110  0.2003  1.1303
 6676SOL     OW31489   1.241   1.551   2.750 -0.4710 -0.1606  0.0965
 6676SOL    HW131490   1.319   1.497   2.745  0.2058  0.7103  1.2114
 6676SOL    HW231491   1.192   1.523   2.672 -1.4918  0.9732  0.3261
 6677SOL     OW31492   0.867   4.706   3.787 -0.1621 -0.3102  0.6256
 6677SOL    HW131493   0.962   4.705   3.777 -0.4927 -0.4119 -2.3435
 6677SOL    HW231494   0.836   0.061   3.750 -0.7044 -0.0583  1.6270
 6678SOL     OW31495   4.096   4.198  16.406 -0.2412 -0.0096  0.1194
 6678SOL    HW131496   4.131   4.261  16.343 -0.2705 -1.6155 -1.5005
 6678SOL    HW231497   4.149   4.121  16.387  1.3342  1.4372 -1.3758
 6679SOL     OW31498   2.444   0.406   3.836  0.1667 -0.0795 -0.4174
 6679SOL    HW131499   2.423   0.480   3.893  0.9990 -1.4589  1.7078
 6679SOL    HW231500   2.461   0.346   3.909 -2.7814 -1.7675 -1.1426
 6680SOL     OW31501   3.072   0.465   1.940  0.4464 -0.4698  0.0569
 6680SOL    HW131502   3.058   0.424   1.854 -0.6432  0.9736 -0.4613
 6680SOL    HW231503   3.099   0.387   1.988 -0.9216 -0.6921  0.4753
 6681SOL     OW31504   1.241   2.320   2.537 -0.5639  0.1898  0.4532
 6681SOL    HW131505   1.149   2.303   2.558 -0.0981  0.5093  2.7522
 6681SOL    HW231506   1.260   2.389   2.600 -1.3328  0.8649 -0.0541
 6682SOL     OW31507   4.177   3.239   2.229  0.9904  0.6360  0.7841
 6682SOL    HW131508   4.237   3.190   2.285 -2.2800 -1.8971  2.1043
 6682SOL    HW231509   4.230   3.319   2.236  2.8676 -0.5443  0.0359
 6683SOL     OW31510   1.489   0.811   8.809 -0.0046  0.0091 -0.2035
 6683SOL    HW131511   1.412   0.808   8.753  0.5567  0.1238 -0.9820
 6683SOL    HW231512   1.499   0.718   8.825  0.1220  0.0519 -0.0292
 6684SOL     OW31513   3.819   2.687  12.213  0.2497 -0.0473 -0.0409
 6684SOL    HW131514   3.764   2.638  12.152 -0.5733  2.1878 -1.1019
 6684SOL    HW231515   3.828   2.628  12.287  2.4101 -1.0071 -1.0529
 6685SOL     OW31516   1.730   3.220   2.309 -0.2872 -0.1005  0.5771
 6685SOL    HW131517   1.817   3.180   2.312  0.4544  1.1419 -4.3095
 6685SOL    HW231518   1.713   3.223   2.403 -0.1622 -0.2883  0.6063
 6686SOL     OW31519   0.850   4.519   1.377 -0.1527 -0.0879 -0.5042
 6686SOL    HW131520   0.789   4.460   1.420 -0.1542  1.7970  2.0573
 6686SOL    HW231521   0.898   4.560   1.449 -0.5418 -1.7762  0.6958
 6687SOL     OW31522   2.908   3.047   1.284 -0.2264  0.4043 -0.2039
 6687SOL    HW131523   2.899   3.109   1.211  0.9338  0.5181 -0.2516
 6687SOL    HW231524   2.829   3.069   1.333  0.4843 -0.2963  1.2556
 6688SOL     OW31525   3.426   2.480   6.650  0.0591 -0.1813 -0.1205
 6688SOL    HW131526   3.331   2.494   6.647 -0.0506 -0.2269  3.0114
 6688SOL    HW231527   3.447   2.474   6.557 -1.6894  0.1525 -0.5420
 6689SOL     OW31528   4.526   1.557   8.138  0.3482  0.3269 -0.9040
 6689SOL    HW131529   4.618   1.533   8.125  0.5871  0.9579 -0.3457
 6689SOL    HW231530   4.540   1.648   8.161 -0.7448  0.7891 -2.0346
 6690SOL     OW31531   3.533   0.429  16.150  0.0917 -0.0067 -0.1543
 6690SOL    HW131532   3.526   0.436  16.245 -0.4818 -1.3921 -0.0937
 6690SOL    HW231533   3.534   0.521  16.124  0.6850 -0.1230 -0.5556
 6691SOL     OW31534   1.708   1.346   8.284  0.1969 -0.2761 -0.5544
 6691SOL    HW131535   1.617   1.370   8.268  0.3941 -0.2892 -1.7023
 6691SOL    HW231536   1.738   1.418   8.340  0.9686  0.3056 -1.7148
 6692SOL     OW31537   0.658   4.450   2.565 -0.6696 -0.2238  1.0340
 6692SOL    HW131538   0.632   4.538   2.537  4.1724  0.2549 -2.0571
 6692SOL    HW231539   0.587   4.394   2.534  2.4431 -3.9903  0.6701
 6693SOL     OW31540   3.172   4.256  16.935 -0.1498  0.8122  0.3060
 6693SOL    HW131541   3.251   4.203  16.943 -0.0988  0.8379 -0.0148
 6693SOL    HW231542   3.197   4.319  16.867  1.1454  1.4563  1.3801
 6694SOL     OW31543   4.023   3.795   5.452 -0.4736  0.1609 -0.3684
 6694SOL    HW131544   3.979   3.730   5.397  0.4680  1.7598 -2.9706
 6694SOL    HW231545   3.961   3.804   5.525  1.1219  1.2866  0.8557
 6695SOL     OW31546   2.818   3.708  16.944 -0.3785  0.2246 -0.1553
 6695SOL    HW131547   2.733   3.684  16.907 -0.3130 -0.9189  0.4566
 6695SOL    HW231548   2.867   3.671  16.872  0.7511 -0.7959  1.1437
 6696SOL     OW31549   3.085   3.062   6.145  0.8290  0.1241  0.0335
 6696SOL    HW131550   3.050   2.973   6.137  0.0657  0.6896 -2.8717
 6696SOL    HW231551   3.056   3.091   6.231 -1.2750  2.1539 -1.3640
 6697SOL     OW31552   1.104   3.805  10.049  0.9952  0.4039 -0.0735
 6697SOL    HW131553   1.181   3.851  10.082  1.3703  0.5639 -1.1674
 6697SOL    HW231554   1.041   3.805  10.122 -0.2191  0.4545 -1.1168
 6698SOL     OW31555   3.541   0.278   6.322 -0.1291 -0.5517  0.1449
 6698SOL    HW131556   3.526   0.373   6.323  0.9778 -0.3717 -0.4349
 6698SOL    HW231557   3.632   0.265   6.297  0.2557 -0.9558  1.7148
 6699SOL     OW31558   3.892   4.516  15.264 -0.7180  0.6114 -0.0297
 6699SOL    HW131559   3.975   4.563  15.273 -0.0172 -0.4364 -0.8648
 6699SOL    HW231560   3.909   4.434  15.311 -1.7611  0.0296 -0.6800
 6700SOL     OW31561   0.917   3.272  11.424  0.1541  0.5192 -0.3104
 6700SOL    HW131562   0.927   3.233  11.337 -1.1943  0.1655 -0.3103
 6700SOL    HW231563   0.967   3.211  11.479 -2.3720 -0.9278  0.3692
 6701SOL     OW31564   3.616   0.411   0.757  0.2521  0.2139  0.0053
 6701SOL    HW131565   3.660   0.478   0.811 -2.8015  1.6933  0.6516
 6701SOL    HW231566   3.670   0.334   0.774 -2.2237 -1.2666  1.1717
 6702SOL     OW31567   3.855   0.534   8.871  0.1117 -0.5302  0.2581
 6702SOL    HW131568   3.929   0.476   8.889 -0.3781 -1.4950 -0.8384
 6702SOL    HW231569   3.837   0.569   8.958 -1.4671  0.5839 -0.5047
 6703SOL     OW31570   3.297   3.669  16.366 -0.5363 -0.4561  0.2526
 6703SOL    HW131571   3.243   3.747  16.357 -1.1185 -1.0614 -1.5459
 6703SOL    HW231572   3.370   3.709  16.414 -1.6717  0.6944  1.0106
 6704SOL     OW31573   1.451   1.889   3.972 -0.0508  0.5310  0.3707
 6704SOL    HW131574   1.522   1.902   3.910 -1.5171 -0.7353 -1.5920
 6704SOL    HW231575   1.472   1.935   4.053  2.6033  0.1351 -0.0842
 6705SOL     OW31576   2.994   2.680   6.767 -0.1870  0.3252  0.3661
 6705SOL    HW131577   2.917   2.624   6.757 -0.0013  0.5342 -2.1479
 6705SOL    HW231578   2.956   2.766   6.749 -3.9217 -1.6843 -1.4763
 6706SOL     OW31579   4.651   1.273   6.265 -0.5208 -0.1788  0.9331
 6706SOL    HW131580   0.018   1.264   6.272 -0.5244 -1.1802 -0.1234
 6706SOL    HW231581   4.646   1.336   6.193  2.3294 -0.8844  0.1042
 6707SOL     OW31582   2.141   0.995   0.475  0.2842  0.4456 -0.1057
 6707SOL    HW131583   2.186   1.071   0.512 -0.3140  0.6731  0.1653
 6707SOL    HW231584   2.175   0.990   0.386  0.9214  2.5840  0.0153
 6708SOL     OW31585   1.032   0.473  17.699  0.3770 -0.1237  0.4200
 6708SOL    HW131586   1.019   0.494   0.080  2.1850 -0.4818  0.7694
 6708SOL    HW231587   1.083   0.393   0.000  1.0930  0.7762  3.1845
 6709SOL     OW31588   3.342   0.918   7.624  0.2754  0.6716 -0.4892
 6709SOL    HW131589   3.288   0.976   7.570  1.0778  1.9494  0.0598
 6709SOL    HW231590   3.333   0.962   7.709 -1.6682  0.4896 -0.6012
 6710SOL     OW31591   2.991   2.711   4.611 -0.0157  0.1272  0.1831
 6710SOL    HW131592   3.004   2.691   4.518 -0.7230 -0.4358  0.2150
 6710SOL    HW231593   2.955   2.800   4.614 -1.1484 -0.3861  1.6415
 6711SOL     OW31594   3.062   3.869  10.660  0.3518  0.3896 -0.1458
 6711SOL    HW131595   3.033   3.929  10.729  1.2016  0.4233  0.1906
 6711SOL    HW231596   2.982   3.821  10.641  0.0477  0.7076  0.3263
 6712SOL     OW31597   1.845   4.015   5.006  0.0735 -0.2868  0.5973
 6712SOL    HW131598   1.802   4.100   4.999 -1.5404 -1.3321 -1.9656
 6712SOL    HW231599   1.804   3.962   4.938  2.0476  0.5175 -1.1936
 6713SOL     OW31600   0.556   2.313   7.335  0.4605 -1.1557  0.4228
 6713SOL    HW131601   0.494   2.260   7.385  0.4868 -2.7387 -1.2100
 6713SOL    HW231602   0.527   2.293   7.246 -2.1334  0.5437  0.8923
 6714SOL     OW31603   0.683   3.594  16.539  0.0826  0.4866  0.0766
 6714SOL    HW131604   0.601   3.552  16.515 -0.6016  1.2129  1.1382
 6714SOL    HW231605   0.745   3.549  16.481 -0.2614  1.6021 -1.1398
 6715SOL     OW31606   3.971   3.213  15.633 -0.3180  0.3331 -0.1083
 6715SOL    HW131607   3.877   3.202  15.626 -0.3639  1.1629 -0.7995
 6715SOL    HW231608   3.994   3.217  15.540  4.4097  1.0956  1.0559
 6716SOL     OW31609   3.587   0.227  10.415 -0.2544  0.1748 -0.0226
 6716SOL    HW131610   3.553   0.192  10.333 -2.0385 -0.0220  0.7943
 6716SOL    HW231611   3.566   0.319  10.400  0.5031  0.0896 -1.5922
 6717SOL     OW31612   1.430   0.218   4.060 -0.3791  0.5350 -0.5290
 6717SOL    HW131613   1.490   0.274   4.110  0.8904 -0.9137 -0.4049
 6717SOL    HW231614   1.392   0.169   4.133 -1.6367  1.9268 -0.2473
 6718SOL     OW31615   1.226   3.932   7.213 -0.1101  0.1614 -0.6670
 6718SOL    HW131616   1.293   3.901   7.274 -0.0809 -1.4933 -1.5403
 6718SOL    HW231617   1.288   3.961   7.147  0.1504  1.5190  0.1620
 6719SOL     OW31618   0.622   3.396   8.333 -0.3062  0.0891 -0.7704
 6719SOL    HW131619   0.548   3.457   8.331 -1.0161 -0.7427 -0.2502
 6719SOL    HW231620   0.654   3.425   8.419  0.5896 -0.3987 -0.9411
 6720SOL     OW31621   0.719   2.995   2.022  0.6005 -0.3125 -0.0623
 6720SOL    HW131622   0.650   3.060   2.006  1.0739 -0.6588 -3.4711
 6720SOL    HW231623   0.755   2.984   1.934 -4.0146 -1.0698 -1.8785
 6721SOL     OW31624   1.059   3.369  13.086 -0.3294 -0.2069 -0.0740
 6721SOL    HW131625   1.085   3.293  13.035  0.5433  1.3812 -1.9880
 6721SOL    HW231626   0.968   3.345  13.105 -1.4377  2.4605 -1.9199
 6722SOL     OW31627   0.313   1.878  12.783 -0.7892 -0.0285 -0.5511
 6722SOL    HW131628   0.395   1.928  12.786  0.9508 -3.0052  1.8481
 6722SOL    HW231629   0.276   1.920  12.860 -2.3883 -0.4375 -1.1073
 6723SOL     OW31630   0.944   2.335   7.864  0.4447  0.1116 -0.5772
 6723SOL    HW131631   0.859   2.378   7.857  0.3806  0.1936  0.7457
 6723SOL    HW231632   0.979   2.351   7.776  1.5764 -0.5361 -0.2461
 6724SOL     OW31633   2.287   0.407   4.280  0.0627 -0.3649  0.2104
 6724SOL    HW131634   2.299   0.321   4.239 -1.0150  0.5204 -1.9566
 6724SOL    HW231635   2.338   0.460   4.220 -0.6863 -1.2548 -1.2191
 6725SOL     OW31636   2.637   4.331   3.563  0.4673  0.0545  0.5984
 6725SOL    HW131637   2.599   4.356   3.647 -1.2721  0.9331 -0.4591
 6725SOL    HW231638   2.711   4.277   3.592  0.6106  0.5287  1.1218
 6726SOL     OW31639   4.185   2.596   0.134 -0.1138  0.1377 -0.2512
 6726SOL    HW131640   4.273   2.618   0.164  0.3136 -1.5248 -0.2777
 6726SOL    HW231641   4.144   2.585   0.220  1.4416  2.2477  0.7356
 6727SOL     OW31642   3.424   2.734   9.942  0.3713  0.0464 -0.7579
 6727SOL    HW131643   3.404   2.797  10.011 -0.6664 -0.0327 -0.9913
 6727SOL    HW231644   3.334   2.719   9.913  0.1923  1.4892 -0.9315
 6728SOL     OW31645   2.388   0.825   4.896 -0.3100  0.2350 -0.3109
 6728SOL    HW131646   2.376   0.904   4.842  0.3727  0.4913 -0.0898
 6728SOL    HW231647   2.359   0.756   4.836  0.4614 -0.8673  0.5838
 6729SOL     OW31648   2.315   1.677   6.544 -0.2068 -0.1074  0.8040
 6729SOL    HW131649   2.231   1.690   6.499  1.0329 -1.2734 -1.8828
 6729SOL    HW231650   2.373   1.735   6.494 -0.1981 -1.0228 -0.2652
 6730SOL     OW31651   1.999   3.229   9.754 -0.2553  0.2811 -0.7035
 6730SOL    HW131652   2.035   3.286   9.686  0.8718  1.2536  0.7129
 6730SOL    HW231653   2.038   3.144   9.736 -0.2599 -0.1932  1.4735
 6731SOL     OW31654   0.021   2.353   8.577  0.0291  0.0156  0.3704
 6731SOL    HW131655   4.688   2.306   8.634  0.5912  0.8578  1.6512
 6731SOL    HW231656   0.095   2.294   8.563  0.5054  0.4015  1.2526
 6732SOL     OW31657   3.129   2.958  11.439  0.1536 -0.4703 -0.4932
 6732SOL    HW131658   3.169   3.014  11.373  2.0454  0.1179  1.1710
 6732SOL    HW231659   3.195   2.942  11.506 -2.4125 -3.1221  1.4142
 6733SOL     OW31660   3.998   3.361   2.514  0.3690 -0.2940 -0.4092
 6733SOL    HW131661   4.011   3.280   2.465 -1.4830  0.3015 -1.8936
 6733SOL    HW231662   4.089   3.357   2.542  0.1241 -1.3468  0.2359
 6734SOL     OW31663   3.464   3.224  13.246  0.2250 -0.1706 -0.6480
 6734SOL    HW131664   3.458   3.317  13.228 -0.0124  0.0867  0.7991
 6734SOL    HW231665   3.420   3.194  13.166  0.1523 -1.3963 -0.1465
 6735SOL     OW31666   2.946   1.161   2.551 -0.0366 -0.2630  0.5885
 6735SOL    HW131667   2.891   1.209   2.489  0.8981 -0.5339 -0.4522
 6735SOL    HW231668   3.030   1.181   2.509 -0.9948 -0.1435 -1.2869
 6736SOL     OW31669   2.274   1.188   0.602  0.5493  0.3101  0.0029
 6736SOL    HW131670   2.258   1.282   0.587 -1.0334 -0.1843 -1.3495
 6736SOL    HW231671   2.365   1.189   0.631  0.1252  0.3008  1.3079
 6737SOL     OW31672   2.083   0.449   7.889 -0.0133 -0.4093  0.7433
 6737SOL    HW131673   2.163   0.471   7.937  0.3536 -1.0406  0.4231
 6737SOL    HW231674   2.084   0.354   7.901  1.8410 -0.5048 -0.0625
 6738SOL     OW31675   2.626   1.952   7.378 -0.4032  0.4769 -1.0192
 6738SOL    HW131676   2.625   1.859   7.400  0.4383  0.7028 -0.0217
 6738SOL    HW231677   2.671   1.928   7.297  1.6892 -0.1292  0.3316
 6739SOL     OW31678   3.417   1.205   1.767  0.0281  0.3117 -0.7991
 6739SOL    HW131679   3.418   1.126   1.820 -0.4918  0.5850 -0.3869
 6739SOL    HW231680   3.329   1.234   1.793  0.4299  0.2903  0.5324
 6740SOL     OW31681   3.951   4.723   5.046  0.2943  0.1530 -0.1058
 6740SOL    HW131682   4.029   4.689   5.003 -0.5922 -0.8505 -0.9276
 6740SOL    HW231683   3.982   0.068   5.099 -0.1071 -0.4665  0.9980
 6741SOL     OW31684   3.364   2.284   7.186 -0.6606 -0.0145 -0.0043
 6741SOL    HW131685   3.422   2.224   7.233 -3.1475 -1.0045  1.8108
 6741SOL    HW231686   3.422   2.342   7.138  0.0388  0.7975  1.8227
 6742SOL     OW31687   2.134   1.614   9.381 -0.3310 -0.4069  0.1615
 6742SOL    HW131688   2.046   1.620   9.344  0.2108 -0.2736 -1.0938
 6742SOL    HW231689   2.113   1.609   9.475  1.4893  0.4560  0.6116
 6743SOL     OW31690   1.100   3.543   3.926  0.8076 -0.1525 -0.1499
 6743SOL    HW131691   1.167   3.589   3.977  1.5203  0.6113 -1.7552
 6743SOL    HW231692   1.044   3.489   3.981 -0.6568  2.0467  0.5293
 6744SOL     OW31693   3.669   2.753   3.055  0.0931 -0.3500  0.2704
 6744SOL    HW131694   3.685   2.812   2.982 -1.5697 -1.3262 -0.8827
 6744SOL    HW231695   3.679   2.676   2.998 -1.1407  0.3963 -0.9367
 6745SOL     OW31696   1.987   0.476   2.545  0.6223  0.2048  0.2995
 6745SOL    HW131697   1.936   0.396   2.561 -0.9495  1.6149  2.3262
 6745SOL    HW231698   2.071   0.447   2.582  0.0559 -0.4248  1.0975
 6746SOL     OW31699   2.550   2.952   7.630 -0.2553 -0.1869 -0.3350
 6746SOL    HW131700   2.552   2.987   7.719 -0.4460  2.9446 -1.5653
 6746SOL    HW231701   2.643   2.950   7.607  0.2379 -0.2096  1.6936
 6747SOL     OW31702   1.691   1.546   6.078  0.5092  0.0354  0.7707
 6747SOL    HW131703   1.596   1.547   6.091  0.6534  0.4677  1.8161
 6747SOL    HW231704   1.710   1.639   6.084 -3.4421  0.8469  0.7821
 6748SOL     OW31705   3.393   3.135  13.650 -0.5106 -0.0211 -0.7340
 6748SOL    HW131706   3.384   3.071  13.720  1.4122  1.0531  0.4804
 6748SOL    HW231707   3.304   3.170  13.656 -0.1582  0.8547 -0.5741
 6749SOL     OW31708   2.958   2.489   8.088  0.6349 -0.0543 -0.2587
 6749SOL    HW131709   3.010   2.519   8.013  0.2330  1.0067 -0.1197
 6749SOL    HW231710   2.979   2.396   8.082 -2.1447 -0.8031  1.7931
 6750SOL     OW31711   3.832   0.225   6.313  0.5313 -0.0656  0.2724
 6750SOL    HW131712   3.849   0.131   6.301 -2.0206 -0.5352  0.3455
 6750SOL    HW231713   3.848   0.220   6.407  0.9766 -0.2320  0.1898
 6751SOL     OW31714   2.772   0.104   7.003  0.4144  0.8388  0.1528
 6751SOL    HW131715   2.712   0.031   6.987  1.8062 -0.4088  0.6302
 6751SOL    HW231716   2.846   0.048   7.025  2.3789  2.8114 -1.4196
 6752SOL     OW31717   2.625   1.095   1.653  0.1266  0.0903  0.2137
 6752SOL    HW131718   2.548   1.151   1.638 -0.7229 -0.9747  0.5511
 6752SOL    HW231719   2.596   1.035   1.722  0.1079 -0.0783  0.0607
 6753SOL     OW31720   4.158   2.857   0.443 -0.7928  0.0556 -0.0291
 6753SOL    HW131721   4.181   2.875   0.351  0.4147  3.0444  0.8345
 6753SOL    HW231722   4.207   2.928   0.485  1.1986 -0.3239 -1.6640
 6754SOL     OW31723   0.618   3.064  17.549  0.0471  0.0092 -0.1921
 6754SOL    HW131724   0.648   3.038  17.462 -1.0784  1.7524 -1.1009
 6754SOL    HW231725   0.652   3.154  17.550 -1.2256  0.4837  1.6702
 6755SOL     OW31726   3.439   3.289   2.501  0.2221  0.2050 -0.1379
 6755SOL    HW131727   3.436   3.309   2.407  0.8572 -1.2763 -0.4722
 6755SOL    HW231728   3.530   3.268   2.521  0.4748  0.4092 -1.0952
 6756SOL     OW31729   2.853   4.434   2.195  0.0819 -0.2162 -0.2792
 6756SOL    HW131730   2.865   4.466   2.106 -2.4915  2.5382  0.3463
 6756SOL    HW231731   2.942   4.438   2.230  0.0481  1.1594 -0.3489
 6757SOL     OW31732   4.671   1.059  15.870 -0.3281 -0.2310 -0.6592
 6757SOL    HW131733   4.718   1.063  15.787 -1.0997  0.3194 -1.0682
 6757SOL    HW231734   0.008   1.029  15.934  2.7567  1.6914 -2.8563
 6758SOL     OW31735   3.214   2.801   2.167 -0.1379 -0.2405  0.5558
 6758SOL    HW131736   3.256   2.781   2.084  0.1492 -0.7262  0.8173
 6758SOL    HW231737   3.224   2.712   2.200 -0.1720 -0.3733  0.2013
 6759SOL     OW31738   1.768   4.048   5.740  0.0672  0.8389 -0.1847
 6759SOL    HW131739   1.820   4.105   5.797  1.4253 -0.1300 -0.4705
 6759SOL    HW231740   1.695   4.019   5.794  0.3875 -1.7639 -1.1351
 6760SOL     OW31741   2.855   1.774   6.114 -0.0135 -0.8174 -0.3597
 6760SOL    HW131742   2.801   1.844   6.151  1.8877  0.1464  0.5570
 6760SOL    HW231743   2.785   1.717   6.081  0.9211 -2.4979  0.5724
 6761SOL     OW31744   3.179   3.577   8.264  0.0341  0.2595  0.0195
 6761SOL    HW131745   3.247   3.561   8.330 -0.3384  0.6737  0.4996
 6761SOL    HW231746   3.104   3.609   8.314 -0.6216 -2.3192  0.6614
 6762SOL     OW31747   2.246   0.407   1.819 -0.1348  0.2595  0.9326
 6762SOL    HW131748   2.242   0.337   1.753 -3.1152  1.3896 -0.0898
 6762SOL    HW231749   2.337   0.398   1.846  0.4679  0.4602 -1.0509
 6763SOL     OW31750   4.702   3.407   4.154  0.0834  0.1118 -0.1039
 6763SOL    HW131751   0.057   3.446   4.184  0.1250  1.3045 -1.7409
 6763SOL    HW231752   0.005   3.359   4.077  1.4935  0.2155  0.3773
 6764SOL     OW31753   2.474   1.916   5.141 -0.4180  0.0050 -0.2559
 6764SOL    HW131754   2.510   1.907   5.230  1.0625  0.1762 -0.8450
 6764SOL    HW231755   2.383   1.936   5.164 -0.2288 -1.4213  1.8087
 6765SOL     OW31756   2.220   1.321   8.029  0.0812  0.3858 -0.0043
 6765SOL    HW131757   2.133   1.350   8.003 -0.7345  0.2892  2.6853
 6765SOL    HW231758   2.212   1.338   8.123 -0.6383  1.7660 -0.3146
 6766SOL     OW31759   2.830   0.107   4.977  0.5370 -0.6365 -0.7743
 6766SOL    HW131760   2.735   0.119   4.980  0.4881 -1.4405  0.8052
 6766SOL    HW231761   2.846   0.133   4.886  0.8398  0.7200 -0.3185
 6767SOL     OW31762   4.716   3.872   5.608  0.5397 -0.2728  0.5117
 6767SOL    HW131763   4.622   3.891   5.617  0.7109 -0.3414  2.4561
 6767SOL    HW231764   0.008   3.932   5.536 -1.2404  0.0811  0.2978
 6768SOL     OW31765   0.672   1.754   8.505  1.3349  0.5946  0.1905
 6768SOL    HW131766   0.689   1.811   8.580 -2.7889  2.6965 -0.4487
 6768SOL    HW231767   0.605   1.696   8.543  1.9446 -1.8947 -2.5899
 6769SOL     OW31768   3.476   1.770   3.085  0.7047  0.8076 -0.3961
 6769SOL    HW131769   3.396   1.814   3.059 -0.6250 -0.0742  2.1959
 6769SOL    HW231770   3.518   1.757   3.000 -2.8044  0.0332 -2.0126
 6770SOL     OW31771   1.783   3.252   3.138  0.3626 -0.1872  0.0240
 6770SOL    HW131772   1.754   3.163   3.117  0.7021 -0.3206  0.1179
 6770SOL    HW231773   1.723   3.266   3.211  0.4503  2.2809 -0.3840
 6771SOL     OW31774   4.305   3.482   4.583  0.2003  0.4862 -0.0972
 6771SOL    HW131775   4.359   3.472   4.661 -0.0891  1.9252  0.2861
 6771SOL    HW231776   4.364   3.541   4.535  1.3758 -1.8154 -1.4645
 6772SOL     OW31777   0.950   1.087   6.229 -0.3043  0.0716  0.4528
 6772SOL    HW131778   0.979   1.051   6.145  0.3381  0.9194  0.3139
 6772SOL    HW231779   0.967   1.179   6.207 -1.2332  0.2697  0.5835
 6773SOL     OW31780   2.071   4.333   2.733 -0.0687 -0.4286 -0.5111
 6773SOL    HW131781   2.122   4.259   2.700  1.1272 -0.7993  2.1660
 6773SOL    HW231782   2.118   4.407   2.696 -0.1462  0.5333  1.3175
 6774SOL     OW31783   1.203   2.203   3.245 -0.2996 -0.3178  0.5711
 6774SOL    HW131784   1.193   2.135   3.179 -0.6145 -1.8424  2.1959
 6774SOL    HW231785   1.274   2.162   3.295  1.4530  1.9947 -0.0222
 6775SOL     OW31786   4.040   3.477  10.497  0.2533  0.1494  0.0053
 6775SOL    HW131787   4.051   3.386  10.526 -2.5579 -0.5473 -1.0566
 6775SOL    HW231788   4.124   3.483  10.452 -0.5368  0.1004 -1.4777
 6776SOL     OW31789   3.355   0.191   5.297  0.2296  0.2291  0.7307
 6776SOL    HW131790   3.441   0.232   5.306  0.6111 -0.3938 -0.0863
 6776SOL    HW231791   3.309   0.273   5.278  1.7544  0.6316 -1.1958
 6777SOL     OW31792   1.837   0.020   3.550  0.0532 -0.2467 -0.2352
 6777SOL    HW131793   1.895   0.030   3.625 -2.4729  1.3643  1.5382
 6777SOL    HW231794   1.787   4.671   3.580  0.7478 -0.9652 -0.9198
 6778SOL     OW31795   2.770   3.417  14.317  0.0020  0.0335 -0.6145
 6778SOL    HW131796   2.753   3.330  14.282 -0.0325 -0.4919  0.7014
 6778SOL    HW231797   2.818   3.410  14.400 -1.4463 -0.8123  0.1651
 6779SOL     OW31798   0.490   2.325   5.951 -0.4163 -0.0240 -0.0396
 6779SOL    HW131799   0.528   2.337   6.038  1.0881 -2.0879 -0.3865
 6779SOL    HW231800   0.566   2.289   5.904  1.0706  1.1621  1.4840
 6780SOL     OW31801   4.527   3.822   6.518 -0.4648  0.1553  0.2231
 6780SOL    HW131802   4.517   3.729   6.495  0.4954  0.7567 -2.6819
 6780SOL    HW231803   4.511   3.799   6.609  1.2870  1.8934  0.9686
 6781SOL     OW31804   2.933   0.522   7.010  0.0235  0.0492  0.0164
 6781SOL    HW131805   2.981   0.505   6.929 -2.0316  0.5873 -1.3117
 6781SOL    HW231806   2.922   0.615   6.990 -0.1510  0.1104  0.4083
 6782SOL     OW31807   0.481   0.778   3.404 -0.6163 -0.0974  0.1641
 6782SOL    HW131808   0.395   0.786   3.444 -0.0402  1.4787  1.1033
 6782SOL    HW231809   0.543   0.758   3.475 -0.4559  0.9625  0.3282
 6783SOL     OW31810   4.658   0.906   6.105 -0.0982  0.2614 -0.2347
 6783SOL    HW131811   4.624   0.914   6.194  0.2757  1.3413 -0.1920
 6783SOL    HW231812   4.694   0.817   6.104 -0.3500  0.1087  3.5384
 6784SOL     OW31813   1.755   1.972   8.365 -0.0608 -0.1086  0.7503
 6784SOL    HW131814   1.826   1.908   8.364  0.6505  0.6739  1.0538
 6784SOL    HW231815   1.802   2.038   8.314  0.0497 -0.6586  0.1380
 6785SOL     OW31816   1.838   3.224  10.245 -0.8015  0.4489 -0.0583
 6785SOL    HW131817   1.902   3.204  10.177 -0.5889  1.2473 -0.0953
 6785SOL    HW231818   1.759   3.173  10.225 -0.4436 -0.5650  1.1535
 6786SOL     OW31819   1.206   4.024   5.179  1.1375  0.1486  0.6214
 6786SOL    HW131820   1.235   4.061   5.263 -1.4909  1.2647  1.0444
 6786SOL    HW231821   1.148   3.952   5.205 -1.6723  1.9942 -0.4400
 6787SOL     OW31822   4.536   1.058   5.659 -0.6738  0.2776  0.2237
 6787SOL    HW131823   4.621   1.090   5.692 -0.9281  0.1651  0.9925
 6787SOL    HW231824   4.568   0.968   5.646 -0.0435 -0.0314  3.9404
 6788SOL     OW31825   2.518   0.393  16.025 -0.1954  0.4005  0.3241
 6788SOL    HW131826   2.449   0.447  15.988 -0.9023 -1.2158 -0.7037
 6788SOL    HW231827   2.456   0.320  16.023 -0.6161  0.7519  0.5228
 6789SOL     OW31828   1.593   3.634   1.422  0.0444 -0.0690 -0.2179
 6789SOL    HW131829   1.531   3.687   1.471  2.2021  0.4220  1.9873
 6789SOL    HW231830   1.595   3.676   1.336  2.9388  1.3018  0.4925
 6790SOL     OW31831   2.250   3.708   1.732 -0.1592  0.0500  0.7712
 6790SOL    HW131832   2.302   3.631   1.757  1.9983  1.3418  0.2249
 6790SOL    HW231833   2.247   3.758   1.813 -0.7924 -0.0286  0.7971
 6791SOL     OW31834   1.881   1.336  17.390  0.0573  0.0729 -0.1906
 6791SOL    HW131835   1.975   1.320  17.401  0.0827  0.2249 -0.1822
 6791SOL    HW231836   1.865   1.413  17.444  1.2645 -1.1212  1.8598
 6792SOL     OW31837   1.279   2.588   2.277  0.1418  0.2376 -0.1220
 6792SOL    HW131838   1.335   2.603   2.353 -1.0785 -1.9236  1.1942
 6792SOL    HW231839   1.194   2.621   2.305  1.0521  0.6021  2.2102
 6793SOL     OW31840   3.039   1.336   7.253  0.2395  0.0707  0.0778
 6793SOL    HW131841   2.989   1.372   7.181  2.5025  3.4805  0.2450
 6793SOL    HW231842   2.983   1.262   7.277  0.0562  1.4814  3.9723
 6794SOL     OW31843   3.245   4.201   9.276 -0.0184 -0.1342  0.4988
 6794SOL    HW131844   3.271   4.226   9.365  0.5767  0.9549  0.0190
 6794SOL    HW231845   3.186   4.128   9.295 -1.2960  0.2484 -2.0507
 6795SOL     OW31846   2.672   0.732  13.980 -0.4471 -0.2374 -0.0053
 6795SOL    HW131847   2.650   0.713  14.071  0.3904 -1.4416 -0.0517
 6795SOL    HW231848   2.699   0.824  13.980 -2.0727  0.2474 -0.8852
 6796SOL     OW31849   2.074   0.476   3.419 -0.5080  0.0539  0.1415
 6796SOL    HW131850   2.082   0.547   3.355 -0.3994 -0.6514 -0.6288
 6796SOL    HW231851   2.147   0.487   3.480  2.1695  0.5765 -3.1726
 6797SOL     OW31852   2.009   2.934   0.619  0.0858 -0.2523 -0.0782
 6797SOL    HW131853   1.994   2.902   0.530  0.2536 -1.2649  0.2622
 6797SOL    HW231854   2.063   2.863   0.653  0.7008 -0.4480 -1.4707
 6798SOL     OW31855   2.595   2.674  15.840  0.0704  0.4300 -0.2890
 6798SOL    HW131856   2.546   2.627  15.773  0.3843 -1.8163  1.0581
 6798SOL    HW231857   2.635   2.597  15.881 -1.3430 -0.8960 -1.3856
 6799SOL     OW31858   4.101   1.825   1.835  0.1150  0.0104  0.4045
 6799SOL    HW131859   4.177   1.775   1.863  0.2610 -0.7023 -1.2577
 6799SOL    HW231860   4.106   1.832   1.739  0.6466 -4.0737  0.1369
 6800SOL     OW31861   2.864   3.139   2.466 -0.0966 -0.4531  0.5413
 6800SOL    HW131862   2.876   3.191   2.546  2.0828 -0.5193  0.2530
 6800SOL    HW231863   2.947   3.167   2.427 -0.7222 -0.5194 -0.8082
 6801SOL     OW31864   2.899   1.926   7.276 -0.3683  0.0393 -0.1386
 6801SOL    HW131865   2.924   1.942   7.367  0.9865  0.3949 -0.5748
 6801SOL    HW231866   2.987   1.924   7.238 -0.1916  2.6703  0.0764
 6802SOL     OW31867   1.556   1.233   7.378  0.4128  0.1927 -0.0939
 6802SOL    HW131868   1.538   1.170   7.308  0.2612  1.2424 -0.9957
 6802SOL    HW231869   1.625   1.179   7.418  1.1072  1.4509  0.4104
 6803SOL     OW31870   4.137   2.926   6.836 -0.2521 -0.5379  1.0280
 6803SOL    HW131871   4.054   2.881   6.824 -0.4900 -0.0259  0.7305
 6803SOL    HW231872   4.161   2.888   6.920  0.0174  1.3923  1.8282
 6804SOL     OW31873   1.074   3.254   8.101 -0.2159  0.3086 -0.1943
 6804SOL    HW131874   1.076   3.254   8.005  0.6802 -1.0231 -0.1729
 6804SOL    HW231875   1.053   3.345   8.121  1.1556  0.3519  1.0715
 6805SOL     OW31876   0.318   2.645   6.191  0.3379 -0.3639  0.0299
 6805SOL    HW131877   0.309   2.740   6.203  0.6696 -0.7656  3.3805
 6805SOL    HW231878   0.278   2.636   6.105  0.9865 -1.4627 -0.1503
 6806SOL     OW31879   3.202   2.334  15.220  0.1048 -0.4348 -0.7840
 6806SOL    HW131880   3.166   2.333  15.132 -0.9564 -0.1703 -0.3494
 6806SOL    HW231881   3.155   2.257  15.252  1.9229 -1.1360  0.1999
 6807SOL     OW31882   4.331   2.592   7.911 -0.4437  0.6116 -0.6671
 6807SOL    HW131883   4.254   2.611   7.965 -0.6072 -1.7405 -0.0927
 6807SOL    HW231884   4.307   2.514   7.862 -1.5850 -0.3879  1.4482
 6808SOL     OW31885   1.005   1.105   2.278 -0.2543  0.5182  0.1625
 6808SOL    HW131886   0.936   1.154   2.232  0.7832  0.3365 -1.5946
 6808SOL    HW231887   0.956   1.061   2.347  0.5805  0.8057  0.9290
 6809SOL     OW31888   3.146   4.308   5.774  0.0384  0.2396  0.1490
 6809SOL    HW131889   3.130   4.387   5.721 -0.0132 -0.4701 -0.9078
 6809SOL    HW231890   3.184   4.246   5.712 -1.1318 -1.4070  1.0986
 6810SOL     OW31891   0.512   1.613   8.672 -0.4856  0.7516 -0.6685
 6810SOL    HW131892   0.562   1.600   8.752  0.0607  3.4015 -0.5760
 6810SOL    HW231893   0.423   1.616   8.708 -0.6797  0.7259 -1.1377
 6811SOL     OW31894   3.195   2.881  12.784  1.0488 -0.2170 -0.2927
 6811SOL    HW131895   3.184   2.866  12.878 -0.2777 -1.3093 -0.6212
 6811SOL    HW231896   3.269   2.822  12.770  0.2618 -1.4297  0.6882
 6812SOL     OW31897   3.247   2.990   4.024 -0.6429 -0.5336  0.6874
 6812SOL    HW131898   3.291   3.066   4.061 -0.2266 -0.2627 -0.3698
 6812SOL    HW231899   3.165   2.988   4.073 -1.0940 -0.6758 -0.0683
 6813SOL     OW31900   3.072   3.300   4.930 -0.1162  0.4783  0.4997
 6813SOL    HW131901   3.032   3.371   4.879  0.4289 -0.5513 -1.3683
 6813SOL    HW231902   3.128   3.263   4.862  0.4876  0.2803  1.1158
 6814SOL     OW31903   1.627   4.458   7.762  0.2343  0.0907  0.3056
 6814SOL    HW131904   1.620   4.553   7.750 -0.2685  0.0108 -0.0263
 6814SOL    HW231905   1.705   4.463   7.817  0.1974 -0.2543  0.3867
 6815SOL     OW31906   2.367   3.383   8.167  0.7623  0.9189  0.2981
 6815SOL    HW131907   2.324   3.457   8.124  1.9920 -0.2236 -2.8470
 6815SOL    HW231908   2.460   3.398   8.152  0.9711 -1.7533 -1.1178
 6816SOL     OW31909   3.676   0.950  10.571  0.1400  0.0507  0.1557
 6816SOL    HW131910   3.616   0.962  10.644  0.6455  2.3600  0.1917
 6816SOL    HW231911   3.644   1.022  10.517  2.5338 -0.1571 -1.5424
 6817SOL     OW31912   2.953   1.938   4.514  0.2179  0.3718  0.0452
 6817SOL    HW131913   2.973   1.967   4.425 -2.2701  0.3703 -0.5203
 6817SOL    HW231914   3.038   1.920   4.553 -0.6728 -1.6479  1.0697
 6818SOL     OW31915   2.253   4.596   3.757 -0.7413  0.3660 -0.4368
 6818SOL    HW131916   2.167   4.593   3.799 -0.4686 -2.5060 -0.0401
 6818SOL    HW231917   2.266   4.691   3.757 -0.9738  0.4068  2.7622
 6819SOL     OW31918   3.455   4.468  12.994 -0.0521 -0.1550  0.0984
 6819SOL    HW131919   3.487   4.552  13.029 -3.6035  1.1223  0.2634
 6819SOL    HW231920   3.437   4.418  13.074 -1.3493 -0.0574 -0.1349
 6820SOL     OW31921   3.725   0.951   2.466  0.0830 -0.1877  0.3820
 6820SOL    HW131922   3.655   0.971   2.529 -1.0852  0.5868 -1.1771
 6820SOL    HW231923   3.799   1.004   2.497 -0.0796 -0.2606  0.8984
 6821SOL     OW31924   1.948   0.206   7.967  0.0232 -0.1613 -0.2754
 6821SOL    HW131925   1.888   0.246   8.029  2.5906  1.1571  1.3771
 6821SOL    HW231926   1.896   0.144   7.915  0.1169 -2.4897  2.3990
 6822SOL     OW31927   1.861   2.199   1.620  0.3869  0.5356  0.3948
 6822SOL    HW131928   1.842   2.178   1.711 -2.9066 -0.4564 -0.5273
 6822SOL    HW231929   1.920   2.128   1.593 -1.1471  0.2695 -2.2576
 6823SOL     OW31930   4.337   2.757   3.772  0.0238  0.0662 -0.1431
 6823SOL    HW131931   4.242   2.758   3.763  0.1602  0.7442 -1.5368
 6823SOL    HW231932   4.353   2.663   3.776  0.0597  0.1017  0.4407
 6824SOL     OW31933   2.244   3.447   6.312  0.1522  0.3311  0.6332
 6824SOL    HW131934   2.252   3.542   6.311  0.0324  0.3298 -0.2638
 6824SOL    HW231935   2.294   3.418   6.236  0.5416  0.3532  0.8817
 6825SOL     OW31936   4.061   3.668   5.103 -0.0731 -0.0941  0.6068
 6825SOL    HW131937   4.018   3.624   5.176 -1.9476  0.4279 -0.1775
 6825SOL    HW231938   3.996   3.665   5.032  0.3514 -0.2255  0.2251
 6826SOL     OW31939   0.863   0.945   7.859 -0.2807 -0.7913  0.1216
 6826SOL    HW131940   0.868   1.038   7.881  0.2885 -1.4072  2.6409
 6826SOL    HW231941   0.776   0.923   7.892 -1.2807  1.5084 -1.0052
 6827SOL     OW31942   4.386   2.709   0.861  0.3684 -0.3003 -0.2204
 6827SOL    HW131943   4.471   2.738   0.896  0.2777 -0.1652 -0.1114
 6827SOL    HW231944   4.409   2.694   0.769  0.5051 -2.4387  0.1491
 6828SOL     OW31945   3.901   4.714   9.456 -0.5421 -0.1777  0.2690
 6828SOL    HW131946   3.932   0.072   9.427 -0.9245  0.4065  1.5616
 6828SOL    HW231947   3.928   4.651   9.390  0.5346 -2.0544  2.4859
 6829SOL     OW31948   1.457   1.682   2.524  0.2431  0.2887  0.7897
 6829SOL    HW131949   1.531   1.743   2.529 -0.0038  0.6068  0.5765
 6829SOL    HW231950   1.467   1.626   2.601 -0.9961 -1.9537 -0.6704
 6830SOL     OW31951   2.820   2.593   6.096  0.0385 -0.4757  0.1988
 6830SOL    HW131952   2.915   2.603   6.099  0.2200 -2.2337 -0.0643
 6830SOL    HW231953   2.807   2.531   6.168 -0.6776  0.2667  0.7106
 6831SOL     OW31954   2.220   2.560  14.588  0.3743 -0.3891 -0.2078
 6831SOL    HW131955   2.195   2.575  14.497  0.4306 -0.8370 -0.2990
 6831SOL    HW231956   2.268   2.477  14.589 -0.5157 -0.9032 -0.7756
 6832SOL     OW31957   3.275   3.851   6.706 -0.1357  0.2540  0.8866
 6832SOL    HW131958   3.367   3.873   6.724 -0.4632  1.7867  0.7463
 6832SOL    HW231959   3.228   3.889   6.780 -0.4623  0.8704  0.3659
 6833SOL     OW31960   1.281   2.633   5.874 -0.4939 -0.8895 -0.4028
 6833SOL    HW131961   1.262   2.543   5.901 -1.9910 -0.3944  0.1813
 6833SOL    HW231962   1.369   2.650   5.906 -0.7559 -0.1239 -0.0922
 6834SOL     OW31963   2.534   3.645   5.568 -0.2260 -0.8979  0.3871
 6834SOL    HW131964   2.449   3.688   5.572  0.8259  1.2326 -0.6493
 6834SOL    HW231965   2.590   3.716   5.537 -1.1935 -0.0792  0.5367
 6835SOL     OW31966   2.991   3.245   8.120 -0.2287 -0.0598  0.2355
 6835SOL    HW131967   2.967   3.211   8.205 -0.8776 -0.0729  0.0494
 6835SOL    HW231968   3.050   3.175   8.091 -1.2426 -0.8025 -0.0252
 6836SOL     OW31969   3.445   4.019   3.059  0.7093 -0.2705 -0.1182
 6836SOL    HW131970   3.471   4.002   2.968  0.1063 -2.4394  0.1167
 6836SOL    HW231971   3.526   4.061   3.088  1.0483 -2.0797  1.5826
 6837SOL     OW31972   2.872   0.909   0.164 -0.5218 -0.0506 -0.3923
 6837SOL    HW131973   2.870   0.902   0.260 -3.3240 -1.5177 -0.5403
 6837SOL    HW231974   2.824   0.829   0.142  0.2965 -0.4719 -0.6171
 6838SOL     OW31975   1.515   1.011   6.224 -0.2665 -0.3945 -0.2819
 6838SOL    HW131976   1.433   1.018   6.176 -1.2477 -1.0944  1.3084
 6838SOL    HW231977   1.505   0.922   6.259  1.0430 -0.6018 -0.4201
 6839SOL     OW31978   2.347   0.154   8.314  0.4414  0.5103  0.4082
 6839SOL    HW131979   2.324   0.089   8.248  0.1278 -1.5327  2.5642
 6839SOL    HW231980   2.390   0.219   8.258 -1.4748 -0.2861 -1.9775
 6840SOL     OW31981   0.653   4.621   5.595  0.0240 -0.2313  0.1933
 6840SOL    HW131982   0.727   4.610   5.654  0.1335  0.2861  0.1501
 6840SOL    HW231983   0.685   4.626   5.505 -1.7264  0.3380 -0.4050
 6841SOL     OW31984   1.599   3.665  10.241 -0.4443 -0.4789 -0.1715
 6841SOL    HW131985   1.577   3.664  10.334 -0.4048 -3.4148 -0.1851
 6841SOL    HW231986   1.679   3.717  10.232 -1.5175  1.2712  0.4539
 6842SOL     OW31987   2.730   3.744   7.612 -0.6502 -0.0968 -0.3478
 6842SOL    HW131988   2.697   3.709   7.530 -3.1139 -0.3772  0.7597
 6842SOL    HW231989   2.800   3.682   7.633 -1.0548  0.5050  2.7901
 6843SOL     OW31990   1.207   1.077   7.432 -0.1143  0.1089  0.0273
 6843SOL    HW131991   1.131   1.031   7.396 -0.1398 -1.3618  1.9656
 6843SOL    HW231992   1.272   1.007   7.439 -0.1382  0.0025 -0.8063
 6844SOL     OW31993   4.451   0.786   5.266  0.0754  0.4033 -0.4171
 6844SOL    HW131994   4.405   0.717   5.218 -0.7764 -0.2871  1.3730
 6844SOL    HW231995   4.394   0.861   5.251  0.1633  0.0215 -2.6825
 6845SOL     OW31996   2.695   3.456   4.976  0.1646 -0.4363  0.2734
 6845SOL    HW131997   2.661   3.367   4.984  1.1394 -0.8921 -0.5779
 6845SOL    HW231998   2.659   3.478   4.891  1.2787  0.1227 -0.0585
 6846SOL     OW31999   1.187   1.395  14.527  0.9015 -0.3648 -0.6555
 6846SOL    HW132000   1.230   1.327  14.475 -1.0236 -0.6062 -1.9152
 6846SOL    HW232001   1.097   1.367  14.515  0.4677  1.1982 -1.0850
 6847SOL     OW32002   4.176   2.144   3.820 -0.1556  0.3336  0.5887
 6847SOL    HW132003   4.190   2.081   3.749 -2.1423 -1.3391  1.7037
 6847SOL    HW232004   4.089   2.114   3.846 -0.2885 -1.5038 -1.8895
 6848SOL     OW32005   4.606   0.161  12.211  0.2131 -0.4629 -0.0379
 6848SOL    HW132006   4.556   0.228  12.165  0.9738  0.2765  0.2065
 6848SOL    HW232007   4.627   0.095  12.145  1.7486 -0.8629  0.8475
 6849SOL     OW32008   0.564   2.890   5.752  0.0399 -0.0975 -0.3053
 6849SOL    HW132009   0.653   2.920   5.738  0.5129 -1.8250 -1.0403
 6849SOL    HW232010   0.580   2.814   5.695  0.8967  1.3447 -1.9667
 6850SOL     OW32011   2.317   0.752   1.803 -0.2366  0.1414  0.1397
 6850SOL    HW132012   2.355   0.717   1.723 -1.9442 -0.4125 -0.4441
 6850SOL    HW232013   2.231   0.712   1.792  0.4732 -1.3348  0.0124
 6851SOL     OW32014   4.049   3.321   6.334  0.6265  0.0410  0.6515
 6851SOL    HW132015   3.970   3.363   6.369  0.4721  0.0731  0.2637
 6851SOL    HW232016   4.009   3.244   6.295 -0.9308  0.8002  0.7641
 6852SOL     OW32017   0.544   0.933  16.838 -0.4331  0.1760 -0.3052
 6852SOL    HW132018   0.608   0.901  16.774  2.1820  0.9730  1.9034
 6852SOL    HW232019   0.462   0.935  16.789 -0.4515  1.6740 -0.2175
 6853SOL     OW32020   2.022   3.055  10.963  0.1017  0.5803  0.1195
 6853SOL    HW132021   2.090   3.117  10.939  2.5781 -1.6488  1.3900
 6853SOL    HW232022   2.033   3.072  11.057 -0.6636 -1.4023  0.5656
 6854SOL     OW32023   1.992   2.238  13.189  0.2213  0.2925 -0.0632
 6854SOL    HW132024   2.072   2.288  13.207  2.1451 -2.0250 -2.1108
 6854SOL    HW232025   1.960   2.219  13.278  0.4888 -1.2050 -0.2933
 6855SOL     OW32026   3.452   3.029   9.182 -0.2522  0.3130 -0.9610
 6855SOL    HW132027   3.374   2.974   9.190 -0.6071  0.7941 -1.1138
 6855SOL    HW232028   3.513   2.970   9.226  2.4712  2.4773 -1.8627
 6856SOL     OW32029   3.707   1.149  14.556 -0.6426  0.4519  0.3753
 6856SOL    HW132030   3.770   1.213  14.588 -0.5277 -0.0637  1.1870
 6856SOL    HW232031   3.679   1.089  14.626 -0.9475 -1.0655 -1.0598
 6857SOL     OW32032   1.204   4.294   2.881 -0.1316  0.2652  0.0278
 6857SOL    HW132033   1.280   4.336   2.841 -0.8988 -0.0766 -1.7510
 6857SOL    HW232034   1.246   4.208   2.878 -0.4678 -0.0371  3.2250
 6858SOL     OW32035   4.691   1.755   5.437  0.1425  0.0564  0.1472
 6858SOL    HW132036   4.599   1.756   5.411  0.2762 -2.4135 -0.4846
 6858SOL    HW232037   0.012   1.764   5.355  0.5130 -1.1439  0.2338
 6859SOL     OW32038   3.872   1.905   6.334  0.4168 -0.1626 -0.1179
 6859SOL    HW132039   3.799   1.920   6.274  1.3895 -0.3656 -1.3563
 6859SOL    HW232040   3.849   1.959   6.410  0.4956  0.6871 -0.6989
 6860SOL     OW32041   0.175   2.825   3.366 -0.6675  0.4021  0.2315
 6860SOL    HW132042   0.224   2.755   3.322 -0.6730  0.5512 -0.0112
 6860SOL    HW232043   0.137   2.861   3.286  0.9941  0.8435 -0.3709
 6861SOL     OW32044   2.589   1.123  16.829 -0.1438  0.0225  0.1399
 6861SOL    HW132045   2.578   1.143  16.736 -0.7706 -0.7874  0.0417
 6861SOL    HW232046   2.669   1.169  16.852 -0.7478  0.9144  0.4517
 6862SOL     OW32047   0.885   3.446   0.769  0.2789 -0.4116 -0.4047
 6862SOL    HW132048   0.943   3.445   0.846  1.5297 -0.3698 -1.3481
 6862SOL    HW232049   0.893   3.360   0.727 -0.6292 -0.4956 -0.4094
 6863SOL     OW32050   0.282   2.650   3.170  0.6449  0.2907  0.1577
 6863SOL    HW132051   0.354   2.682   3.115 -0.2012  1.0043 -0.5319
 6863SOL    HW232052   0.226   2.620   3.098 -0.5289  1.1436  0.7230
 6864SOL     OW32053   2.298   4.262   1.742  0.6625  1.3180 -0.1947
 6864SOL    HW132054   2.206   4.253   1.718  0.8723 -0.1959 -0.4388
 6864SOL    HW232055   2.339   4.187   1.699 -3.2320 -1.1162  0.3313
 6865SOL     OW32056   3.259   4.624   0.856  0.2002  0.2763 -0.1783
 6865SOL    HW132057   3.229   4.642   0.945 -0.1326  0.9709 -0.4321
 6865SOL    HW232058   3.334   4.682   0.842  0.4924  0.0372  0.4195
 6866SOL     OW32059   1.418   1.260  10.065 -0.2034  0.3399 -0.4049
 6866SOL    HW132060   1.513   1.248  10.053 -0.3426 -0.5390 -0.6642
 6866SOL    HW232061   1.406   1.181  10.118  1.9166 -0.5840 -1.2635
 6867SOL     OW32062   2.967   2.484   1.847 -0.1841 -0.4718 -0.2238
 6867SOL    HW132063   3.051   2.441   1.829  0.1208  0.2917 -0.6239
 6867SOL    HW232064   2.947   2.462   1.938 -0.5450  0.6589 -0.0289
 6868SOL     OW32065   4.138   0.804   7.930 -0.4024  0.7783 -0.4826
 6868SOL    HW132066   4.060   0.786   7.878 -0.1248 -0.0745 -0.6046
 6868SOL    HW232067   4.109   0.845   8.011  0.5824 -1.0866  0.8300
 6869SOL     OW32068   3.224   4.338   7.706  0.9366  0.2758 -0.2552
 6869SOL    HW132069   3.207   4.244   7.706 -0.3505  0.5146 -1.9271
 6869SOL    HW232070   3.315   4.335   7.678  0.9190  1.6518 -0.4402
 6870SOL     OW32071   0.967   4.569  14.346 -0.0048 -0.0581  0.0012
 6870SOL    HW132072   0.984   4.565  14.440 -0.0905  0.8552  0.0628
 6870SOL    HW232073   0.919   4.489  14.325  1.3175 -1.1382  1.0718
 6871SOL     OW32074   1.531   3.190   2.814 -0.2317  0.4307 -0.2980
 6871SOL    HW132075   1.552   3.099   2.833 -2.5228 -0.2161 -0.8815
 6871SOL    HW232076   1.532   3.227   2.902  1.7759 -3.8052  1.4382
 6872SOL     OW32077   1.215   3.445  13.685 -0.2128 -0.4464  0.0547
 6872SOL    HW132078   1.275   3.515  13.712  1.3892 -2.0925  0.7653
 6872SOL    HW232079   1.190   3.480  13.599 -1.0546  1.5406  1.1011
 6873SOL     OW32080   0.292   1.614   0.649  0.6561  0.2871 -0.8135
 6873SOL    HW132081   0.283   1.521   0.671 -0.7869  0.1137 -2.1453
 6873SOL    HW232082   0.369   1.641   0.699 -0.9958  0.1314  1.7870
 6874SOL     OW32083   3.913   1.374   7.046  0.7799 -0.1406 -0.0231
 6874SOL    HW132084   3.821   1.360   7.022  0.2347  0.9950  1.4450
 6874SOL    HW232085   3.902   1.470   7.045 -2.0881 -0.4830 -2.7238
 6875SOL     OW32086   1.721   0.583   8.082  0.1786  0.7811 -0.2844
 6875SOL    HW132087   1.759   0.496   8.086  0.1186  0.9175  3.1770
 6875SOL    HW232088   1.633   0.565   8.116 -0.1640  0.1320 -1.5012
 6876SOL     OW32089   1.008   4.376   5.634 -0.5423  0.0162 -0.5841
 6876SOL    HW132090   0.936   4.426   5.673 -0.3286  0.5014 -0.8229
 6876SOL    HW232091   1.033   4.430   5.560 -2.0199 -1.9759 -2.5253
 6877SOL     OW32092   2.695   4.180   7.166  0.9085  0.8462  0.3487
 6877SOL    HW132093   2.781   4.138   7.173  0.4713 -0.0567  0.1929
 6877SOL    HW232094   2.687   4.174   7.071  1.0739  0.8553  0.3331
 6878SOL     OW32095   4.680   1.728  15.047  0.5898  0.5020 -0.0461
 6878SOL    HW132096   4.698   1.707  15.139 -0.2656  0.9115  0.2176
 6878SOL    HW232097   0.027   1.684  15.007 -0.0342 -3.0692  2.7127
 6879SOL     OW32098   2.040   3.319   8.416  0.0455  0.3777 -0.1705
 6879SOL    HW132099   2.118   3.280   8.377  0.2716  2.2296 -1.5625
 6879SOL    HW232100   2.021   3.257   8.487 -0.0173  2.0872  1.3122
 6880SOL     OW32101   1.219   4.212   0.462  0.3644  0.0528 -0.3140
 6880SOL    HW132102   1.248   4.215   0.553  2.7072  1.5295 -1.1133
 6880SOL    HW232103   1.296   4.251   0.421  0.2696 -1.6087 -2.0528
 6881SOL     OW32104   3.242   3.013  14.333  0.5307 -0.4958 -0.3759
 6881SOL    HW132105   3.297   2.990  14.259 -0.7600 -1.6895 -0.9691
 6881SOL    HW232106   3.240   2.923  14.366 -1.7374  0.0319  0.9075
 6882SOL     OW32107   2.479   2.455   9.863 -0.2419  0.3496 -0.2953
 6882SOL    HW132108   2.447   2.415   9.945 -1.6236  1.8014 -0.1150
 6882SOL    HW232109   2.573   2.454   9.878 -0.4802  3.2263  1.5112
 6883SOL     OW32110   2.128   2.116  16.654  0.2659  0.2437 -0.4311
 6883SOL    HW132111   2.153   2.197  16.697 -0.6676  0.7187 -0.7972
 6883SOL    HW232112   2.150   2.150  16.567 -3.7874  0.7589 -1.2159
 6884SOL     OW32113   2.261   0.925   2.027 -0.3842 -0.2366 -0.7679
 6884SOL    HW132114   2.278   0.856   1.963  3.5300  0.0364  0.0327
 6884SOL    HW232115   2.228   0.866   2.094  0.4659  2.2040  1.7918
 6885SOL     OW32116   3.821   3.989  13.568 -0.1102 -0.0043  0.5418
 6885SOL    HW132117   3.773   3.906  13.560  4.0588 -2.1979 -1.9224
 6885SOL    HW232118   3.784   4.016  13.652  0.6164 -2.1028  1.5288
 6886SOL     OW32119   3.281   0.553  12.634 -0.0592 -0.1464  0.1463
 6886SOL    HW132120   3.334   0.523  12.560  1.8667  1.5961  0.8176
 6886SOL    HW232121   3.312   0.643  12.638  1.5506 -0.8346  2.6962
 6887SOL     OW32122   3.416   4.220   6.266 -0.2586  1.1482 -0.4386
 6887SOL    HW132123   3.365   4.266   6.199  0.0439  0.1005 -1.3867
 6887SOL    HW232124   3.453   4.295   6.313  2.6738  0.4031 -1.5665
 6888SOL     OW32125   1.920   0.879   5.702  0.2520  0.1591 -0.1024
 6888SOL    HW132126   1.886   0.968   5.690 -1.7152 -0.7937 -1.7326
 6888SOL    HW232127   1.942   0.854   5.612 -2.2064  0.3026 -0.7621
 6889SOL     OW32128   2.975   2.045   8.552 -0.6390 -0.1402  0.4625
 6889SOL    HW132129   2.937   2.086   8.630 -1.1201 -0.0285  0.1690
 6889SOL    HW232130   2.953   1.951   8.550  0.5865 -0.3705 -1.6977
 6890SOL     OW32131   0.072   0.548   9.117  0.0313  0.2625  0.2064
 6890SOL    HW132132   4.722   0.512   9.073  0.3784  0.2890 -0.4254
 6890SOL    HW232133   0.043   0.564   9.207 -1.5877  0.9330 -0.4392
 6891SOL     OW32134   2.626   2.989  16.185  0.0556  0.0423 -0.3575
 6891SOL    HW132135   2.549   2.951  16.143 -0.5378  0.4614  0.3509
 6891SOL    HW232136   2.625   3.080  16.156  0.5178  0.9449  2.4562
 6892SOL     OW32137   3.824   4.617   4.360  0.1382 -0.0546 -0.1790
 6892SOL    HW132138   3.898   4.632   4.301 -0.3437 -0.5340 -0.9026
 6892SOL    HW232139   3.760   4.597   4.292  0.2783 -0.5064 -0.1734
 6893SOL     OW32140   2.363   1.557   6.085  0.3482 -0.3928 -0.0269
 6893SOL    HW132141   2.353   1.652   6.082 -0.6104 -0.4691  0.6907
 6893SOL    HW232142   2.291   1.515   6.037  1.4751  0.1113 -2.1803
 6894SOL     OW32143   1.630   0.804   9.251 -0.7497  0.4244  0.2370
 6894SOL    HW132144   1.713   0.783   9.296 -1.8663 -2.4408  0.9439
 6894SOL    HW232145   1.667   0.832   9.167 -2.0147 -3.2427 -1.5585
 6895SOL     OW32146   3.643   0.467   8.310  0.1485  0.0763  0.0602
 6895SOL    HW132147   3.705   0.456   8.238  0.8085  0.1192  0.6228
 6895SOL    HW232148   3.632   0.373   8.324  0.5546 -0.3484 -2.4008
 6896SOL     OW32149   1.852   1.417  15.071 -0.3290 -0.1708  0.0871
 6896SOL    HW132150   1.865   1.505  15.107 -1.1240  0.6400 -1.6081
 6896SOL    HW232151   1.909   1.417  14.995  0.2762 -3.2979  0.5665
 6897SOL     OW32152   0.091   2.476   5.255  0.0231  0.5031  0.0524
 6897SOL    HW132153   0.007   2.457   5.298  0.2857 -0.1114  0.2908
 6897SOL    HW232154   0.133   2.533   5.318 -2.1112  0.6017  1.3957
 6898SOL     OW32155   1.002   0.209   2.353  0.0325 -0.9155  0.1139
 6898SOL    HW132156   1.010   0.261   2.434  2.2206 -2.8181  1.1195
 6898SOL    HW232157   1.025   0.277   2.289 -0.5830 -3.3552 -2.6503
 6899SOL     OW32158   0.209   0.034   4.417 -0.4569 -0.1674 -0.5144
 6899SOL    HW132159   0.161   4.703   4.359  2.5759 -1.2237 -1.9546
 6899SOL    HW232160   0.282   0.048   4.357  1.8684  1.1266  2.5956
 6900SOL     OW32161   1.908   1.018   0.594 -0.1144  0.1681 -0.3563
 6900SOL    HW132162   1.864   0.940   0.561 -1.0108 -0.3019  1.9468
 6900SOL    HW232163   1.986   1.010   0.539  0.0644 -1.0217  0.0763
 6901SOL     OW32164   1.762   2.977  10.854 -0.4301  0.0300 -0.0278
 6901SOL    HW132165   1.736   2.979  10.946 -0.7442 -1.3952 -0.0927
 6901SOL    HW232166   1.848   3.020  10.860 -0.1963 -0.4715  0.2156
 6902SOL     OW32167   1.710   0.779   0.187 -0.0486  0.8010 -0.3402
 6902SOL    HW132168   1.782   0.789   0.125 -0.6387  0.0586 -1.1248
 6902SOL    HW232169   1.643   0.742   0.131 -1.0831  2.1237  0.0301
 6903SOL     OW32170   4.209   3.470   2.751 -0.2191  0.1765  0.1965
 6903SOL    HW132171   4.222   3.392   2.805 -0.9816  0.8608  1.3465
 6903SOL    HW232172   4.293   3.469   2.705 -1.2065 -1.1864 -1.6199
 6904SOL     OW32173   2.251   2.521   3.849 -0.0133  0.0604  0.0533
 6904SOL    HW132174   2.281   2.595   3.798 -0.5715  0.4445  0.2815
 6904SOL    HW232175   2.175   2.495   3.798 -0.9552  2.4929  0.2476
 6905SOL     OW32176   4.365   3.541   7.838 -0.3006 -0.6325  0.2498
 6905SOL    HW132177   4.365   3.623   7.887 -1.9166  0.9228 -2.3411
 6905SOL    HW232178   4.320   3.577   7.761  0.7164  1.9878  0.8747
 6906SOL     OW32179   2.364   2.042  15.920  0.2385 -0.5852 -0.4911
 6906SOL    HW132180   2.445   2.036  15.971  0.4874 -0.0079 -0.8196
 6906SOL    HW232181   2.389   2.026  15.829 -0.2028 -2.8159 -0.2181
 6907SOL     OW32182   1.558   3.768  17.581 -0.0375  0.2889 -0.1959
 6907SOL    HW132183   1.468   3.745  17.607  0.5134  0.3626  1.7714
 6907SOL    HW232184   1.548   3.754  17.487 -0.8907  0.6968 -0.1689
 6908SOL     OW32185   0.280   0.332   4.917 -0.4859  0.0509 -0.0514
 6908SOL    HW132186   0.269   0.314   4.824 -0.6764  0.7921 -0.1726
 6908SOL    HW232187   0.330   0.412   4.930 -2.3869  1.2352  0.0728
 6909SOL     OW32188   1.371   2.379   8.804 -0.0480 -0.3505 -0.4367
 6909SOL    HW132189   1.411   2.380   8.891 -1.8219  1.4923  0.3567
 6909SOL    HW232190   1.396   2.290   8.778 -2.2339 -1.6680  1.9784
 6910SOL     OW32191   2.459   1.362   1.266 -0.2305  0.0555  0.2922
 6910SOL    HW132192   2.528   1.427   1.273 -2.3733  2.1114  2.4433
 6910SOL    HW232193   2.385   1.411   1.303 -0.4405 -0.5467  0.6747
 6911SOL     OW32194   2.713   0.394   6.897 -0.4291 -0.0095 -0.5845
 6911SOL    HW132195   2.802   0.411   6.929 -0.0423 -0.3388 -1.4654
 6911SOL    HW232196   2.688   0.303   6.913  2.2071 -0.7594 -0.6264
 6912SOL     OW32197   3.218   4.014  12.962  0.0389 -0.0858 -0.1567
 6912SOL    HW132198   3.306   4.049  12.949  0.0837 -0.8495 -2.0062
 6912SOL    HW232199   3.181   4.079  13.021 -0.6494 -0.4160 -0.2249
 6913SOL     OW32200   4.301   3.888   8.495 -0.4380 -0.2015 -0.2075
 6913SOL    HW132201   4.322   3.798   8.517 -0.3617  0.0709  0.8440
 6913SOL    HW232202   4.381   3.925   8.459  0.0312  0.3338  1.4070
 6914SOL     OW32203   2.308   3.068  17.252  0.1514 -0.0486 -0.2467
 6914SOL    HW132204   2.331   3.135  17.316 -0.5843 -1.3256  1.3587
 6914SOL    HW232205   2.218   3.041  17.269  1.2966 -2.9423  1.2715
 6915SOL     OW32206   3.991   3.695   0.924  0.4406 -0.1450 -0.4702
 6915SOL    HW132207   3.945   3.611   0.912 -1.1909  0.7291 -0.3074
 6915SOL    HW232208   4.006   3.732   0.837  0.8439  0.5277 -0.1133
 6916SOL     OW32209   1.752   3.874   4.685  0.7826  0.4618 -0.3742
 6916SOL    HW132210   1.760   3.810   4.615 -2.0989  0.7947 -1.0288
 6916SOL    HW232211   1.656   3.876   4.683  0.7945  0.9216 -0.4851
 6917SOL     OW32212   1.880   4.655   2.714  0.4980  0.1347 -0.0827
 6917SOL    HW132213   1.809   4.621   2.659  1.2811 -1.2491 -0.2348
 6917SOL    HW232214   1.935   4.706   2.654  1.9277  0.4920  1.5540
 6918SOL     OW32215   0.880   4.214  15.690  0.4188 -0.5003  0.7071
 6918SOL    HW132216   0.834   4.220  15.607  0.3647  0.4375  0.8074
 6918SOL    HW232217   0.836   4.139  15.730  0.0986 -0.0665  1.1678
 6919SOL     OW32218   1.131   3.658   8.475 -0.0682  0.2635 -0.3381
 6919SOL    HW132219   1.079   3.687   8.550 -0.4807 -0.3923 -0.3734
 6919SOL    HW232220   1.197   3.727   8.466 -2.8190  2.8458 -0.6192
 6920SOL     OW32221   2.433   1.457   7.313 -0.5087 -0.1816  0.0562
 6920SOL    HW132222   2.355   1.440   7.261 -0.6292 -1.4512  0.6507
 6920SOL    HW232223   2.410   1.543   7.347  2.3921 -0.2248  2.0995
 6921SOL     OW32224   3.370   0.870  16.589 -0.3019  0.1020  0.2592
 6921SOL    HW132225   3.317   0.870  16.510 -1.1786  0.4082  0.8419
 6921SOL    HW232226   3.359   0.962  16.613  0.1745  1.1595 -3.6110
 6922SOL     OW32227   0.882   3.094   7.716  0.1036  0.2482 -0.7245
 6922SOL    HW132228   0.889   3.048   7.632  0.5490 -0.0367 -0.5304
 6922SOL    HW232229   0.959   3.150   7.717 -0.5838  1.2038 -1.1366
 6923SOL     OW32230   3.413   2.480   2.747  0.0580  0.3271 -0.0974
 6923SOL    HW132231   3.434   2.515   2.660  2.6027  1.7515  1.0711
 6923SOL    HW232232   3.320   2.499   2.749  0.3184  1.5510  0.0818
 6924SOL     OW32233   2.488   2.284   1.566 -0.4191 -0.0936 -0.4092
 6924SOL    HW132234   2.549   2.348   1.530 -1.8869  1.2627 -0.5042
 6924SOL    HW232235   2.406   2.307   1.521 -0.1698  2.5022  0.4825
 6925SOL     OW32236   4.238   1.570   7.002  0.0551 -0.2270 -0.1198
 6925SOL    HW132237   4.213   1.477   7.000 -0.2311 -0.1069 -1.6763
 6925SOL    HW232238   4.326   1.569   7.042  0.0274 -0.0163 -0.0576
 6926SOL     OW32239   0.537   4.278   5.955  0.0796  0.3856  0.5217
 6926SOL    HW132240   0.592   4.327   6.017  0.9730 -0.0920  0.1119
 6926SOL    HW232241   0.451   4.290   5.995 -0.8025  0.0296 -1.3217
 6927SOL     OW32242   4.431   0.957  16.131 -0.3228  0.4209  0.4759
 6927SOL    HW132243   4.441   0.982  16.040 -2.0455  0.6567  0.3429
 6927SOL    HW232244   4.514   0.913  16.148 -0.1903  0.4314 -0.1629
 6928SOL     OW32245   0.410   0.664   3.774 -0.3780 -0.4391 -0.3660
 6928SOL    HW132246   0.324   0.647   3.735 -1.3906  0.2642  1.5651
 6928SOL    HW232247   0.461   0.583   3.778  0.0113 -0.2729 -1.8134
 6929SOL     OW32248   1.152   3.186   8.356 -0.0426 -0.1436 -0.2527
 6929SOL    HW132249   1.113   3.263   8.396 -0.1938 -0.4603  0.2053
 6929SOL    HW232250   1.133   3.212   8.266  2.1041 -0.2236 -0.7401
 6930SOL     OW32251   2.163   1.121  17.635 -0.1525 -0.0777  0.2885
 6930SOL    HW132252   2.246   1.113  17.682  0.2367  0.0286 -0.3782
 6930SOL    HW232253   2.140   1.037  17.596  0.9204 -0.1979 -0.1094
 6931SOL     OW32254   0.363   2.880   2.207  0.3804 -0.2932  0.2036
 6931SOL    HW132255   0.420   2.811   2.173  3.0154  2.1091 -0.3327
 6931SOL    HW232256   0.323   2.909   2.126  0.1423  0.8861  0.7270
 6932SOL     OW32257   1.107   4.266   1.426 -0.2608  0.5487  0.6011
 6932SOL    HW132258   1.052   4.273   1.504  1.1898  1.4920  1.5442
 6932SOL    HW232259   1.042   4.253   1.356  0.6074 -0.9845  0.0938
 6933SOL     OW32260   2.496   4.191   6.460 -0.3416 -0.3376  0.3842
 6933SOL    HW132261   2.582   4.152   6.443 -0.4339  1.4691 -4.2774
 6933SOL    HW232262   2.509   4.285   6.450 -2.6358 -0.1884 -1.1429
 6934SOL     OW32263   3.041   0.789   3.450 -0.4386 -0.5694 -0.0294
 6934SOL    HW132264   3.030   0.722   3.518 -1.0853  0.2167  0.6372
 6934SOL    HW232265   3.123   0.827   3.484 -2.2128  1.7067  1.6856
 6935SOL     OW32266   4.443   4.440  16.373 -0.6931 -0.1299 -0.0373
 6935SOL    HW132267   4.358   4.422  16.333  1.3157 -3.2924 -2.9466
 6935SOL    HW232268   4.443   4.535  16.369 -0.8003 -0.1325 -0.0944
 6936SOL     OW32269   1.079   2.135   6.371  0.1717  0.5222 -0.1177
 6936SOL    HW132270   1.060   2.047   6.405 -1.2599 -0.0380 -2.3562
 6936SOL    HW232271   0.994   2.176   6.356  0.3752  0.6512 -0.9011
 6937SOL     OW32272   0.332   4.008   6.552 -0.2247 -0.2573  0.2097
 6937SOL    HW132273   0.345   4.097   6.520 -0.6161 -0.7404 -1.3332
 6937SOL    HW232274   0.287   3.971   6.476 -0.3042 -1.0157  0.6237
 6938SOL     OW32275   3.626   0.083   7.563  0.1194  0.4950 -0.1897
 6938SOL    HW132276   3.603   4.722   7.592  1.4572  0.3504  0.4073
 6938SOL    HW232277   3.567   0.097   7.489 -0.5859 -0.9123  0.0868
 6939SOL     OW32278   1.210   3.259   4.305 -0.3045  0.3334 -0.7978
 6939SOL    HW132279   1.169   3.344   4.321 -0.1946  0.2100  0.1570
 6939SOL    HW232280   1.158   3.222   4.234  0.6705 -1.7412 -0.4325
 6940SOL     OW32281   3.901   1.862   4.310 -0.8973  0.1089  0.2763
 6940SOL    HW132282   3.852   1.797   4.362 -0.0686  0.1560  1.1180
 6940SOL    HW232283   3.930   1.925   4.376 -0.2792 -2.7262  2.7402
 6941SOL     OW32284   4.016   0.801   5.404 -0.2627  0.4268 -0.0447
 6941SOL    HW132285   4.048   0.834   5.488 -1.2800 -1.2060  0.9819
 6941SOL    HW232286   4.010   0.881   5.352  3.2750 -0.2733 -1.5449
 6942SOL     OW32287   2.946   3.025  10.064 -0.2184  0.0680  0.2194
 6942SOL    HW132288   2.996   3.029  10.145  0.1215 -1.5999  0.0885
 6942SOL    HW232289   3.020   3.043  10.005 -1.2704 -1.1709 -1.4881
 6943SOL     OW32290   2.848   1.748   3.217 -0.0574 -0.6656 -0.6439
 6943SOL    HW132291   2.925   1.690   3.223  0.5560  0.2985  0.6935
 6943SOL    HW232292   2.880   1.804   3.146  2.4953 -2.3554 -0.8662
 6944SOL     OW32293   3.232   3.567   4.431  0.0996  0.3115  0.7580
 6944SOL    HW132294   3.137   3.570   4.419  0.4545  1.4799 -1.8159
 6944SOL    HW232295   3.262   3.606   4.349  0.6762 -1.5972  0.0665
 6945SOL     OW32296   2.164   3.559   6.945  0.4532  0.8654 -0.0528
 6945SOL    HW132297   2.248   3.516   6.932 -0.3830 -1.4027  2.0170
 6945SOL    HW232298   2.098   3.490   6.952  2.0822 -0.7125 -0.1968
 6946SOL     OW32299   4.485   3.151   2.039  0.2502  0.5847  0.1579
 6946SOL    HW132300   4.410   3.187   1.991 -0.6047 -0.3675  0.7670
 6946SOL    HW232301   4.436   3.087   2.091  1.6157  0.1617  0.9273
 6947SOL     OW32302   1.568   3.056  11.442  0.4598 -0.6211  0.4196
 6947SOL    HW132303   1.563   3.061  11.537  0.6202 -1.4351  0.4713
 6947SOL    HW232304   1.571   3.152  11.435  1.2892 -0.6608  0.2398
 6948SOL     OW32305   2.640   2.658   0.195  0.0638 -0.2386  0.1228
 6948SOL    HW132306   2.659   2.749   0.216  0.3041  0.5130 -3.3679
 6948SOL    HW232307   2.555   2.669   0.151  0.5427 -2.2731 -1.3313
 6949SOL     OW32308   1.064   3.986   8.368  0.2680 -0.1480  0.0663
 6949SOL    HW132309   1.001   3.915   8.384  0.5711 -0.6004 -0.7410
 6949SOL    HW232310   1.009   4.064   8.375  1.5983  0.8452 -0.6689
 6950SOL     OW32311   1.504   0.950   8.229  0.2077  0.0681 -0.2129
 6950SOL    HW132312   1.532   0.894   8.158 -0.0871  0.4974 -0.6667
 6950SOL    HW232313   1.437   0.901   8.277  0.1409 -0.2044 -0.5886
 6951SOL     OW32314   2.787   3.239  13.264 -0.8171 -0.0542 -0.2999
 6951SOL    HW132315   2.842   3.189  13.204 -0.7607  1.1537 -1.2495
 6951SOL    HW232316   2.818   3.202  13.347  1.3745 -1.8471 -1.9099
 6952SOL     OW32317   1.063   3.343   7.629 -0.4618  0.0423  0.1776
 6952SOL    HW132318   1.098   3.397   7.700 -2.1551  0.4608  0.6913
 6952SOL    HW232319   1.019   3.411   7.578 -2.4285  0.5630  2.5791
 6953SOL     OW32320   2.230   0.973   0.791 -0.0263  0.0643  0.1898
 6953SOL    HW132321   2.233   1.047   0.729 -0.7622  0.6620  0.8612
 6953SOL    HW232322   2.317   0.983   0.829 -0.0868  0.3530  0.2542
 6954SOL     OW32323   0.914   2.282   0.803 -0.1511  0.2012  0.3126
 6954SOL    HW132324   0.906   2.274   0.708  3.2441 -0.6181  0.1053
 6954SOL    HW232325   1.007   2.302   0.811  0.3275 -2.2935  0.9363
 6955SOL     OW32326   3.842   3.599  16.741  0.1069  0.1187  0.5033
 6955SOL    HW132327   3.909   3.542  16.702  1.2781  2.0057 -0.2401
 6955SOL    HW232328   3.861   3.685  16.703 -2.1332  0.0118 -0.8721
 6956SOL     OW32329   4.538   1.205   9.729 -0.7575  0.1817 -0.4988
 6956SOL    HW132330   4.505   1.282   9.684  0.9735  1.0299 -0.3188
 6956SOL    HW232331   4.470   1.177   9.790 -1.1125  1.5540 -0.2747
 6957SOL     OW32332   0.470   1.085   0.120  0.5513 -0.0502 -0.1451
 6957SOL    HW132333   0.498   0.995   0.100  0.4562  0.0560 -0.7543
 6957SOL    HW232334   0.550   1.131   0.145  0.8457  0.0154 -1.1904
 6958SOL     OW32335   2.491   3.042   8.261  0.0891 -0.0537  0.4712
 6958SOL    HW132336   2.414   3.092   8.289  1.5491  1.4233  1.8868
 6958SOL    HW232337   2.555   3.110   8.239 -1.1023  0.5374 -1.1215
 6959SOL     OW32338   2.075   0.537   8.471  0.3195  0.3597 -0.6076
 6959SOL    HW132339   2.057   0.447   8.446 -1.3282  0.3553  0.5729
 6959SOL    HW232340   2.144   0.560   8.409  0.9068 -2.9189 -1.1439
 6960SOL     OW32341   3.689   1.941   1.950 -0.1082  0.0969 -0.8724
 6960SOL    HW132342   3.637   1.861   1.944  0.4955 -0.2171 -1.8882
 6960SOL    HW232343   3.765   1.903   1.994 -1.9297 -0.3975  1.8309
 6961SOL     OW32344   3.389   3.216   8.739  0.0586 -0.5055  0.8271
 6961SOL    HW132345   3.304   3.186   8.771 -0.9125 -1.2321 -2.5170
 6961SOL    HW232346   3.449   3.178   8.804  0.5289 -0.1499  0.6024
 6962SOL     OW32347   2.128   0.224   3.304  0.2880 -0.4570 -0.1587
 6962SOL    HW132348   2.052   0.165   3.306 -0.6923  0.7929 -0.5092
 6962SOL    HW232349   2.089   0.307   3.331  0.0300 -1.0458  1.2590
 6963SOL     OW32350   0.473   4.642   6.095 -0.2704  0.0140 -0.0865
 6963SOL    HW132351   0.383   4.671   6.079  0.1322  1.2241 -0.2094
 6963SOL    HW232352   0.515   4.668   6.013 -0.5234 -0.7653 -0.4629
 6964SOL     OW32353   2.993   0.685  17.375 -0.3909  0.1046 -0.0799
 6964SOL    HW132354   3.039   0.666  17.293  0.0956 -1.5465  0.5730
 6964SOL    HW232355   2.937   0.607  17.374  0.5314 -0.5457 -1.0814
 6965SOL     OW32356   3.005   0.563  17.698  0.3022 -0.4373 -0.3611
 6965SOL    HW132357   2.975   0.472  17.707 -0.4315 -0.2459 -0.8082
 6965SOL    HW232358   2.924   0.598   0.024  0.9113  0.2101  0.3352
 6966SOL     OW32359   1.069   3.885   4.116  0.3538  0.2195 -0.2857
 6966SOL    HW132360   1.000   3.820   4.107 -0.7622  1.4265 -0.4880
 6966SOL    HW232361   1.147   3.831   4.105 -0.9276 -1.2612 -2.0676
 6967SOL     OW32362   1.464   0.220   1.214  0.1791 -0.8754  0.8994
 6967SOL    HW132363   1.474   0.292   1.276 -0.2844  0.3937 -0.5127
 6967SOL    HW232364   1.390   0.246   1.159  0.9886 -2.7562 -1.0815
 6968SOL     OW32365   1.913   3.560   2.196 -1.1396  0.5099 -0.3677
 6968SOL    HW132366   1.993   3.612   2.190  0.7313 -2.3202  0.5702
 6968SOL    HW232367   1.934   3.511   2.275 -0.0770 -1.8299 -2.0977
 6969SOL     OW32368   4.128   0.849  11.870  0.4429  0.1238 -0.6829
 6969SOL    HW132369   4.193   0.918  11.857  1.5699 -0.8098  0.0678
 6969SOL    HW232370   4.158   0.789  11.938 -0.6758  0.5479  0.1710
 6970SOL     OW32371   3.399   4.525  11.326 -0.5992 -0.3206 -0.7941
 6970SOL    HW132372   3.469   4.478  11.372 -2.1022  0.9608  2.8035
 6970SOL    HW232373   3.443   4.582  11.264 -0.4368  2.8478  2.2769
 6971SOL     OW32374   3.884   2.455   7.200  0.4570  0.3975  0.6097
 6971SOL    HW132375   3.866   2.535   7.150  2.5592  0.1933 -0.5000
 6971SOL    HW232376   3.941   2.403   7.143  0.5642  1.5758 -0.3697
 6972SOL     OW32377   0.950   1.361   9.234  0.0950 -0.0241  0.5267
 6972SOL    HW132378   0.902   1.315   9.165  3.2181  0.1380 -1.7588
 6972SOL    HW232379   0.879   1.384   9.294 -2.0357 -2.2661 -1.1299
 6973SOL     OW32380   4.308   3.879  15.315 -0.1301  0.0872  0.8087
 6973SOL    HW132381   4.392   3.899  15.273  0.1272  0.3271  1.4353
 6973SOL    HW232382   4.292   3.786  15.296  1.2611  0.5026 -2.3173
 6974SOL     OW32383   3.744   3.589   7.766  0.3475 -0.1013 -0.1017
 6974SOL    HW132384   3.729   3.683   7.756 -1.0793 -0.4742 -1.5155
 6974SOL    HW232385   3.712   3.552   7.683  2.8814 -2.5723  0.0219
 6975SOL     OW32386   1.620   0.324   4.200  0.1581  0.1506  0.7355
 6975SOL    HW132387   1.714   0.328   4.185  0.3299  1.0168  1.9832
 6975SOL    HW232388   1.617   0.405   4.251 -2.7854  1.4704 -1.5234
 6976SOL     OW32389   3.474   0.982   6.916  0.2323 -0.6296  0.1512
 6976SOL    HW132390   3.460   1.073   6.942 -0.7091 -0.0994 -2.1740
 6976SOL    HW232391   3.423   0.993   6.835  2.8616 -1.0272 -1.5548
 6977SOL     OW32392   1.488   0.379   5.284 -0.0974  0.3903  0.4558
 6977SOL    HW132393   1.453   0.311   5.226 -2.9957  1.4767  0.9269
 6977SOL    HW232394   1.577   0.381   5.249 -0.3289  0.5335 -0.1200
 6978SOL     OW32395   4.521   1.979   6.144 -0.0567 -0.0215 -0.3120
 6978SOL    HW132396   4.478   2.024   6.217 -0.3388 -0.2402 -0.3438
 6978SOL    HW232397   4.592   1.939   6.194 -1.6382 -0.8020  1.2915
 6979SOL     OW32398   0.241   0.387   6.178 -0.7105 -0.2523  0.6439
 6979SOL    HW132399   0.223   0.480   6.194 -0.6135 -0.1750  0.3063
 6979SOL    HW232400   0.281   0.372   6.264  0.0622  0.6020  0.4308
 6980SOL     OW32401   4.198   2.134   8.659  0.0124 -0.2519  0.0550
 6980SOL    HW132402   4.176   2.149   8.751 -0.2680 -1.4757  0.1871
 6980SOL    HW232403   4.111   2.145   8.622 -0.2912 -2.1084  0.2167
 6981SOL     OW32404   1.737   4.414   9.307 -0.8403 -0.6376  0.3400
 6981SOL    HW132405   1.826   4.418   9.273 -0.3327  1.0407  1.8889
 6981SOL    HW232406   1.703   4.347   9.248 -1.0483  0.0826 -0.3579
 6982SOL     OW32407   1.476   3.483  16.989  0.2572  0.1338 -0.1495
 6982SOL    HW132408   1.532   3.561  16.991 -1.4556  1.4779 -3.2900
 6982SOL    HW232409   1.422   3.506  16.913  0.4534  1.5992  0.1553
 6983SOL     OW32410   3.581   4.489   8.520 -0.2387  0.7165  0.0557
 6983SOL    HW132411   3.538   4.573   8.536  1.8844  1.7522  0.2695
 6983SOL    HW232412   3.662   4.522   8.481 -1.3392  0.1072 -2.7560
 6984SOL     OW32413   2.156   2.599  11.458 -0.0262  0.3031 -1.0245
 6984SOL    HW132414   2.073   2.586  11.412  0.2342 -0.9880 -1.1239
 6984SOL    HW232415   2.158   2.537  11.531 -0.2255  2.3749  0.7154
 6985SOL     OW32416   0.217   3.978   5.048 -0.2017 -0.5663 -0.4347
 6985SOL    HW132417   0.255   3.903   5.003 -0.0199  0.0247 -1.2641
 6985SOL    HW232418   0.259   4.053   5.006 -0.6871  0.7127  1.3407
 6986SOL     OW32419   4.305   3.568   8.160  0.3145 -0.4994  0.0877
 6986SOL    HW132420   4.296   3.651   8.115  2.0167  0.0477  0.7465
 6986SOL    HW232421   4.400   3.573   8.165  0.3928 -1.2528 -0.6103
 6987SOL     OW32422   3.749   2.114  12.932  0.0749  0.3571 -0.5867
 6987SOL    HW132423   3.844   2.117  12.935  0.1224  2.8265 -4.2984
 6987SOL    HW232424   3.735   2.201  12.896  1.8467  1.2223  0.8086
 6988SOL     OW32425   4.179   4.194   1.737 -0.6601  0.6791 -0.1472
 6988SOL    HW132426   4.094   4.192   1.782 -0.4876  1.6699  0.2099
 6988SOL    HW232427   4.246   4.181   1.804 -0.4734 -0.6163 -0.5726
 6989SOL     OW32428   0.033   4.111   2.777 -0.3910  0.8901 -0.0741
 6989SOL    HW132429   0.124   4.098   2.751 -0.2136  0.5042  0.7391
 6989SOL    HW232430   4.726   4.081   2.693 -0.0273  0.9336 -0.2408
 6990SOL     OW32431   3.195   4.011   3.592  0.3165 -0.4726  0.2425
 6990SOL    HW132432   3.261   4.017   3.523 -0.0716 -2.3555 -0.2958
 6990SOL    HW232433   3.145   3.934   3.566  2.4622 -1.9155  0.3905
 6991SOL     OW32434   2.611   2.222   2.538 -0.5055  0.5273 -0.6704
 6991SOL    HW132435   2.595   2.167   2.461 -2.2614  1.7061 -1.1382
 6991SOL    HW232436   2.659   2.292   2.495  2.9974 -2.4123 -1.5731
 6992SOL     OW32437   4.672   4.283   7.666 -0.1086  0.3756 -0.3561
 6992SOL    HW132438   4.711   4.338   7.734  0.0362  0.0363 -0.1614
 6992SOL    HW232439   4.609   4.225   7.710  1.6328 -1.5492 -0.3587
 6993SOL     OW32440   3.009   4.451   7.514  1.2395 -0.3402 -0.0841
 6993SOL    HW132441   3.056   4.401   7.447  0.1682 -0.2741 -0.8841
 6993SOL    HW232442   2.980   4.530   7.470 -0.6579 -1.4548 -0.8322
 6994SOL     OW32443   0.351   3.602  14.782 -0.4067 -0.5473  0.4891
 6994SOL    HW132444   0.391   3.562  14.705  0.5719  0.2984  0.5587
 6994SOL    HW232445   0.276   3.544  14.795  0.4297 -1.4777  1.1743
 6995SOL     OW32446   4.133   3.196  10.559  0.2127  0.2356  0.2979
 6995SOL    HW132447   4.064   3.132  10.578  0.0344  0.7389  1.3903
 6995SOL    HW232448   4.192   3.179  10.633 -0.6667 -2.4110  0.3981
 6996SOL     OW32449   4.476   1.924   6.814  0.1835  0.4159  0.2223
 6996SOL    HW132450   4.411   1.952   6.750  0.9061  0.2929 -0.5747
 6996SOL    HW232451   4.502   1.835   6.792  2.6873  1.2146 -0.0651
 6997SOL     OW32452   2.292   2.128   2.539  0.5298 -0.3462 -0.1160
 6997SOL    HW132453   2.225   2.151   2.604 -0.3315  0.2206 -1.2016
 6997SOL    HW232454   2.375   2.145   2.584  0.6091  1.2779 -0.8625
 6998SOL     OW32455   0.601   3.968   2.985  0.1161 -0.7198  0.4118
 6998SOL    HW132456   0.564   3.915   3.055 -1.4362  0.8002  0.7292
 6998SOL    HW232457   0.531   3.963   2.919  2.4867  1.4918 -2.2596
 6999SOL     OW32458   3.338   1.471  15.298 -0.1525  0.0525  0.3737
 6999SOL    HW132459   3.413   1.474  15.359 -0.6021 -0.7467  0.9741
 6999SOL    HW232460   3.384   1.495  15.218  0.1971  0.9102  0.8313
 7000SOL     OW32461   0.413   4.535   6.758  0.3378 -0.5654  0.4500
 7000SOL    HW132462   0.465   4.459   6.784  0.7018 -1.0838 -1.7705
 7000SOL    HW232463   0.425   4.532   6.663 -2.8975  0.7647  0.0008
 7001SOL     OW32464   0.454   4.497   6.474 -0.0336  0.8418  0.5235
 7001SOL    HW132465   0.384   4.501   6.408 -2.2040  0.5866  2.7887
 7001SOL    HW232466   0.500   4.577   6.449 -1.5223  2.1579  1.9745
 7002SOL     OW32467   0.897   2.815  17.516  0.5455 -0.0658 -0.4056
 7002SOL    HW132468   0.868   2.870  17.589 -0.0709 -1.0030  0.0531
 7002SOL    HW232469   0.923   2.873  17.444 -1.7460  2.2152  0.5869
 7003SOL     OW32470   1.714   3.747   3.851  0.2615  0.4093  0.0673
 7003SOL    HW132471   1.744   3.685   3.917 -0.2150  0.5632  0.4269
 7003SOL    HW232472   1.777   3.741   3.778 -2.3683  2.0686 -2.3421
 7004SOL     OW32473   3.292   1.662   0.107  0.5392  0.6607  0.2019
 7004SOL    HW132474   3.385   1.669   0.129  0.3959 -0.3016  1.1053
 7004SOL    HW232475   3.260   1.615   0.184 -0.8944 -0.2952 -0.9836
 7005SOL     OW32476   3.697   1.806  10.759  0.1022  0.3578 -0.5436
 7005SOL    HW132477   3.779   1.778  10.798  1.0524 -0.7655 -3.3259
 7005SOL    HW232478   3.682   1.743  10.689  2.8144 -0.3126 -0.4957
 7006SOL     OW32479   3.961   4.291  15.419 -0.7253  0.1550 -0.0481
 7006SOL    HW132480   3.999   4.312  15.504 -0.8057 -1.3511  0.3495
 7006SOL    HW232481   3.998   4.206  15.399 -0.1636  0.4304 -0.1701
 7007SOL     OW32482   3.942   1.761   3.158 -0.0872 -0.2679  0.5071
 7007SOL    HW132483   3.970   1.763   3.066  0.0432  1.2539  0.5702
 7007SOL    HW232484   4.030   1.764   3.196 -0.9795  0.4324  2.5000
 7008SOL     OW32485   0.229   2.665   5.392  0.0767 -0.0996 -0.0238
 7008SOL    HW132486   0.215   2.740   5.450 -1.5272 -0.7369  0.4128
 7008SOL    HW232487   0.289   2.707   5.331  1.0523 -3.9150 -1.6992
 7009SOL     OW32488   1.816   2.800  13.250  0.1941 -0.5515  0.5798
 7009SOL    HW132489   1.740   2.753  13.285 -1.0796  0.3536 -0.9459
 7009SOL    HW232490   1.804   2.891  13.279  2.9472  1.0076 -3.3283
 7010SOL     OW32491   0.232   4.557   5.848  0.1621 -0.4124 -0.5804
 7010SOL    HW132492   0.317   4.599   5.839 -0.8152  1.4262 -1.1850
 7010SOL    HW232493   0.220   4.511   5.764 -2.1604  0.1043 -0.5411
 7011SOL     OW32494   1.186   0.460   1.088 -0.0988 -0.0878  0.0813
 7011SOL    HW132495   1.138   0.395   1.140 -2.7444 -0.0772 -2.4009
 7011SOL    HW232496   1.138   0.541   1.073  0.9183  0.6152  0.6252
 7012SOL     OW32497   4.716   1.032   7.014 -0.2624  0.1553 -0.0916
 7012SOL    HW132498   4.701   1.105   6.954 -0.7847 -0.8457 -1.1645
 7012SOL    HW232499   4.711   0.954   6.959  1.0915  0.7299 -1.0147
 7013SOL     OW32500   4.525   0.076  10.003 -0.0838 -0.3350  0.0488
 7013SOL    HW132501   4.449   0.018  10.001 -0.6933  0.4498  0.4126
 7013SOL    HW232502   4.486   0.163  10.001  0.1602 -0.2273 -0.0454
 7014SOL     OW32503   1.952   3.816   4.237  0.4457 -0.1221  0.5219
 7014SOL    HW132504   1.933   3.760   4.312 -0.8712  1.2849  1.2360
 7014SOL    HW232505   1.925   3.895   4.285 -1.6785 -0.5660  0.0752
 7015SOL     OW32506   0.072   2.910   8.413  0.0985 -0.0537 -0.3110
 7015SOL    HW132507   0.046   3.001   8.406 -0.7608 -0.3054 -0.4000
 7015SOL    HW232508   0.057   2.889   8.321  1.1270  0.1534 -0.5236
 7016SOL     OW32509   1.538   0.691   1.849 -1.0659  0.6549  0.1130
 7016SOL    HW132510   1.592   0.769   1.860 -1.7856  1.1026  0.5097
 7016SOL    HW232511   1.474   0.711   1.917 -2.2359 -0.1650 -0.7454
 7017SOL     OW32512   0.051   1.870  15.534 -0.3548  0.1727 -0.4318
 7017SOL    HW132513   0.022   1.812  15.463  0.3858  0.0076 -0.6031
 7017SOL    HW232514   4.723   1.947  15.526 -0.0085  0.6264  1.6172
 7018SOL     OW32515   4.402   3.264   5.540 -0.1887  0.0615 -0.5276
 7018SOL    HW132516   4.362   3.178   5.550  0.0848 -0.2540 -2.1015
 7018SOL    HW232517   4.398   3.271   5.445 -2.4934 -1.5429 -0.5453
 7019SOL     OW32518   4.327   0.587   5.067 -0.2264 -0.3501 -0.5952
 7019SOL    HW132519   4.260   0.584   5.135 -0.2609  2.7794 -0.4635
 7019SOL    HW232520   4.291   0.533   4.996  1.1949 -1.3414 -0.5583
 7020SOL     OW32521   2.533   4.226   2.095  0.2867  0.2972  0.4262
 7020SOL    HW132522   2.507   4.318   2.087 -1.0889 -0.0059  1.4486
 7020SOL    HW232523   2.624   4.220   2.064  0.8256 -1.2505  2.3546
 7021SOL     OW32524   0.729   4.570  13.533  0.6544  0.0085  0.6898
 7021SOL    HW132525   0.701   4.524  13.612 -2.7798  1.3255  0.2375
 7021SOL    HW232526   0.725   4.660  13.563  0.3117  0.0427  0.5402
 7022SOL     OW32527   1.675   2.887  10.430  0.2218 -0.1545  0.0039
 7022SOL    HW132528   1.645   2.842  10.509  1.7914 -1.9145 -0.3806
 7022SOL    HW232529   1.714   2.966  10.466  0.3665 -0.8966  1.4682
 7023SOL     OW32530   3.642   4.247  15.215 -0.4194 -0.4650  0.4637
 7023SOL    HW132531   3.673   4.162  15.248 -1.1395  0.2161  2.8899
 7023SOL    HW232532   3.717   4.269  15.160  0.0718 -1.5897  0.6635
 7024SOL     OW32533   0.038   3.919  17.515 -0.0972 -0.4156  0.1592
 7024SOL    HW132534   4.723   3.996  17.478 -0.9287 -0.2317  1.5079
 7024SOL    HW232535   0.100   3.954  17.580  0.3784  0.1148 -0.5748
 7025SOL     OW32536   0.305   4.082   5.305 -0.5340 -0.1729  0.7980
 7025SOL    HW132537   0.294   4.016   5.237  0.1657 -0.8557  1.3413
 7025SOL    HW232538   0.295   4.160   5.251  0.0149 -0.2717  0.5551
 7026SOL     OW32539   1.729   3.352   3.847  1.2826 -0.5277  0.4685
 7026SOL    HW132540   1.792   3.410   3.890  1.3599  0.6200 -1.1774
 7026SOL    HW232541   1.707   3.385   3.760  0.2646  0.0806  0.9484
 7027SOL     OW32542   3.568   0.313  12.004  0.7267 -0.1897 -0.2247
 7027SOL    HW132543   3.555   0.281  11.915 -2.1110 -0.5188  0.3299
 7027SOL    HW232544   3.483   0.293  12.043  1.6202 -1.6914  0.9344
 7028SOL     OW32545   2.095   0.660   5.577 -0.7475 -0.2416 -0.2200
 7028SOL    HW132546   2.025   0.594   5.577  0.2186 -1.3054  3.5687
 7028SOL    HW232547   2.146   0.626   5.503  2.0911  2.0166  0.6886
 7029SOL     OW32548   1.913   0.861   5.365  0.4010 -0.1510  0.0497
 7029SOL    HW132549   1.856   0.792   5.332  2.4478 -2.3671  1.1065
 7029SOL    HW232550   1.999   0.818   5.363  1.2789  1.7529 -2.8146
 7030SOL     OW32551   2.900   1.591   3.673  0.5578  0.3297 -0.2295
 7030SOL    HW132552   2.970   1.527   3.656  1.0005  0.7565 -0.0058
 7030SOL    HW232553   2.941   1.655   3.731 -0.6347  0.1078  0.8625
 7031SOL     OW32554   1.532   4.558  10.261  0.4623  0.8144  0.7309
 7031SOL    HW132555   1.538   4.526  10.351  1.2010 -1.7305 -0.2118
 7031SOL    HW232556   1.464   4.624  10.277 -2.3836 -1.9493  0.1124
 7032SOL     OW32557   1.509   3.636   1.867 -0.9084 -0.0656 -0.2074
 7032SOL    HW132558   1.464   3.692   1.930 -1.6197 -2.2470  1.2114
 7032SOL    HW232559   1.432   3.600   1.824 -2.1130  0.8705  1.1671
 7033SOL     OW32560   0.393   2.532   7.602 -0.0146 -0.3744 -0.1306
 7033SOL    HW132561   0.474   2.505   7.558  0.2258 -0.4010  0.3383
 7033SOL    HW232562   0.349   2.578   7.530  0.4071  0.7920  0.3603
 7034SOL     OW32563   4.191   3.914   2.719 -0.2218 -0.1344  0.3837
 7034SOL    HW132564   4.095   3.923   2.715 -0.0546  2.1311  1.0532
 7034SOL    HW232565   4.220   3.950   2.635 -0.8297  1.3103  0.7776
 7035SOL     OW32566   2.477   1.654   5.030 -0.5991  0.0066 -0.0269
 7035SOL    HW132567   2.381   1.655   5.031 -0.5970  0.9140 -0.6515
 7035SOL    HW232568   2.493   1.739   5.071  1.1404 -0.9915  1.3191
 7036SOL     OW32569   2.023   0.199   7.444 -0.0052 -0.2140 -0.3931
 7036SOL    HW132570   2.010   0.276   7.498 -0.3884 -0.5114 -0.0587
 7036SOL    HW232571   2.086   0.231   7.379  1.6169  1.0196  1.8238
 7037SOL     OW32572   3.134   2.724   7.001 -0.3135 -0.0162 -0.5153
 7037SOL    HW132573   3.172   2.812   7.010  1.3583 -0.9187  1.0803
 7037SOL    HW232574   3.074   2.735   6.927 -2.2391  1.1652  1.1943
 7038SOL     OW32575   3.240   2.511   4.126  0.1459 -0.3896  0.0397
 7038SOL    HW132576   3.301   2.557   4.183 -1.0445  0.3886  0.6786
 7038SOL    HW232577   3.231   2.423   4.162 -1.7073 -0.1317  0.2153
 7039SOL     OW32578   4.627   4.680   3.485 -0.1225 -0.1286 -0.4948
 7039SOL    HW132579   4.604   0.045   3.493  2.0552  0.4329 -0.4902
 7039SOL    HW232580   4.575   4.656   3.409 -1.1250  1.1032 -0.1886
 7040SOL     OW32581   2.335   0.977  11.054 -0.0053 -0.2655  0.1051
 7040SOL    HW132582   2.297   0.955  10.969 -2.9061 -0.1394  1.3782
 7040SOL    HW232583   2.263   0.970  11.117  0.3609 -1.6891  0.3684
 7041SOL     OW32584   4.082   1.675   2.406  0.1932 -0.1675  0.2296
 7041SOL    HW132585   4.134   1.755   2.408  0.9195 -0.6889  2.9075
 7041SOL    HW232586   4.149   1.609   2.385 -1.4996 -2.8009  3.0137
 7042SOL     OW32587   4.304   4.295   7.706  0.0456 -0.0406  0.4235
 7042SOL    HW132588   4.217   4.278   7.670 -0.1255  2.0781 -0.1468
 7042SOL    HW232589   4.333   4.356   7.639  1.1280  0.5364  1.4137
 7043SOL     OW32590   0.074   3.658   3.015 -0.6007  0.2162 -0.0931
 7043SOL    HW132591   0.110   3.747   3.017  0.2267 -0.1793  2.9578
 7043SOL    HW232592   4.717   3.673   2.972 -0.4614 -2.6025 -1.3595
 7044SOL     OW32593   1.665   3.112   4.888  0.1526 -0.4123  0.6846
 7044SOL    HW132594   1.584   3.117   4.836  1.3342  0.4401 -1.0727
 7044SOL    HW232595   1.672   3.199   4.925  0.3814 -0.9722  1.9504
 7045SOL     OW32596   0.647   2.016   6.016 -0.2585  0.4822  0.4792
 7045SOL    HW132597   0.643   2.045   6.107 -1.9520  4.0297 -0.7267
 7045SOL    HW232598   0.659   2.095   5.963 -0.1287  0.0563 -0.1346
 7046SOL     OW32599   2.345   4.233   5.011  0.3118  0.3546 -0.2018
 7046SOL    HW132600   2.354   4.155   5.064  1.4947  0.4824 -0.1955
 7046SOL    HW232601   2.255   4.231   4.978  0.3815 -0.0360 -0.3667
 7047SOL     OW32602   2.160   4.520  16.765 -0.4932  0.3707 -0.4442
 7047SOL    HW132603   2.107   4.534  16.843 -2.2112 -0.5290 -1.4534
 7047SOL    HW232604   2.095   4.475  16.710 -0.8982  0.5671 -0.1261
 7048SOL     OW32605   1.533   1.008   4.332 -0.4765 -0.5886  0.4539
 7048SOL    HW132606   1.584   0.941   4.378 -1.1657 -1.3479  0.1241
 7048SOL    HW232607   1.584   1.085   4.357  1.8533 -1.2640 -2.2132
 7049SOL     OW32608   3.188   3.994   6.927  0.6501 -0.1116 -0.4825
 7049SOL    HW132609   3.220   3.979   7.016 -0.8420  0.5391  0.1709
 7049SOL    HW232610   3.104   4.040   6.933  1.0511  0.4052  1.1549
 7050SOL     OW32611   2.415   3.556   5.335  0.3885  0.1812 -0.5665
 7050SOL    HW132612   2.471   3.553   5.412 -0.2009  0.4209 -0.1204
 7050SOL    HW232613   2.467   3.598   5.266  0.4244  0.7968 -0.1696
 7051SOL     OW32614   2.812   1.191   8.843  0.5945  0.0364 -0.6256
 7051SOL    HW132615   2.896   1.223   8.876 -0.5175  3.5946 -1.2683
 7051SOL    HW232616   2.758   1.218   8.917  0.2480  0.1569 -0.9263
 7052SOL     OW32617   4.382   4.592   8.286  0.1604  0.2058 -0.8287
 7052SOL    HW132618   4.375   4.599   8.381  0.6149  2.0379 -0.9179
 7052SOL    HW232619   4.413   4.501   8.282  0.9914  0.3984  1.1366
 7053SOL     OW32620   4.106   1.462   1.940 -0.4206 -0.4974 -0.1817
 7053SOL    HW132621   4.052   1.393   1.901 -1.7428 -0.2549  1.2032
 7053SOL    HW232622   4.185   1.409   1.952  0.0300 -0.2004 -1.9094
 7054SOL     OW32623   2.226   4.571   7.899  0.0210  1.1916 -0.3767
 7054SOL    HW132624   2.263   4.645   7.850  0.7845  1.4625  0.5983
 7054SOL    HW232625   2.291   4.506   7.873 -0.4503  0.8284 -0.6326
 7055SOL     OW32626   2.659   4.694   1.899 -0.0241  0.2456 -0.2987
 7055SOL    HW132627   2.564   4.693   1.909  0.1761  1.5371  1.7613
 7055SOL    HW232628   2.664   0.062   1.909 -1.9169  0.3626 -0.5723
 7056SOL     OW32629   0.896   3.512   6.539  0.2216 -0.0378 -0.6952
 7056SOL    HW132630   0.867   3.603   6.533  3.1267  0.8814 -0.5022
 7056SOL    HW232631   0.836   3.484   6.609  1.8084 -2.2386 -0.2417
 7057SOL     OW32632   3.384   2.038   9.744  0.0641  0.3579  0.2199
 7057SOL    HW132633   3.408   1.972   9.810  0.8614  0.1378 -0.2887
 7057SOL    HW232634   3.301   2.004   9.709 -0.7466  2.7990 -0.2115
 7058SOL     OW32635   0.300   4.707   8.223  0.2068 -0.2932  0.0684
 7058SOL    HW132636   0.254   4.626   8.204 -0.2634  0.1517 -0.6656
 7058SOL    HW232637   0.223   0.030   8.249  1.0361  0.7985  0.4126
 7059SOL     OW32638   4.604   0.233   7.847 -0.5523  0.6191 -0.0761
 7059SOL    HW132639   4.567   0.321   7.849 -0.3003  0.7097  0.6802
 7059SOL    HW232640   4.668   0.228   7.918 -0.6790 -0.5679 -0.0429
 7060SOL     OW32641   1.758   0.018   2.447 -0.3331 -0.5509  0.3688
 7060SOL    HW132642   1.680   0.025   2.502 -0.2363  0.5858  0.3614
 7060SOL    HW232643   1.780   4.654   2.462  2.9738 -0.1619 -2.1140
 7061SOL     OW32644   0.517   2.129   4.543  0.0244 -0.3162 -0.6463
 7061SOL    HW132645   0.423   2.144   4.532 -0.1569  0.0018  1.3378
 7061SOL    HW232646   0.517   2.097   4.633 -1.2892  3.0574  0.5505
 7062SOL     OW32647   0.533   2.687   2.098  0.2914  0.1226  0.1850
 7062SOL    HW132648   0.579   2.639   2.029 -0.4299  0.9173 -0.8637
 7062SOL    HW232649   0.532   2.625   2.170  0.3835  0.4448  0.4644
 7063SOL     OW32650   1.522   0.304   0.697 -0.0758 -0.0624  0.3297
 7063SOL    HW132651   1.600   0.357   0.678  1.0542 -1.5160  0.9136
 7063SOL    HW232652   1.520   0.293   0.792 -1.7047  1.6666  0.4987
 7064SOL     OW32653   3.859   2.688   1.718  0.5545  0.9240  0.4523
 7064SOL    HW132654   3.802   2.612   1.706 -0.8417  2.2026 -0.9946
 7064SOL    HW232655   3.800   2.733   1.778 -0.4830  1.7131 -1.1576
 7065SOL     OW32656   2.335   3.717  14.153  0.1241 -0.6097 -0.0663
 7065SOL    HW132657   2.396   3.681  14.089 -0.3345 -2.3536  0.4940
 7065SOL    HW232658   2.314   3.804  14.118  1.5846  0.0171  0.6382
 7066SOL     OW32659   3.832   2.728   3.920  0.0283 -0.4976  0.0787
 7066SOL    HW132660   3.796   2.691   4.000 -1.9135 -0.0060 -0.5751
 7066SOL    HW232661   3.756   2.744   3.864  1.3619 -0.6640 -1.7561
 7067SOL     OW32662   2.218   0.774   3.419 -0.0555 -0.5499 -0.0198
 7067SOL    HW132663   2.179   0.752   3.335  0.5105  0.8789 -0.6519
 7067SOL    HW232664   2.308   0.743   3.412  0.0401  0.3557 -2.5406
 7068SOL     OW32665   1.427   3.806   7.644 -0.1403  1.0799 -0.0297
 7068SOL    HW132666   1.412   3.822   7.551  2.4916  0.5064 -0.5375
 7068SOL    HW232667   1.435   3.711   7.642  0.7887  1.1853 -1.4431
 7069SOL     OW32668   3.343   3.150   7.260  0.0681 -0.5376 -0.0366
 7069SOL    HW132669   3.264   3.123   7.308 -0.5259 -1.0953 -1.3047
 7069SOL    HW232670   3.384   3.067   7.235 -0.0309 -0.8737  0.9131
 7070SOL     OW32671   1.526   4.405   7.269  0.1806  0.1057  0.7446
 7070SOL    HW132672   1.575   4.433   7.346  0.8731 -0.0426  0.3578
 7070SOL    HW232673   1.453   4.465   7.252  0.7697  0.9379  1.1579
 7071SOL     OW32674   1.499   1.764   5.845 -0.4429  0.5183 -0.4226
 7071SOL    HW132675   1.530   1.730   5.761  0.9135  0.3756  0.1311
 7071SOL    HW232676   1.508   1.856   5.818 -0.4233  1.2516  2.0392
 7072SOL     OW32677   1.526   2.610   0.573 -0.9463  0.6394 -0.3445
 7072SOL    HW132678   1.582   2.611   0.651 -1.3256 -3.2418 -0.0202
 7072SOL    HW232679   1.456   2.553   0.606 -1.0643 -0.2246 -2.0748
 7073SOL     OW32680   1.373   1.669   6.076  0.2889  0.3736  0.5371
 7073SOL    HW132681   1.415   1.710   6.001  2.3910  2.2285  2.7134
 7073SOL    HW232682   1.344   1.745   6.128 -0.2137  2.0092 -2.1469
 7074SOL     OW32683   1.665   0.724  11.997  0.5710  0.3045 -0.3870
 7074SOL    HW132684   1.703   0.642  12.028 -2.3671 -0.5370  1.0322
 7074SOL    HW232685   1.570   0.714  12.011  0.7463 -0.5312  0.2140
 7075SOL     OW32686   2.362   1.372   8.555  0.0661 -0.6686  0.0466
 7075SOL    HW132687   2.407   1.302   8.602  0.6657  1.2769  2.3778
 7075SOL    HW232688   2.274   1.370   8.593 -0.2345  1.2189 -0.5685
 7076SOL     OW32689   4.088   1.135  17.276 -0.6033 -0.0527  0.3402
 7076SOL    HW132690   4.065   1.071  17.209  3.6400  1.0576 -2.2241
 7076SOL    HW232691   4.099   1.213  17.221 -0.5056 -0.3483 -0.0623
 7077SOL     OW32692   3.451   1.443  13.627  0.1438 -0.2151 -0.7230
 7077SOL    HW132693   3.367   1.407  13.598 -0.3098  0.5780 -0.4172
 7077SOL    HW232694   3.443   1.444  13.723  3.0067 -2.1504 -0.4821
 7078SOL     OW32695   0.205   1.717   2.626  0.2659  0.1941 -0.1575
 7078SOL    HW132696   0.150   1.785   2.664 -2.3590  0.5525 -4.5870
 7078SOL    HW232697   0.216   1.746   2.535  1.2667  1.0618  0.2366
 7079SOL     OW32698   2.753   2.425  15.621 -0.3270 -0.1762  0.2395
 7079SOL    HW132699   2.750   2.521  15.616 -2.0996 -0.2398  0.0199
 7079SOL    HW232700   2.765   2.412  15.715 -1.2836 -0.3022  0.3372
 7080SOL     OW32701   0.622   1.949   5.292 -0.1106 -0.1364  0.6641
 7080SOL    HW132702   0.669   1.910   5.218 -0.4413  0.4769  0.1311
 7080SOL    HW232703   0.673   2.030   5.299 -0.3796  0.3576 -2.9247
 7081SOL     OW32704   4.528   3.205  16.670  0.4961 -0.5834 -0.1786
 7081SOL    HW132705   4.489   3.135  16.723 -0.0681  0.4017  0.7104
 7081SOL    HW232706   4.544   3.153  16.591 -0.6657  3.7808 -3.2535
 7082SOL     OW32707   0.133   0.413   8.619  0.0345  0.0009 -0.6687
 7082SOL    HW132708   0.048   0.368   8.611  0.4280 -0.4031 -2.6650
 7082SOL    HW232709   0.109   0.498   8.657 -0.8605 -1.0891  1.1793
 7083SOL     OW32710   3.196   1.834   7.463  0.1625 -0.1446 -0.1617
 7083SOL    HW132711   3.273   1.819   7.517  0.0226  0.8109  0.3014
 7083SOL    HW232712   3.162   1.911   7.508  1.5913  1.3498 -1.6817
 7084SOL     OW32713   1.775   1.004   2.324 -0.0309  0.0966  0.3616
 7084SOL    HW132714   1.844   1.053   2.279  0.7387  0.8486  2.3433
 7084SOL    HW232715   1.796   1.010   2.417 -1.3548 -0.2958  0.6848
 7085SOL     OW32716   2.314   0.061   4.950  0.0227  0.2600 -0.1097
 7085SOL    HW132717   2.230   0.105   4.966 -0.9177 -1.8743  0.8626
 7085SOL    HW232718   2.283   4.707   4.911 -2.7344  1.0389  0.4724
 7086SOL     OW32719   0.895   3.812   1.265 -0.3532 -0.0065 -0.2135
 7086SOL    HW132720   0.869   3.791   1.176  1.3530  1.2312 -1.0060
 7086SOL    HW232721   0.837   3.753   1.313 -0.5201 -0.5470 -1.1029
 7087SOL     OW32722   2.687   1.534   1.264 -0.2606  0.1327  0.2545
 7087SOL    HW132723   2.702   1.554   1.356  1.1944 -1.2462  0.3163
 7087SOL    HW232724   2.779   1.514   1.247 -0.3337  0.0015  0.0060
 7088SOL     OW32725   4.303   1.128   0.434  0.3233 -0.7802  0.2821
 7088SOL    HW132726   4.223   1.077   0.423 -0.7843  0.6491  1.7425
 7088SOL    HW232727   4.287   1.196   0.368 -1.9738 -1.0798  0.5172
 7089SOL     OW32728   0.098   4.331  14.137  0.1674 -0.0218  0.2997
 7089SOL    HW132729   0.132   4.374  14.216  3.0198  0.4117 -1.2050
 7089SOL    HW232730   0.180   4.302  14.098  0.9616 -0.5039  2.2928
 7090SOL     OW32731   2.506   2.491   4.723  0.3830 -0.2210 -0.4058
 7090SOL    HW132732   2.593   2.487   4.683  0.0057  1.1027 -1.3628
 7090SOL    HW232733   2.486   2.583   4.742  2.5927 -0.0009  0.9546
 7091SOL     OW32734   0.164   3.895  16.596  0.0390  1.1077 -0.0892
 7091SOL    HW132735   0.159   3.954  16.671 -0.1478 -1.0161  1.5876
 7091SOL    HW232736   0.089   3.837  16.611 -0.6096  1.9936  0.1096
 7092SOL     OW32737   3.041   1.603  13.892 -0.1768  0.4088 -0.0391
 7092SOL    HW132738   2.990   1.667  13.842  3.1206  2.3400 -0.8945
 7092SOL    HW232739   3.053   1.537  13.825  1.1310  0.3709  0.2398
 7093SOL     OW32740   0.156   3.668   8.770 -0.3242  0.1561  0.7554
 7093SOL    HW132741   0.196   3.647   8.854  0.2640  0.6376  0.5967
 7093SOL    HW232742   0.231   3.705   8.725  0.1023 -0.0110  1.3271
 7094SOL     OW32743   1.481   0.996   2.617 -0.1518 -0.3484 -0.1498
 7094SOL    HW132744   1.531   0.927   2.662 -1.3243 -2.3132 -1.8326
 7094SOL    HW232745   1.402   0.989   2.671  0.5122  3.1137  1.2613
 7095SOL     OW32746   4.206   3.112   6.159  0.6966  1.0043  0.0633
 7095SOL    HW132747   4.283   3.166   6.143  0.9479  0.0985 -1.7653
 7095SOL    HW232748   4.250   3.029   6.143  2.9047  1.9546  1.1563
 7096SOL     OW32749   0.491   3.892  15.553 -0.0334 -0.6003 -0.3850
 7096SOL    HW132750   0.531   3.971  15.515  0.0801 -0.4612  0.0213
 7096SOL    HW232751   0.447   3.941  15.623  0.9676  0.8608 -0.7605
 7097SOL     OW32752   2.270   1.580   3.035 -0.6822 -0.2791 -0.0017
 7097SOL    HW132753   2.259   1.615   2.947  0.7167 -1.0973 -0.5025
 7097SOL    HW232754   2.324   1.503   3.021  1.4220  1.5331 -1.8848
 7098SOL     OW32755   0.255   1.723   4.905  0.2754  0.0179  0.3742
 7098SOL    HW132756   0.165   1.744   4.883  0.2359 -0.4761  0.0508
 7098SOL    HW232757   0.247   1.713   5.000  0.2504  1.3991  0.5144
 7099SOL     OW32758   4.319   3.230  11.745 -0.2137 -0.4888 -0.7956
 7099SOL    HW132759   4.340   3.219  11.838 -1.0410  0.9124 -0.4434
 7099SOL    HW232760   4.307   3.140  11.715  0.4556 -1.1835  0.9996
 7100SOL     OW32761   4.224   0.525   2.854  0.2507  0.6970  0.0587
 7100SOL    HW132762   4.295   0.461   2.849  1.3415  1.9471 -0.5543
 7100SOL    HW232763   4.239   0.548   2.946  0.9169 -1.5709  0.5215
 7101SOL     OW32764   1.159   1.417   2.528 -0.2717 -0.3532 -0.1087
 7101SOL    HW132765   1.104   1.404   2.451  0.5878 -0.0772 -0.7760
 7101SOL    HW232766   1.215   1.341   2.509 -3.1926 -2.4336 -0.3746
 7102SOL     OW32767   3.755   0.067   4.586  0.1847 -0.0016  0.5158
 7102SOL    HW132768   3.768   0.026   4.500 -2.0587 -1.2279  0.7541
 7102SOL    HW232769   3.744   4.713   4.634 -2.4003 -0.3186 -0.5744
 7103SOL     OW32770   0.380   1.471   2.488 -0.6678 -0.1080 -0.2170
 7103SOL    HW132771   0.331   1.427   2.558 -0.9430  2.5944  1.2587
 7103SOL    HW232772   0.439   1.395   2.479  1.4486  1.3909  0.9337
 7104SOL     OW32773   4.442   2.078  12.029  0.0073 -0.2123 -0.2649
 7104SOL    HW132774   4.506   2.015  12.063  0.5404 -0.4875 -1.7426
 7104SOL    HW232775   4.388   2.097  12.105 -2.4752 -0.1589 -2.0279
 7105SOL     OW32776   2.244   1.668   1.987 -0.0068  0.1370  0.1288
 7105SOL    HW132777   2.295   1.689   1.908 -0.1062  1.5625  0.4324
 7105SOL    HW232778   2.199   1.586   1.969 -1.7270  0.9175  0.8458
 7106SOL     OW32779   0.896   1.560   7.372  0.1318 -0.2381  0.5517
 7106SOL    HW132780   0.878   1.597   7.459 -1.7115 -0.9861  0.4912
 7106SOL    HW232781   0.987   1.587   7.361  0.3982 -1.2178  0.3803
 7107SOL     OW32782   1.029   4.303   9.284  0.3223 -0.0747 -0.2653
 7107SOL    HW132783   1.052   4.265   9.198  0.7158 -2.1695  0.7653
 7107SOL    HW232784   1.065   4.391   9.274 -1.7326  0.7219 -0.4326
 7108SOL     OW32785   3.804   1.776  13.424 -0.1072  0.6277 -0.2771
 7108SOL    HW132786   3.893   1.748  13.403  0.4668  0.9775  1.6550
 7108SOL    HW232787   3.821   1.820  13.507  0.6325 -3.2834  1.6327
 7109SOL     OW32788   2.139   3.897  10.961  0.5094 -0.4304 -0.0420
 7109SOL    HW132789   2.089   3.979  10.964  2.2938  0.6970 -1.0077
 7109SOL    HW232790   2.097   3.850  11.033  1.5330 -3.2648 -1.3309
 7110SOL     OW32791   0.320   1.048   6.861 -0.3011  0.1569  0.1008
 7110SOL    HW132792   0.340   1.039   6.768  2.6896  1.1506  0.6291
 7110SOL    HW232793   0.367   0.973   6.898 -1.4736 -0.9539 -0.6804
 7111SOL     OW32794   4.431   0.465   4.352  0.0952 -0.1363 -0.0436
 7111SOL    HW132795   4.502   0.407   4.324  0.9181  0.8660 -0.0073
 7111SOL    HW232796   4.440   0.450   4.446 -0.7684 -1.8963 -0.2329
 7112SOL     OW32797   0.256   2.964  14.610 -0.4539  0.2142  0.2389
 7112SOL    HW132798   0.247   3.020  14.533  1.4863 -1.4810 -1.1870
 7112SOL    HW232799   0.167   2.929  14.610 -0.6359  0.6715  0.3089
 7113SOL     OW32800   2.239   2.833   6.937 -0.2934  0.0656  0.1824
 7113SOL    HW132801   2.324   2.870   6.961 -0.6540  1.3996 -0.5448
 7113SOL    HW232802   2.254   2.812   6.845 -0.8455  2.2920 -0.4258
 7114SOL     OW32803   3.871   2.367  16.554  0.2771  0.2599 -0.0037
 7114SOL    HW132804   3.830   2.282  16.541 -0.6764  0.4510  1.8019
 7114SOL    HW232805   3.812   2.427  16.509 -0.3475 -1.2663 -1.2126
 7115SOL     OW32806   0.067   2.800   6.236 -0.5851 -0.0070 -0.0464
 7115SOL    HW132807   0.006   2.726   6.236  0.3391 -0.7536  0.6164
 7115SOL    HW232808   0.088   2.806   6.143 -1.0024  1.8212 -0.0235
 7116SOL     OW32809   0.107   2.579  12.674  0.1605  0.0240  0.0582
 7116SOL    HW132810   0.047   2.507  12.656 -1.2944  1.1371  0.4950
 7116SOL    HW232811   0.063   2.623  12.747  0.3566  0.6436 -0.2002
 7117SOL     OW32812   0.991   4.464  12.551 -0.0869 -0.2384  0.3218
 7117SOL    HW132813   1.029   4.391  12.600 -1.0109 -0.5451  0.5639
 7117SOL    HW232814   1.015   4.549  12.589 -1.4458  1.1387 -1.8979
 7118SOL     OW32815   4.428   1.882   0.136  0.3649  0.0761  0.9201
 7118SOL    HW132816   4.349   1.844   0.175  0.7976 -2.2112 -0.4657
 7118SOL    HW232817   4.465   1.804   0.097 -0.0085  0.0883  0.5370
 7119SOL     OW32818   3.755   4.511   7.516 -0.5790  0.3891 -0.1341
 7119SOL    HW132819   3.676   4.527   7.567 -0.4049  0.0342  0.2472
 7119SOL    HW232820   3.785   4.430   7.558 -2.1092 -0.6360 -1.0279
 7120SOL     OW32821   1.575   2.222   8.239 -0.0688  0.4067 -0.1984
 7120SOL    HW132822   1.660   2.179   8.228  0.3040  0.8289  1.0110
 7120SOL    HW232823   1.577   2.283   8.164  1.3585  0.5997 -0.0028
 7121SOL     OW32824   0.000   2.848   7.041 -0.1962  0.1345 -0.3723
 7121SOL    HW132825   4.660   2.822   6.979 -0.0412  1.2222 -1.0065
 7121SOL    HW232826   0.072   2.883   6.988  1.5465  0.5039  2.2143
 7122SOL     OW32827   0.792   3.672   2.143  0.1685 -0.8159 -0.1861
 7122SOL    HW132828   0.720   3.621   2.182 -1.2584 -0.1481 -1.9722
 7122SOL    HW232829   0.777   3.757   2.186 -0.1478 -0.8553 -0.2205
 7123SOL     OW32830   1.992   4.179  15.044 -0.3567 -0.1178 -0.2621
 7123SOL    HW132831   1.953   4.214  14.964 -1.6168  1.0296  0.8494
 7123SOL    HW232832   1.916   4.138  15.084 -0.4510  1.3667  1.0769
 7124SOL     OW32833   1.893   1.840   3.967 -0.2472 -0.5490 -0.1530
 7124SOL    HW132834   1.807   1.882   3.972  1.0599  2.1229 -0.1182
 7124SOL    HW232835   1.953   1.913   3.979 -0.3600 -0.4589 -0.1317
 7125SOL     OW32836   1.968   2.343   8.507 -0.1452  0.1546  0.5637
 7125SOL    HW132837   1.996   2.386   8.426 -1.3288 -1.9508 -0.9484
 7125SOL    HW232838   2.048   2.304   8.542  0.9169 -0.0090 -1.9882
 7126SOL     OW32839   2.259   0.439   2.648 -0.0425  0.2553 -0.2400
 7126SOL    HW132840   2.280   0.402   2.733 -3.0151  0.4397  0.5796
 7126SOL    HW232841   2.330   0.407   2.592 -0.3156  0.0013 -0.4445
 7127SOL     OW32842   0.458   0.140   3.670  0.6350  0.3719  0.2485
 7127SOL    HW132843   0.499   0.053   3.679  0.8256  0.6217  1.7843
 7127SOL    HW232844   0.369   0.114   3.694  0.4954  1.3823  0.7794
 7128SOL     OW32845   4.101   1.899  15.528  0.1387  0.3497 -0.0918
 7128SOL    HW132846   4.010   1.927  15.512  0.1811  2.3679  3.2883
 7128SOL    HW232847   4.082   1.810  15.558 -0.2815 -0.2868 -2.2518
 7129SOL     OW32848   3.360   1.189  10.197 -0.3098 -0.1705 -0.0919
 7129SOL    HW132849   3.407   1.105  10.195  1.6897  0.9378  0.8211
 7129SOL    HW232850   3.300   1.178  10.123 -0.5173  1.0290 -0.1042
 7130SOL     OW32851   3.394   1.580   4.617  0.4058  0.0688 -0.0304
 7130SOL    HW132852   3.460   1.639   4.653 -0.5376  0.4417  1.0626
 7130SOL    HW232853   3.440   1.534   4.547 -1.5145 -1.0355 -0.5630
 7131SOL     OW32854   4.251   2.004   6.693 -0.1209  0.2637  0.1256
 7131SOL    HW132855   4.195   2.059   6.748 -1.3420  0.9983 -1.8407
 7131SOL    HW232856   4.195   2.004   6.615 -2.2451  0.7020  1.6595
 7132SOL     OW32857   2.863   4.396  14.332 -0.1309  0.3204  0.1489
 7132SOL    HW132858   2.861   4.302  14.347 -1.5427  0.7660  2.8432
 7132SOL    HW232859   2.940   4.408  14.276 -0.6267 -2.4256 -1.0839
 7133SOL     OW32860   3.467   0.123   2.873  0.7376 -0.0034  0.4731
 7133SOL    HW132861   3.437   0.211   2.850 -0.0103 -0.6004 -0.8370
 7133SOL    HW232862   3.410   0.109   2.949  0.8561  0.2656  0.6139
 7134SOL     OW32863   0.358   0.355   8.153  0.5788  0.8553  0.2637
 7134SOL    HW132864   0.327   0.313   8.072 -1.8661  1.2114  1.0127
 7134SOL    HW232865   0.275   0.359   8.201 -1.2435 -0.4635 -2.7605
 7135SOL     OW32866   1.741   4.470   2.520  0.6031  0.2895 -0.5414
 7135SOL    HW132867   1.649   4.460   2.493  0.8191 -0.2171 -1.0927
 7135SOL    HW232868   1.748   4.395   2.579 -1.2561  1.0156  0.6163
 7136SOL     OW32869   2.986   2.722  17.568 -0.5540  0.0159  0.0122
 7136SOL    HW132870   2.996   2.817  17.563 -1.5185  0.0313 -1.7381
 7136SOL    HW232871   2.982   2.696  17.476  0.1844 -0.0904  0.0145
 7137SOL     OW32872   0.281   3.892   6.943  0.2975  0.4105 -0.2104
 7137SOL    HW132873   0.320   3.836   7.010 -1.2099 -0.9822 -0.5255
 7137SOL    HW232874   0.352   3.901   6.879  2.0828 -1.4326  1.5091
 7138SOL     OW32875   1.171   4.262   5.038  0.8934  0.1245 -0.5376
 7138SOL    HW132876   1.100   4.235   4.980  0.5182  2.7513 -1.3319
 7138SOL    HW232877   1.193   4.180   5.081  1.5212  1.5553  1.9093
 7139SOL     OW32878   1.259   3.724   3.569 -0.2479  0.1023 -0.0238
 7139SOL    HW132879   1.289   3.750   3.482 -0.4381  1.6480  0.3848
 7139SOL    HW232880   1.332   3.708   3.629 -1.0854 -0.7100  0.7897
 7140SOL     OW32881   3.170   0.312   2.428 -0.2043 -0.2665  0.0070
 7140SOL    HW132882   3.075   0.308   2.430 -0.2399  0.7511  0.4453
 7140SOL    HW232883   3.199   0.310   2.519 -0.2630 -1.0436  0.0086
 7141SOL     OW32884   2.514   0.833   2.161  0.0416 -0.4286  0.8363
 7141SOL    HW132885   2.457   0.903   2.129 -0.2553 -0.3835  1.4624
 7141SOL    HW232886   2.513   0.864   2.251  0.4479  0.9743  0.3585
 7142SOL     OW32887   3.677   2.888   8.305  0.7043  0.0126  0.0472
 7142SOL    HW132888   3.614   2.952   8.337 -0.4567 -0.5895 -1.0303
 7142SOL    HW232889   3.751   2.909   8.362  0.1157 -0.1914  0.8857
 7143SOL     OW32890   1.026   0.692  16.907  0.0854  0.1039 -0.0334
 7143SOL    HW132891   1.022   0.783  16.878 -0.0951  0.3675  0.8115
 7143SOL    HW232892   0.963   0.695  16.979  1.7597 -0.4687  1.4577
 7144SOL     OW32893   1.094   0.258   6.830 -0.4799 -0.6523 -0.1095
 7144SOL    HW132894   1.113   0.337   6.779 -0.8509 -0.0515  0.6738
 7144SOL    HW232895   1.076   0.292   6.918  2.3971 -3.0728  1.4056
 7145SOL     OW32896   0.708   4.341   6.173  0.2494  0.0287 -0.1234
 7145SOL    HW132897   0.752   4.257   6.182 -1.9553 -0.9397  1.4622
 7145SOL    HW232898   0.767   4.399   6.221  1.7874 -1.5245 -0.1534
 7146SOL     OW32899   2.910   0.569   2.215  0.0798 -0.3737 -0.4512
 7146SOL    HW132900   2.882   0.617   2.137  3.2808 -0.4101 -1.5859
 7146SOL    HW232901   2.870   0.484   2.195 -2.7325  0.7220  0.4223
 7147SOL     OW32902   3.205   2.554   3.680  0.3684 -0.0385 -0.0718
 7147SOL    HW132903   3.293   2.546   3.642 -0.3088 -3.9464 -0.8152
 7147SOL    HW232904   3.175   2.637   3.644 -0.7863  0.0358  1.0509
 7148SOL     OW32905   0.217   1.839   0.884  0.3081  0.0719  0.2815
 7148SOL    HW132906   0.130   1.831   0.843 -0.7140  0.1273  2.4663
 7148SOL    HW232907   0.185   1.845   0.974 -0.1808 -0.5786  0.1547
 7149SOL     OW32908   0.787   0.330   6.998 -0.6461 -0.1932 -0.4034
 7149SOL    HW132909   0.731   0.344   6.922  0.8657  0.6183 -1.3672
 7149SOL    HW232910   0.775   0.413   7.045 -0.9117 -0.0596 -0.7032
 7150SOL     OW32911   4.618   0.252  13.609 -0.4293 -0.1546  0.0724
 7150SOL    HW132912   4.565   0.180  13.575  1.4863  0.2716 -3.8437
 7150SOL    HW232913   4.580   0.277  13.693 -2.5981 -0.9019 -0.6905
 7151SOL     OW32914   1.110   3.149  11.212 -0.3715  0.0822 -0.0454
 7151SOL    HW132915   1.141   3.211  11.146 -1.6922  0.5306 -0.2544
 7151SOL    HW232916   1.189   3.099  11.230  1.8474  2.9804 -1.8547
 7152SOL     OW32917   0.138   0.380   6.813  0.4830  0.3626 -0.3778
 7152SOL    HW132918   0.197   0.309   6.787  0.5730 -0.2363  1.4333
 7152SOL    HW232919   0.070   0.322   6.849  2.6912 -1.8179  0.2944
 7153SOL     OW32920   3.037   4.266   7.064  0.1381 -0.5171 -0.2189
 7153SOL    HW132921   3.115   4.254   7.118 -0.8040  0.8618  1.4372
 7153SOL    HW232922   3.018   4.180   7.027 -0.9893 -0.4899  0.2903
 7154SOL     OW32923   1.586   2.487   3.220  0.2067  0.2158 -0.1240
 7154SOL    HW132924   1.594   2.440   3.137 -1.0608  1.3640 -0.8999
 7154SOL    HW232925   1.655   2.447   3.273  0.1455  0.3737  0.0737
 7155SOL     OW32926   0.209   0.393   4.659 -0.4663  0.4148  0.1356
 7155SOL    HW132927   0.172   0.403   4.572 -0.7151  0.2182  0.2196
 7155SOL    HW232928   0.181   0.473   4.704  1.8106  1.2249  0.1400
 7156SOL     OW32929   4.449   0.955   7.244 -0.3975 -0.2517  0.3585
 7156SOL    HW132930   4.444   0.998   7.159 -2.2052  2.3015  1.7499
 7156SOL    HW232931   4.395   0.877   7.230 -0.2691 -0.3144  0.2202
 7157SOL     OW32932   4.512   1.017   6.659  0.0429  0.3081 -0.2316
 7157SOL    HW132933   4.569   0.950   6.696  0.9311  1.0173 -0.2990
 7157SOL    HW232934   4.529   1.090   6.719 -3.4049 -1.0839  2.4302
 7158SOL     OW32935   1.245   2.506   6.845 -0.1896 -0.3157 -0.2236
 7158SOL    HW132936   1.254   2.567   6.918 -1.9887  0.8219 -0.9583
 7158SOL    HW232937   1.169   2.457   6.876  0.6739 -0.2827  1.9837
 7159SOL     OW32938   2.852   2.840  16.079  0.5616  0.3353 -0.3603
 7159SOL    HW132939   2.889   2.917  16.035 -1.0766  1.2867 -0.0891
 7159SOL    HW232940   2.816   2.884  16.156  3.3515 -2.5305  2.5630
 7160SOL     OW32941   3.750   2.268   6.358 -0.2527  0.0682  0.3673
 7160SOL    HW132942   3.676   2.207   6.359 -0.6788  0.5864  0.1321
 7160SOL    HW232943   3.729   2.336   6.295 -1.3715  0.9615  1.7024
 7161SOL     OW32944   3.355   0.058   1.582 -0.0733  0.0525 -0.2173
 7161SOL    HW132945   3.296   0.125   1.616  0.3254 -0.0027  0.5885
 7161SOL    HW232946   3.345   4.709   1.639  0.9644  0.2754  0.2798
 7162SOL     OW32947   4.317   3.020   5.500 -0.3497 -0.1333 -0.5453
 7162SOL    HW132948   4.320   2.998   5.407 -0.0067  1.5624 -0.9383
 7162SOL    HW232949   4.259   2.951   5.532 -0.5625  1.3993  2.3608
 7163SOL     OW32950   0.113   4.273   3.010  0.3319  0.4245  0.1446
 7163SOL    HW132951   0.064   4.199   2.974  1.1182  0.2961 -0.6582
 7163SOL    HW232952   0.109   4.254   3.104 -1.1841  0.9003  0.1775
 7164SOL     OW32953   1.691   4.574  10.005  0.5897  0.1457 -0.6700
 7164SOL    HW132954   1.598   4.596   9.999  0.5099 -0.0390 -0.1129
 7164SOL    HW232955   1.732   4.660  10.019  4.3073 -1.6520 -0.5354
 7165SOL     OW32956   1.635   3.594   9.092  0.2678  0.0102 -0.3675
 7165SOL    HW132957   1.715   3.543   9.080 -0.7861 -1.2937 -1.9183
 7165SOL    HW232958   1.643   3.653   9.017  1.0615 -0.7846 -0.8955
 7166SOL     OW32959   1.534   0.996   0.357  0.3881  0.4517  0.3577
 7166SOL    HW132960   1.520   0.902   0.360  1.7443  0.1844 -1.7640
 7166SOL    HW232961   1.629   1.006   0.354  0.2430  1.8094  0.0011
 7167SOL     OW32962   1.931   3.150   2.643 -0.4404 -0.1009 -0.4726
 7167SOL    HW132963   2.016   3.190   2.624 -1.3557  2.2161  0.3537
 7167SOL    HW232964   1.953   3.122   2.732  1.4353  1.7235 -0.3529
 7168SOL     OW32965   2.499   0.738   8.624 -0.2017  0.1983 -0.9735
 7168SOL    HW132966   2.476   0.663   8.569  1.0592 -1.6579  1.0623
 7168SOL    HW232967   2.572   0.697   8.670 -0.4929  1.8481  0.9402
 7169SOL     OW32968   0.843   0.640  11.616  0.0317 -0.2135 -0.6010
 7169SOL    HW132969   0.807   0.651  11.528  0.0277 -0.5307 -0.6399
 7169SOL    HW232970   0.765   0.620  11.668 -0.0319 -0.3086 -0.7333
 7170SOL     OW32971   4.548   3.491   5.686  0.0698 -0.2712  0.0274
 7170SOL    HW132972   4.620   3.533   5.638 -1.8409  3.0225  0.0808
 7170SOL    HW232973   4.510   3.429   5.623 -2.9392  2.0073 -0.3981
 7171SOL     OW32974   1.408   1.525   4.360 -0.2025 -0.1080 -0.2832
 7171SOL    HW132975   1.321   1.501   4.328 -1.2295  1.3617  1.3813
 7171SOL    HW232976   1.436   1.441   4.396  3.5321  1.8591  1.4218
 7172SOL     OW32977   0.921   3.731  10.230  0.2382 -0.0623  0.3952
 7172SOL    HW132978   0.924   3.701  10.321 -1.1911  1.6305  1.0160
 7172SOL    HW232979   0.867   3.810  10.238  0.1958 -0.0220 -0.3137
 7173SOL     OW32980   1.472   3.968   9.639  0.2347 -0.0457  0.8548
 7173SOL    HW132981   1.563   3.970   9.610  0.2331 -2.2039  0.7182
 7173SOL    HW232982   1.479   4.021   9.718 -0.2533  3.9720 -1.7752
 7174SOL     OW32983   2.652   2.838   5.197  1.2092  0.3776 -0.4068
 7174SOL    HW132984   2.577   2.886   5.162 -0.9087 -2.1467  0.6576
 7174SOL    HW232985   2.714   2.906   5.222  0.4098  0.3847  1.6137
 7175SOL     OW32986   1.123   3.954   9.808  0.0836 -0.1140 -0.1220
 7175SOL    HW132987   1.071   3.922   9.881  0.2265 -0.0878 -0.0077
 7175SOL    HW232988   1.205   3.952   9.857  0.2746  1.2134 -0.3901
 7176SOL     OW32989   1.170   2.524   6.588  0.2882 -0.0796 -0.8768
 7176SOL    HW132990   1.207   2.526   6.676 -0.8144 -0.8341 -0.3898
 7176SOL    HW232991   1.161   2.615   6.562  2.9369  0.7383  1.1287
 7177SOL     OW32992   4.444   4.189   3.187 -0.0601  0.3873 -0.3011
 7177SOL    HW132993   4.487   4.166   3.105  0.0146  1.3548 -0.5367
 7177SOL    HW232994   4.458   4.283   3.192  0.5063  0.1743  2.2168
 7178SOL     OW32995   3.572   2.272   8.657 -0.0741 -0.1634  0.2839
 7178SOL    HW132996   3.577   2.265   8.752  0.2977  0.7393  0.3298
 7178SOL    HW232997   3.479   2.284   8.638  0.4034  1.0712 -1.2124
 7179SOL     OW32998   2.733   1.096   2.710  0.2643  0.0471 -0.7071
 7179SOL    HW132999   2.786   1.085   2.631  1.4588 -0.7979  0.2091
 7179SOL    HW233000   2.788   1.165   2.748 -0.5569  1.4668 -2.1105
 7180SOL     OW33001   3.485   2.826   2.640 -0.6653 -0.2922  0.3014
 7180SOL    HW133002   3.439   2.898   2.683 -0.0954  1.0791 -1.3573
 7180SOL    HW233003   3.408   2.772   2.621  0.3149 -1.9896  1.1127
 7181SOL     OW33004   0.913   4.436   7.513 -0.0186  0.3478 -0.6290
 7181SOL    HW133005   0.837   4.385   7.539 -1.5906  3.5672  1.1601
 7181SOL    HW233006   0.888   4.472   7.428  2.7229  1.7682 -0.8385
 7182SOL     OW33007   0.728   3.591  16.830 -0.1453  0.4551 -0.2369
 7182SOL    HW133008   0.699   3.616  16.742  3.0284  0.8189 -1.1988
 7182SOL    HW233009   0.820   3.573  16.809  0.2391  0.6653  1.2705
 7183SOL     OW33010   2.010   3.338   6.964 -0.0187 -0.1065 -0.5005
 7183SOL    HW133011   2.051   3.252   6.953 -1.3334 -0.6560 -1.1039
 7183SOL    HW233012   1.950   3.324   7.037  2.0344  1.4140  1.4467
 7184SOL     OW33013   0.783   4.724   3.056  0.6758  0.3820 -0.1688
 7184SOL    HW133014   0.703   0.010   3.106 -1.4242 -0.2228 -3.3506
 7184SOL    HW233015   0.848   0.034   3.116  0.7003 -2.4281  1.5866
 7185SOL     OW33016   0.215   1.068   5.661 -0.2098  0.2394  0.0664
 7185SOL    HW133017   0.286   1.124   5.692  0.4717  0.5404 -2.0111
 7185SOL    HW233018   0.146   1.102   5.717  0.1522  0.0631  0.6189
 7186SOL     OW33019   3.699   0.888   7.221 -0.1532  0.1560 -0.1582
 7186SOL    HW133020   3.759   0.821   7.252  0.9070 -0.1698 -2.8843
 7186SOL    HW233021   3.761   0.961   7.228 -0.4175  0.5142 -1.4741
 7187SOL     OW33022   2.911   1.175   5.855  0.0681  0.2537 -0.4596
 7187SOL    HW133023   2.818   1.157   5.841 -0.4019  0.9596  1.6888
 7187SOL    HW233024   2.943   1.123   5.929 -1.0949 -0.8688 -0.7422
 7188SOL     OW33025   2.250   3.288  16.693  0.1587  0.1919  0.8172
 7188SOL    HW133026   2.214   3.270  16.780  1.7900 -3.5856  0.6777
 7188SOL    HW233027   2.343   3.273  16.708  0.8208  2.6266 -0.8364
 7189SOL     OW33028   2.600   1.755   1.154  0.3674  0.0777 -0.4318
 7189SOL    HW133029   2.617   1.728   1.064 -1.5319 -0.4207 -0.6423
 7189SOL    HW233030   2.620   1.679   1.209  0.0690  0.8687  0.7794
 7190SOL     OW33031   3.077   4.068   9.053 -0.5247 -0.1641 -0.2767
 7190SOL    HW133032   3.006   4.103   9.108 -0.3169  0.0606 -0.1501
 7190SOL    HW233033   3.142   4.062   9.122  0.9494 -0.1058 -1.6728
 7191SOL     OW33034   0.963   0.830   8.117 -0.4273  0.2711 -0.1278
 7191SOL    HW133035   0.945   0.900   8.054  0.0297 -1.1295 -1.8111
 7191SOL    HW233036   0.876   0.792   8.127 -0.1891 -0.3609 -0.4363
 7192SOL     OW33037   4.115   0.140   9.970 -0.4165  0.2917 -0.4335
 7192SOL    HW133038   4.192   0.195   9.983  0.1231 -0.9977  1.6942
 7192SOL    HW233039   4.124   0.077  10.042  0.5477 -0.1666 -0.9507
 7193SOL     OW33040   0.927   2.608   1.871 -0.3626  0.3861  0.1233
 7193SOL    HW133041   0.947   2.676   1.936  1.6411 -2.3582  2.3376
 7193SOL    HW233042   0.845   2.575   1.909 -1.7712  1.2879 -2.0910
 7194SOL     OW33043   4.112   2.053  11.637 -0.0244 -0.6162 -0.2696
 7194SOL    HW133044   4.135   2.098  11.556  0.1420 -2.5129 -1.2812
 7194SOL    HW233045   4.194   2.013  11.667 -0.6856 -1.7285  0.0818
 7195SOL     OW33046   1.815   0.665   2.472  0.3226  0.1343  0.1628
 7195SOL    HW133047   1.829   0.653   2.378 -2.8383  2.7089 -0.6562
 7195SOL    HW233048   1.876   0.603   2.512  0.2388 -0.2562 -0.3128
 7196SOL     OW33049   3.945   2.036   2.262  0.5779 -0.0134 -0.4805
 7196SOL    HW133050   4.019   2.010   2.318  1.2604  0.0000 -1.3904
 7196SOL    HW233051   3.938   1.973   2.190 -0.1287 -1.2334  0.6420
 7197SOL     OW33052   1.499   4.013   8.009 -0.3360 -0.7130  0.9489
 7197SOL    HW133053   1.522   3.959   8.084  1.5022  0.0985  0.9495
 7197SOL    HW233054   1.563   4.084   8.013 -1.1341  0.0471  0.3362
 7198SOL     OW33055   2.308   2.027   7.931 -0.7362  0.3558  0.2061
 7198SOL    HW133056   2.233   1.990   7.885  0.0664 -0.6209 -0.3177
 7198SOL    HW233057   2.370   1.954   7.936 -0.3627  0.5539 -1.3642
 7199SOL     OW33058   4.056   3.043   3.435  0.3701  0.2941 -0.0137
 7199SOL    HW133059   3.991   3.059   3.502 -0.4802  0.4554 -0.8793
 7199SOL    HW233060   4.038   3.114   3.374 -0.1160 -0.6139 -0.9279
 7200SOL     OW33061   1.216   3.616   3.161 -0.2241 -0.4345  0.1358
 7200SOL    HW133062   1.218   3.542   3.221 -0.7151  0.3179  1.0709
 7200SOL    HW233063   1.252   3.573   3.083 -0.8585 -2.2616  0.8381
 7201SOL     OW33064   4.574   0.412   5.301  0.4389 -0.5827  0.2708
 7201SOL    HW133065   4.668   0.419   5.283 -0.0691  1.8044 -1.4820
 7201SOL    HW233066   4.554   0.497   5.340 -1.1986 -1.1265  0.6309
 7202SOL     OW33067   1.900   2.171   8.217  0.1115 -1.0216  0.1294
 7202SOL    HW133068   1.898   2.266   8.224 -0.4668 -0.9931 -0.4437
 7202SOL    HW233069   1.956   2.157   8.141  0.1341  2.7179 -0.5464
 7203SOL     OW33070   3.553   3.579   2.083 -0.1854  0.3482 -0.3564
 7203SOL    HW133071   3.629   3.637   2.078  0.1239  0.0415  0.6785
 7203SOL    HW233072   3.591   3.512   2.025  1.5052  0.0199  1.1329
 7204SOL     OW33073   1.488   1.246  11.962 -0.1659  0.8947  0.4222
 7204SOL    HW133074   1.430   1.308  11.919 -1.9309 -1.6709 -0.8528
 7204SOL    HW233075   1.426   1.201  12.020 -1.4699  3.4183  0.9676
 7205SOL     OW33076   0.630   1.844   8.257  0.3313  0.1608 -0.0781
 7205SOL    HW133077   0.664   1.797   8.333 -0.0020  0.8702  0.5149
 7205SOL    HW233078   0.683   1.923   8.270 -1.1479  1.3130 -1.0589
 7206SOL     OW33079   0.107   1.570  11.992 -0.2883  0.7271 -0.0918
 7206SOL    HW133080   0.129   1.532  12.077 -1.2577  1.8539  0.6658
 7206SOL    HW233081   0.193   1.594  11.959 -0.8659  0.0575 -2.0387
 7207SOL     OW33082   4.541   4.112   5.884  0.2628 -0.0681  0.1791
 7207SOL    HW133083   4.561   4.030   5.930 -1.2392  0.4940  1.8589
 7207SOL    HW233084   4.533   4.074   5.797  0.6444 -1.1208  0.5882
 7208SOL     OW33085   4.352   2.145   4.858 -0.4559  0.5776  0.5228
 7208SOL    HW133086   4.354   2.241   4.852  0.2506  0.6373  1.9755
 7208SOL    HW233087   4.408   2.135   4.934 -1.2585 -1.8766  0.8014
 7209SOL     OW33088   4.173   0.383   7.817 -0.1939  0.4209  0.4467
 7209SOL    HW133089   4.096   0.425   7.778 -1.2957 -0.6076  1.5157
 7209SOL    HW233090   4.186   0.311   7.755 -1.3476  2.6066 -2.3357
 7210SOL     OW33091   1.907   1.014   2.559  0.0192  0.6001 -0.0003
 7210SOL    HW133092   1.923   0.956   2.633 -1.9473  1.1362  0.8115
 7210SOL    HW233093   1.907   1.100   2.601 -2.0848  1.4009 -1.6402
 7211SOL     OW33094   4.139   0.694   8.397 -0.3517  0.1231 -0.0356
 7211SOL    HW133095   4.185   0.630   8.343  1.4650 -0.4021  2.1051
 7211SOL    HW233096   4.064   0.639   8.421  1.7264 -2.6909 -0.0900
 7212SOL     OW33097   4.431   2.683   0.204  0.2785 -0.4990  0.1985
 7212SOL    HW133098   4.480   2.603   0.222  0.8283  0.0866  1.3379
 7212SOL    HW233099   4.466   2.738   0.275  1.5658 -1.5982  0.4145
 7213SOL     OW33100   1.216   0.187   8.943  0.3013 -0.1415 -0.1956
 7213SOL    HW133101   1.239   0.141   8.862 -0.3357 -0.6906 -0.0659
 7213SOL    HW233102   1.233   0.277   8.917  2.6938 -0.1510  1.3241
 7214SOL     OW33103   0.492   0.633  13.695 -0.1141 -0.1881 -0.4261
 7214SOL    HW133104   0.556   0.634  13.766  0.3795 -1.6927 -0.8565
 7214SOL    HW233105   0.515   0.557  13.642 -0.9558 -1.7847  1.5100
 7215SOL     OW33106   3.188   1.812  16.771 -0.5388 -0.2350 -0.1567
 7215SOL    HW133107   3.132   1.858  16.708  0.0323 -0.1970 -0.6239
 7215SOL    HW233108   3.123   1.768  16.826 -1.6075 -0.5219 -1.6759
 7216SOL     OW33109   2.218   1.350   3.319  0.2683  0.1965  0.1152
 7216SOL    HW133110   2.160   1.320   3.389  2.7322 -1.2244  1.5525
 7216SOL    HW233111   2.302   1.334   3.362  0.7788  1.4305 -0.4284
 7217SOL     OW33112   1.471   1.924   5.180 -0.1512 -0.5151  0.2296
 7217SOL    HW133113   1.403   1.859   5.198 -1.1226  0.5241  0.3095
 7217SOL    HW233114   1.498   1.909   5.090 -1.2761 -0.3964 -0.1227
 7218SOL     OW33115   4.162   2.591   8.205  0.4941 -0.0372 -0.2460
 7218SOL    HW133116   4.129   2.613   8.117  2.4957  0.9476 -0.7423
 7218SOL    HW233117   4.083   2.552   8.243 -0.0745  2.9264  1.5925
 7219SOL     OW33118   1.005   2.706   6.234  0.0513  0.2053  0.3507
 7219SOL    HW133119   0.949   2.656   6.175 -2.3036  1.1555  1.7623
 7219SOL    HW233120   1.010   2.788   6.185  0.9461 -0.1961 -0.2134
 7220SOL     OW33121   1.459   2.178   2.841  0.7668 -0.0114 -0.0721
 7220SOL    HW133122   1.381   2.134   2.808  0.5984 -0.6291  1.1623
 7220SOL    HW233123   1.524   2.165   2.771  2.3843 -3.3020  2.0650
 7221SOL     OW33124   2.700   2.720   9.681 -0.6065 -0.4296 -0.4606
 7221SOL    HW133125   2.738   2.647   9.731 -3.5923 -1.1244  0.7790
 7221SOL    HW233126   2.780   2.763   9.651 -0.0212 -0.2831  1.3178
 7222SOL     OW33127   3.172   0.514   7.459  0.0528 -0.1085 -0.3907
 7222SOL    HW133128   3.177   0.568   7.380  1.1056 -0.3446 -0.4930
 7222SOL    HW233129   3.247   0.548   7.508 -0.5393  0.6043  0.0101
 7223SOL     OW33130   3.983   0.486   8.499  0.3428 -0.2299  0.3574
 7223SOL    HW133131   4.040   0.485   8.575  0.0189  2.7105  0.6448
 7223SOL    HW233132   3.902   0.524   8.533  0.9285 -0.0634  1.5569
 7224SOL     OW33133   2.486   1.338   3.389  0.1553 -0.0812 -0.1366
 7224SOL    HW133134   2.548   1.265   3.389  0.4924  0.2050 -1.3516
 7224SOL    HW233135   2.549   1.403   3.358  0.1709  0.6216  1.3715
 7225SOL     OW33136   0.341   0.404   5.722  0.7605  0.5355  0.1285
 7225SOL    HW133137   0.313   0.355   5.799  1.6721 -0.1499  0.0334
 7225SOL    HW233138   0.261   0.454   5.711  0.8773 -0.0683 -3.6581
 7226SOL     OW33139   1.152   2.985   2.839 -0.6928 -0.4891  0.0386
 7226SOL    HW133140   1.116   2.916   2.784  1.5877  0.6133 -2.8494
 7226SOL    HW233141   1.098   2.965   2.916  1.7622  0.1485  1.9562
 7227SOL     OW33142   4.369   1.624   8.925 -0.3578 -0.2329 -0.1509
 7227SOL    HW133143   4.299   1.634   8.989 -2.8155 -1.9248 -2.5872
 7227SOL    HW233144   4.320   1.603   8.846 -0.6851  2.1868 -0.5725
 7228SOL     OW33145   3.484   4.250   2.518 -0.4177  0.1092 -0.3096
 7228SOL    HW133146   3.453   4.192   2.449  1.8688 -1.3422 -0.1204
 7228SOL    HW233147   3.405   4.289   2.555 -1.4021 -1.3839 -0.8372
 7229SOL     OW33148   3.661   0.866   0.649  0.0262 -0.0005 -0.2820
 7229SOL    HW133149   3.721   0.838   0.579  0.2618 -0.7324  0.2203
 7229SOL    HW233150   3.704   0.835   0.728 -1.6355 -1.2769  0.1199
 7230SOL     OW33151   3.464   0.734  10.021  0.4410 -0.0584 -0.6234
 7230SOL    HW133152   3.440   0.646  10.052  2.1776 -1.1807 -2.4658
 7230SOL    HW233153   3.548   0.722   9.978  1.3271 -1.7646  1.5850
 7231SOL     OW33154   0.893   0.702  17.149 -0.2441  0.0912  0.3290
 7231SOL    HW133155   0.859   0.633  17.206 -1.6744  0.1143 -0.5172
 7231SOL    HW233156   0.810   0.744  17.129  0.2245 -0.5323 -2.8515
 7232SOL     OW33157   0.384   1.255  16.466  0.1260 -0.3129 -0.0735
 7232SOL    HW133158   0.312   1.249  16.403  0.7640 -0.1799 -0.8165
 7232SOL    HW233159   0.361   1.338  16.510 -1.3414  0.4362 -2.2526
 7233SOL     OW33160   2.153   0.671   2.758 -0.3108 -0.1291  0.0928
 7233SOL    HW133161   2.072   0.633   2.792 -1.6845  1.4554 -1.4282
 7233SOL    HW233162   2.174   0.595   2.703  1.2308 -0.1759  0.7446
 7234SOL     OW33163   4.708   0.203  10.651  0.3782 -0.3777  0.2464
 7234SOL    HW133164   0.039   0.255  10.706 -0.1468 -0.8875  1.2868
 7234SOL    HW233165   0.031   0.122  10.647  2.5662  1.1156 -2.3446
 7235SOL     OW33166   0.822   2.418   7.407 -0.5306 -0.6096  0.3511
 7235SOL    HW133167   0.827   2.463   7.323 -1.1205  0.0054  0.6430
 7235SOL    HW233168   0.762   2.348   7.381  0.4183 -0.6752 -1.6306
 7236SOL     OW33169   1.575   0.619   4.759  0.1142  0.3839  0.4621
 7236SOL    HW133170   1.489   0.582   4.774  0.5476 -1.9555 -2.7042
 7236SOL    HW233171   1.587   0.688   4.824 -0.3492  1.5366 -0.6619
 7237SOL     OW33172   4.026   4.550   3.315  0.0813 -0.0542  0.1666
 7237SOL    HW133173   4.102   4.494   3.300 -0.5862 -0.8529 -0.2463
 7237SOL    HW233174   4.002   4.569   3.224  1.0668 -0.1274 -0.1007
 7238SOL     OW33175   2.768   1.505  17.527 -0.1356 -0.2263 -0.3797
 7238SOL    HW133176   2.773   1.487  17.434 -0.7001 -0.8012 -0.3006
 7238SOL    HW233177   2.834   1.445  17.561 -1.1052 -0.0661  1.8039
 7239SOL     OW33178   4.551   3.133   1.149  0.2846  0.0100 -0.6822
 7239SOL    HW133179   4.596   3.185   1.215 -0.7911  1.1395 -0.8421
 7239SOL    HW233180   4.470   3.181   1.132 -0.8246 -1.2915  0.9351
 7240SOL     OW33181   3.857   0.689   7.282 -0.4490 -0.0236 -0.2331
 7240SOL    HW133182   3.900   0.673   7.198  0.1496 -0.2339  0.1165
 7240SOL    HW233183   3.925   0.679   7.348 -0.3795  1.9858  0.0006
 7241SOL     OW33184   3.825   1.505   3.289  0.3272 -0.4013  0.8320
 7241SOL    HW133185   3.866   1.590   3.271 -1.0575 -0.0075 -0.4297
 7241SOL    HW233186   3.815   1.469   3.201  2.7763  1.7657 -0.3551
 7242SOL     OW33187   1.647   0.941   1.864  0.7488  0.0394 -0.3623
 7242SOL    HW133188   1.597   1.002   1.918  0.4197 -1.1633  0.7042
 7242SOL    HW233189   1.614   0.975   1.781 -0.6769 -0.6312 -0.0876
 7243SOL     OW33190   0.210   3.208   1.540 -0.0821 -0.3719  0.0494
 7243SOL    HW133191   0.295   3.189   1.500  0.7096  0.8029  1.1654
 7243SOL    HW233192   0.165   3.127   1.516  0.5429 -0.4806 -0.7700
 7244SOL     OW33193   2.112   4.231  16.506 -0.2578  0.1461  0.2632
 7244SOL    HW133194   2.132   4.196  16.592 -0.8222  0.2698  0.4433
 7244SOL    HW233195   2.032   4.183  16.485  0.4415  0.0712 -2.3164
 7245SOL     OW33196   3.213   0.750   8.123  0.3803  0.3291 -0.1341
 7245SOL    HW133197   3.256   0.666   8.136 -0.1757 -0.1116 -1.1619
 7245SOL    HW233198   3.287   0.807   8.148  0.1871 -0.0082  1.2087
 7246SOL     OW33199   0.071   0.241   3.400  0.0368  0.5123  0.2963
 7246SOL    HW133200   4.720   0.224   3.452 -0.4093  2.7445  0.3629
 7246SOL    HW233201   0.035   0.287   3.324 -0.8429 -2.2696 -0.9544
 7247SOL     OW33202   1.685   0.504   9.171 -0.3231 -0.2792  0.2040
 7247SOL    HW133203   1.763   0.544   9.209  0.7390 -2.4114  0.2781
 7247SOL    HW233204   1.641   0.511   9.256 -0.0637  1.3104  0.1937
 7248SOL     OW33205   0.629   0.630   2.562  0.1340 -0.3752  0.7367
 7248SOL    HW133206   0.678   0.573   2.622  0.6659 -0.9198 -0.2268
 7248SOL    HW233207   0.663   0.715   2.590  0.9214 -0.0517 -1.2450
 7249SOL     OW33208   1.959   1.734   6.956  0.5539  0.0720  0.1584
 7249SOL    HW133209   2.004   1.742   7.040 -0.5133 -1.4229  0.8805
 7249SOL    HW233210   1.874   1.762   6.993  2.3980  0.4463  4.1569
 7250SOL     OW33211   0.099   4.015   6.097 -0.1479  0.3115 -0.4579
 7250SOL    HW133212   0.180   4.025   6.047 -0.9590 -1.3937 -2.1473
 7250SOL    HW233213   0.052   3.951   6.042 -0.5626  0.0454  0.1996
 7251SOL     OW33214   3.376   1.801   4.982  1.5434 -0.3340 -0.0828
 7251SOL    HW133215   3.313   1.806   4.911  0.6217  0.5350  0.7994
 7251SOL    HW233216   3.462   1.835   4.956  1.7868  0.3031  1.5088
 7252SOL     OW33217   2.120   2.157  17.687  0.2026  0.0845 -0.0880
 7252SOL    HW133218   2.082   2.113  17.611 -0.5559  0.4599  0.0762
 7252SOL    HW233219   2.084   2.100   0.044 -0.1822 -0.4519 -0.7389
 7253SOL     OW33220   1.071   1.617   6.500  0.3412 -0.0832  0.0161
 7253SOL    HW133221   1.137   1.554   6.469  2.3852  2.2645 -0.3815
 7253SOL    HW233222   1.040   1.559   6.570  1.4633 -0.6466  0.0588
 7254SOL     OW33223   0.037   3.569   0.374  0.1909  0.4147  0.1995
 7254SOL    HW133224   0.042   3.476   0.352 -1.1585  0.3664  0.1093
 7254SOL    HW233225   0.127   3.598   0.360  1.1814 -3.0558 -0.5449
 7255SOL     OW33226   4.065   3.500   7.300 -0.0099  0.7684  0.3875
 7255SOL    HW133227   3.970   3.496   7.308 -0.0596  1.3684  0.0894
 7255SOL    HW233228   4.075   3.436   7.229  0.1988  0.9496  0.2556
 7256SOL     OW33229   3.051   3.780   4.612  0.0870 -0.1644 -0.0499
 7256SOL    HW133230   3.146   3.777   4.599  0.1608 -0.8522  0.7066
 7256SOL    HW233231   3.021   3.716   4.547  2.2213  0.0343 -1.2514
 7257SOL     OW33232   4.613   0.649   7.765 -0.0328  0.2009  0.2512
 7257SOL    HW133233   4.553   0.723   7.778 -2.5518 -2.2430  2.5943
 7257SOL    HW233234   4.564   0.581   7.812 -0.1555  0.2602  0.2081
 7258SOL     OW33235   0.877   2.842   6.448  0.0365 -0.0864  0.4877
 7258SOL    HW133236   0.890   2.854   6.354 -2.2675  1.7591  0.4052
 7258SOL    HW233237   0.957   2.795   6.469  1.1544  1.8758  0.5301
 7259SOL     OW33238   2.282   3.691   0.870  0.3008  0.1366  0.2028
 7259SOL    HW133239   2.190   3.667   0.866  0.6280 -1.1156 -0.0747
 7259SOL    HW233240   2.286   3.765   0.930  0.5020 -0.7089  1.2224
 7260SOL     OW33241   0.700   2.266   2.756  0.0708 -0.0347  0.6413
 7260SOL    HW133242   0.696   2.338   2.819 -0.9640  0.0895  0.4365
 7260SOL    HW233243   0.612   2.260   2.719  0.9376  2.5072 -1.8096
 7261SOL     OW33244   2.659   2.572   3.410  0.0672  0.1773 -0.2835
 7261SOL    HW133245   2.576   2.612   3.384 -1.1690 -3.2085 -1.5469
 7261SOL    HW233246   2.726   2.623   3.365  0.7590  1.1860  1.8801
 7262SOL     OW33247   1.436   2.375  17.146  0.0443 -0.0530  0.2994
 7262SOL    HW133248   1.393   2.399  17.064  0.8306 -0.2735 -0.1818
 7262SOL    HW233249   1.365   2.371  17.209  1.4215  0.5749  1.8785
 7263SOL     OW33250   3.057   0.380  10.540 -0.5884 -0.0763 -0.1349
 7263SOL    HW133251   2.974   0.337  10.517 -0.8582  0.3223  0.0948
 7263SOL    HW233252   3.079   0.333  10.620 -0.2010 -0.4894 -0.4795
 7264SOL     OW33253   1.184   0.771  14.524  0.1840  0.4178 -0.8585
 7264SOL    HW133254   1.270   0.799  14.493  0.2479  0.9002 -0.2401
 7264SOL    HW233255   1.121   0.801  14.458  1.4350 -0.0197 -2.2463
 7265SOL     OW33256   3.634   4.449   2.750 -0.0622  0.1212  0.2336
 7265SOL    HW133257   3.569   4.483   2.688  1.1199  1.8652 -0.0535
 7265SOL    HW233258   3.590   4.373   2.789  0.9321 -2.1069 -3.0215
 7266SOL     OW33259   3.633   0.278   9.990  0.3010  0.2426 -0.3656
 7266SOL    HW133260   3.578   0.227   9.932  1.9697 -0.6798 -1.1275
 7266SOL    HW233261   3.652   0.215  10.059 -0.2113 -0.7616 -1.1532
 7267SOL     OW33262   2.224   1.503   1.347 -0.3548 -0.9793  0.4896
 7267SOL    HW133263   2.273   1.581   1.322 -1.3599  0.0797  1.7891
 7267SOL    HW233264   2.136   1.536   1.368 -1.0007 -1.8932 -0.8123
 7268SOL     OW33265   2.216   4.698  15.267  0.3679  0.0642  0.1109
 7268SOL    HW133266   2.218   4.615  15.221 -0.1862 -0.8362  1.7010
 7268SOL    HW233267   2.123   4.722  15.270 -0.0175 -1.5286  0.6032
 7269SOL     OW33268   4.654   1.772  13.533  0.2920  0.7123 -0.1963
 7269SOL    HW133269   4.650   1.811  13.446 -1.5437 -1.2100 -0.9513
 7269SOL    HW233270   0.015   1.736  13.529  1.1499  2.9279 -1.1822
 7270SOL     OW33271   1.251   3.732  15.680 -0.6803  0.0145 -0.1213
 7270SOL    HW133272   1.168   3.705  15.719 -1.1559  1.3905 -0.1616
 7270SOL    HW233273   1.241   3.698  15.591 -1.7279 -1.7373  0.6752
 7271SOL     OW33274   2.289   0.042  16.774  0.0859  0.1804  0.1936
 7271SOL    HW133275   2.232   4.695  16.792 -2.8138  2.0255 -1.1400
 7271SOL    HW233276   2.287   0.085  16.859 -0.7045  1.3456 -0.4046
 7272SOL     OW33277   2.044   1.457  12.584  0.0503  0.0023 -0.1888
 7272SOL    HW133278   2.022   1.470  12.492  2.2447 -1.4933 -0.9208
 7272SOL    HW233279   2.092   1.375  12.573 -0.5115 -0.4361  0.6561
 7273SOL     OW33280   1.780   1.830  11.188 -0.1277  0.1513 -0.1233
 7273SOL    HW133281   1.833   1.839  11.267 -0.7251 -2.2625  0.5175
 7273SOL    HW233282   1.729   1.755  11.218  0.5557 -0.2842 -0.0461
 7274SOL     OW33283   0.837   4.317   5.900  0.1486  0.6658 -0.9680
 7274SOL    HW133284   0.798   4.395   5.940 -3.5466 -0.9591 -1.3859
 7274SOL    HW233285   0.762   4.264   5.875 -0.6194  1.4225 -0.2741
 7275SOL     OW33286   2.314   1.378  13.233 -0.4988 -0.0551  0.1171
 7275SOL    HW133287   2.263   1.450  13.270  1.5029  0.2626  2.2180
 7275SOL    HW233288   2.278   1.375  13.145  1.3321 -2.1006 -0.5691
 7276SOL     OW33289   3.849   2.015   8.610  0.2399 -0.0804 -0.1348
 7276SOL    HW133290   3.755   2.035   8.606 -0.1176 -1.5351  0.7612
 7276SOL    HW233291   3.887   2.097   8.578  0.1587  0.2808  0.7012
 7277SOL     OW33292   2.107   2.971   9.217  0.6069  0.5173 -0.0496
 7277SOL    HW133293   2.170   2.903   9.239 -0.4275 -0.6864 -0.7986
 7277SOL    HW233294   2.130   2.982   9.125  1.4119 -1.6751 -0.0939
 7278SOL     OW33295   1.761   4.266   8.436  0.6182  0.1237 -0.6060
 7278SOL    HW133296   1.782   4.350   8.477  2.6715 -0.6346 -0.0678
 7278SOL    HW233297   1.844   4.256   8.389  1.5511 -1.1410  1.2971
 7279SOL     OW33298   0.954   0.891   3.550  0.2269 -0.4647  0.2656
 7279SOL    HW133299   0.973   0.984   3.557 -1.1073 -0.2456  1.1485
 7279SOL    HW233300   0.954   0.863   3.642 -0.2090 -3.6651 -0.6797
 7280SOL     OW33301   0.516   0.448   8.384 -0.3322 -0.0028  0.7882
 7280SOL    HW133302   0.481   0.529   8.422  1.9899 -0.5995  4.2163
 7280SOL    HW233303   0.444   0.433   8.323  0.4055 -0.3226 -0.0066
 7281SOL     OW33304   3.900   2.487   5.882  0.4316  0.3664 -0.1843
 7281SOL    HW133305   3.853   2.464   5.802  1.0532  1.3939 -0.8462
 7281SOL    HW233306   3.848   2.560   5.916  0.6928 -0.0649  1.1411
 7282SOL     OW33307   2.997   0.538   1.581 -0.0371 -0.3776  0.2058
 7282SOL    HW133308   2.948   0.614   1.613  2.6235  1.5588 -0.3474
 7282SOL    HW233309   2.977   0.483   1.657  0.2244 -0.1725  0.4238
 7283SOL     OW33310   1.539   1.389   9.317 -0.2648 -0.8920 -0.5415
 7283SOL    HW133311   1.623   1.359   9.283  0.4047 -0.1258  0.4443
 7283SOL    HW233312   1.486   1.371   9.239  3.6977 -4.7868 -2.3293
 7284SOL     OW33313   1.138   4.653   7.476  0.2586 -0.1061  0.5001
 7284SOL    HW133314   1.188   4.623   7.400  0.6619  0.1814  0.6502
 7284SOL    HW233315   1.076   4.581   7.479  1.2995 -1.0540 -0.7033
 7285SOL     OW33316   4.548   0.975   2.528 -0.1834  0.3194  0.5855
 7285SOL    HW133317   4.551   0.887   2.490 -0.6157  0.0775  1.1094
 7285SOL    HW233318   4.537   1.021   2.444  0.3601  1.5452  1.1823
 7286SOL     OW33319   0.119   3.243   3.646  0.2193 -0.0206  0.2233
 7286SOL    HW133320   0.035   3.198   3.644 -0.4005  1.1988 -1.8219
 7286SOL    HW233321   0.179   3.169   3.654  1.2325  1.0988  2.8247
 7287SOL     OW33322   1.867   3.015   3.674 -0.0706 -0.1348 -0.9309
 7287SOL    HW133323   1.774   3.000   3.660 -0.2119 -0.2028  0.1263
 7287SOL    HW233324   1.892   3.005   3.582 -0.3811  3.0574 -1.3702
 7288SOL     OW33325   3.917   1.272  16.382  0.7303  0.4714 -0.0987
 7288SOL    HW133326   3.895   1.198  16.326 -1.7306  0.3683  1.0051
 7288SOL    HW233327   3.920   1.236  16.471  1.0769  1.0365  0.1227
 7289SOL     OW33328   4.141   2.119   5.520  0.2756 -0.1796  0.0034
 7289SOL    HW133329   4.121   2.162   5.603  0.5130 -0.2069  0.0756
 7289SOL    HW233330   4.092   2.038   5.530 -1.4413  0.6433 -1.8317
 7290SOL     OW33331   0.484   1.384   8.193  0.1009  0.0017 -0.2528
 7290SOL    HW133332   0.469   1.291   8.208 -1.0239  0.1800 -0.2563
 7290SOL    HW233333   0.537   1.409   8.269 -0.4764  0.6785 -0.0744
 7291SOL     OW33334   0.745   2.113   7.776  0.3098 -0.1451  0.3515
 7291SOL    HW133335   0.783   2.196   7.803 -0.3160  0.5878 -0.9931
 7291SOL    HW233336   0.797   2.099   7.696  0.6024  0.1483  0.4938
 7292SOL     OW33337   3.144   2.740   9.846  0.3497 -0.0961  0.3291
 7292SOL    HW133338   3.091   2.779   9.776 -1.5538 -3.6194 -0.2208
 7292SOL    HW233339   3.089   2.666   9.870 -0.0713 -0.7436 -2.5465
 7293SOL     OW33340   0.059   1.913   4.349  0.1329 -0.7015  0.1116
 7293SOL    HW133341   0.004   1.974   4.300  1.4442  0.1873 -0.2599
 7293SOL    HW233342   0.135   1.903   4.292  1.1843 -1.9693  1.7297
 7294SOL     OW33343   1.764   2.684   3.608  0.6819  0.1155 -0.0156
 7294SOL    HW133344   1.775   2.656   3.517 -3.0633 -1.0844 -0.1226
 7294SOL    HW233345   1.678   2.723   3.592  0.7539  0.6589  0.9427
 7295SOL     OW33346   1.904   1.534   9.252 -0.2924  0.5099 -0.3049
 7295SOL    HW133347   1.833   1.597   9.268 -1.0658 -0.2652 -0.7381
 7295SOL    HW233348   1.854   1.454   9.241  0.1388 -0.0261  1.5871
 7296SOL     OW33349   0.230   0.939   6.203  0.6751 -0.7417 -0.0022
 7296SOL    HW133350   0.310   0.955   6.252  1.0729  1.4402 -1.3559
 7296SOL    HW233351   0.253   0.869   6.141  0.8002 -0.5631 -0.1588
 7297SOL     OW33352   1.262   0.891   5.819 -0.1815 -0.2814  0.1700
 7297SOL    HW133353   1.335   0.839   5.787  1.4744  1.0495  1.7737
 7297SOL    HW233354   1.188   0.830   5.821  1.5878 -2.4041  0.1086
 7298SOL     OW33355   2.404   0.143   3.002  0.0555 -0.0133 -0.3665
 7298SOL    HW133356   2.477   0.109   3.053 -0.9362 -0.0105  1.0608
 7298SOL    HW233357   2.366   0.058   2.980 -0.5300 -0.7066  3.2612
 7299SOL     OW33358   3.693   2.414   3.752 -0.0470  0.3658  0.0472
 7299SOL    HW133359   3.677   2.414   3.658  0.0729  1.4468  0.0237
 7299SOL    HW233360   3.642   2.334   3.763 -1.0424  1.0226  0.2252
 7300SOL     OW33361   1.513   4.006   0.528  0.1708 -0.0067  0.0347
 7300SOL    HW133362   1.598   3.971   0.501  0.6996  0.1390  1.4912
 7300SOL    HW233363   1.470   4.034   0.448  2.0030  1.4647 -0.4257
 7301SOL     OW33364   2.528   4.322   6.114  0.2545 -0.4309 -0.0071
 7301SOL    HW133365   2.564   4.402   6.076  3.1288 -2.6620 -1.9831
 7301SOL    HW233366   2.609   4.289   6.154 -0.4931 -2.0035  0.2210
 7302SOL     OW33367   1.664   4.364   5.883  0.2539  0.1210  0.1192
 7302SOL    HW133368   1.757   4.367   5.860 -0.1680 -2.2508 -1.9027
 7302SOL    HW233369   1.648   4.302   5.954  0.9250 -0.1904 -0.0066
 7303SOL     OW33370   2.301   2.179   7.129  0.2267  0.3058  0.0257
 7303SOL    HW133371   2.220   2.133   7.111  1.0200 -1.8367  1.9042
 7303SOL    HW233372   2.358   2.153   7.057 -1.0637  1.7698 -1.5158
 7304SOL     OW33373   3.252   3.562  16.707  0.4314 -0.4699  0.3876
 7304SOL    HW133374   3.235   3.652  16.735  2.2031 -0.6492  1.9899
 7304SOL    HW233375   3.336   3.573  16.662  0.7013 -1.3495  0.6733
 7305SOL     OW33376   2.828   2.948   7.550  0.3678  0.1350  0.4255
 7305SOL    HW133377   2.847   3.005   7.476 -0.5345  0.8927  0.7781
 7305SOL    HW233378   2.854   2.864   7.513 -2.0592  0.8615 -2.7996
 7306SOL     OW33379   1.942   4.071   7.981 -0.2941  0.2322 -0.0227
 7306SOL    HW133380   2.008   4.127   7.940  0.4147 -0.1356  0.6087
 7306SOL    HW233381   1.984   4.027   8.055 -2.5739 -0.8966  0.6181
 7307SOL     OW33382   3.022   4.300   6.019  0.2386  0.2934 -0.8062
 7307SOL    HW133383   2.988   4.211   6.012 -0.3157  0.3666  1.1454
 7307SOL    HW233384   3.060   4.302   5.931  1.1384  0.3813 -0.4158
 7308SOL     OW33385   1.480   1.837  11.442 -1.0133 -0.8139 -0.1185
 7308SOL    HW133386   1.532   1.899  11.492  0.6493 -1.2876 -1.2405
 7308SOL    HW233387   1.505   1.751  11.477 -1.8073 -0.1632  2.0401
 7309SOL     OW33388   4.681   2.897   9.925  0.2790  0.2366  0.3373
 7309SOL    HW133389   4.698   2.834   9.855 -1.2179 -0.8672  0.9732
 7309SOL    HW233390   0.004   2.968   9.885  3.1134 -2.1679 -0.4277
 7310SOL     OW33391   3.832   0.171  12.356 -0.0932  0.2313 -0.2081
 7310SOL    HW133392   3.824   0.091  12.407  0.4547  1.2424  1.4511
 7310SOL    HW233393   3.761   0.227  12.386 -1.7640 -0.3608 -2.9994
 7311SOL     OW33394   4.049   2.025  14.557  0.2264 -0.8141 -0.7589
 7311SOL    HW133395   4.019   1.938  14.583 -2.6677  1.1260  2.3509
 7311SOL    HW233396   4.135   2.006  14.518  0.9154  0.6573  0.0240
 7312SOL     OW33397   1.197   4.400   3.147  0.1481  0.0392  0.3149
 7312SOL    HW133398   1.110   4.361   3.145  1.6287 -3.2098 -0.3804
 7312SOL    HW233399   1.215   4.420   3.056  2.1699  0.1633  0.7351
 7313SOL     OW33400   1.209   3.461   2.383 -0.0201 -0.2340  0.2989
 7313SOL    HW133401   1.160   3.512   2.319  0.7102 -1.9329 -1.5762
 7313SOL    HW233402   1.221   3.382   2.331  0.2501  0.3742 -0.5660
 7314SOL     OW33403   1.155   2.041   6.794  0.0359  0.2522 -0.5912
 7314SOL    HW133404   1.174   1.955   6.756 -2.7173 -0.9465  0.6791
 7314SOL    HW233405   1.088   2.069   6.732  0.1782 -2.4847 -1.9650
 7315SOL     OW33406   1.978   3.631   1.527  0.2333 -0.5299  0.2562
 7315SOL    HW133407   2.044   3.562   1.526 -1.5968 -2.2649 -0.9211
 7315SOL    HW233408   1.918   3.597   1.593  1.0354  0.5544  1.5344
 7316SOL     OW33409   3.653   2.558   2.331 -0.1800  0.2676 -0.2196
 7316SOL    HW133410   3.613   2.615   2.397 -1.8309 -1.4109  0.2384
 7316SOL    HW233411   3.710   2.506   2.386  0.1459 -0.0791 -0.8825
 7317SOL     OW33412   2.221   3.399   2.167 -0.1362  0.2121  0.0080
 7317SOL    HW133413   2.143   3.372   2.216 -0.0763  1.3906  0.7389
 7317SOL    HW233414   2.218   3.494   2.166 -3.5736  0.0610 -2.1693
 7318SOL     OW33415   3.055   1.249   2.155  0.0092  0.3763  0.6802
 7318SOL    HW133416   3.094   1.244   2.242  0.8668  0.7868  0.3149
 7318SOL    HW233417   2.963   1.261   2.179 -0.3494 -0.9926  0.0033
 7319SOL     OW33418   3.478   0.466  10.387 -0.5661 -0.0314  0.0581
 7319SOL    HW133419   3.383   0.456  10.388 -0.2827 -2.8665 -0.5900
 7319SOL    HW233420   3.497   0.541  10.443  1.9989 -0.5628 -0.0992
 7320SOL     OW33421   0.331   3.739  11.491 -0.1581  0.2819  0.3428
 7320SOL    HW133422   0.425   3.750  11.502 -0.0494  0.9438 -1.1677
 7320SOL    HW233423   0.305   3.815  11.543 -0.4144 -0.7346  1.7032
 7321SOL     OW33424   1.104   3.135   2.450 -0.2106  0.1816  0.7167
 7321SOL    HW133425   1.039   3.170   2.390  0.9351 -1.3116 -1.3818
 7321SOL    HW233426   1.057   3.144   2.533  0.9487  0.1857  1.3856
 7322SOL     OW33427   4.263   0.121   8.990  0.5188  0.0193 -0.5503
 7322SOL    HW133428   4.205   0.111   8.914 -1.0393 -0.7321  0.7213
 7322SOL    HW233429   4.277   0.030   9.016 -0.7154  0.4948  1.7782
 7323SOL     OW33430   3.827   2.814  13.794  0.4788  0.8160 -0.0533
 7323SOL    HW133431   3.890   2.748  13.824  0.8849  0.1229 -2.4026
 7323SOL    HW233432   3.856   2.895  13.836  0.9218  1.3206 -1.2948
 7324SOL     OW33433   0.087   4.655   7.862 -0.0802 -0.2706  0.1535
 7324SOL    HW133434   0.087   4.690   7.773 -4.2140  0.3919  0.3998
 7324SOL    HW233435   0.106   0.008   7.910 -0.1534  0.6681 -1.3920
 7325SOL     OW33436   3.351   1.044   2.450  0.4748  0.0184  0.0123
 7325SOL    HW133437   3.345   1.001   2.365 -1.2462  0.2675  0.0115
 7325SOL    HW233438   3.367   0.961   2.496 -0.5255 -0.3901 -0.3684
 7326SOL     OW33439   0.109   3.261  10.197  0.5107  0.1396 -0.0077
 7326SOL    HW133440   0.133   3.282  10.107 -0.2545 -1.1334 -0.5149
 7326SOL    HW233441   0.116   3.165  10.203 -2.0623 -0.0054  0.7610
 7327SOL     OW33442   4.639   3.123   7.164  0.6038  0.7599 -0.1116
 7327SOL    HW133443   4.567   3.117   7.101 -0.4814 -2.6515  1.4659
 7327SOL    HW233444   4.654   3.036   7.201 -1.8925  1.4104  2.4701
 7328SOL     OW33445   1.464   3.193  10.388 -0.5113  0.6533  0.7627
 7328SOL    HW133446   1.528   3.261  10.409  0.9001  0.6310 -3.4856
 7328SOL    HW233447   1.516   3.139  10.329 -1.6303  3.0893 -2.4747
 7329SOL     OW33448   2.486   2.102   6.105 -0.8513  0.0613 -0.9421
 7329SOL    HW133449   2.425   2.172   6.130 -1.0394 -1.0785  1.8463
 7329SOL    HW233450   2.564   2.138   6.148 -1.7860  2.3090 -1.1065
 7330SOL     OW33451   3.239   0.484  12.984  0.3247 -0.5456 -0.2541
 7330SOL    HW133452   3.290   0.406  13.004  0.9063 -0.1324 -0.1156
 7330SOL    HW233453   3.264   0.542  13.056  0.6782 -0.8857 -0.1079
 7331SOL     OW33454   1.234   0.341   3.810 -0.1848  0.1207 -0.0308
 7331SOL    HW133455   1.152   0.344   3.858 -1.0868 -0.5882 -1.5385
 7331SOL    HW233456   1.281   0.288   3.874 -1.6464  1.0909  1.8208
 7332SOL     OW33457   2.584   3.276  17.627  0.5695 -0.4387  0.0448
 7332SOL    HW133458   2.534   3.194  17.628 -1.0501  0.5425  0.4673
 7332SOL    HW233459   2.613   3.276   0.007  0.6859 -0.9985  0.0067
 7333SOL     OW33460   1.410   4.198  13.633  0.0250  0.3506 -0.1254
 7333SOL    HW133461   1.460   4.227  13.556  0.8740  2.4528  1.1987
 7333SOL    HW233462   1.474   4.144  13.680 -1.7216 -1.8275 -0.2839
 7334SOL     OW33463   4.661   1.377   9.111 -0.2505  0.4245  0.6383
 7334SOL    HW133464   0.006   1.369   9.172  0.6254 -1.0966 -0.6291
 7334SOL    HW233465   4.644   1.470   9.126 -2.0983 -0.1401  2.1038
 7335SOL     OW33466   0.203   3.703   8.112 -0.7466  0.2046  0.3785
 7335SOL    HW133467   0.181   3.697   8.019 -2.5969  1.1420  0.7492
 7335SOL    HW233468   0.161   3.622   8.140 -0.9232 -0.3064 -1.3912
 7336SOL     OW33469   4.624   1.699   4.397  0.0284 -0.0668  0.6034
 7336SOL    HW133470   4.679   1.777   4.393  0.7628 -0.6808 -1.3119
 7336SOL    HW233471   4.547   1.726   4.346 -0.0834 -0.6625  0.4613
 7337SOL     OW33472   1.209   0.553   4.547  0.4249  0.0325  0.5925
 7337SOL    HW133473   1.147   0.621   4.520 -0.9289 -1.2116  0.5389
 7337SOL    HW233474   1.151   0.477   4.561  0.0533  0.5553  1.9507
 7338SOL     OW33475   3.282   2.337   9.840  0.2375 -0.3036  0.1774
 7338SOL    HW133476   3.318   2.262   9.792 -0.7861 -1.4486  1.2039
 7338SOL    HW233477   3.355   2.398   9.847 -0.0317  0.0525 -0.1267
 7339SOL     OW33478   2.056   4.643   5.779  0.3634 -0.3598 -0.1866
 7339SOL    HW133479   1.994   4.615   5.846  0.6259 -1.8942 -0.5872
 7339SOL    HW233480   2.102   4.712   5.828  0.5753 -1.0493  0.5952
 7340SOL     OW33481   2.312   0.237   8.558 -0.0619  0.1911 -0.4994
 7340SOL    HW133482   2.320   0.196   8.472  0.1699  0.4350 -0.5958
 7340SOL    HW233483   2.360   0.181   8.618 -0.7664 -0.3581 -0.4596
 7341SOL     OW33484   1.708   0.279   1.952  0.1549 -0.1705 -0.2001
 7341SOL    HW133485   1.722   0.334   2.029 -0.0651 -0.1032 -0.2058
 7341SOL    HW233486   1.618   0.306   1.932 -0.6416 -2.0664  0.8765
 7342SOL     OW33487   3.273   1.028  13.814 -0.0978 -0.7780  0.4175
 7342SOL    HW133488   3.270   1.087  13.739  1.2897  0.1932  1.1235
 7342SOL    HW233489   3.263   1.077  13.896 -0.0177 -0.0578 -0.0034
 7343SOL     OW33490   2.849   0.390   5.392 -0.5497 -0.1504  0.9151
 7343SOL    HW133491   2.811   0.466   5.436  0.7738 -0.2440  2.2167
 7343SOL    HW233492   2.924   0.368   5.447  0.6533  0.6720 -0.3846
 7344SOL     OW33493   4.425   3.188   3.184  0.1560  0.5302 -0.3487
 7344SOL    HW133494   4.402   3.268   3.137 -2.1246  0.1872  0.1774
 7344SOL    HW233495   4.351   3.178   3.244  0.5294 -0.1458 -0.0102
 7345SOL     OW33496   0.883   3.264   3.256  0.9508 -0.1652  0.2431
 7345SOL    HW133497   0.945   3.337   3.262 -0.0340  0.7424 -0.6020
 7345SOL    HW233498   0.804   3.303   3.218 -0.5872 -1.5951  1.9667
 7346SOL     OW33499   2.494   2.688   6.547 -0.9420  0.1693  0.3987
 7346SOL    HW133500   2.494   2.747   6.472 -1.2226  0.6976  0.8054
 7346SOL    HW233501   2.580   2.646   6.541 -0.4237  0.8363  2.8685
 7347SOL     OW33502   0.690   0.864  17.069  0.2181  0.1526  0.0887
 7347SOL    HW133503   0.654   0.901  16.988 -0.5710 -1.2266 -0.1845
 7347SOL    HW233504   0.641   0.908  17.138  2.4211 -0.1202  1.8110
 7348SOL     OW33505   3.083   0.470  11.920 -0.2811 -0.3122 -0.8839
 7348SOL    HW133506   3.012   0.484  11.983  0.3470  0.7963 -0.4302
 7348SOL    HW233507   3.080   0.376  11.901  0.0303 -1.0648  2.8295
 7349SOL     OW33508   1.659   2.387   5.324 -0.0286  0.0112  0.1543
 7349SOL    HW133509   1.709   2.399   5.243  1.7119  1.6715  1.4525
 7349SOL    HW233510   1.587   2.337   5.287 -0.0198  1.1638 -1.4118
 7350SOL     OW33511   1.718   0.267  16.348 -0.4396  0.4600  0.0718
 7350SOL    HW133512   1.814   0.269  16.350 -0.4467  1.9156 -0.9016
 7350SOL    HW233513   1.692   0.316  16.426  1.3311  0.4758  0.6693
 7351SOL     OW33514   0.523   2.268   3.417 -0.4511 -0.1475  0.0864
 7351SOL    HW133515   0.553   2.201   3.479 -0.5614 -1.2289 -1.0218
 7351SOL    HW233516   0.533   2.347   3.469  1.5674  1.0369 -2.0877
 7352SOL     OW33517   0.814   4.126   3.677  0.4437  0.3336  0.3941
 7352SOL    HW133518   0.776   4.214   3.676  2.1650  1.0288 -3.0585
 7352SOL    HW233519   0.836   4.111   3.769 -1.7677  2.6030  1.2922
 7353SOL     OW33520   0.933   3.511   7.455 -0.4190  0.3612  0.1976
 7353SOL    HW133521   0.868   3.532   7.521  0.5627 -1.1124  1.6385
 7353SOL    HW233522   0.958   3.596   7.419  0.4858 -1.0660 -2.5973
 7354SOL     OW33523   4.081   3.786   7.240  0.3660  0.2222  0.4972
 7354SOL    HW133524   4.144   3.733   7.191 -1.5613 -1.3754 -0.2900
 7354SOL    HW233525   4.026   3.711   7.266  0.7054  0.7457  2.7067
 7355SOL     OW33526   1.868   3.035   8.276  0.1578  0.0157 -0.2971
 7355SOL    HW133527   1.898   2.977   8.206 -0.0645 -0.4248 -0.0265
 7355SOL    HW233528   1.775   3.048   8.254  0.7692  1.2910 -2.1378
 7356SOL     OW33529   1.645   2.135   6.794  0.3605 -0.5196  0.0053
 7356SOL    HW133530   1.650   2.174   6.882  1.6209 -1.6551  0.4281
 7356SOL    HW233531   1.637   2.209   6.734 -1.8453  0.0326  0.9394
 7357SOL     OW33532   0.920   4.681   4.713 -0.1267 -0.5486 -0.7592
 7357SOL    HW133533   0.853   4.675   4.782 -0.0800  1.0112 -0.5930
 7357SOL    HW233534   0.995   4.724   4.753 -1.5951  0.7973  0.5299
 7358SOL     OW33535   1.889   4.307  14.841  0.2056 -0.3019 -0.3721
 7358SOL    HW133536   1.892   4.285  14.748  0.0104 -2.2714  0.0920
 7358SOL    HW233537   1.884   4.403  14.834  1.7777 -0.2294 -0.5593
 7359SOL     OW33538   2.953   3.495  13.339  0.6437 -0.3394 -0.9838
 7359SOL    HW133539   3.043   3.473  13.315  0.2242 -1.6167 -1.3832
 7359SOL    HW233540   2.895   3.442  13.284  0.7458  0.5528 -1.9421
 7360SOL     OW33541   3.531   3.811  17.565  0.0546  0.4482  0.4957
 7360SOL    HW133542   3.468   3.830  17.496  0.2817  2.7668  0.9284
 7360SOL    HW233543   3.470   3.795  17.637 -0.2368 -3.1407 -0.5759
 7361SOL     OW33544   3.555   4.695   4.982  0.2060  0.1556 -0.1788
 7361SOL    HW133545   3.478   4.727   5.029  0.4938 -1.2320  1.2390
 7361SOL    HW233546   3.509   4.655   4.908 -3.3255 -1.6638  3.0109
 7362SOL     OW33547   2.889   3.164  17.189  0.2312 -0.1333  0.4225
 7362SOL    HW133548   2.914   3.242  17.139 -1.6877  1.0128  1.2208
 7362SOL    HW233549   2.830   3.203  17.254 -3.8666 -1.0440 -2.7067
 7363SOL     OW33550   1.674   2.992   2.999 -0.0492 -0.3671 -0.0636
 7363SOL    HW133551   1.761   2.951   3.003 -0.3933 -1.1654 -0.9597
 7363SOL    HW233552   1.614   2.919   3.013 -1.3079  0.0187 -3.3766
 7364SOL     OW33553   1.285   4.216   3.400 -0.0017  0.1375 -0.1566
 7364SOL    HW133554   1.265   4.153   3.331 -2.2954  0.8360 -0.1259
 7364SOL    HW233555   1.201   4.262   3.400 -0.7676 -1.2757  0.1460
 7365SOL     OW33556   1.785   4.200  10.774 -0.1692  0.0533 -0.0341
 7365SOL    HW133557   1.818   4.165  10.857  2.6929  0.7331 -0.8794
 7365SOL    HW233558   1.706   4.146  10.767 -1.6220  2.0252  1.3168
 7366SOL     OW33559   1.003   1.562   0.335  0.6087  0.4620  0.2331
 7366SOL    HW133560   1.000   1.655   0.357  2.0714  0.2225  1.4252
 7366SOL    HW233561   0.937   1.556   0.265  0.1517 -0.5320  0.7580
 7367SOL     OW33562   1.395   2.980  10.758  0.5956  0.0408  0.0300
 7367SOL    HW133563   1.324   3.030  10.717  1.0668  0.6507 -0.0354
 7367SOL    HW233564   1.471   3.038  10.765  0.0695  0.7599 -0.2366
 7368SOL     OW33565   0.614   4.012   8.942 -0.1007  0.0988  0.3177
 7368SOL    HW133566   0.628   3.967   9.025 -2.4840 -1.8526 -0.3254
 7368SOL    HW233567   0.618   4.103   8.971  0.9327  0.1849 -0.1100
 7369SOL     OW33568   2.515   4.157  14.531  0.4106  0.2322 -0.1210
 7369SOL    HW133569   2.471   4.229  14.485  0.1394  0.7626  0.9769
 7369SOL    HW233570   2.441   4.096  14.526  0.9708 -0.4523 -0.0561
 7370SOL     OW33571   0.827   0.065   5.958  0.0573  0.4606  0.4474
 7370SOL    HW133572   0.909   0.095   5.996  0.9507 -1.3451 -0.0644
 7370SOL    HW233573   0.803   0.140   5.905 -0.6578  0.6304  1.0109
 7371SOL     OW33574   2.351   3.520  10.347  0.4705  0.0005  0.5238
 7371SOL    HW133575   2.334   3.585  10.416 -0.4723  1.3230 -0.9391
 7371SOL    HW233576   2.426   3.548  10.295 -0.0325 -0.8697 -0.6582
 7372SOL     OW33577   2.180   2.277   8.788  0.0663  0.0932 -0.5579
 7372SOL    HW133578   2.085   2.287   8.797  0.1794  1.7632 -1.1889
 7372SOL    HW233579   2.174   2.188   8.754  1.2373 -1.1054  2.3360
 7373SOL     OW33580   1.992   0.490   4.082 -0.0181  0.5940 -0.2137
 7373SOL    HW133581   1.973   0.443   4.164 -2.4753 -0.4711 -1.3892
 7373SOL    HW233582   1.923   0.552   4.103 -0.0531 -0.1228  1.7582
 7374SOL     OW33583   1.393   2.461   4.207 -0.2429  0.5661  0.1015
 7374SOL    HW133584   1.321   2.414   4.248  0.5005  1.9584  2.9539
 7374SOL    HW233585   1.393   2.545   4.253  1.3857  0.2269  0.7084
 7375SOL     OW33586   0.994   2.644  15.555 -0.0206  0.2126 -0.3042
 7375SOL    HW133587   1.018   2.684  15.638 -0.7453  1.8844 -0.8903
 7375SOL    HW233588   0.898   2.637  15.554 -0.0816  0.8735  1.2627
 7376SOL     OW33589   4.165   1.626  15.084 -0.2400  0.9706  0.4869
 7376SOL    HW133590   4.082   1.586  15.110  0.6970 -1.4015 -0.1481
 7376SOL    HW233591   4.135   1.656  14.998 -0.4509  0.2116  0.2982
 7377SOL     OW33592   2.625   3.548  17.447  0.3711 -0.1556 -0.5406
 7377SOL    HW133593   2.576   3.478  17.490 -0.3838  0.1242 -0.9476
 7377SOL    HW233594   2.546   3.597  17.423  0.0407 -0.5666 -0.3197
 7378SOL     OW33595   0.447   1.216   2.404  0.8452 -0.3840 -0.4176
 7378SOL    HW133596   0.398   1.167   2.338  0.5456 -0.5956 -0.0439
 7378SOL    HW233597   0.524   1.230   2.349  1.1870 -1.4593 -0.2142
 7379SOL     OW33598   1.618   1.737   1.134  0.4143  0.4800  0.4894
 7379SOL    HW133599   1.597   1.704   1.047  1.0301 -1.0424  0.9302
 7379SOL    HW233600   1.664   1.662   1.171 -1.4511 -1.4049 -1.0004
 7380SOL     OW33601   1.399   3.603  13.804 -0.0322  0.3337  0.1020
 7380SOL    HW133602   1.363   3.633  13.888 -0.7034  1.1021 -0.4668
 7380SOL    HW233603   1.492   3.625  13.807 -0.2264  0.9445  1.8673
 7381SOL     OW33604   0.864   4.169   8.422 -0.0517  0.2823 -1.0667
 7381SOL    HW133605   0.775   4.136   8.431  0.2013 -0.8638 -2.9326
 7381SOL    HW233606   0.844   4.257   8.390  1.1863  0.4645 -1.3442
 7382SOL     OW33607   3.912   1.858   2.032  0.1781 -0.2270  0.6288
 7382SOL    HW133608   3.989   1.875   1.977  0.2377  1.4596  1.2326
 7382SOL    HW233609   3.944   1.783   2.083  0.1429 -0.2835  0.5676
 7383SOL     OW33610   2.522   3.270  11.565 -0.4037 -0.0724  0.4207
 7383SOL    HW133611   2.571   3.188  11.566  0.2362  0.3057 -0.1569
 7383SOL    HW233612   2.450   3.247  11.624 -0.0281  1.4841  1.4893
 7384SOL     OW33613   3.213   2.947  13.470 -0.1013  0.3109  0.0066
 7384SOL    HW133614   3.226   2.948  13.564 -2.3251 -2.8133  0.3619
 7384SOL    HW233615   3.304   2.934  13.442 -0.5820  0.1369 -1.4898
 7385SOL     OW33616   0.051   1.039   4.243  0.4730  0.5713 -0.2312
 7385SOL    HW133617   0.008   1.085   4.315  0.7968 -0.7856  0.8377
 7385SOL    HW233618   0.080   0.961   4.290  1.1260  0.2670 -1.1398
 7386SOL     OW33619   1.764   4.190  16.956  0.3211 -0.8320  0.0572
 7386SOL    HW133620   1.812   4.236  16.888  1.4326 -0.2113  1.2558
 7386SOL    HW233621   1.752   4.258  17.022  0.1459 -0.8186  0.0111
 7387SOL     OW33622   0.327   1.352   8.997  0.1315  0.6605 -0.2107
 7387SOL    HW133623   0.291   1.264   9.012 -0.1516  0.8357  0.1266
 7387SOL    HW233624   0.296   1.392   9.078 -1.8213  0.1016 -0.6777
 7388SOL     OW33625   2.628   2.099   2.937 -0.1682 -0.3002  0.0326
 7388SOL    HW133626   2.592   2.067   3.020 -2.8628 -1.8727 -1.7370
 7388SOL    HW233627   2.703   2.144   2.974 -1.5975  1.5464  0.6607
 7389SOL     OW33628   1.956   1.214   2.273  0.4434  0.3715 -0.3710
 7389SOL    HW133629   1.935   1.292   2.222  1.3590  0.6294 -0.3411
 7389SOL    HW233630   1.934   1.237   2.363 -0.7361  3.1220 -1.3472
 7390SOL     OW33631   2.588   1.255  11.464 -0.0855  0.5608 -0.2027
 7390SOL    HW133632   2.521   1.187  11.473 -1.1729  1.6964  0.1396
 7390SOL    HW233633   2.658   1.190  11.453  1.2783  1.8275  0.9240
 7391SOL     OW33634   3.864   0.262  16.701 -0.3781  0.2333 -0.4169
 7391SOL    HW133635   3.800   0.328  16.728  0.4581 -0.6546  3.6978
 7391SOL    HW233636   3.907   0.318  16.636  1.3462 -0.4486  0.1371
 7392SOL     OW33637   3.850   4.525   6.040  0.1143  0.3288 -0.1752
 7392SOL    HW133638   3.906   4.560   6.110 -0.9375 -1.6266  1.6801
 7392SOL    HW233639   3.806   4.464   6.100  0.6522 -1.3656 -1.5169
 7393SOL     OW33640   2.685   0.510  12.877 -0.0913 -0.0095 -0.3323
 7393SOL    HW133641   2.712   0.595  12.840  2.2443  0.0227  1.4939
 7393SOL    HW233642   2.631   0.482  12.803 -1.2361 -1.3125  1.0184
 7394SOL     OW33643   1.897   3.593   6.240  0.0092 -0.0736  0.0092
 7394SOL    HW133644   1.948   3.672   6.257  0.9291 -0.8654  1.0099
 7394SOL    HW233645   1.840   3.613   6.167 -0.4090  0.4181  0.4672
 7395SOL     OW33646   1.429   1.087   2.976 -0.1215  0.4374  0.0918
 7395SOL    HW133647   1.378   1.008   2.994 -1.2859  1.3249  0.7386
 7395SOL    HW233648   1.516   1.059   3.004 -0.3406  1.1814  1.5444
 7396SOL     OW33649   1.447   0.680   5.700  0.3772 -0.1557  0.5240
 7396SOL    HW133650   1.474   0.641   5.617  0.7330 -0.2390  0.6751
 7396SOL    HW233651   1.497   0.618   5.754  2.5635  0.3355 -0.9201
 7397SOL     OW33652   3.499   0.850   3.740 -0.8011  1.1988  0.9749
 7397SOL    HW133653   3.528   0.816   3.656 -0.5739  0.6584  1.2699
 7397SOL    HW233654   3.558   0.924   3.757  0.3687  0.5588 -0.3875
 7398SOL     OW33655   0.015   2.257   4.543  0.2589 -0.3918  0.2681
 7398SOL    HW133656   0.056   2.331   4.499  2.6355 -0.0145  3.0955
 7398SOL    HW233657   4.705   2.294   4.623 -0.2527  1.3198 -0.7705
 7399SOL     OW33658   2.555   0.050  14.647  0.5990 -1.0158 -0.4276
 7399SOL    HW133659   2.605   0.128  14.672  0.0845 -0.4871 -1.0440
 7399SOL    HW233660   2.470   0.084  14.622  0.9026 -0.4975 -0.7611
 7400SOL     OW33661   3.020   0.353   5.821  0.1705  0.0856  1.0838
 7400SOL    HW133662   3.023   0.440   5.861  2.1998  0.7594 -0.5124
 7400SOL    HW233663   2.927   0.333   5.827  0.2607  0.1425  2.7592
 7401SOL     OW33664   4.204   2.531  13.876  0.1462 -0.2887  0.2665
 7401SOL    HW133665   4.155   2.605  13.842  1.7816  0.1662 -1.1125
 7401SOL    HW233666   4.279   2.525  13.817 -0.5463  0.9358 -0.7385
 7402SOL     OW33667   2.417   1.425   4.360  0.4083  0.0588  0.2404
 7402SOL    HW133668   2.345   1.487   4.374 -0.4244 -1.2085  1.5705
 7402SOL    HW233669   2.488   1.489   4.359 -0.8499  1.4830  1.9113
 7403SOL     OW33670   4.606   3.237   9.271 -0.2420  0.4748  0.5731
 7403SOL    HW133671   4.608   3.332   9.280 -0.1451  0.4895  0.3983
 7403SOL    HW233672   4.695   3.206   9.257 -0.8585 -0.7055 -0.7598
 7404SOL     OW33673   3.586   0.760   3.502  0.3795 -0.0733 -0.3006
 7404SOL    HW133674   3.527   0.797   3.436 -0.8108  0.0357  0.8160
 7404SOL    HW233675   3.663   0.757   3.444  0.3397 -0.1355 -0.3507
 7405SOL     OW33676   3.456   0.725   3.136 -0.3660  0.2793  0.2786
 7405SOL    HW133677   3.412   0.784   3.198  2.0584  2.5341 -0.1381
 7405SOL    HW233678   3.545   0.716   3.168  0.0763  1.5773 -0.5915
 7406SOL     OW33679   2.681   4.522   5.993  0.2642 -0.2349 -0.2006
 7406SOL    HW133680   2.620   4.550   5.925 -2.3701 -1.5569  1.6279
 7406SOL    HW233681   2.750   4.585   5.970 -0.3136  0.3433 -0.3422
 7407SOL     OW33682   3.662   1.938   7.070 -0.4626 -0.1274  0.0398
 7407SOL    HW133683   3.660   1.843   7.060  1.0528 -0.0639 -0.9000
 7407SOL    HW233684   3.727   1.941   7.139 -2.3452  0.3606  1.7824
 7408SOL     OW33685   1.462   2.198   5.231 -0.5841  0.1567  0.6364
 7408SOL    HW133686   1.487   2.117   5.186  1.4383  0.8750  0.4556
 7408SOL    HW233687   1.371   2.217   5.208 -0.7557  1.3306  2.3084
 7409SOL     OW33688   0.384   0.050  14.902  0.0906  0.1203  0.0763
 7409SOL    HW133689   0.453   0.107  14.869  0.3628 -0.8889 -1.1139
 7409SOL    HW233690   0.307   0.098  14.872  0.2219 -1.3404 -2.6689
 7410SOL     OW33691   4.474   4.320  13.186 -0.5830  0.0323  0.2591
 7410SOL    HW133692   4.515   4.405  13.170  1.9129 -1.3229 -0.4764
 7410SOL    HW233693   4.482   4.322  13.281  1.2987 -1.5022  0.1254
 7411SOL     OW33694   2.269   2.071   6.569 -0.4965 -0.5809 -0.3655
 7411SOL    HW133695   2.305   2.030   6.648  0.5618  0.5119 -0.2690
 7411SOL    HW233696   2.321   2.036   6.497 -1.4605  0.2972 -1.4880
 7412SOL     OW33697   3.660   0.391   5.940 -0.1033 -0.4914 -0.4948
 7412SOL    HW133698   3.730   0.399   5.876 -0.0556  1.7309 -0.1590
 7412SOL    HW233699   3.694   0.314   5.986  0.3753 -0.2565 -0.4578
 7413SOL     OW33700   2.821   2.639   4.995 -0.6809  0.1762  0.0505
 7413SOL    HW133701   2.828   2.671   5.085 -0.4717  0.2663  0.0013
 7413SOL    HW233702   2.912   2.641   4.967  0.1601  0.3785  2.8238
 7414SOL     OW33703   3.204   1.629   8.225 -0.2665 -0.0699 -0.2558
 7414SOL    HW133704   3.180   1.560   8.287 -0.7329 -1.2734 -1.7697
 7414SOL    HW233705   3.243   1.585   8.150  0.3643  0.3875 -0.1934
 7415SOL     OW33706   0.904   4.368   3.144 -0.2722 -0.5417  0.1588
 7415SOL    HW133707   0.829   4.415   3.109  0.7461  2.4274  1.9312
 7415SOL    HW233708   0.902   4.308   3.069 -1.8250  1.5961 -1.5036
 7416SOL     OW33709   2.366   1.101  11.574 -0.2432  0.0418 -0.0954
 7416SOL    HW133710   2.335   1.066  11.658  1.3130  1.0675  0.8776
 7416SOL    HW233711   2.307   1.059  11.510 -1.1577  0.0058  0.7711
 7417SOL     OW33712   3.538   4.480   1.981 -0.3307  0.1414 -0.3155
 7417SOL    HW133713   3.616   4.533   1.998 -0.0985  0.0787 -1.1636
 7417SOL    HW233714   3.508   4.506   1.894 -0.1551  1.1812 -0.0696
 7418SOL     OW33715   1.559   2.703   7.156  0.1126 -0.3375  0.3888
 7418SOL    HW133716   1.514   2.763   7.216  1.4689  2.0760 -1.0231
 7418SOL    HW233717   1.520   2.619   7.180  0.7269  0.1373  3.0685
 7419SOL     OW33718   0.645   0.931   1.723  0.7085  0.6872 -0.2474
 7419SOL    HW133719   0.581   0.867   1.752  0.2383  0.8952 -0.8423
 7419SOL    HW233720   0.723   0.876   1.733  0.7548  0.9817  1.0373
 7420SOL     OW33721   4.019   4.169   1.120  0.4723  0.4527 -0.1669
 7420SOL    HW133722   3.944   4.181   1.178  1.6415 -1.7474  1.8274
 7420SOL    HW233723   3.988   4.092   1.073  0.1370  1.0307 -0.8931
 7421SOL     OW33724   0.307   1.277   5.251 -0.5389  0.1176 -0.6300
 7421SOL    HW133725   0.251   1.286   5.175 -0.8503 -1.5283 -0.5831
 7421SOL    HW233726   0.297   1.188   5.285 -0.4250  0.0794 -0.6986
 7422SOL     OW33727   1.347   2.401  15.224 -0.3970 -0.5624  0.2398
 7422SOL    HW133728   1.375   2.412  15.315 -1.8719 -0.6026  0.6944
 7422SOL    HW233729   1.286   2.474  15.230  1.9631  1.3299  1.2842
 7423SOL     OW33730   1.238   4.561  11.976  0.0713 -0.1426  0.5847
 7423SOL    HW133731   1.302   4.629  11.996  0.0468  0.3628 -1.0719
 7423SOL    HW233732   1.215   4.607  11.895 -0.4147 -0.0115  0.7983
 7424SOL     OW33733   1.490   2.803   8.802 -0.0618 -0.5475  0.0980
 7424SOL    HW133734   1.401   2.831   8.824 -0.0056 -0.9636  0.8589
 7424SOL    HW233735   1.546   2.837   8.872 -1.0518 -0.5610  0.8823
 7425SOL     OW33736   4.390   3.379  16.919  0.5653  0.3641 -0.2498
 7425SOL    HW133737   4.466   3.363  16.864 -0.0248 -0.0309 -0.9649
 7425SOL    HW233738   4.378   3.296  16.966  0.3595  0.4799 -0.0957
 7426SOL     OW33739   3.132   2.393   6.687 -0.3355  0.5214  0.2897
 7426SOL    HW133740   3.084   2.424   6.611 -0.3865  0.8187  0.4453
 7426SOL    HW233741   3.161   2.306   6.658 -1.3505  1.1415 -2.5597
 7427SOL     OW33742   1.123   2.160   8.918  0.2066 -0.8397 -0.0835
 7427SOL    HW133743   1.193   2.095   8.917  0.4237 -0.5902 -1.5101
 7427SOL    HW233744   1.041   2.117   8.892 -1.2304  1.8705 -0.0647
 7428SOL     OW33745   1.021   2.583   0.198  0.0081  0.0552 -0.4350
 7428SOL    HW133746   0.948   2.545   0.246 -0.4906 -0.6571 -1.7783
 7428SOL    HW233747   1.043   2.514   0.135  1.5845  0.4511 -0.3192
 7429SOL     OW33748   0.252   4.008   2.413  0.2082 -0.2904  0.0100
 7429SOL    HW133749   0.304   4.088   2.403 -0.8080  0.0066 -2.8906
 7429SOL    HW233750   0.169   4.027   2.370 -0.0001  0.4026  0.7228
 7430SOL     OW33751   3.792   2.418   0.855 -0.2601  0.4348  0.4435
 7430SOL    HW133752   3.720   2.360   0.879  0.3401 -0.1085  0.9191
 7430SOL    HW233753   3.804   2.470   0.935 -2.4813  0.7095  0.6183
 7431SOL     OW33754   3.251   0.366   3.243 -0.0409 -0.3038  0.1051
 7431SOL    HW133755   3.214   0.415   3.317 -1.9106  0.5116 -1.3525
 7431SOL    HW233756   3.198   0.395   3.168  2.2159  0.8970 -1.0009
 7432SOL     OW33757   1.656   4.043   5.302 -0.2780 -0.3433 -0.4154
 7432SOL    HW133758   1.666   3.956   5.265  0.3043 -0.1392 -0.7337
 7432SOL    HW233759   1.602   4.023   5.379  2.3828 -1.4129  1.1622
 7433SOL     OW33760   0.310   3.255  13.885 -0.0178 -0.3894 -0.5408
 7433SOL    HW133761   0.232   3.254  13.830 -0.0543 -2.0059 -0.4535
 7433SOL    HW233762   0.381   3.257  13.821  0.4631  2.1358  0.0645
 7434SOL     OW33763   2.776   1.805   1.718  0.1196  0.1272  0.6676
 7434SOL    HW133764   2.832   1.806   1.796  0.9097  0.0492  0.1026
 7434SOL    HW233765   2.698   1.770   1.761  0.2863  0.0992  0.9509
 7435SOL     OW33766   1.587   1.176   8.678 -0.0238 -0.2544 -0.5898
 7435SOL    HW133767   1.620   1.175   8.588  0.4380  0.2351 -0.4267
 7435SOL    HW233768   1.608   1.086   8.701 -1.1716 -0.1526  0.8805
 7436SOL     OW33769   2.096   2.156   5.615  0.1343  0.6619 -0.3196
 7436SOL    HW133770   2.109   2.237   5.664 -1.0879  0.9931 -0.5504
 7436SOL    HW233771   2.049   2.180   5.535  1.2158  2.3576 -0.4429
 7437SOL     OW33772   3.391   1.528   4.277  0.1817  0.1929  0.4332
 7437SOL    HW133773   3.451   1.528   4.203  0.2684  0.2671  0.5033
 7437SOL    HW233774   3.441   1.478   4.342  0.7666 -0.0571 -0.2156
 7438SOL     OW33775   2.136   3.227   4.002  0.1340 -0.0929 -0.5417
 7438SOL    HW133776   2.060   3.174   4.026  0.9363 -0.7071  0.6103
 7438SOL    HW233777   2.105   3.232   3.912  0.4155 -0.8227 -0.6819
 7439SOL     OW33778   4.495   3.505   6.576  0.0704  0.0376  0.3459
 7439SOL    HW133779   4.479   3.551   6.659  1.7461  1.0122  0.1424
 7439SOL    HW233780   4.411   3.466   6.554 -0.1851  2.0023 -2.0550
 7440SOL     OW33781   3.100   2.278   8.046 -0.1796  0.2222 -0.1387
 7440SOL    HW133782   3.051   2.206   8.006 -0.3608  0.2756 -0.0139
 7440SOL    HW233783   3.168   2.295   7.981  2.0521  1.1639  2.4342
 7441SOL     OW33784   1.992   2.014   5.045  0.1871  0.3700 -0.2153
 7441SOL    HW133785   1.896   2.015   5.038  0.4440 -0.6826 -3.6451
 7441SOL    HW233786   2.005   2.105   5.072 -1.2390  0.5477 -0.1329
 7442SOL     OW33787   4.367   0.107   7.913  0.4362  0.0567  0.1298
 7442SOL    HW133788   4.338   0.135   7.826  1.3723 -1.7786 -0.7858
 7442SOL    HW233789   4.448   0.158   7.916  2.8840 -3.6610 -2.1872
 7443SOL     OW33790   2.618   0.155   9.890 -0.0844  0.2999  0.1191
 7443SOL    HW133791   2.633   0.249   9.883 -0.8577  0.5185  1.3607
 7443SOL    HW233792   2.687   0.127   9.830 -2.6193 -0.0574 -2.6649
 7444SOL     OW33793   4.535   2.097   2.988 -0.0696 -0.7576 -0.7463
 7444SOL    HW133794   4.578   2.016   3.019 -1.2534 -0.9609  0.3615
 7444SOL    HW233795   4.577   2.164   3.041  1.2202 -0.1447 -2.5198
 7445SOL     OW33796   3.023   1.994   6.923  0.1707  0.0790 -0.5908
 7445SOL    HW133797   2.957   2.027   6.863  0.4907  1.9203  0.0763
 7445SOL    HW233798   3.073   2.072   6.948 -0.9694  1.8993 -4.0517
 7446SOL     OW33799   1.754   0.418   0.599 -0.0839 -0.2691 -0.0966
 7446SOL    HW133800   1.751   0.474   0.522 -0.8505 -0.4560 -0.2016
 7446SOL    HW233801   1.800   0.345   0.558 -1.0625 -0.3682 -1.0299
 7447SOL     OW33802   0.693   2.847   3.673  0.2466 -0.3641  0.0227
 7447SOL    HW133803   0.648   2.844   3.758  1.1462 -1.1191  0.4774
 7447SOL    HW233804   0.623   2.886   3.621 -0.7884 -2.0223  0.1531
 7448SOL     OW33805   3.128   0.236  11.803  0.6220  0.2556  0.5156
 7448SOL    HW133806   3.161   0.294  11.734 -1.3226  1.0781  0.2919
 7448SOL    HW233807   3.172   0.156  11.774  1.3739  0.3688  1.3607
 7449SOL     OW33808   0.341   4.430  12.160  0.0955 -0.5915  0.1164
 7449SOL    HW133809   0.299   4.514  12.139 -1.4575 -1.2500  0.6305
 7449SOL    HW233810   0.339   4.378  12.080 -1.1900  0.8894 -0.8298
 7450SOL     OW33811   4.416   2.129  13.991  0.0446 -0.6469 -0.1331
 7450SOL    HW133812   4.424   2.138  14.086 -0.8359 -0.6189 -0.0612
 7450SOL    HW233813   4.464   2.207  13.960 -0.7454 -0.2072 -0.2525
 7451SOL     OW33814   4.327   3.161   8.164  0.2812 -0.1310 -0.0987
 7451SOL    HW133815   4.268   3.223   8.120  0.2480 -0.0081  0.1226
 7451SOL    HW233816   4.269   3.090   8.192  2.0078 -1.5960 -0.2626
 7452SOL     OW33817   2.878   4.635  14.005  0.3475 -0.2239 -0.2847
 7452SOL    HW133818   2.839   4.547  13.996  3.7386 -1.8961  1.3762
 7452SOL    HW233819   2.817   4.675  14.067 -0.1525  0.2665 -1.0956
 7453SOL     OW33820   3.769   1.388   5.059 -0.0050  0.3411 -0.0327
 7453SOL    HW133821   3.688   1.372   5.107  0.6851 -0.4319  0.9049
 7453SOL    HW233822   3.728   1.406   4.975 -1.8204 -0.3566  0.7063
 7454SOL     OW33823   1.443   0.906   7.546 -0.3033  0.3520 -0.1226
 7454SOL    HW133824   1.378   0.845   7.511  0.2853 -0.9013  0.9581
 7454SOL    HW233825   1.528   0.873   7.518 -0.9148 -1.1117 -0.2404
 7455SOL     OW33826   2.069   3.574  10.357  0.2531  0.3867 -0.0897
 7455SOL    HW133827   2.111   3.499  10.399  2.5565  0.3041 -2.5488
 7455SOL    HW233828   2.089   3.556  10.265  1.5757 -1.8961  0.6328
 7456SOL     OW33829   4.261   1.986   7.523  0.2159  0.0333 -0.1454
 7456SOL    HW133830   4.243   1.892   7.532  0.1681 -0.1070 -1.6533
 7456SOL    HW233831   4.178   2.017   7.486 -0.4673 -1.3219  0.2623
 7457SOL     OW33832   4.411   4.072  11.482 -0.2226  0.1516  0.0297
 7457SOL    HW133833   4.383   4.085  11.573 -0.1837  1.7650 -0.1770
 7457SOL    HW233834   4.485   4.133  11.488 -0.2247  0.2694 -1.0556
 7458SOL     OW33835   1.182   0.062   2.199 -0.2553 -0.4248 -0.4255
 7458SOL    HW133836   1.221   0.126   2.140  0.5847 -0.8548 -0.3444
 7458SOL    HW233837   1.126   0.122   2.248  1.1376  0.8343 -0.3810
 7459SOL     OW33838   0.386   0.239   0.367  0.5695 -0.3888  0.3468
 7459SOL    HW133839   0.314   0.266   0.425  0.0871  0.2196 -0.5446
 7459SOL    HW233840   0.393   0.301   0.295  0.9111 -0.1932  0.5494
 7460SOL     OW33841   0.473   0.303   5.481 -0.2107  0.2249  0.3848
 7460SOL    HW133842   0.422   0.333   5.557  0.6473 -0.5281  1.2554
 7460SOL    HW233843   0.440   0.213   5.480 -1.9634  0.8703 -0.4065
 7461SOL     OW33844   2.282   4.423   6.880 -0.5386 -0.3323 -0.1463
 7461SOL    HW133845   2.222   4.365   6.926 -0.1218 -1.5140 -1.1011
 7461SOL    HW233846   2.289   4.381   6.794 -0.4884 -1.5159  0.4385
 7462SOL     OW33847   1.843   1.376  12.342  0.2087 -0.4925  0.3887
 7462SOL    HW133848   1.778   1.360  12.411 -0.0873 -0.2354  0.1731
 7462SOL    HW233849   1.794   1.338  12.268  1.2519 -1.3712  0.1520
 7463SOL     OW33850   0.183   1.932   6.270 -0.4642 -0.1211 -0.1412
 7463SOL    HW133851   0.103   1.934   6.322  0.9249  0.3063  1.9773
 7463SOL    HW233852   0.240   1.895   6.338 -0.0466 -1.3441 -1.1546
 7464SOL     OW33853   0.023   3.837   8.268  0.1519  0.1101  0.3091
 7464SOL    HW133854   4.690   3.815   8.197  1.0415  1.4688 -0.8745
 7464SOL    HW233855   0.104   3.794   8.241 -1.8026 -2.8262 -0.8667
 7465SOL     OW33856   4.669   2.926  13.066 -0.3737  0.0549 -0.5629
 7465SOL    HW133857   4.678   3.018  13.092 -0.1616 -0.0803 -0.1678
 7465SOL    HW233858   4.704   2.890  13.147 -0.1632  1.3094 -0.0852
 7466SOL     OW33859   2.534   4.361   4.846 -0.0597  0.2220 -0.2906
 7466SOL    HW133860   2.472   4.329   4.911 -0.4986  0.6584 -0.5025
 7466SOL    HW233861   2.573   4.280   4.811 -0.8195  0.2623 -1.2314
 7467SOL     OW33862   3.776   1.315   2.655  0.2008  0.1270  0.1791
 7467SOL    HW133863   3.713   1.243   2.661 -0.2648  0.5675  0.5287
 7467SOL    HW233864   3.847   1.278   2.708  0.5856  2.0783  1.0230
 7468SOL     OW33865   3.337   2.935  11.665  0.3340 -0.4633 -0.4051
 7468SOL    HW133866   3.384   3.004  11.712  0.1085 -0.2108 -0.5479
 7468SOL    HW233867   3.400   2.915  11.596  0.9709 -0.0926  0.0744
 7469SOL     OW33868   4.367   1.593   0.681 -0.3419 -0.4435 -0.7507
 7469SOL    HW133869   4.317   1.529   0.632  0.6096  0.0156 -2.2984
 7469SOL    HW233870   4.370   1.655   0.609  0.7231  0.2636 -0.0971
 7470SOL     OW33871   3.220   4.003   3.940 -0.1117 -0.2917 -0.1833
 7470SOL    HW133872   3.125   4.016   3.930 -0.3488 -1.8025  0.0376
 7470SOL    HW233873   3.248   4.086   3.902  2.8622 -0.6438  1.2768
 7471SOL     OW33874   4.532   1.332   0.802  0.2030  0.3365 -0.4729
 7471SOL    HW133875   4.501   1.245   0.774 -1.0551  1.0722 -1.3620
 7471SOL    HW233876   4.565   1.361   0.717 -0.7510  1.2124 -0.5521
 7472SOL     OW33877   0.969   3.640   5.464 -0.3981  0.2411  0.2266
 7472SOL    HW133878   1.041   3.580   5.444  0.7458  0.9392  2.1727
 7472SOL    HW233879   1.016   3.705   5.518 -1.6305  3.4201 -2.5570
 7473SOL     OW33880   2.540   4.476   6.448  0.0313 -0.0682  0.2304
 7473SOL    HW133881   2.479   4.550   6.450  1.1632  0.8392  2.6509
 7473SOL    HW233882   2.609   4.514   6.394 -0.0701  0.6866  0.6203
 7474SOL     OW33883   3.832   0.889  12.182 -0.0062 -0.5663 -0.5855
 7474SOL    HW133884   3.761   0.913  12.241  0.0262  0.2153 -0.8662
 7474SOL    HW233885   3.841   0.794  12.195  0.1537 -0.6272 -1.1376
 7475SOL     OW33886   1.728   4.199  12.540  0.2348  0.2574 -0.4960
 7475SOL    HW133887   1.788   4.268  12.569 -0.1148  0.6741 -0.7713
 7475SOL    HW233888   1.765   4.182  12.453 -0.3416  1.3896 -0.9579
 7476SOL     OW33889   4.565   2.347   7.355  0.2691  0.6245 -0.1665
 7476SOL    HW133890   4.660   2.344   7.345  0.1530 -0.8094 -0.7527
 7476SOL    HW233891   4.549   2.359   7.449  0.6957  1.8515 -0.2525
 7477SOL     OW33892   1.435   3.201   6.919 -0.4268  0.7159 -0.2340
 7477SOL    HW133893   1.427   3.232   6.828 -0.9825 -2.7305 -1.3673
 7477SOL    HW233894   1.448   3.284   6.965  0.3275  1.6909 -2.2058
 7478SOL     OW33895   2.833   4.089   5.451 -0.3257 -0.6692  0.1722
 7478SOL    HW133896   2.900   4.022   5.461  0.6505  0.0029 -1.9204
 7478SOL    HW233897   2.866   4.151   5.386  1.2455 -2.2652 -0.5504
 7479SOL     OW33898   3.050   3.138   6.660 -0.7408 -0.1940 -0.9805
 7479SOL    HW133899   3.126   3.092   6.695  0.0891  1.7890 -0.1860
 7479SOL    HW233900   3.090   3.206   6.606  0.2652 -0.8103 -1.0017
 7480SOL     OW33901   3.007   1.447   8.684  0.5726 -0.8310 -0.0522
 7480SOL    HW133902   3.042   1.392   8.754  1.8203 -0.8961 -0.7386
 7480SOL    HW233903   2.913   1.451   8.701  0.8321  0.6162  1.0306
 7481SOL     OW33904   2.753   4.618   6.738 -0.3477  0.5647 -0.1772
 7481SOL    HW133905   2.799   4.601   6.820 -1.4652  2.1062  0.7697
 7481SOL    HW233906   2.820   4.666   6.689  0.0393 -0.4467 -0.6249
 7482SOL     OW33907   2.697   1.926   7.042 -0.1839 -0.5127  0.2492
 7482SOL    HW133908   2.773   1.886   7.083 -0.3415 -2.8099 -1.6833
 7482SOL    HW233909   2.696   1.880   6.958 -0.2690 -1.9236  1.0149
 7483SOL     OW33910   1.522   1.425   6.665 -0.0083 -0.6408  0.2106
 7483SOL    HW133911   1.531   1.508   6.711  0.7958 -0.0836 -0.9438
 7483SOL    HW233912   1.605   1.421   6.616  0.8918  2.5089  1.5208
 7484SOL     OW33913   0.230   2.417   7.202 -0.5330 -0.1845 -0.7698
 7484SOL    HW133914   0.303   2.478   7.192  0.9097 -1.9261 -1.0616
 7484SOL    HW233915   0.156   2.474   7.182 -0.3091  0.0639 -0.8893
 7485SOL     OW33916   1.969   1.004   0.886 -0.2763 -0.0401  0.0204
 7485SOL    HW133917   2.063   0.992   0.872 -0.4426 -1.7714  0.3482
 7485SOL    HW233918   1.927   0.967   0.808  1.0149 -2.7909  0.6276
 7486SOL     OW33919   1.789   2.915   2.591 -0.0003  0.0979 -0.0700
 7486SOL    HW133920   1.847   2.987   2.617  0.3179 -0.4232  0.6855
 7486SOL    HW233921   1.787   2.864   2.672  0.9340 -1.7757 -1.2261
 7487SOL     OW33922   1.063   0.998   2.997  0.3162 -0.5140  0.2369
 7487SOL    HW133923   0.976   0.961   2.979  0.7145 -1.5995  0.5907
 7487SOL    HW233924   1.065   0.970   3.089 -0.6253 -1.5901 -0.0619
 7488SOL     OW33925   0.627   4.589   4.483  0.4763  0.2520 -0.3413
 7488SOL    HW133926   0.721   4.575   4.476  0.7031 -0.6156  4.2119
 7488SOL    HW233927   0.626   4.685   4.477  2.1395  0.3855  1.5153
 7489SOL     OW33928   3.220   1.363  10.745 -0.4415 -0.2154  0.3841
 7489SOL    HW133929   3.266   1.294  10.699  0.4188 -0.8143  2.1589
 7489SOL    HW233930   3.287   1.431  10.741 -0.7322  0.0107 -0.6285
 7490SOL     OW33931   1.788   4.545   4.845  0.1438  0.1159  0.9117
 7490SOL    HW133932   1.835   4.478   4.794 -0.9028  0.7380 -0.8924
 7490SOL    HW233933   1.849   4.571   4.913  0.1493  0.5130  0.7526
 7491SOL     OW33934   1.966   1.843   0.672  0.1398  0.1582  0.4930
 7491SOL    HW133935   2.038   1.905   0.664  1.2885 -1.0620  1.4364
 7491SOL    HW233936   2.012   1.779   0.726  2.1664 -0.3994 -1.9005
 7492SOL     OW33937   3.029   2.700   2.448 -0.5318 -0.4293  0.1355
 7492SOL    HW133938   2.976   2.778   2.462  0.9193  0.3596  1.1635
 7492SOL    HW233939   2.991   2.673   2.364 -0.2075  0.7686 -0.3976
 7493SOL     OW33940   1.925   4.721   1.453 -0.4755  0.4765 -0.7718
 7493SOL    HW133941   1.918   4.661   1.528 -0.3146 -1.3394 -2.2124
 7493SOL    HW233942   1.890   0.071   1.496 -3.3721 -1.1143 -0.2927
 7494SOL     OW33943   2.337   3.843  11.392 -0.2175 -0.2715 -0.4797
 7494SOL    HW133944   2.370   3.796  11.316 -0.0342 -1.8110  0.5631
 7494SOL    HW233945   2.401   3.815  11.457 -1.0676  0.7382  0.7955
 7495SOL     OW33946   1.575   1.547   3.254 -0.0748 -0.5767  0.3943
 7495SOL    HW133947   1.537   1.565   3.340 -0.8200  1.8387 -0.4551
 7495SOL    HW233948   1.504   1.498   3.211 -1.0392 -0.1223  1.4756
 7496SOL     OW33949   3.554   0.878   7.825  0.7223 -0.3201  0.3231
 7496SOL    HW133950   3.512   0.800   7.862  1.1628 -1.3064 -1.2793
 7496SOL    HW233951   3.482   0.940   7.834  1.8379  0.6813  2.4223
 7497SOL     OW33952   1.407   3.781   7.343  0.2135 -0.0553 -0.3638
 7497SOL    HW133953   1.503   3.774   7.350  0.2130  0.1219 -0.1614
 7497SOL    HW233954   1.376   3.691   7.355  0.5022 -0.2088 -0.7446
 7498SOL     OW33955   1.075   2.772   0.016 -0.1178  0.1985 -0.4504
 7498SOL    HW133956   1.016   2.746  17.657 -0.9832 -2.0791  1.1375
 7498SOL    HW233957   1.047   2.717   0.090 -3.5718  2.5366 -0.0266
 7499SOL     OW33958   2.901   0.358   6.573 -0.0766  0.1064 -0.5089
 7499SOL    HW133959   2.914   0.426   6.506  3.0391 -1.2650 -1.2769
 7499SOL    HW233960   2.924   0.397   6.658  2.5689  0.1638 -1.2451
 7500SOL     OW33961   4.246   1.897   2.315  0.1806  0.0352 -0.7208
 7500SOL    HW133962   4.325   1.852   2.284  2.6327  2.1388  2.4512
 7500SOL    HW233963   4.233   1.981   2.269  3.1315  0.9870  0.1771
 7501SOL     OW33964   1.238   0.732  13.455  0.0318  0.0533 -0.1877
 7501SOL    HW133965   1.229   0.637  13.445 -1.5056  0.1897 -0.1424
 7501SOL    HW233966   1.304   0.742  13.386  1.1538  0.6128  0.9681
 7502SOL     OW33967   2.620   4.383   6.706 -0.2195 -0.2250 -0.2545
 7502SOL    HW133968   2.704   4.421   6.732 -0.6898  1.8556 -1.8421
 7502SOL    HW233969   2.615   4.413   6.616 -0.7150  1.2226  0.2542
 7503SOL     OW33970   0.706   0.484   7.593 -0.5169 -0.2832 -0.0005
 7503SOL    HW133971   0.696   0.579   7.589 -2.1417 -0.4668 -0.2312
 7503SOL    HW233972   0.800   0.472   7.575 -0.1396  0.0988  1.7451
 7504SOL     OW33973   1.926   1.261   3.885  0.0429  0.4338  0.3347
 7504SOL    HW133974   1.920   1.167   3.898  1.2157  0.0414 -1.8038
 7504SOL    HW233975   1.833   1.280   3.897  0.3989  1.0050  2.1053
 7505SOL     OW33976   3.314   4.238  13.461 -0.4787 -0.1005 -0.5247
 7505SOL    HW133977   3.293   4.145  13.472 -0.2767 -0.5867 -4.2360
 7505SOL    HW233978   3.408   4.228  13.449 -0.3147  0.1131  0.5553
 7506SOL     OW33979   3.640   0.802   2.264  0.0910 -0.3055  0.0194
 7506SOL    HW133980   3.672   0.833   2.348  1.1020 -4.0881  1.0380
 7506SOL    HW233981   3.551   0.779   2.289 -0.9124  0.2475 -2.9952
 7507SOL     OW33982   2.817   0.880  11.100 -0.3306 -0.1453  0.1927
 7507SOL    HW133983   2.791   0.806  11.155  2.5289  0.4970  2.4391
 7507SOL    HW233984   2.780   0.858  11.014  0.1113 -0.6275  0.1265
 7508SOL     OW33985   3.489   1.374   1.577  0.1138 -0.8777  0.4027
 7508SOL    HW133986   3.474   1.306   1.642  1.9815  0.7695  2.5598
 7508SOL    HW233987   3.410   1.377   1.524  0.6145 -0.5947 -0.3341
 7509SOL     OW33988   3.257   1.860   3.451  0.6076 -0.4820 -0.7994
 7509SOL    HW133989   3.336   1.887   3.406  1.9303  0.1613  1.9036
 7509SOL    HW233990   3.291   1.865   3.541  4.0727  1.1652 -2.2211
 7510SOL     OW33991   0.150   4.589   8.623  0.6105  0.3292  0.2943
 7510SOL    HW133992   0.234   4.549   8.646  0.8114 -0.5935 -2.0101
 7510SOL    HW233993   0.179   4.657   8.562 -1.5640 -0.5681 -1.7596
 7511SOL     OW33994   1.766   3.612  16.121  0.3782 -0.2089 -0.3588
 7511SOL    HW133995   1.689   3.666  16.106  2.0562  1.7843 -1.8861
 7511SOL    HW233996   1.733   3.529  16.087  0.0855 -0.7874  1.3626
 7512SOL     OW33997   3.598   2.664   3.491 -0.1067  0.4510 -0.2295
 7512SOL    HW133998   3.529   2.725   3.463 -0.7922 -0.4786 -0.5657
 7512SOL    HW233999   3.666   2.683   3.426 -0.6155 -1.0230 -1.2062
 7513SOL     OW34000   4.412   1.231   6.497 -0.2726 -0.1711  0.3585
 7513SOL    HW134001   4.470   1.300   6.527  0.9148 -2.2388  2.8226
 7513SOL    HW234002   4.451   1.158   6.544  0.6802  0.0273 -0.1374
 7514SOL     OW34003   4.423   3.984   7.403  1.1422 -0.2494  0.1062
 7514SOL    HW134004   4.482   3.930   7.351  0.3220 -0.5831 -0.4895
 7514SOL    HW234005   4.457   3.987   7.492 -2.2671  0.5369  1.3707
 7515SOL     OW34006   3.524   1.713   5.303 -0.1021 -0.0070 -0.4348
 7515SOL    HW134007   3.449   1.655   5.290 -0.0740 -0.5590  1.7904
 7515SOL    HW234008   3.543   1.746   5.216  1.3840 -1.7024 -0.7667
 7516SOL     OW34009   2.232   3.196   7.978  0.5111 -0.3137  0.3053
 7516SOL    HW134010   2.159   3.258   7.967  0.4041 -0.1418  1.9359
 7516SOL    HW234011   2.240   3.201   8.073 -1.9998 -0.5364  0.5394
 7517SOL     OW34012   3.267   1.902  13.206 -0.1956 -0.1885  0.1149
 7517SOL    HW134013   3.234   1.886  13.294 -1.4753 -2.2886 -0.7619
 7517SOL    HW234014   3.361   1.907  13.222  0.0826 -2.3746 -0.8412
 7518SOL     OW34015   4.427   2.066   8.847 -0.2107  0.5989  0.6050
 7518SOL    HW134016   4.373   2.067   8.768  0.4160  1.9460  0.1972
 7518SOL    HW234017   4.363   2.055   8.917  0.0791  1.5691  1.0261
 7519SOL     OW34018   4.217   0.935   4.997  0.4990  0.4849 -0.3339
 7519SOL    HW134019   4.223   0.971   5.086 -0.7874 -0.7536  0.2597
 7519SOL    HW234020   4.122   0.930   4.985  0.6929 -1.6589 -0.9252
 7520SOL     OW34021   3.998   3.941   6.292 -0.1985  0.3077 -0.2616
 7520SOL    HW134022   4.091   3.924   6.305  0.4260  2.5308 -1.9379
 7520SOL    HW234023   3.978   3.966   6.383  1.8175  0.3742  0.1705
 7521SOL     OW34024   3.221   1.407   8.061 -0.2511 -0.2167  0.0517
 7521SOL    HW134025   3.290   1.343   8.078 -0.6684 -0.5273  0.5882
 7521SOL    HW234026   3.142   1.364   8.029  0.9908 -3.1993  0.9571
 7522SOL     OW34027   3.636   3.005   5.674 -0.0466 -0.5562 -0.0529
 7522SOL    HW134028   3.641   2.973   5.584  0.9603  1.6564 -0.8022
 7522SOL    HW234029   3.601   3.092   5.652  0.5615 -0.1560  0.5395
 7523SOL     OW34030   3.230   1.169  17.074  0.0635  0.0231  0.2391
 7523SOL    HW134031   3.268   1.087  17.044  1.0592  0.4444  0.3517
 7523SOL    HW234032   3.273   1.169  17.159 -1.1671  1.4383  0.8617
 7524SOL     OW34033   0.275   2.537   4.315 -0.5231 -0.5140  0.0161
 7524SOL    HW134034   0.305   2.624   4.343  1.3440 -0.5365 -1.9271
 7524SOL    HW234035   0.215   2.552   4.242 -0.6944  0.2101  0.3043
 7525SOL     OW34036   2.206   4.358  14.647  0.0955  0.0919  0.0881
 7525SOL    HW134037   2.182   4.344  14.555  1.7476 -1.6507 -0.0794
 7525SOL    HW234038   2.282   4.413  14.630  1.8587 -1.3975  3.2063
 7526SOL     OW34039   2.907   4.408  16.330  0.5623 -0.4947  0.1593
 7526SOL    HW134040   2.832   4.429  16.273  0.9281  0.1047 -0.1013
 7526SOL    HW234041   2.971   4.460  16.282 -2.1032  1.2397 -1.5588
 7527SOL     OW34042   4.486   0.743   2.719  0.1062 -0.2533  0.3389
 7527SOL    HW134043   4.446   0.677   2.663  0.3197 -0.0351 -0.0700
 7527SOL    HW234044   4.528   0.811   2.667  1.2970 -1.6797 -0.5602
 7528SOL     OW34045   3.842   0.132  13.034  0.0441  0.4379  0.5864
 7528SOL    HW134046   3.860   0.178  12.953  1.0974  2.3288  1.9054
 7528SOL    HW234047   3.824   0.202  13.097  0.4578  0.1550  1.0257
 7529SOL     OW34048   1.370   3.338  12.907  0.1293  0.1923 -0.3401
 7529SOL    HW134049   1.312   3.410  12.931 -1.7436 -1.5153  0.2544
 7529SOL    HW234050   1.422   3.385  12.842  3.1809 -0.5305  1.5445
 7530SOL     OW34051   3.006   0.249  14.665  0.1452 -0.3059 -0.2979
 7530SOL    HW134052   3.034   0.327  14.713  2.4419 -2.3558  1.6846
 7530SOL    HW234053   2.936   0.215  14.720  1.8160 -1.6315  1.0150
 7531SOL     OW34054   0.603   2.948   5.063 -0.2524  0.3604 -0.4439
 7531SOL    HW134055   0.692   2.917   5.046  0.0338  0.3614  1.0633
 7531SOL    HW234056   0.576   2.901   5.142  0.4178  0.5882 -0.0786
 7532SOL     OW34057   0.957   2.202   6.638 -0.4489 -0.0896 -0.3113
 7532SOL    HW134058   0.874   2.196   6.591 -1.0167 -1.4720  0.8660
 7532SOL    HW234059   1.020   2.242   6.577  0.3587 -2.3844 -0.9954
 7533SOL     OW34060   1.828   3.818   0.237 -0.3708  0.5766 -0.1847
 7533SOL    HW134061   1.807   3.909   0.259  1.3410  0.6822  1.0859
 7533SOL    HW234062   1.795   3.798   0.150  1.1550  0.4592 -0.7406
 7534SOL     OW34063   2.411   3.985   5.095 -0.2219 -0.0943 -0.8904
 7534SOL    HW134064   2.371   3.989   5.182  0.1841  1.6763 -0.7859
 7534SOL    HW234065   2.379   3.900   5.064 -0.4046 -0.6143  0.6954
 7535SOL     OW34066   1.033   3.530   3.641  0.0334 -0.2920 -0.3661
 7535SOL    HW134067   1.122   3.564   3.643  0.1203 -0.4952 -0.7683
 7535SOL    HW234068   1.019   3.512   3.733 -1.8297  0.1569 -0.5570
 7536SOL     OW34069   0.054   1.369   3.381  0.2892  0.2268  0.1746
 7536SOL    HW134070   0.129   1.406   3.334  0.4615  0.3860  0.5721
 7536SOL    HW234071   0.090   1.282   3.394  2.0094  1.1289  1.4144
 7537SOL     OW34072   0.681   3.778  14.696 -0.1535 -0.3002 -0.0223
 7537SOL    HW134073   0.759   3.823  14.664 -1.0232  2.2230  1.3845
 7537SOL    HW234074   0.722   3.731  14.769  0.2373  1.2981  0.7789
 7538SOL     OW34075   3.038   2.415   0.648 -0.0259  0.0429  0.1411
 7538SOL    HW134076   3.114   2.413   0.590  0.1970  1.6151  0.3591
 7538SOL    HW234077   3.053   2.332   0.692 -0.5117  0.5839  1.3501
 7539SOL     OW34078   3.288   0.268   6.868 -0.6389 -0.2357 -0.5521
 7539SOL    HW134079   3.377   0.240   6.846  0.7615  2.5463  1.6765
 7539SOL    HW234080   3.308   0.289   6.959  0.3183 -0.7742 -0.6431
 7540SOL     OW34081   1.535   0.839   5.124 -0.0463 -0.1092  0.1876
 7540SOL    HW134082   1.521   0.745   5.118  2.1137 -0.3990 -0.2692
 7540SOL    HW234083   1.620   0.844   5.168 -1.3473 -0.0380  2.6757
 7541SOL     OW34084   4.712   2.152   9.412  0.1204  0.1531  0.4048
 7541SOL    HW134085   0.048   2.170   9.481  0.6636  1.0517 -0.3243
 7541SOL    HW234086   4.665   2.235   9.409  0.9402  0.5959 -0.0970
 7542SOL     OW34087   0.352   3.321   5.829  0.1185  0.1235 -0.3918
 7542SOL    HW134088   0.402   3.392   5.789  0.3472 -1.0708 -2.2284
 7542SOL    HW234089   0.429   3.264   5.838 -0.5054 -0.6564 -0.0631
 7543SOL     OW34090   2.948   2.698   5.261  0.7708 -0.0967  0.4474
 7543SOL    HW134091   2.943   2.761   5.334  0.3799  0.2411  0.1278
 7543SOL    HW234092   3.015   2.635   5.287 -1.1641 -1.9595  0.8639
 7544SOL     OW34093   1.732   2.004   4.674  0.2865 -0.1021  0.3180
 7544SOL    HW134094   1.711   2.005   4.580  0.0985 -0.1935  0.3595
 7544SOL    HW234095   1.750   2.098   4.675  0.1045 -0.0669  0.2751
 7545SOL     OW34096   2.852   3.053   4.893 -0.4264  0.1272  0.0811
 7545SOL    HW134097   2.898   3.058   4.976  1.1502 -0.0341 -0.7842
 7545SOL    HW234098   2.895   2.972   4.865  0.6631  0.8819 -0.4312
 7546SOL     OW34099   1.840   3.429   9.011  0.3236  0.0977  0.1585
 7546SOL    HW134100   1.779   3.378   8.957 -0.0662  0.0747  0.6206
 7546SOL    HW234101   1.918   3.439   8.956  1.2294 -0.6387  1.3080
 7547SOL     OW34102   3.247   4.022   5.203 -0.6849 -0.5276 -0.5509
 7547SOL    HW134103   3.188   3.948   5.215  2.2100 -2.5002  1.6025
 7547SOL    HW234104   3.189   4.078   5.151 -0.0022 -0.5450 -1.3465
 7548SOL     OW34105   3.618   3.138  13.948  0.1924 -0.1034  0.3857
 7548SOL    HW134106   3.713   3.127  13.959  0.2776 -0.4100 -0.6368
 7548SOL    HW234107   3.588   3.187  14.024  2.1351 -0.9197  1.6683
 7549SOL     OW34108   2.392   2.242   9.665 -0.0077 -0.6690 -0.1089
 7549SOL    HW134109   2.382   2.160   9.713 -0.9791  0.9091  2.4060
 7549SOL    HW234110   2.470   2.283   9.702 -0.6850  1.6176 -1.1887
 7550SOL     OW34111   0.395   4.343   9.685 -0.4862  0.4729  0.4451
 7550SOL    HW134112   0.483   4.372   9.710  0.0939 -1.8941  1.1550
 7550SOL    HW234113   0.356   4.416   9.637  1.8825  0.6782 -1.1412
 7551SOL     OW34114   2.367   2.540   7.370 -0.0641  0.7670 -0.2980
 7551SOL    HW134115   2.364   2.569   7.278 -1.5808 -0.0805 -0.5269
 7551SOL    HW234116   2.366   2.444   7.367  3.3621  0.6863  2.1149
 7552SOL     OW34117   3.031   4.375   1.797 -0.8555 -0.4272  0.0963
 7552SOL    HW134118   2.976   4.434   1.849  0.2383  2.5386 -2.1117
 7552SOL    HW234119   2.987   4.362   1.713  2.2496  2.4514 -1.9758
 7553SOL     OW34120   1.285   1.221   4.731  0.0714 -0.1321  0.0353
 7553SOL    HW134121   1.246   1.240   4.646  0.8462 -1.1342 -0.5338
 7553SOL    HW234122   1.247   1.134   4.737  0.6912 -0.2939  1.5779
 7554SOL     OW34123   2.170   4.726   9.466  0.1175  0.6292 -0.4340
 7554SOL    HW134124   2.178   4.634   9.491  0.2760  0.7668  0.0052
 7554SOL    HW234125   2.081   0.014   9.497 -0.5778 -0.6473 -1.8074
 7555SOL     OW34126   0.042   3.992   5.364 -0.1133 -0.1432 -0.6544
 7555SOL    HW134127   4.708   4.001   5.291 -1.0475  1.5739  0.3578
 7555SOL    HW234128   0.107   4.059   5.340  3.2224 -3.1028  0.0968
 7556SOL     OW34129   1.132   1.803  12.333  0.1686  0.2208 -0.3063
 7556SOL    HW134130   1.159   1.895  12.324 -0.2363  0.4147  0.4345
 7556SOL    HW234131   1.217   1.777  12.369  0.8415 -0.4019 -2.3583
 7557SOL     OW34132   4.695   1.104   8.871 -0.4430 -0.3521 -0.2581
 7557SOL    HW134133   0.030   1.128   8.939 -1.2218  0.3080  0.2273
 7557SOL    HW234134   0.026   1.090   8.797 -0.8080 -0.2087 -0.5755
 7558SOL     OW34135   2.865   3.702  10.185  0.1508 -0.0676  0.5082
 7558SOL    HW134136   2.945   3.711  10.236  1.3637  2.6786 -1.8428
 7558SOL    HW234137   2.902   3.672  10.102 -2.2608  0.8048 -0.9028
 7559SOL     OW34138   2.923   2.862  14.513  0.2082 -0.4290 -0.4951
 7559SOL    HW134139   2.943   2.902  14.428  0.3227  1.4557  0.4188
 7559SOL    HW234140   2.993   2.898  14.567 -1.6210  1.6404  0.4776
 7560SOL     OW34141   0.729   3.365   7.805 -0.1824  0.0031  0.2329
 7560SOL    HW134142   0.678   3.285   7.790  0.2915 -0.3811  0.6921
 7560SOL    HW234143   0.726   3.367   7.900 -0.1459 -2.3738  0.2830
 7561SOL     OW34144   2.702   0.440   1.716  0.6446 -0.3796 -0.3811
 7561SOL    HW134145   2.634   0.420   1.781 -1.6423  0.5088 -2.5003
 7561SOL    HW234146   2.761   0.493   1.769  1.6950 -0.2939 -1.6562
 7562SOL     OW34147   3.616   1.490   0.430 -0.5363  0.9008  0.0801
 7562SOL    HW134148   3.556   1.532   0.367 -0.7165 -1.6652 -1.4283
 7562SOL    HW234149   3.608   1.397   0.413 -1.0752  0.8065  0.8100
 7563SOL     OW34150   2.314   4.516  12.212 -0.3514  0.1275  0.4409
 7563SOL    HW134151   2.388   4.470  12.173  0.5637  0.8377  1.3312
 7563SOL    HW234152   2.290   4.578  12.142  0.1826  2.3078  2.1729
 7564SOL     OW34153   1.469   4.514   9.679  0.1382 -0.4484 -0.2249
 7564SOL    HW134154   1.426   4.587   9.633 -0.3858 -0.7252 -0.1803
 7564SOL    HW234155   1.512   4.570   9.744  0.2795 -0.4203 -0.3420
 7565SOL     OW34156   3.970   3.624   6.584  0.6020  0.4389  0.0093
 7565SOL    HW134157   4.052   3.670   6.567  0.6223  0.0459 -0.9533
 7565SOL    HW234158   4.007   3.550   6.632  0.1672 -0.9656 -1.8081
 7566SOL     OW34159   0.085   2.206  14.891  0.2861 -0.0461  0.0326
 7566SOL    HW134160   0.078   2.217  14.985  0.7112 -0.1658  0.0791
 7566SOL    HW234161   0.177   2.185  14.873  0.6826  0.9460  0.9934
 7567SOL     OW34162   2.765   1.145  16.161  0.8811  0.2419 -0.3697
 7567SOL    HW134163   2.748   1.062  16.205 -1.6519  0.6572 -0.5930
 7567SOL    HW234164   2.737   1.208  16.227 -0.0655  0.3613 -0.8860
 7568SOL     OW34165   4.675   4.231   8.443 -0.6555 -0.4685 -0.0347
 7568SOL    HW134166   0.007   4.192   8.379  0.2833 -0.7771  1.0239
 7568SOL    HW234167   4.712   4.211   8.529  1.5742 -0.3857 -0.9739
 7569SOL     OW34168   2.770   2.316   4.064  0.1262 -0.6846 -0.0040
 7569SOL    HW134169   2.801   2.240   4.113 -1.0768 -0.7159  0.7230
 7569SOL    HW234170   2.675   2.298   4.062 -0.0228  0.0400  0.6369
 7570SOL     OW34171   0.793   1.393   5.001 -0.1085 -0.0968  0.3982
 7570SOL    HW134172   0.712   1.355   5.036  1.0681 -3.2047 -0.2266
 7570SOL    HW234173   0.838   1.321   4.958 -0.4441  0.2476 -0.5242
 7571SOL     OW34174   0.919   0.072  14.207 -0.1906 -0.4762  0.1179
 7571SOL    HW134175   0.903   0.123  14.286  1.0526 -1.5642  1.0672
 7571SOL    HW234176   0.933   4.713  14.246  0.8546 -0.9544 -1.3271
 7572SOL     OW34177   2.877   0.045   3.592 -0.0728  0.4917 -0.2332
 7572SOL    HW134178   2.946   0.009   3.648 -0.6448  0.0486  0.1813
 7572SOL    HW234179   2.801   0.001   3.628 -0.1841  2.3379  1.7778
 7573SOL     OW34180   4.114   4.299   7.519 -0.4607 -0.7564  0.4104
 7573SOL    HW134181   4.078   4.317   7.432 -1.0885  0.4930  0.9422
 7573SOL    HW234182   4.138   4.209   7.495  2.3564 -0.1048  0.8544
 7574SOL     OW34183   3.479   2.589   8.184 -0.0690  0.4412 -0.5177
 7574SOL    HW134184   3.416   2.520   8.207 -1.9993  2.4903  0.4079
 7574SOL    HW234185   3.473   2.651   8.257 -0.2630  1.0669 -1.0710
 7575SOL     OW34186   2.153   0.595   4.418 -0.1535  0.4432  0.1092
 7575SOL    HW134187   2.179   0.518   4.368 -1.7752  0.5926 -0.9710
 7575SOL    HW234188   2.236   0.643   4.412  0.2005 -0.0831  0.7990
 7576SOL     OW34189   1.272   0.943   4.379 -0.1707 -0.2340 -0.1560
 7576SOL    HW134190   1.299   0.899   4.460 -1.5870  0.6201  0.7881
 7576SOL    HW234191   1.355   0.966   4.336 -0.1299  1.5582  0.8444
 7577SOL     OW34192   0.338   1.805   7.414 -0.2723 -0.2191  0.0780
 7577SOL    HW134193   0.289   1.884   7.390 -2.3610 -0.2524  4.2450
 7577SOL    HW234194   0.275   1.762   7.472 -0.9205 -0.7531 -1.0179
 7578SOL     OW34195   1.413   1.256   3.912 -0.0362 -0.1657  0.3083
 7578SOL    HW134196   1.336   1.310   3.930  0.8136  1.3943 -0.7509
 7578SOL    HW234197   1.409   1.240   3.818 -1.8403  0.9706  0.1911
 7579SOL     OW34198   4.662   0.358   8.298 -0.1854 -0.0887 -0.4013
 7579SOL    HW134199   4.585   0.365   8.242  0.2834  0.4509 -0.9831
 7579SOL    HW234200   4.640   0.426   8.361  1.5340 -0.3157  0.4291
 7580SOL     OW34201   3.701   0.073  16.733 -0.4075  0.4463  0.5023
 7580SOL    HW134202   3.701   0.113  16.820  0.7129 -1.0726  1.2003
 7580SOL    HW234203   3.774   0.129  16.704 -0.9403 -0.6752 -2.9954
 7581SOL     OW34204   0.651   4.422  17.432  0.4375  0.4621  0.3128
 7581SOL    HW134205   0.648   4.368  17.512 -2.6187  2.0639  1.2693
 7581SOL    HW234206   0.742   4.451  17.433  0.6809 -0.3249  1.3923
 7582SOL     OW34207   1.710   3.528   5.144  0.1393 -0.0545 -0.1003
 7582SOL    HW134208   1.687   3.465   5.076 -1.8175  2.0730 -1.4000
 7582SOL    HW234209   1.789   3.490   5.183 -1.3061 -3.0517 -0.1130
 7583SOL     OW34210   0.307   2.537   5.902  0.1570  0.2454 -0.5825
 7583SOL    HW134211   0.370   2.610   5.905  1.3400 -0.7211 -2.2875
 7583SOL    HW234212   0.369   2.465   5.889 -0.5089 -0.8698  2.5315
 7584SOL     OW34213   1.207   2.658   7.352 -0.4158  0.2368  0.0302
 7584SOL    HW134214   1.222   2.743   7.395 -0.2620  1.4377 -2.3732
 7584SOL    HW234215   1.288   2.637   7.306 -1.4264 -2.2505 -0.5947
 7585SOL     OW34216   1.317   2.087   2.059 -0.2314  0.1587 -0.7094
 7585SOL    HW134217   1.301   2.009   2.113  0.4814  1.0352  0.7558
 7585SOL    HW234218   1.297   2.051   1.972  0.9702 -2.9457  0.2907
 7586SOL     OW34219   2.826   3.799   6.920 -0.1915  0.1206  0.4048
 7586SOL    HW134220   2.824   3.763   7.009  1.0209  2.0658  1.2032
 7586SOL    HW234221   2.823   3.716   6.872 -0.8578  0.9424 -1.0062
 7587SOL     OW34222   1.393   2.120   6.951  0.1396 -0.0727  0.3571
 7587SOL    HW134223   1.454   2.092   6.882  0.2702  0.8578  0.0985
 7587SOL    HW234224   1.314   2.131   6.899 -0.4289  0.3473  1.3182
 7588SOL     OW34225   0.970   0.214   6.543 -0.1339  0.3546  0.0270
 7588SOL    HW134226   1.001   0.208   6.633  0.9487  0.0479 -0.3618
 7588SOL    HW234227   1.052   0.196   6.498  0.4985  1.9852  0.5419
 7589SOL     OW34228   2.163   0.555  10.865 -0.0193 -0.1097  0.0287
 7589SOL    HW134229   2.103   0.522  10.798 -0.4710  0.0370  0.3608
 7589SOL    HW234230   2.117   0.562  10.949  0.7445 -0.5517  0.4912
 7590SOL     OW34231   2.187   3.733   6.106 -0.1172 -0.3722  0.4496
 7590SOL    HW134232   2.281   3.724   6.090  0.0199  1.1176  0.4751
 7590SOL    HW234233   2.191   3.745   6.201 -2.6898  0.7173  0.4267
 7591SOL     OW34234   1.881   0.999   6.794 -0.4565  0.0818  0.1507
 7591SOL    HW134235   1.870   1.089   6.824  2.2603 -0.5802  3.1030
 7591SOL    HW234236   1.968   0.975   6.826 -0.1544 -0.2504 -0.9048
 7592SOL     OW34237   1.403   3.304   5.517  0.0394  0.4258  0.1317
 7592SOL    HW134238   1.467   3.234   5.531 -1.0439 -0.4984  0.4948
 7592SOL    HW234239   1.422   3.360   5.592 -0.6055  1.4742 -0.4862
 7593SOL     OW34240   2.738   2.145   4.270 -0.4051 -0.0308  0.0954
 7593SOL    HW134241   2.806   2.084   4.299 -0.7237 -0.6906 -0.5528
 7593SOL    HW234242   2.663   2.086   4.266 -2.1852  2.1853  1.1050
 7594SOL     OW34243   1.854   1.177   1.265 -0.4467  0.4503  0.1273
 7594SOL    HW134244   1.800   1.143   1.194  1.3117 -1.2219 -0.4277
 7594SOL    HW234245   1.907   1.098   1.280 -1.2567 -0.2653 -0.8153
 7595SOL     OW34246   3.800   0.359  12.142  0.2112  0.0175 -0.0950
 7595SOL    HW134247   3.832   0.286  12.194 -0.3672 -0.8024 -0.8862
 7595SOL    HW234248   3.724   0.325  12.095  1.0698  0.3909 -1.7917
 7596SOL     OW34249   1.422   3.361   6.399 -0.0073  0.3851  0.0332
 7596SOL    HW134250   1.370   3.402   6.331  0.0034 -1.0637 -0.8468
 7596SOL    HW234251   1.457   3.277   6.368 -0.9469 -0.6227  1.7018
 7597SOL     OW34252   4.477   2.698  14.712 -0.1769 -0.8269 -0.0859
 7597SOL    HW134253   4.421   2.727  14.784  0.3319  3.0040 -1.1919
 7597SOL    HW234254   4.555   2.751  14.731  0.7884 -1.9129 -1.0158
 7598SOL     OW34255   0.738   1.745   3.637  0.3238  0.6850 -0.2531
 7598SOL    HW134256   0.765   1.653   3.648  0.4229  0.9683  1.9170
 7598SOL    HW234257   0.645   1.733   3.656  1.5625 -2.9246  3.7277
 7599SOL     OW34258   2.040   2.635  13.231 -0.3012 -0.0060  0.0702
 7599SOL    HW134259   1.974   2.705  13.230 -1.9805 -1.5935  2.0166
 7599SOL    HW234260   2.079   2.640  13.318  2.1261  1.7898 -1.0908
 7600SOL     OW34261   2.128   1.718   7.192 -0.2966 -0.2531  0.1251
 7600SOL    HW134262   2.123   1.758   7.279 -0.6835 -0.7255  0.3179
 7600SOL    HW234263   2.144   1.628   7.220 -0.2936  0.2666  1.8233
 7601SOL     OW34264   1.756   3.905   9.794 -0.0073 -0.5855 -0.1048
 7601SOL    HW134265   1.750   3.969   9.865 -1.3334  1.8403 -2.4424
 7601SOL    HW234266   1.828   3.943   9.745 -0.2724 -0.3982 -0.3460
 7602SOL     OW34267   3.997   1.014   0.523  0.2775 -0.1003 -0.2718
 7602SOL    HW134268   3.919   0.971   0.487 -0.6027  0.0694  1.4355
 7602SOL    HW234269   3.974   1.107   0.512  0.8780  0.0346 -0.3922
 7603SOL     OW34270   3.778   0.626   8.627  0.3424 -1.0958 -0.2032
 7603SOL    HW134271   3.817   0.601   8.711 -0.2664  0.1354  0.4393
 7603SOL    HW234272   3.692   0.588   8.645  1.0639 -1.5188  2.4696
 7604SOL     OW34273   0.879   3.497   7.044  0.2995  0.3970  0.2864
 7604SOL    HW134274   0.804   3.490   7.102 -0.8192 -2.1432 -1.4828
 7604SOL    HW234275   0.935   3.553   7.097 -0.4471  0.7197  0.7307
 7605SOL     OW34276   0.121   4.309   0.683 -0.3292  0.1578 -0.4872
 7605SOL    HW134277   0.084   4.225   0.708  0.9630  0.2057  1.5442
 7605SOL    HW234278   0.130   4.347   0.770  0.9173 -0.1100 -0.4944
 7606SOL     OW34279   2.811   1.864   8.822  0.1322 -0.2005 -0.0908
 7606SOL    HW134280   2.764   1.847   8.740  2.2976 -1.5375 -1.0571
 7606SOL    HW234281   2.746   1.827   8.881 -0.9967 -0.2504 -1.3665
 7607SOL     OW34282   4.690   4.042   5.113  0.4504  0.2770 -0.3682
 7607SOL    HW134283   0.048   4.032   5.071  1.3829  2.1532  1.1249
 7607SOL    HW234284   4.641   4.004   5.039  1.8277  2.1165 -2.2360
 7608SOL     OW34285   4.306   3.109   3.398 -0.5761 -0.2308 -0.9919
 7608SOL    HW134286   4.220   3.070   3.385  0.0647 -2.1082  0.4211
 7608SOL    HW234287   4.332   3.059   3.476 -2.4214  1.3532  0.6280
 7609SOL     OW34288   0.853   2.570  10.938  0.1449 -0.4446 -0.2171
 7609SOL    HW134289   0.907   2.493  10.955  2.9471  2.0039  1.9796
 7609SOL    HW234290   0.808   2.548  10.856 -0.4688  1.5699 -0.4221
 7610SOL     OW34291   3.193   1.825   1.480  0.2226  0.0549 -0.3923
 7610SOL    HW134292   3.134   1.754   1.454  0.4677 -0.5771  0.7946
 7610SOL    HW234293   3.131   1.895   1.501  0.6785  0.0886  0.7990
 7611SOL     OW34294   4.516   1.240   3.691 -0.3904  0.0566 -0.1431
 7611SOL    HW134295   4.540   1.163   3.639 -1.1732  1.1102 -2.0641
 7611SOL    HW234296   4.427   1.212   3.712 -0.3393  0.2228  0.2936
 7612SOL     OW34297   1.006   2.073   7.038  0.1871  0.1107 -0.0273
 7612SOL    HW134298   0.944   2.139   7.009  0.5337  0.9524  1.1567
 7612SOL    HW234299   1.051   2.048   6.957 -3.2942 -0.6205 -1.7574
 7613SOL     OW34300   0.302   1.277   0.031  0.1329 -0.3480 -0.1314
 7613SOL    HW134301   0.307   1.329   0.112 -4.9803  0.1886 -0.1919
 7613SOL    HW234302   0.354   1.198   0.046  0.4592 -0.0017  0.5757
 7614SOL     OW34303   4.453   2.072   6.404 -0.2461 -0.0577  0.0091
 7614SOL    HW134304   4.384   2.106   6.461  0.1714  2.0311 -0.7187
 7614SOL    HW234305   4.531   2.110   6.445 -0.7631  0.9726  0.0354
 7615SOL     OW34306   0.497   3.563   1.956 -0.1050  0.1461 -0.4094
 7615SOL    HW134307   0.469   3.504   1.887 -1.8297  0.9464 -0.4049
 7615SOL    HW234308   0.455   3.645   1.929  0.2564  0.8852  1.2554
 7616SOL     OW34309   3.203   2.022  12.659 -0.5416 -0.0135 -0.1668
 7616SOL    HW134310   3.260   1.950  12.631  1.1986  1.0724  0.5986
 7616SOL    HW234311   3.170   1.982  12.739 -1.8250 -1.7224 -1.5662
 7617SOL     OW34312   0.919   4.312   6.866 -0.2377 -0.7719  0.1940
 7617SOL    HW134313   0.902   4.309   6.772  2.8246  1.4073 -0.4197
 7617SOL    HW234314   0.845   4.271   6.911 -0.3246 -0.4632  0.3284
 7618SOL     OW34315   3.116   4.389   0.822 -0.2595  0.3655 -0.0896
 7618SOL    HW134316   3.036   4.438   0.841  0.5468  1.3795  0.6770
 7618SOL    HW234317   3.180   4.459   0.814  2.1666 -1.8874 -0.4827
 7619SOL     OW34318   2.273   2.190  10.724  0.3683  0.0347  0.5001
 7619SOL    HW134319   2.339   2.202  10.792  0.1136  1.2513  0.5400
 7619SOL    HW234320   2.321   2.135  10.662 -0.2092 -1.4008  1.3183
 7620SOL     OW34321   1.504   0.191   8.257  0.3979 -0.0318 -0.0274
 7620SOL    HW134322   1.490   0.249   8.332 -1.9304  0.7982 -1.0748
 7620SOL    HW234323   1.411   0.195   8.233  0.2916  0.3537  0.4605
 7621SOL     OW34324   1.505   3.487   2.396 -0.1111  0.1744  0.0487
 7621SOL    HW134325   1.411   3.502   2.398 -0.1909 -0.3609  0.2649
 7621SOL    HW234326   1.513   3.409   2.341  0.2178  0.1896  0.0743
 7622SOL     OW34327   4.135   2.619   4.211  0.6577  0.2611 -0.2101
 7622SOL    HW134328   4.086   2.558   4.265 -0.1913 -0.4258 -1.7496
 7622SOL    HW234329   4.120   2.583   4.123  0.3239 -2.5591  1.0015
 7623SOL     OW34330   0.315   1.943  15.553  0.1855 -0.1137  0.3468
 7623SOL    HW134331   0.236   1.900  15.584  0.5341 -0.6370  0.5140
 7623SOL    HW234332   0.333   1.998  15.629  2.0204 -2.0926  1.3657
 7624SOL     OW34333   1.403   3.549   9.200  1.4845  0.7634  0.0733
 7624SOL    HW134334   1.491   3.547   9.161  0.9072  1.1191 -1.2367
 7624SOL    HW234335   1.404   3.641   9.227 -1.4724  0.0869  2.4269
 7625SOL     OW34336   0.771   0.705  12.290 -0.0906 -0.0453  0.2243
 7625SOL    HW134337   0.779   0.695  12.385  1.3228  2.1179  0.3514
 7625SOL    HW234338   0.818   0.628  12.258  0.0380  0.6757 -1.3165
 7626SOL     OW34339   3.873   0.962   9.251  0.1430 -0.5244 -1.2871
 7626SOL    HW134340   3.961   0.935   9.224  1.7989  1.7263  1.8236
 7626SOL    HW234341   3.849   0.906   9.324 -0.8325 -0.6064 -1.6762
 7627SOL     OW34342   1.249   4.687  14.643  0.0363 -0.3909  0.5437
 7627SOL    HW134343   1.160   4.712  14.669 -0.4945  0.5815 -2.2402
 7627SOL    HW234344   1.233   4.618  14.579  1.8192 -1.4876  1.2927
 7628SOL     OW34345   0.748   4.673   4.937  0.2450  0.0100 -0.0214
 7628SOL    HW134346   0.659   4.654   4.906  0.6718 -1.0780 -0.5565
 7628SOL    HW234347   0.779   4.591   4.974 -2.9221 -1.2155 -0.0912
 7629SOL     OW34348   2.106   1.037   4.670 -0.0628 -0.1582 -0.1044
 7629SOL    HW134349   2.193   0.998   4.675 -1.3176 -2.8551  0.3375
 7629SOL    HW234350   2.115   1.122   4.626  1.1071  0.7433  1.8164
 7630SOL     OW34351   0.206   3.190   4.276  0.4598  0.3872  0.8020
 7630SOL    HW134352   0.261   3.258   4.237 -0.7376 -0.0062 -1.6339
 7630SOL    HW234353   0.162   3.244   4.341  1.2522  0.8016  0.9881
 7631SOL     OW34354   1.470   3.844   8.584 -0.4736  0.0182  0.6262
 7631SOL    HW134355   1.527   3.913   8.549 -1.1585  0.1132 -0.3158
 7631SOL    HW234356   1.456   3.886   8.669  2.2348  2.0953  0.0406
 7632SOL     OW34357   1.735   3.142   7.498  0.1919  0.3002 -0.5732
 7632SOL    HW134358   1.750   3.103   7.412  1.0140 -0.6089 -0.0158
 7632SOL    HW234359   1.813   3.108   7.540 -0.2355  1.0414  0.7919
 7633SOL     OW34360   1.421   0.308   4.666 -0.0995  0.1198 -0.4231
 7633SOL    HW134361   1.331   0.282   4.649 -0.5279  1.4708 -0.2114
 7633SOL    HW234362   1.415   0.397   4.700 -0.9258 -0.5534  1.1832
 7634SOL     OW34363   4.485   1.776   8.682  0.5899  0.4159 -0.4601
 7634SOL    HW134364   4.398   1.739   8.698  1.3151 -1.0167  0.0722
 7634SOL    HW234365   4.533   1.770   8.764 -0.5026 -1.6030  0.0262
 7635SOL     OW34366   3.519   0.746  11.536  0.0920 -0.1420  0.1691
 7635SOL    HW134367   3.528   0.839  11.515  0.4226  0.3982  2.7066
 7635SOL    HW234368   3.556   0.739  11.624  0.4525 -0.1002  0.0222
 7636SOL     OW34369   3.208   1.196   3.090  1.3028  0.3369 -0.2777
 7636SOL    HW134370   3.250   1.194   3.005  1.9192  2.5367 -0.0442
 7636SOL    HW234371   3.196   1.291   3.101 -1.5691  0.1372 -1.7919
 7637SOL     OW34372   4.636   1.935  15.833 -0.4166  0.3481 -0.3206
 7637SOL    HW134373   4.701   1.875  15.797 -0.7897 -1.4588  2.0070
 7637SOL    HW234374   4.677   2.021  15.825 -1.7942  0.8644 -1.9087
 7638SOL     OW34375   4.452   0.478   4.642 -0.3523  0.4014 -0.5744
 7638SOL    HW134376   4.530   0.505   4.691  0.7023 -1.1140 -1.4035
 7638SOL    HW234377   4.440   0.388   4.672 -0.9165  1.1000  1.3111
 7639SOL     OW34378   3.665   4.378  17.269  0.3803 -0.0996 -0.2347
 7639SOL    HW134379   3.746   4.354  17.225  0.9839  1.1823  0.1588
 7639SOL    HW234380   3.651   4.314  17.338  2.0576  0.9573  1.0759
 7640SOL     OW34381   2.655   3.073   4.503 -0.2465 -0.3949 -0.3411
 7640SOL    HW134382   2.613   3.138   4.559  2.2698  0.3427  0.6843
 7640SOL    HW234383   2.585   3.010   4.514  0.8804 -1.1868  2.4210
 7641SOL     OW34384   3.131   0.870   7.875  0.4013 -0.7720 -0.3051
 7641SOL    HW134385   3.149   0.824   7.958  0.9058 -0.1738 -0.0886
 7641SOL    HW234386   3.150   0.959   7.903 -1.1943 -0.1815 -1.1203
 7642SOL     OW34387   3.224   3.467   7.714 -0.6776 -0.1112  0.6447
 7642SOL    HW134388   3.250   3.377   7.696 -3.0373 -1.0715  2.0203
 7642SOL    HW234389   3.247   3.460   7.807  1.4092 -1.1285  0.0395
 7643SOL     OW34390   2.300   4.601   6.160  0.2781  0.0188 -0.0285
 7643SOL    HW134391   2.245   4.555   6.223 -0.7098 -0.5488 -1.3033
 7643SOL    HW234392   2.333   4.527   6.108  0.8478 -0.7623  1.4585
 7644SOL     OW34393   0.201   2.040   4.614 -0.1628  0.6699  0.0089
 7644SOL    HW134394   0.144   2.116   4.608  1.3243  1.8358  0.7633
 7644SOL    HW234395   0.155   1.981   4.554  0.6002 -0.9454  1.0238
 7645SOL     OW34396   4.292   0.215  12.881  0.8131  0.4359  0.3868
 7645SOL    HW134397   4.227   0.283  12.864  0.7634 -0.2124 -1.9247
 7645SOL    HW234398   4.359   0.235  12.816 -0.5188  0.8397 -0.8399
 7646SOL     OW34399   4.341   0.810   9.915  0.3440  0.1338  0.0326
 7646SOL    HW134400   4.314   0.843  10.001 -2.2118  0.1473 -0.7968
 7646SOL    HW234401   4.371   0.890   9.872  2.7584 -2.3183 -2.8207
 7647SOL     OW34402   1.643   2.789   6.152 -0.2736  0.1160 -0.7430
 7647SOL    HW134403   1.695   2.867   6.172  0.5763 -0.1588 -1.8467
 7647SOL    HW234404   1.612   2.759   6.237  0.4785  0.4722 -0.3449
 7648SOL     OW34405   1.676   4.188   3.317 -0.3863 -0.5161 -0.6426
 7648SOL    HW134406   1.600   4.232   3.354 -0.9704 -1.0205 -1.2313
 7648SOL    HW234407   1.741   4.256   3.330  0.3160 -1.1728 -0.7176
 7649SOL     OW34408   0.118   4.038   3.979 -0.7329 -0.2295  0.3024
 7649SOL    HW134409   0.057   3.980   3.934 -1.9448  1.9207 -0.8290
 7649SOL    HW234410   0.051   4.104   3.997  0.9564  0.8805  2.5197
 7650SOL     OW34411   1.377   1.463   0.532 -0.0672 -0.2672  0.0699
 7650SOL    HW134412   1.391   1.407   0.456 -0.6602 -0.7314  0.3052
 7650SOL    HW234413   1.454   1.449   0.588 -1.1715  0.1529  1.6902
 7651SOL     OW34414   2.050   3.501   3.290  0.0199 -0.3052  0.0268
 7651SOL    HW134415   1.982   3.502   3.358  0.3327  2.0046  0.3219
 7651SOL    HW234416   1.997   3.547   3.224 -1.7623 -0.7522  1.1483
 7652SOL     OW34417   1.744   3.456   7.351 -0.1958  0.7801  0.0695
 7652SOL    HW134418   1.770   3.533   7.402 -0.1192  1.2640 -0.6952
 7652SOL    HW234419   1.649   3.454   7.344  0.0471  1.0042 -3.4139
 7653SOL     OW34420   1.435   1.129  17.376 -0.4241  0.1779 -0.2623
 7653SOL    HW134421   1.344   1.159  17.374  0.2555  2.2378 -0.8632
 7653SOL    HW234422   1.440   1.045  17.421  0.3432 -0.0882 -0.8499
 7654SOL     OW34423   4.209   3.565  14.456  0.3333 -0.0742  0.4935
 7654SOL    HW134424   4.114   3.565  14.467  0.3877  1.8311  0.9358
 7654SOL    HW234425   4.227   3.580  14.548 -0.8829  0.5590  0.6281
 7655SOL     OW34426   0.628   3.584   9.792  0.2564 -0.5940  0.4860
 7655SOL    HW134427   0.658   3.660   9.843 -0.1989 -1.9682  2.8013
 7655SOL    HW234428   0.705   3.569   9.739 -1.4972 -3.6424 -1.1902
 7656SOL     OW34429   4.598   3.781   9.040  0.0653  0.2386  0.3850
 7656SOL    HW134430   4.627   3.694   9.067 -0.8084 -0.5353 -1.1540
 7656SOL    HW234431   4.619   3.792   8.948 -1.5604  0.7649  0.0703
 7657SOL     OW34432   2.586   3.310   3.683  0.6092 -0.1715  0.1646
 7657SOL    HW134433   2.637   3.247   3.734 -0.7514  0.6469  2.5556
 7657SOL    HW234434   2.577   3.379   3.749 -1.1955 -0.8325  0.6202
 7658SOL     OW34435   2.052   0.713   0.406  0.6776  0.5252 -0.1370
 7658SOL    HW134436   2.065   0.708   0.501 -0.7560 -0.6003  0.0038
 7658SOL    HW234437   2.113   0.785   0.393  1.3130 -0.2820 -1.5970
 7659SOL     OW34438   1.131   1.938  10.752  0.3269  0.0518 -0.0008
 7659SOL    HW134439   1.090   1.856  10.780  0.7317 -0.4050 -0.7524
 7659SOL    HW234440   1.116   1.996  10.827  0.0294  0.8457 -0.6779
 7660SOL     OW34441   2.874   4.305  15.423  0.6122  0.1636  0.3528
 7660SOL    HW134442   2.966   4.280  15.436  0.6334  0.5772  0.9754
 7660SOL    HW234443   2.869   4.309  15.328  0.2268  1.8486  0.4528
 7661SOL     OW34444   1.275   1.241   3.251  0.1929 -0.2248  0.1492
 7661SOL    HW134445   1.345   1.197   3.298  0.4718  1.8783  1.6650
 7661SOL    HW234446   1.199   1.193   3.285  0.3457 -0.7637 -0.2549
 7662SOL     OW34447   4.018   2.446  13.238 -0.1219 -0.1204  0.3428
 7662SOL    HW134448   3.962   2.389  13.290 -0.3840 -0.6702 -0.5291
 7662SOL    HW234449   4.010   2.414  13.148 -0.0533  1.5964 -0.2731
 7663SOL     OW34450   2.826   2.120  14.583 -0.4892  0.2171  0.3229
 7663SOL    HW134451   2.742   2.119  14.630  0.3330 -0.6630  1.7736
 7663SOL    HW234452   2.834   2.026  14.567  1.8006  0.7664 -1.7643
 7664SOL     OW34453   4.016   0.596   4.537  0.2924 -0.1786 -0.8157
 7664SOL    HW134454   3.989   0.648   4.461 -0.5697  1.8423  0.8876
 7664SOL    HW234455   4.034   0.510   4.499  1.1592 -1.2687  2.0519
 7665SOL     OW34456   2.611   1.880  15.176  0.0116 -0.2640  0.0915
 7665SOL    HW134457   2.674   1.947  15.149  0.5029  0.0246  1.9462
 7665SOL    HW234458   2.539   1.929  15.214  1.0351  1.7758 -0.6108
 7666SOL     OW34459   2.643   2.951   9.137 -0.3447 -0.9875  0.4528
 7666SOL    HW134460   2.667   3.028   9.087  0.4086 -1.1379  0.5868
 7666SOL    HW234461   2.617   2.887   9.070  0.3554 -0.5062 -0.2740
 7667SOL     OW34462   0.040   4.407   2.720  0.0131 -0.0855 -0.0576
 7667SOL    HW134463   0.086   4.323   2.717  2.7834  1.3397  2.2597
 7667SOL    HW234464   4.727   4.399   2.634  1.6177 -0.2829 -0.8043
 7668SOL     OW34465   1.508   0.435   7.921 -0.2383 -0.6609 -0.1483
 7668SOL    HW134466   1.466   0.469   8.000  1.4106 -2.3508  1.4496
 7668SOL    HW234467   1.440   0.445   7.854 -1.2576  1.9274  1.2657
 7669SOL     OW34468   3.407   0.344   5.854  0.1717 -0.1449  0.8358
 7669SOL    HW134469   3.482   0.343   5.914  1.5939  3.6043 -0.8196
 7669SOL    HW234470   3.428   0.427   5.810 -0.3756 -1.2201 -1.4631
 7670SOL     OW34471   2.949   0.213   3.887  0.0710  0.5435 -0.0182
 7670SOL    HW134472   2.974   0.121   3.874  2.2043  0.9313  1.3609
 7670SOL    HW234473   2.888   0.191   3.957 -0.1519 -0.4058 -0.5002
 7671SOL     OW34474   3.830   4.216   8.749  0.2015  0.0287 -0.2457
 7671SOL    HW134475   3.861   4.298   8.709  0.8566 -0.1100 -0.0194
 7671SOL    HW234476   3.918   4.180   8.763 -0.4536 -1.0397  1.0716
 7672SOL     OW34477   3.817   1.874   1.456 -0.1784  0.0528  0.0805
 7672SOL    HW134478   3.803   1.799   1.514 -2.2378  0.5807  0.2645
 7672SOL    HW234479   3.732   1.888   1.414  0.6703  0.7379 -1.4393
 7673SOL     OW34480   1.367   0.460   3.591  0.6694 -0.2547 -0.3184
 7673SOL    HW134481   1.458   0.431   3.603  1.2032  1.4820 -0.1080
 7673SOL    HW234482   1.316   0.396   3.640 -0.6422 -1.4129 -3.2282
 7674SOL     OW34483   4.713   3.873   6.784  0.2272  0.3709  1.1481
 7674SOL    HW134484   0.062   3.912   6.827 -0.8646  3.2065  0.5599
 7674SOL    HW234485   4.648   3.874   6.854 -0.2103 -2.5100  0.7554
 7675SOL     OW34486   4.437   1.507   1.226  0.8374  0.0662  0.0239
 7675SOL    HW134487   4.433   1.425   1.176 -0.4006 -0.3420  0.8014
 7675SOL    HW234488   4.345   1.532   1.233  1.1971  1.7121 -0.9911
 7676SOL     OW34489   4.155   3.293   5.798 -0.4139 -0.2038  0.5420
 7676SOL    HW134490   4.073   3.317   5.842 -0.5841 -1.1856  0.7658
 7676SOL    HW234491   4.151   3.198   5.787  0.8463 -0.1667 -0.1973
 7677SOL     OW34492   0.613   4.085   8.433 -0.3068 -0.2144 -0.0337
 7677SOL    HW134493   0.617   3.991   8.420  0.4409 -0.4248  1.7861
 7677SOL    HW234494   0.534   4.100   8.485 -1.2091 -1.3713 -1.0916
 7678SOL     OW34495   0.121   4.444   6.823 -0.7884 -0.0516 -0.9283
 7678SOL    HW134496   0.146   4.371   6.766 -0.0050 -1.6702  1.4612
 7678SOL    HW234497   0.205   4.482   6.849 -1.8539  2.0913 -0.6133
 7679SOL     OW34498   1.548   3.780  16.066 -0.0383 -0.1222 -0.1664
 7679SOL    HW134499   1.542   3.874  16.083  1.6452 -0.6035  3.0657
 7679SOL    HW234500   1.516   3.767  15.977  0.7624  0.7866 -0.5927
 7680SOL     OW34501   1.149   2.698   4.186  0.4278  0.0459  0.3744
 7680SOL    HW134502   1.078   2.761   4.190  0.1670 -0.1841 -0.7247
 7680SOL    HW234503   1.102   2.627   4.142 -0.7611 -0.0265  1.7760
 7681SOL     OW34504   2.762   1.466   1.976  0.0090  0.1084 -0.0780
 7681SOL    HW134505   2.760   1.459   1.881  0.0605  1.4717 -0.1761
 7681SOL    HW234506   2.760   1.376   2.008 -2.3893 -0.0640 -0.7062
 7682SOL     OW34507   4.607   1.505   8.548  0.0541 -0.0986 -0.1856
 7682SOL    HW134508   4.688   1.543   8.514  1.9388 -1.3261  2.8842
 7682SOL    HW234509   4.573   1.563   8.616  0.0423 -0.6143  0.2469
 7683SOL     OW34510   1.896   0.471   6.045  0.2078  0.1080 -0.1750
 7683SOL    HW134511   1.943   0.400   6.002 -0.0848 -0.5779  0.6308
 7683SOL    HW234512   1.926   0.545   5.992  0.9634  0.9086  1.3499
 7684SOL     OW34513   4.019   0.710   7.010 -0.5521  0.1065 -0.0277
 7684SOL    HW134514   3.997   0.638   6.952 -1.4231 -1.3039  2.0466
 7684SOL    HW234515   4.031   0.784   6.950  0.1023  0.0328  0.0155
 7685SOL     OW34516   2.660   1.549   3.308 -0.4117 -0.0560 -0.4079
 7685SOL    HW134517   2.682   1.573   3.398  1.3933 -0.5705 -0.7074
 7685SOL    HW234518   2.714   1.613   3.262 -0.5115 -0.0280 -0.4882
 7686SOL     OW34519   0.605   2.087   3.025  0.0167  0.2427 -0.5909
 7686SOL    HW134520   0.575   2.084   3.116 -0.3501  0.2906 -0.7098
 7686SOL    HW234521   0.605   2.179   3.000  1.1935 -0.0687 -1.7143
 7687SOL     OW34522   1.687   2.349   7.487  0.0754 -0.2932  0.8808
 7687SOL    HW134523   1.744   2.381   7.557 -0.4101  1.4074  0.4955
 7687SOL    HW234524   1.599   2.358   7.524 -0.5608 -0.9310 -0.4653
 7688SOL     OW34525   0.043   3.369   6.130  0.6361  0.4501 -0.1449
 7688SOL    HW134526   4.715   3.392   6.204  1.7547  2.5941  0.0278
 7688SOL    HW234527   0.026   3.275   6.123 -2.2372  0.9606 -0.0308
 7689SOL     OW34528   4.433   4.038   7.708  0.4880  0.4603 -0.2248
 7689SOL    HW134529   4.384   4.117   7.684 -0.7656  0.0237  0.8856
 7689SOL    HW234530   4.399   4.022   7.796 -0.9710  2.6531 -0.3866
 7690SOL     OW34531   1.490   1.918   4.890 -0.1517 -0.5788  0.5264
 7690SOL    HW134532   1.514   1.834   4.851  0.3418 -0.0776 -0.2296
 7690SOL    HW234533   1.414   1.943   4.838  0.6526  1.8536  0.5558
 7691SOL     OW34534   1.452   3.358   1.344 -0.2877 -0.1335 -0.3958
 7691SOL    HW134535   1.537   3.373   1.303  0.8636 -0.3760  1.9291
 7691SOL    HW234536   1.479   3.375   1.434 -1.3555 -0.8712  0.0662
 7692SOL     OW34537   1.133   2.470   3.261 -0.0089  0.6545 -0.1392
 7692SOL    HW134538   1.147   2.382   3.226 -1.1208  0.4627 -0.1151
 7692SOL    HW234539   1.151   2.460   3.355  0.8987 -1.5922 -0.5668
 7693SOL     OW34540   0.399   0.328  13.711  0.0648 -0.6785  0.7000
 7693SOL    HW134541   0.322   0.322  13.654 -0.8098 -3.0984  2.1072
 7693SOL    HW234542   0.378   0.403  13.766  3.4577  0.9060 -0.1900
 7694SOL     OW34543   4.449   2.030   7.317 -0.1569  0.2267 -0.3557
 7694SOL    HW134544   4.397   1.978   7.378 -0.6819 -1.3538 -2.1648
 7694SOL    HW234545   4.452   1.976   7.238 -0.3591  1.3301 -1.1206
 7695SOL     OW34546   0.482   4.024   8.698  0.4732 -1.0150  0.2032
 7695SOL    HW134547   0.435   4.107   8.705  1.8239 -0.4714  3.1773
 7695SOL    HW234548   0.531   4.014   8.780 -0.9936 -0.0478  1.2192
 7696SOL     OW34549   2.473   2.649   9.469 -0.3027 -0.2866 -0.0423
 7696SOL    HW134550   2.545   2.618   9.414 -1.1778  0.9164 -1.8392
 7696SOL    HW234551   2.511   2.636   9.556 -0.7962 -1.1857  0.0425
 7697SOL     OW34552   3.016   1.747   8.678  0.2176 -0.1457  0.5479
 7697SOL    HW134553   2.963   1.778   8.751 -0.0224 -0.1124  0.3577
 7697SOL    HW234554   2.969   1.668   8.650  0.4643 -1.2377  3.2014
 7698SOL     OW34555   4.338   1.359   8.123 -0.5935  0.0735  0.5111
 7698SOL    HW134556   4.402   1.428   8.141  1.1618 -1.0741 -1.2469
 7698SOL    HW234557   4.267   1.410   8.084  0.8293  1.8534  0.2239
 7699SOL     OW34558   1.533   0.271   5.577  0.5182  0.0541 -0.5297
 7699SOL    HW134559   1.617   0.246   5.540  1.9787  1.9313  1.5083
 7699SOL    HW234560   1.468   0.213   5.538 -1.7140  1.3704  1.1868
 7700SOL     OW34561   4.167   1.872   4.634 -0.2765  0.1100  0.2098
 7700SOL    HW134562   4.148   1.951   4.583  0.3155  0.2841  0.2594
 7700SOL    HW234563   4.084   1.826   4.645 -0.1547 -0.1859 -0.1246
 7701SOL     OW34564   3.206   0.414  17.514 -0.3991  0.0321 -0.5207
 7701SOL    HW134565   3.136   0.376  17.567  0.4389 -0.2144  0.4123
 7701SOL    HW234566   3.185   0.368  17.433 -0.6628  3.1409 -2.2437
 7702SOL     OW34567   4.384   1.814   0.819 -0.1551 -0.0703  0.1832
 7702SOL    HW134568   4.479   1.823   0.821 -0.0533 -0.5899 -2.1158
 7702SOL    HW234569   4.373   1.729   0.776  1.3409 -0.3901  0.4422
 7703SOL     OW34570   0.276   0.798  10.021 -0.5724  0.1974  0.4965
 7703SOL    HW134571   0.324   0.879  10.001  0.3150 -0.5972 -0.5878
 7703SOL    HW234572   0.329   0.774  10.098  0.3258  0.5707 -0.0019
 7704SOL     OW34573   4.669   3.881   7.675  0.2188 -0.3941 -0.5418
 7704SOL    HW134574   4.718   3.943   7.622  0.1461  0.8963  0.8859
 7704SOL    HW234575   4.595   3.937   7.697  1.6290  1.6223 -0.9496
 7705SOL     OW34576   0.060   0.551   8.083 -0.1519 -0.3975  0.0927
 7705SOL    HW134577   0.120   0.557   8.157  1.6146  0.7629 -1.4385
 7705SOL    HW234578   0.100   0.587   8.005 -0.2897  1.0589  0.6982
 7706SOL     OW34579   3.995   2.839   9.150  0.3339 -0.0229  0.1910
 7706SOL    HW134580   4.011   2.908   9.214  0.5364 -0.3012  0.4403
 7706SOL    HW234581   3.989   2.901   9.077 -0.4592 -1.0330 -0.5921
 7707SOL     OW34582   3.032   0.963   8.635 -0.0366 -0.3551 -0.7207
 7707SOL    HW134583   3.059   0.944   8.545  1.7647 -0.2926 -0.2008
 7707SOL    HW234584   2.979   1.043   8.631  3.0652  1.7571  0.4491
 7708SOL     OW34585   3.456   3.953  16.345 -0.2170  0.2844 -0.0423
 7708SOL    HW134586   3.397   3.984  16.276 -1.0067  2.1148  1.4537
 7708SOL    HW234587   3.463   4.028  16.403 -3.1881  0.8218 -0.4137
 7709SOL     OW34588   0.620   2.818   6.493  0.2324  0.0073  0.3134
 7709SOL    HW134589   0.704   2.862   6.483  0.7281 -0.8117  0.8858
 7709SOL    HW234590   0.626   2.751   6.425  0.6439 -2.1978  2.5194
 7710SOL     OW34591   1.760   0.510  17.038 -0.6166  1.0088  0.7166
 7710SOL    HW134592   1.681   0.556  17.068 -0.8572  0.7752  0.4466
 7710SOL    HW234593   1.776   0.454  17.113 -1.5966 -0.1557  0.0623
 7711SOL     OW34594   3.978   4.241   4.890  0.1081 -0.2898 -0.1824
 7711SOL    HW134595   3.939   4.301   4.954 -0.0836  0.1742 -0.7303
 7711SOL    HW234596   3.913   4.225   4.822 -2.2276 -0.5429  2.0866
 7712SOL     OW34597   2.350   1.996   4.011  0.0183  0.0392  0.5276
 7712SOL    HW134598   2.261   2.030   4.020 -0.0672  0.1830 -1.0204
 7712SOL    HW234599   2.337   1.902   4.025  1.2412 -0.2132 -0.0410
 7713SOL     OW34600   3.822   2.357   5.290  0.1195  0.5924  0.0840
 7713SOL    HW134601   3.736   2.397   5.298 -0.6039 -0.5098 -2.3769
 7713SOL    HW234602   3.828   2.305   5.370  1.4233 -0.3250 -0.6087
 7714SOL     OW34603   1.432   1.597   9.452 -0.2514  0.0221 -0.1891
 7714SOL    HW134604   1.459   1.514   9.414  1.0805  0.5152 -0.3134
 7714SOL    HW234605   1.458   1.662   9.387 -0.7755  0.2419 -0.1810
 7715SOL     OW34606   3.289   4.702   9.057  0.3172  0.1217 -0.5570
 7715SOL    HW134607   3.203   4.670   9.027  0.2060  0.2923 -0.4186
 7715SOL    HW234608   3.329   4.620   9.085  2.2038  0.4210 -2.3855
 7716SOL     OW34609   1.382   4.003   9.943 -0.3525  0.3969 -0.1347
 7716SOL    HW134610   1.326   4.021  10.019  1.5654  2.2217  0.8432
 7716SOL    HW234611   1.393   4.086   9.897  1.5711 -0.2567 -0.8605
 7717SOL     OW34612   1.130   1.602   5.885  0.4526  0.1183  0.4377
 7717SOL    HW134613   1.046   1.589   5.928  1.4967 -1.6922  1.9482
 7717SOL    HW234614   1.183   1.626   5.962  0.7762 -0.6276  0.4532
 7718SOL     OW34615   4.370   0.767   3.269 -0.0558 -0.4191 -0.1694
 7718SOL    HW134616   4.345   0.859   3.263  1.6895  0.1423  0.9696
 7718SOL    HW234617   4.464   0.761   3.286  0.1298 -1.2600 -1.5572
 7719SOL     OW34618   3.195   2.737  14.391 -0.4794 -0.7004 -0.4987
 7719SOL    HW134619   3.158   2.724  14.479  2.1502  1.3977  0.9066
 7719SOL    HW234620   3.221   2.646  14.378 -1.1503 -1.1519  1.3419
 7720SOL     OW34621   0.778   1.099  12.967 -0.0043  0.2993 -0.2099
 7720SOL    HW134622   0.751   1.157  13.039  0.2712 -0.3733  0.4297
 7720SOL    HW234623   0.712   1.031  12.973 -0.6277  0.7432 -1.9153
 7721SOL     OW34624   0.194   2.707  13.318 -0.3183 -0.1486 -0.2863
 7721SOL    HW134625   0.249   2.727  13.242 -1.9377  0.5031 -1.2887
 7721SOL    HW234626   0.160   2.796  13.327  0.2305 -0.0801  1.1257
 7722SOL     OW34627   1.249   1.244   9.409 -0.4507 -0.0925 -0.7215
 7722SOL    HW134628   1.334   1.279   9.382 -1.2320  1.2538 -1.4577
 7722SOL    HW234629   1.240   1.162   9.362 -1.8754  0.0241 -0.6462
 7723SOL     OW34630   3.795   1.488  13.621  0.2555 -0.6834 -0.6172
 7723SOL    HW134631   3.867   1.435  13.588  1.0260 -0.1959  0.2652
 7723SOL    HW234632   3.836   1.497  13.707  1.5864  0.5028 -1.3744
 7724SOL     OW34633   2.849   1.999   5.871 -0.4525  0.6570 -0.0365
 7724SOL    HW134634   2.851   1.910   5.836 -0.7223  0.6483 -0.0245
 7724SOL    HW234635   2.756   2.011   5.856 -0.0093  3.2001 -0.8676
 7725SOL     OW34636   1.716   1.226   4.342  0.2019  0.2771 -0.1328
 7725SOL    HW134637   1.793   1.214   4.398 -1.2120 -0.8110  1.5588
 7725SOL    HW234638   1.764   1.267   4.270  0.2333 -2.1044 -1.4641
 7726SOL     OW34639   0.374   0.100  13.460  0.2816 -0.3788 -0.8392
 7726SOL    HW134640   0.460   0.126  13.494  1.8857 -2.5576 -3.1771
 7726SOL    HW234641   0.347   0.170  13.400 -1.5198 -0.0677  0.3452
 7727SOL     OW34642   4.621   3.100   3.017 -0.2887  0.1428  0.3367
 7727SOL    HW134643   4.687   3.048   3.063  0.1084  1.0296  0.7820
 7727SOL    HW234644   4.553   3.102   3.084  1.2374 -0.0867  1.9100
 7728SOL     OW34645   1.933   3.433   2.841  0.5960 -0.1986 -0.0206
 7728SOL    HW134646   1.908   3.456   2.751  1.6106 -1.6784 -0.6815
 7728SOL    HW234647   1.934   3.338   2.834  1.1275 -0.5069  4.4079
 7729SOL     OW34648   0.278   0.288   1.744  0.6942 -0.1520  0.0247
 7729SOL    HW134649   0.326   0.368   1.722 -0.2534  0.2924 -0.4815
 7729SOL    HW234650   0.240   0.314   1.828  2.5805  1.3410  0.4218
 7730SOL     OW34651   2.560   0.519   3.163 -0.1876  0.4786  0.7505
 7730SOL    HW134652   2.607   0.472   3.232 -1.5264 -1.3850  0.4070
 7730SOL    HW234653   2.581   0.608   3.192 -2.6869  1.7381 -1.3636
 7731SOL     OW34654   1.997   0.285   9.591  0.2341 -0.3704 -0.2724
 7731SOL    HW134655   1.946   0.326   9.520 -1.4843  1.8367  2.2308
 7731SOL    HW234656   2.079   0.334   9.587  0.8506 -1.3722  0.1662
 7732SOL     OW34657   3.696   3.591   4.634  0.4405 -0.3371  0.4041
 7732SOL    HW134658   3.689   3.686   4.644 -1.5409 -0.2382 -1.8637
 7732SOL    HW234659   3.709   3.563   4.724 -0.1163  2.1556  1.2865
 7733SOL     OW34660   1.380   1.767   4.478 -0.4518 -0.4319 -0.1657
 7733SOL    HW134661   1.467   1.772   4.518 -0.8787 -0.3110  0.7586
 7733SOL    HW234662   1.380   1.676   4.447 -1.0935 -0.3382 -0.4308
 7734SOL     OW34663   1.205   2.885   1.346  0.1664  0.3578 -0.2826
 7734SOL    HW134664   1.121   2.867   1.304  0.5496 -1.2428 -0.3519
 7734SOL    HW234665   1.271   2.842   1.293 -1.4514  0.0318 -1.9975
 7735SOL     OW34666   4.183   3.265   4.489 -0.6633 -0.2564  0.0068
 7735SOL    HW134667   4.224   3.339   4.534 -0.4539 -0.2389 -0.2115
 7735SOL    HW234668   4.169   3.304   4.403 -1.9493  0.2547  0.4575
 7736SOL     OW34669   2.084   0.492   7.313 -0.1865  0.4943 -0.4151
 7736SOL    HW134670   2.058   0.584   7.313  1.7753  1.0460  1.4482
 7736SOL    HW234671   2.160   0.494   7.255  0.6779 -2.4625  0.5843
 7737SOL     OW34672   3.014   3.297   3.486  0.3319  0.1684 -0.0615
 7737SOL    HW134673   2.973   3.215   3.513 -1.5339  0.8615 -0.7832
 7737SOL    HW234674   2.935   3.350   3.471  1.0050  1.7245  1.8522
 7738SOL     OW34675   3.453   4.360   3.745  0.3970 -0.0459  0.2314
 7738SOL    HW134676   3.378   4.366   3.686  0.1231  0.4953  0.6240
 7738SOL    HW234677   3.464   4.265   3.749  0.0263 -0.0780  0.5893
 7739SOL     OW34678   1.834   2.911   7.736 -0.9429  0.2427  0.1238
 7739SOL    HW134679   1.824   2.844   7.669 -0.7402  0.2298  0.1072
 7739SOL    HW234680   1.886   2.983   7.699  1.3527 -0.8517  1.2468
 7740SOL     OW34681   0.463   1.674  16.540 -0.0330  0.4299 -0.4484
 7740SOL    HW134682   0.420   1.679  16.455  0.4082 -0.6221 -0.7301
 7740SOL    HW234683   0.540   1.626  16.509 -1.1343 -0.6212 -1.5532
 7741SOL     OW34684   1.679   3.202   1.858  0.6602  0.1951  0.1635
 7741SOL    HW134685   1.609   3.143   1.884  0.0641  0.7295 -0.2199
 7741SOL    HW234686   1.675   3.279   1.915  2.0512  1.7402 -1.8407
 7742SOL     OW34687   1.753   3.220   6.118  0.3107  0.1324 -0.6106
 7742SOL    HW134688   1.789   3.135   6.096 -3.9618 -1.1800 -2.3975
 7742SOL    HW234689   1.837   3.266   6.110  1.1081 -0.8378  2.1099
 7743SOL     OW34690   4.335   3.944   3.207  0.0995 -0.4789  0.2754
 7743SOL    HW134691   4.253   3.932   3.158  0.6290 -0.9102 -0.5167
 7743SOL    HW234692   4.361   4.034   3.188  1.2400 -1.2941 -2.0786
 7744SOL     OW34693   1.817   4.643   5.614  0.1822  0.0484 -0.1880
 7744SOL    HW134694   1.903   4.603   5.626  1.5148  2.7300 -0.7233
 7744SOL    HW234695   1.775   4.576   5.561  0.9958 -0.0990 -0.6371
 7745SOL     OW34696   4.696   4.470   4.836 -0.2476  0.2213  0.5270
 7745SOL    HW134697   0.021   4.516   4.770  0.0398  0.1194  0.6870
 7745SOL    HW234698   4.644   4.543   4.869  0.0287  0.5566  0.2214
 7746SOL     OW34699   2.547   4.216  16.770 -0.1018 -0.1790 -0.2754
 7746SOL    HW134700   2.497   4.295  16.749 -0.2601 -0.0496  0.5847
 7746SOL    HW234701   2.578   4.235  16.859  0.3745  0.3839 -0.5644
 7747SOL     OW34702   4.681   3.311   2.841 -0.3733 -0.1749  0.1855
 7747SOL    HW134703   0.010   3.355   2.903  0.5073 -2.8472  1.2964
 7747SOL    HW234704   4.651   3.233   2.888 -0.8944 -0.9796 -1.4472
 7748SOL     OW34705   2.950   3.088   8.346 -0.2054  0.1574 -0.0894
 7748SOL    HW134706   2.895   3.082   8.425 -0.3867  0.1822 -0.2140
 7748SOL    HW234707   3.035   3.069   8.385 -0.1925 -0.5873 -0.4803
 7749SOL     OW34708   2.670   3.146  14.280  0.1047 -0.1833 -0.5068
 7749SOL    HW134709   2.581   3.140  14.313  0.1304 -3.3172 -1.0667
 7749SOL    HW234710   2.670   3.068  14.225 -1.5406 -0.2917 -0.3443
 7750SOL     OW34711   3.081   4.055   7.888  0.7375  0.0653 -0.1215
 7750SOL    HW134712   3.106   3.980   7.834  1.3914 -0.0679  0.3700
 7750SOL    HW234713   3.142   4.032   7.957  2.1256  0.2678 -1.2804
 7751SOL     OW34714   0.484   3.492   1.400 -0.1302  0.0546  0.2534
 7751SOL    HW134715   0.471   3.405   1.438  0.1505  0.1408  0.5493
 7751SOL    HW234716   0.453   3.536   1.479  0.5167 -0.9048  1.0424
 7752SOL     OW34717   2.678   3.521   3.866 -0.0872  0.2281  0.2244
 7752SOL    HW134718   2.659   3.545   3.957  0.4106  0.4295  0.2770
 7752SOL    HW234719   2.723   3.600   3.835 -1.1308  1.2824  1.4029
 7753SOL     OW34720   3.287   1.201  15.095  0.6377 -0.2720 -0.2706
 7753SOL    HW134721   3.224   1.132  15.112 -0.4446  0.4712 -1.3173
 7753SOL    HW234722   3.259   1.265  15.161 -1.1660 -1.2474 -0.0989
 7754SOL     OW34723   2.939   2.244  17.207  0.6886 -0.5657  0.3411
 7754SOL    HW134724   2.876   2.283  17.147 -1.4696  0.3118  3.1255
 7754SOL    HW234725   2.994   2.321  17.222  2.1923 -1.7541  0.9104
 7755SOL     OW34726   2.534   4.695   5.519  0.2045  0.5299  0.1055
 7755SOL    HW134727   2.526   4.705   5.425 -0.1579  0.2305  0.1060
 7755SOL    HW234728   2.545   0.059   5.547 -2.1165  0.7610  0.2651
 7756SOL     OW34729   1.776   2.591   6.994 -0.2470 -0.1018 -0.2389
 7756SOL    HW134730   1.698   2.643   7.010  0.2354  0.8224 -0.9129
 7756SOL    HW234731   1.828   2.669   6.975  0.7559 -1.0998 -1.6990
 7757SOL     OW34732   0.541   4.602   0.504  0.2436  0.6804  0.5612
 7757SOL    HW134733   0.485   4.532   0.539  1.0928  0.2416  1.0220
 7757SOL    HW234734   0.480   4.675   0.494  0.2099  0.5393 -0.2657
 7758SOL     OW34735   0.659   3.307   2.654 -0.2036 -0.4469  0.3246
 7758SOL    HW134736   0.687   3.269   2.737  1.1387 -0.5918 -0.1921
 7758SOL    HW234737   0.670   3.400   2.672  0.8842 -0.8192  1.5579
 7759SOL     OW34738   0.976   4.269  10.584  0.3788  0.7998 -0.0729
 7759SOL    HW134739   1.005   4.296  10.672 -2.5162 -1.7313  1.6793
 7759SOL    HW234740   1.005   4.178  10.589  1.4262  1.1978  0.9690
 7760SOL     OW34741   2.416   1.746   3.228 -0.5910  0.2833 -0.0872
 7760SOL    HW134742   2.474   1.676   3.259  0.7296  0.6629 -1.7140
 7760SOL    HW234743   2.357   1.703   3.165  1.5778  1.7755 -3.1378
 7761SOL     OW34744   4.161   2.277   4.640  0.3223 -0.2245  0.2756
 7761SOL    HW134745   4.207   2.199   4.671  1.7316 -0.9259 -3.6200
 7761SOL    HW234746   4.186   2.283   4.548 -0.0554 -0.2782  0.1699
 7762SOL     OW34747   0.617   3.988  13.802  0.1177 -0.3750 -0.1855
 7762SOL    HW134748   0.625   3.952  13.713  1.7965 -1.6424  0.4730
 7762SOL    HW234749   0.526   4.017  13.801  0.3150  0.2507  0.0747
 7763SOL     OW34750   1.605   2.713   4.468 -0.5109  0.0953  0.2242
 7763SOL    HW134751   1.622   2.760   4.549 -1.8895 -0.7653  1.0290
 7763SOL    HW234752   1.509   2.713   4.460 -0.3876 -2.7042 -1.2874
 7764SOL     OW34753   0.360   0.946  16.632 -0.4046 -0.2594  0.0544
 7764SOL    HW134754   0.342   0.854  16.609  0.5973 -0.0492 -1.6415
 7764SOL    HW234755   0.277   0.986  16.606 -0.1279  0.6669  0.6399
 7765SOL     OW34756   2.752   1.561   0.665  0.3746  0.0394 -0.2556
 7765SOL    HW134757   2.840   1.544   0.699  0.3175  0.1809 -0.0356
 7765SOL    HW234758   2.732   1.643   0.709  0.2381  0.3573 -0.9172
 7766SOL     OW34759   0.612   4.655  10.854  0.1899 -0.7261 -0.0620
 7766SOL    HW134760   0.607   4.607  10.771  1.4647  2.6720 -2.1392
 7766SOL    HW234761   0.654   0.010  10.830 -0.1555 -0.5532 -0.0589
 7767SOL     OW34762   4.028   4.315   5.875 -0.3359 -0.2800 -0.5345
 7767SOL    HW134763   3.971   4.380   5.914  2.2854  1.5737  0.1886
 7767SOL    HW234764   4.037   4.259   5.953 -0.4248 -1.6783 -1.5162
 7768SOL     OW34765   1.142   3.631  15.286  0.0202  0.5682  0.4337
 7768SOL    HW134766   1.167   3.717  15.252  2.2386 -0.9516 -1.8070
 7768SOL    HW234767   1.206   3.613  15.355  1.0990 -2.4575 -1.3157
 7769SOL     OW34768   3.863   4.414   2.103  0.2154  0.6677  0.2820
 7769SOL    HW134769   3.789   4.454   2.149 -0.8881  0.7131 -1.5440
 7769SOL    HW234770   3.822   4.355   2.040  1.4026 -0.2516  0.3611
 7770SOL     OW34771   4.500   2.392   6.925  0.5906  0.1008 -0.4215
 7770SOL    HW134772   4.474   2.372   7.015  1.1591  0.8102 -0.1024
 7770SOL    HW234773   4.595   2.392   6.923  0.6452  0.2145  2.3623
 7771SOL     OW34774   3.861   3.131   7.980  0.1247 -0.0315 -0.4948
 7771SOL    HW134775   3.827   3.184   8.053 -0.9809  0.7410 -1.5529
 7771SOL    HW234776   3.914   3.200   7.939  0.4602  1.6752  2.8646
 7772SOL     OW34777   3.869   4.510  11.443  0.0834  0.1784 -0.2741
 7772SOL    HW134778   3.781   4.473  11.445  0.2655 -0.3839 -2.2387
 7772SOL    HW234779   3.857   4.594  11.486  2.5362 -0.2432  1.2368
 7773SOL     OW34780   1.496   4.203   5.142 -0.1231  0.5137 -0.6609
 7773SOL    HW134781   1.418   4.149   5.151 -0.0931  0.1804 -2.4783
 7773SOL    HW234782   1.553   4.158   5.205 -0.3572 -0.3612 -1.0773
 7774SOL     OW34783   3.425   2.604   7.919 -0.3622 -0.5478  0.6415
 7774SOL    HW134784   3.437   2.514   7.891 -2.4497  0.4553 -3.3862
 7774SOL    HW234785   3.448   2.600   8.012 -2.4255 -0.0835  1.1803
 7775SOL     OW34786   3.063   2.234   8.381 -0.4526 -0.3156  0.1414
 7775SOL    HW134787   3.013   2.177   8.439  0.5014 -0.2687  1.0131
 7775SOL    HW234788   3.142   2.183   8.367 -0.7446 -0.7384  0.0472
 7776SOL     OW34789   3.972   4.544   5.569 -0.8002  0.5366  0.1644
 7776SOL    HW134790   3.904   4.513   5.509 -0.8995  0.4208  0.3369
 7776SOL    HW234791   4.021   4.462   5.577 -1.1402  0.3004 -0.1826
 7777SOL     OW34792   4.273   1.602   9.438 -0.2185  0.2502 -0.3270
 7777SOL    HW134793   4.308   1.645   9.360  1.6162  1.2907  1.0892
 7777SOL    HW234794   4.345   1.610   9.500 -0.4779  0.8578 -0.0999
 7778SOL     OW34795   1.030   3.208   4.048 -0.1608  0.2928  0.1891
 7778SOL    HW134796   0.991   3.228   3.963 -0.8531 -0.6011  0.2925
 7778SOL    HW234797   0.963   3.233   4.112  0.7603  0.3085  1.1471
 7779SOL     OW34798   3.526   3.896   3.849  0.5310 -0.0094  0.0415
 7779SOL    HW134799   3.582   3.844   3.790 -0.1473 -1.4926  0.6929
 7779SOL    HW234800   3.507   3.970   3.792  2.6926  0.8569  0.4405
 7780SOL     OW34801   2.963   4.415   3.418 -0.0076  0.0543 -0.0404
 7780SOL    HW134802   2.876   4.452   3.411  0.2785  0.8653  0.6581
 7780SOL    HW234803   3.014   4.488   3.382 -2.8318  1.6850 -0.6626
 7781SOL     OW34804   3.146   2.993   3.357  0.2511  0.0942  0.4269
 7781SOL    HW134805   3.160   2.991   3.452 -0.6300 -0.9447  0.5395
 7781SOL    HW234806   3.136   3.087   3.344  1.4381 -0.0219 -1.3298
 7782SOL     OW34807   3.279   2.553   5.340  0.1721 -0.1432 -0.0341
 7782SOL    HW134808   3.301   2.511   5.257  1.4259  2.2840 -0.9536
 7782SOL    HW234809   3.340   2.628   5.345 -1.8655  1.5362 -0.4030
 7783SOL     OW34810   0.630   1.793   5.842 -0.0535 -0.5547  0.4300
 7783SOL    HW134811   0.645   1.868   5.898  2.4386  0.0620 -1.0385
 7783SOL    HW234812   0.695   1.799   5.772 -1.6544 -0.3298 -1.0215
 7784SOL     OW34813   4.016   1.276   1.777  0.7327  0.3155  0.8828
 7784SOL    HW134814   4.071   1.199   1.789  0.1407 -0.2444  0.0069
 7784SOL    HW234815   3.935   1.230   1.755  1.0820  0.4896 -0.7204
 7785SOL     OW34816   2.256   2.797   8.427  0.6126  0.1745 -0.1238
 7785SOL    HW134817   2.196   2.870   8.434 -1.0800 -0.8758 -3.6392
 7785SOL    HW234818   2.228   2.751   8.506 -0.4973 -1.2819 -1.3678
 7786SOL     OW34819   4.446   3.263   6.155  0.0385  0.4031 -0.3289
 7786SOL    HW134820   4.489   3.183   6.184  1.2608  0.7011 -1.3285
 7786SOL    HW234821   4.440   3.262   6.059 -0.1867 -3.7355 -0.2485
 7787SOL     OW34822   4.409   4.509   5.825 -0.1148 -0.3874  0.4701
 7787SOL    HW134823   4.330   4.560   5.806  0.2856  0.5902  1.4662
 7787SOL    HW234824   4.372   4.421   5.826  0.3788 -0.6221 -0.8215
 7788SOL     OW34825   3.991   4.411   3.053 -0.0579  0.1218 -0.1377
 7788SOL    HW134826   4.077   4.372   3.034 -0.8470 -1.4647 -0.4754
 7788SOL    HW234827   3.973   4.458   2.972 -0.9125 -0.7951 -0.4742
 7789SOL     OW34828   3.548   1.077   3.913  0.5882 -0.1541  0.6140
 7789SOL    HW134829   3.463   1.046   3.945 -0.6904  0.4152 -2.2239
 7789SOL    HW234830   3.610   1.020   3.958  1.0557 -2.0541 -2.4513
 7790SOL     OW34831   3.221   2.739   6.587  0.0856 -0.5657  0.3861
 7790SOL    HW134832   3.135   2.735   6.631 -1.7368  0.7039 -3.0632
 7790SOL    HW234833   3.278   2.782   6.651 -0.2584  2.4951 -1.3657
 7791SOL     OW34834   3.157   1.496   3.969  0.2988 -0.4702  0.5328
 7791SOL    HW134835   3.200   1.412   3.953  0.7957  0.0260 -0.7217
 7791SOL    HW234836   3.149   1.490   4.064 -0.5223  0.2001  0.5110
 7792SOL     OW34837   4.143   0.726  17.327 -0.5831  0.2819  0.1305
 7792SOL    HW134838   4.154   0.783  17.251 -2.1208 -0.2214 -0.4824
 7792SOL    HW234839   4.155   0.792  17.395 -0.8066 -0.5169  0.9448
 7793SOL     OW34840   4.558   3.533   5.363 -0.7754 -0.8916 -0.0892
 7793SOL    HW134841   4.471   3.566   5.387 -0.4260  0.8526 -1.2178
 7793SOL    HW234842   4.616   3.575   5.426 -2.9118  2.3772 -0.3068
 7794SOL     OW34843   1.985   4.295   9.596 -0.2876 -0.1027  0.2399
 7794SOL    HW134844   2.050   4.342   9.543  0.0978  1.1312  1.7985
 7794SOL    HW234845   1.999   4.304   9.690  0.0792  2.5506 -0.0535
 7795SOL     OW34846   0.467   1.607   5.482 -0.0623  0.0474 -0.0030
 7795SOL    HW134847   0.381   1.563   5.481  0.5563 -1.1848  0.4988
 7795SOL    HW234848   0.515   1.559   5.414 -0.9091  0.1836 -0.6953
 7796SOL     OW34849   0.342   1.205   6.119  0.4670  0.2456  0.1034
 7796SOL    HW134850   0.429   1.194   6.081  0.7038  0.7394  0.5029
 7796SOL    HW234851   0.328   1.111   6.132 -0.7164  0.1348 -2.1773
 7797SOL     OW34852   1.881   3.344   7.700 -0.4106 -0.6994 -0.1437
 7797SOL    HW134853   1.843   3.276   7.756  0.7140 -1.2081 -0.0001
 7797SOL    HW234854   1.846   3.414   7.755  2.4032 -2.2262  3.6390
 7798SOL     OW34855   2.060   2.865   5.634  0.6347  0.1857 -0.4170
 7798SOL    HW134856   2.078   2.799   5.568 -1.9677 -0.8782 -0.0657
 7798SOL    HW234857   2.024   2.941   5.588 -0.1384 -0.2816 -0.5679
 7799SOL     OW34858   1.316   1.806   6.748 -0.2111 -0.2978 -0.3786
 7799SOL    HW134859   1.248   1.759   6.795 -0.6977 -0.5155 -1.3132
 7799SOL    HW234860   1.362   1.850   6.820  0.2140 -0.9058 -0.2767
 7800SOL     OW34861   2.561   2.540   1.188  0.9142 -0.1187 -0.1388
 7800SOL    HW134862   2.572   2.604   1.117  1.6293  0.2258  0.2843
 7800SOL    HW234863   2.550   2.462   1.134  0.3656  1.6366 -2.5523
 7801SOL     OW34864   0.597   1.715   6.554  0.1942  0.1811 -0.0190
 7801SOL    HW134865   0.587   1.623   6.578 -2.2037  0.3649 -0.2414
 7801SOL    HW234866   0.652   1.748   6.624 -0.8469 -0.9466  1.3196
 7802SOL     OW34867   1.685   4.080   2.511 -0.1093  0.6235  0.3262
 7802SOL    HW134868   1.707   4.133   2.588  1.6615 -2.2389  1.7849
 7802SOL    HW234869   1.592   4.096   2.496 -0.4786 -0.7477  1.2077
 7803SOL     OW34870   0.313   4.236   8.828  0.5807  0.0856  0.1210
 7803SOL    HW134871   0.226   4.227   8.866 -0.3538 -2.1403 -2.4980
 7803SOL    HW234872   0.362   4.258   8.907 -4.3638  1.2734  2.8334
 7804SOL     OW34873   0.481   3.017   4.161  0.0028 -0.0322 -0.8531
 7804SOL    HW134874   0.404   2.962   4.140  1.4233 -2.0501 -0.7920
 7804SOL    HW234875   0.439   3.082   4.217  2.5979 -1.0085  2.1684
 7805SOL     OW34876   4.621   3.586   9.771  0.4015 -0.1093 -0.1153
 7805SOL    HW134877   4.611   3.679   9.791  1.8050  0.2002 -0.8150
 7805SOL    HW234878   4.715   3.570   9.772  0.1271 -1.6320  1.3725
 7806SOL     OW34879   3.661   2.959   7.918 -0.2280 -0.6006 -0.6354
 7806SOL    HW134880   3.721   3.031   7.937 -1.9721  0.6514  0.1845
 7806SOL    HW234881   3.676   2.952   7.823 -0.5584 -1.4207 -0.6320
 7807SOL     OW34882   0.485   3.964   4.324 -0.3388  0.3840  0.2168
 7807SOL    HW134883   0.435   4.022   4.382 -1.3919  0.9508 -1.2667
 7807SOL    HW234884   0.574   3.994   4.342 -0.0514  0.7123 -1.7662
 7808SOL     OW34885   4.333   1.130   0.114 -0.3943  0.7243 -0.0141
 7808SOL    HW134886   4.402   1.172   0.166 -2.4452  0.0047  3.2966
 7808SOL    HW234887   4.256   1.184   0.132 -3.1426 -3.2037  0.0023
 7809SOL     OW34888   3.279   1.262  14.848  0.1546  0.2291 -0.0111
 7809SOL    HW134889   3.275   1.248  14.943  0.9533 -0.8479 -0.1417
 7809SOL    HW234890   3.375   1.263  14.842  0.1183  0.5623 -0.5376
 7810SOL     OW34891   0.201   4.580   1.538  0.3249  0.0816 -0.0329
 7810SOL    HW134892   0.177   4.513   1.602 -0.8952 -0.9399 -1.5593
 7810SOL    HW234893   0.179   4.656   1.592 -3.5665 -0.5129 -0.7787
 7811SOL     OW34894   2.093   3.628  14.164 -0.5991  0.2487  0.3865
 7811SOL    HW134895   2.182   3.660  14.149 -1.0962  1.1278 -0.7343
 7811SOL    HW234896   2.114   3.552  14.217  0.7902 -0.4753 -1.2100
 7812SOL     OW34897   2.248   1.462  13.675  0.4605 -0.6004  0.2244
 7812SOL    HW134898   2.326   1.468  13.620  0.6660  0.9416  0.6680
 7812SOL    HW234899   2.285   1.465  13.763  0.1568 -0.6426  0.3546
 7813SOL     OW34900   1.760   3.532   9.531 -0.1565 -0.2200  0.4727
 7813SOL    HW134901   1.765   3.503   9.440  1.6370  3.5468 -0.6288
 7813SOL    HW234902   1.728   3.618   9.506  0.4834 -0.4366 -1.0650
 7814SOL     OW34903   0.632   3.456   4.683 -0.1987 -0.1929 -0.4022
 7814SOL    HW134904   0.578   3.529   4.712 -0.4965 -0.4926 -0.2024
 7814SOL    HW234905   0.644   3.406   4.764 -1.6201  0.8386  0.4510
 7815SOL     OW34906   1.683   1.656   6.657  0.4757 -0.6218  0.2285
 7815SOL    HW134907   1.708   1.628   6.568  0.5957 -0.8262  0.3271
 7815SOL    HW234908   1.695   1.751   6.654  1.2266 -0.6640  2.2728
 7816SOL     OW34909   3.192   2.026   4.063 -0.1666 -0.2308 -0.1066
 7816SOL    HW134910   3.261   2.003   4.001 -0.2287 -2.8165  0.7828
 7816SOL    HW234911   3.125   2.066   4.008  0.8917  2.3656  0.4739
 7817SOL     OW34912   3.340   0.568   5.150  0.3991  0.2505  0.7394
 7817SOL    HW134913   3.250   0.599   5.139  0.3296  0.4234  1.7581
 7817SOL    HW234914   3.380   0.571   5.063  0.5092  1.1664  0.8171
 7818SOL     OW34915   0.975   4.498  13.770 -0.1212  0.3610 -0.0962
 7818SOL    HW134916   0.999   4.579  13.815 -0.5984  0.3150  0.2454
 7818SOL    HW234917   0.978   4.534  13.682  2.3096  1.0012  0.2625
 7819SOL     OW34918   3.111   1.458   8.433 -0.2493 -0.8779 -0.1973
 7819SOL    HW134919   3.017   1.462   8.419 -0.4667 -1.1041  1.2638
 7819SOL    HW234920   3.102   1.454   8.528 -2.2761  0.4849 -0.3298
 7820SOL     OW34921   1.907   1.719   3.105  0.4709 -0.6737 -0.0072
 7820SOL    HW134922   1.880   1.730   3.196 -0.4547  1.5460 -0.5531
 7820SOL    HW234923   1.964   1.646   3.129  1.1259 -0.1025  0.1713
 7821SOL     OW34924   1.590   2.728   5.200  0.2278  0.6027 -0.7757
 7821SOL    HW134925   1.648   2.683   5.138  1.2034  1.4693 -0.4967
 7821SOL    HW234926   1.541   2.782   5.138 -1.7621  3.1071  2.9852
 7822SOL     OW34927   3.362   3.386  13.472  0.4534 -0.6444 -0.1222
 7822SOL    HW134928   3.349   3.391  13.377 -0.1692 -0.6998 -0.0397
 7822SOL    HW234929   3.387   3.294  13.471  1.1454 -0.4525 -0.7954
 7823SOL     OW34930   0.482   0.987   6.303  0.0492 -0.0597  0.3966
 7823SOL    HW134931   0.533   0.949   6.231  0.5043  2.0352 -0.3889
 7823SOL    HW234932   0.549   1.033   6.353  1.5666 -1.1635 -0.5719
 7824SOL     OW34933   0.921   2.791   9.894  0.4727 -0.6252  0.0578
 7824SOL    HW134934   0.932   2.754   9.981  0.7822  0.5465  0.5074
 7824SOL    HW234935   0.997   2.849   9.887 -0.9267  1.1358 -0.5457
 7825SOL     OW34936   3.255   3.572   8.699 -0.3156 -0.2880  0.8171
 7825SOL    HW134937   3.270   3.522   8.779  2.5569  1.7680  1.6137
 7825SOL    HW234938   3.239   3.659   8.737  0.5565 -0.0210  0.5936
 7826SOL     OW34939   2.666   0.511  13.435  0.3210 -0.2090  0.5363
 7826SOL    HW134940   2.669   0.510  13.339 -0.4864  0.2890  0.5082
 7826SOL    HW234941   2.577   0.544  13.445  0.8177  1.4127 -0.4064
 7827SOL     OW34942   3.214   0.652  16.471  0.2033 -0.0936 -0.1975
 7827SOL    HW134943   3.182   0.621  16.556 -1.3076  0.1983 -0.6635
 7827SOL    HW234944   3.160   0.730  16.458 -1.2946 -1.0736  0.0005
 7828SOL     OW34945   2.990   3.043   5.664 -0.9175 -0.6278 -0.5400
 7828SOL    HW134946   2.920   3.091   5.708  0.8711  2.2579 -0.8360
 7828SOL    HW234947   3.016   2.973   5.724 -2.7381  0.5882  1.6363
 7829SOL     OW34948   3.154   1.510   7.489 -0.3875  0.0997  0.0914
 7829SOL    HW134949   3.248   1.522   7.479 -0.4797 -0.2052 -1.1463
 7829SOL    HW234950   3.126   1.490   7.399 -0.0219  2.4319 -0.5304
 7830SOL     OW34951   3.031   3.363   7.067  0.1237  0.4993  0.0133
 7830SOL    HW134952   3.004   3.278   7.032 -1.0248  0.6058  0.6225
 7830SOL    HW234953   2.967   3.375   7.137 -0.2532 -1.1870 -0.0411
 7831SOL     OW34954   2.938   2.149   5.576 -0.1106  0.0046 -0.1870
 7831SOL    HW134955   3.030   2.172   5.558 -0.2217  2.6149  2.6190
 7831SOL    HW234956   2.922   2.087   5.505 -0.6938 -2.6015  2.2444
 7832SOL     OW34957   0.331   3.511   3.856  0.3901  0.0312  0.5631
 7832SOL    HW134958   0.355   3.604   3.855  2.8463 -0.6433 -1.6336
 7832SOL    HW234959   0.401   3.469   3.808  1.8282  2.5152  0.4790
 7833SOL     OW34960   1.970   2.093   7.494  0.0732 -0.2688 -0.2190
 7833SOL    HW134961   1.994   2.179   7.459  0.3448  0.0634  0.7887
 7833SOL    HW234962   1.876   2.103   7.510  0.3166  1.6811 -0.0339
 7834SOL     OW34963   0.372   0.337   2.945  0.1978 -0.3313 -0.3190
 7834SOL    HW134964   0.397   0.317   2.855  1.4561  1.5466 -0.3814
 7834SOL    HW234965   0.382   0.253   2.990  2.1038 -1.1459 -2.2737
 7835SOL     OW34966   1.022   3.125   5.166  0.0538 -0.0620 -0.1682
 7835SOL    HW134967   0.995   3.205   5.121 -2.5472 -0.5328  0.5204
 7835SOL    HW234968   0.969   3.142   5.244 -0.7081  0.5819 -0.8145
 7836SOL     OW34969   1.633   3.431   8.415 -0.3353 -0.5035 -0.3538
 7836SOL    HW134970   1.635   3.336   8.430 -2.5404 -0.7645 -1.8088
 7836SOL    HW234971   1.569   3.469   8.474 -1.9266 -0.5602 -2.0634
 7837SOL     OW34972   3.557   1.903  14.681  0.3859 -0.4745  0.2274
 7837SOL    HW134973   3.541   1.838  14.613  0.0203 -1.1871  0.9878
 7837SOL    HW234974   3.635   1.867  14.723  0.6560  0.1023  0.2161
 7838SOL     OW34975   4.468   1.468   9.929  0.4066  0.3048  1.2016
 7838SOL    HW134976   4.529   1.418   9.983  0.3831 -1.6653 -0.6426
 7838SOL    HW234977   4.386   1.420   9.941  0.1204  0.4287 -0.2791
 7839SOL     OW34978   0.186   1.671  13.547  0.1563  0.1412 -0.5997
 7839SOL    HW134979   0.220   1.590  13.585  0.6500  0.8911  0.5549
 7839SOL    HW234980   0.256   1.681  13.482  0.3247  0.3189 -0.3958
 7840SOL     OW34981   0.715   0.898   9.166  0.6304 -0.1207 -0.3203
 7840SOL    HW134982   0.660   0.820   9.162  0.2746  0.1978 -1.4490
 7840SOL    HW234983   0.710   0.926   9.075 -1.8032 -0.9581 -0.4289
 7841SOL     OW34984   1.055   3.593   2.187 -0.2259 -0.3038 -0.0670
 7841SOL    HW134985   0.967   3.618   2.160 -0.1882 -0.1341 -0.0350
 7841SOL    HW234986   1.096   3.576   2.103 -1.1786 -0.9109 -0.4014
 7842SOL     OW34987   3.156   0.619   2.305  0.3707 -0.3264 -0.7386
 7842SOL    HW134988   3.200   0.649   2.225 -0.4452 -0.6828 -1.3177
 7842SOL    HW234989   3.075   0.582   2.271  0.7884 -1.0385 -0.9753
 7843SOL     OW34990   4.571   0.645   5.005  0.3794 -0.2157 -0.0079
 7843SOL    HW134991   4.478   0.631   5.023  0.3848 -2.2544 -1.5482
 7843SOL    HW234992   4.593   0.722   5.057  2.4013 -0.9591  0.2491
 7844SOL     OW34993   3.020   1.487   2.637  0.5621  0.0082  0.9008
 7844SOL    HW134994   3.047   1.402   2.603 -2.4614 -0.7045  0.2661
 7844SOL    HW234995   2.957   1.522   2.574  2.9885  0.7943 -1.0968
 7845SOL     OW34996   3.871   1.124   7.248  0.7739 -0.1460  0.1802
 7845SOL    HW134997   3.882   1.167   7.163  0.7341  0.7072  0.6002
 7845SOL    HW234998   3.887   1.192   7.314 -0.0898 -0.0446  0.2810
 7846SOL     OW34999   0.598   3.706   7.969 -0.3566  0.5228  0.0399
 7846SOL    HW135000   0.651   3.776   7.932 -1.2636  1.7553  1.0883
 7846SOL    HW235001   0.663   3.669   8.028 -1.4223  0.6667  1.3075
 7847SOL     OW35002   4.617   2.532   7.932 -0.6470  0.1135 -0.0514
 7847SOL    HW135003   4.650   2.538   8.022  1.2252 -0.2029 -0.7164
 7847SOL    HW235004   4.523   2.547   7.939 -0.9040 -1.6076 -0.0137
 7848SOL     OW35005   1.234   1.643  10.655  0.5754 -0.1894  0.2985
 7848SOL    HW135006   1.252   1.635  10.749 -0.9207 -1.7890  0.4425
 7848SOL    HW235007   1.142   1.617  10.659  0.9938 -1.4828  1.9545
 7849SOL     OW35008   0.822   0.957   4.163 -0.4981 -0.0228  0.0772
 7849SOL    HW135009   0.879   0.880   4.164  2.8870  2.4799 -0.0374
 7849SOL    HW235010   0.855   0.995   4.244  0.4654 -0.1599 -0.2489
 7850SOL     OW35011   4.078   3.688   2.091 -0.3962 -0.2847  0.5847
 7850SOL    HW135012   4.141   3.755   2.117  0.0440 -0.7145  0.6197
 7850SOL    HW235013   4.112   3.620   2.149 -1.5352 -2.6856 -1.5881
 7851SOL     OW35014   1.496   1.823   3.535 -0.5730  0.4508 -0.0803
 7851SOL    HW135015   1.471   1.731   3.540 -1.7058  0.8762  1.8909
 7851SOL    HW235016   1.411   1.865   3.545 -0.5511  0.6436 -0.6967
 7852SOL     OW35017   4.282   2.374   7.750  0.2077 -0.4558  0.4472
 7852SOL    HW135018   4.299   2.318   7.674  0.7092 -1.4008  1.2641
 7852SOL    HW235019   4.301   2.306   7.814  0.0488  1.1648  2.2321
 7853SOL     OW35020   3.978   1.341   8.840 -0.4917  0.5281 -0.2331
 7853SOL    HW135021   4.067   1.310   8.819 -0.9903 -0.9996 -0.0683
 7853SOL    HW235022   3.952   1.299   8.921  2.1303  0.8480  0.7814
 7854SOL     OW35023   2.912   0.002   7.429  0.0026  0.1999  0.2374
 7854SOL    HW135024   2.886   0.063   7.497 -2.3771 -1.9061  1.1969
 7854SOL    HW235025   2.969   0.056   7.373 -0.7155  1.6047  0.8661
 7855SOL     OW35026   1.226   1.039   9.038  0.4929 -0.4976 -0.1387
 7855SOL    HW135027   1.204   0.957   8.995 -1.4499  0.4753 -0.9731
 7855SOL    HW235028   1.244   1.012   9.128 -0.6998  1.3924  0.6589
 7856SOL     OW35029   2.166   4.449  15.140  0.2571  0.6240  0.1328
 7856SOL    HW135030   2.097   4.385  15.124  1.0348 -0.7847  2.3797
 7856SOL    HW235031   2.201   4.466  15.053 -1.2742 -1.9058 -0.9618
 7857SOL     OW35032   0.634   2.630   5.642 -0.0940 -0.3101 -0.0266
 7857SOL    HW135033   0.724   2.608   5.667 -0.1843 -1.3746 -0.6244
 7857SOL    HW235034   0.605   2.553   5.594  0.7513 -0.8580  0.3494
 7858SOL     OW35035   3.098   3.202   4.549  0.1474  0.2675  0.1586
 7858SOL    HW135036   3.017   3.243   4.578 -0.6071 -2.8635  2.4768
 7858SOL    HW235037   3.099   3.215   4.454  0.2651  1.6938  0.3580
 7859SOL     OW35038   2.721   2.679  17.598  0.3911 -0.2811  0.2997
 7859SOL    HW135039   2.742   2.648  17.687 -2.9602 -1.3913  0.6979
 7859SOL    HW235040   2.809   2.664  17.564  0.4265 -1.3066  0.8178
 7860SOL     OW35041   2.191   3.719   3.839  0.3157 -0.3095 -0.6296
 7860SOL    HW135042   2.204   3.709   3.745  1.1231 -0.4127 -0.5017
 7860SOL    HW235043   2.147   3.804   3.836  2.0658  0.5961 -0.4049
 7861SOL     OW35044   3.710   0.082   5.557  0.6006 -0.4223 -0.2557
 7861SOL    HW135045   3.746   0.058   5.642 -0.5457 -0.3966  0.2271
 7861SOL    HW235046   3.624   0.119   5.573 -0.6842 -2.7323 -1.6977
 7862SOL     OW35047   2.152   1.856  17.709  0.0225 -0.3468  0.2315
 7862SOL    HW135048   2.064   1.877   0.029  0.5842  1.5190  0.5593
 7862SOL    HW235049   2.196   1.901   0.070  0.2254  1.2004 -0.8526
 7863SOL     OW35050   2.026   3.861   1.636 -0.1628  0.4967  0.1719
 7863SOL    HW135051   2.016   3.789   1.574  2.0476 -1.2946  1.9076
 7863SOL    HW235052   2.113   3.844   1.671 -0.4445 -3.1750 -0.9122
 7864SOL     OW35053   1.989   1.684  15.405 -0.6971 -0.3847  0.1679
 7864SOL    HW135054   1.925   1.723  15.466 -1.3154 -1.7031  0.3631
 7864SOL    HW235055   1.930   1.687  15.330 -0.7019  3.2196  0.3177
 7865SOL     OW35056   0.844   0.165   5.090  0.1562 -0.8949  0.0412
 7865SOL    HW135057   0.834   0.084   5.041 -1.0888 -1.3585  1.0831
 7865SOL    HW235058   0.754   0.195   5.095  0.1018 -0.8707 -1.0086
 7866SOL     OW35059   1.542   1.273   6.335  0.3327 -0.0627 -0.5774
 7866SOL    HW135060   1.607   1.273   6.264 -0.4029  2.1386 -1.2436
 7866SOL    HW235061   1.467   1.226   6.298 -0.5525  0.1026  1.0067
 7867SOL     OW35062   3.460   2.945  13.380 -0.1764 -0.0324  0.3539
 7867SOL    HW135063   3.476   3.030  13.339  2.4404 -0.0750  1.2740
 7867SOL    HW235064   3.505   2.970  13.461  0.1459 -0.2193  0.2337
 7868SOL     OW35065   3.890   1.420  14.795  0.0642 -0.2665 -0.2602
 7868SOL    HW135066   3.919   1.374  14.716  1.6501 -1.5806  1.0922
 7868SOL    HW235067   3.804   1.456  14.774  0.1599  0.3219  0.3665
 7869SOL     OW35068   0.184   0.226   5.165 -0.4321  1.1426 -0.1766
 7869SOL    HW135069   0.177   0.291   5.235  1.2212  3.3871 -2.1026
 7869SOL    HW235070   0.237   0.272   5.100 -1.1580  2.2691  0.0203
 7870SOL     OW35071   4.724   2.732  12.852 -0.6964  0.4669 -0.2742
 7870SOL    HW135072   4.715   2.807  12.911  0.0730  1.4058 -1.3301
 7870SOL    HW235073   0.003   2.663  12.918  0.1814  0.8938  0.0927
 7871SOL     OW35074   1.172   2.992   4.443  0.6290  0.3991  0.3514
 7871SOL    HW135075   1.265   2.986   4.463  0.7920 -0.5005 -0.6845
 7871SOL    HW235076   1.173   3.077   4.399  1.7872 -0.5009 -1.3518
 7872SOL     OW35077   0.684   0.735   7.874  0.0185 -0.3854  0.3643
 7872SOL    HW135078   0.596   0.719   7.909  0.7178 -1.1755  1.7514
 7872SOL    HW235079   0.743   0.713   7.946 -1.9508  0.1317  2.1371
 7873SOL     OW35080   2.603   1.291  11.756 -0.4911 -0.3200  0.2080
 7873SOL    HW135081   2.604   1.196  11.751 -2.1389 -0.2743 -1.0723
 7873SOL    HW235082   2.591   1.318  11.665 -0.7866  0.5610  0.5062
 7874SOL     OW35083   2.216   3.825   7.004 -0.1718 -0.2241  0.7636
 7874SOL    HW135084   2.228   3.731   7.018  1.2242 -0.0594  0.6644
 7874SOL    HW235085   2.146   3.820   6.938 -0.2928 -0.3656  0.9037
 7875SOL     OW35086   4.419   3.871  17.546 -0.0004 -0.1899 -0.0602
 7875SOL    HW135087   4.480   3.803  17.518  2.6221  2.2128 -0.1729
 7875SOL    HW235088   4.468   3.952  17.529  0.4018 -0.8543 -1.9740
 7876SOL     OW35089   4.591   1.062   4.649 -0.4971 -0.8582 -0.0400
 7876SOL    HW135090   4.564   1.096   4.563 -1.0514  1.1684  0.9285
 7876SOL    HW235091   4.503   1.039   4.679 -0.4857 -3.3918 -1.9453
 7877SOL     OW35092   1.931   4.461   8.565 -0.5029 -0.5703 -0.0485
 7877SOL    HW135093   1.919   4.479   8.658  0.5649 -0.1133  0.0005
 7877SOL    HW235094   2.026   4.456   8.556 -0.5393 -1.3826  0.0125
 7878SOL     OW35095   2.036   0.289  14.743  0.0445  0.0405  0.2977
 7878SOL    HW135096   1.994   0.375  14.740  0.6632  0.2984 -1.2343
 7878SOL    HW235097   2.111   0.289  14.684  0.6059 -0.5360  1.0148
 7879SOL     OW35098   4.068   1.349   2.261  0.0856 -0.1066  0.1026
 7879SOL    HW135099   4.032   1.287   2.197  1.7622 -3.0967  2.0227
 7879SOL    HW235100   3.990   1.381   2.306 -0.2377 -1.0839  0.2479
 7880SOL     OW35101   1.955   4.576   2.970 -0.2460 -0.6201 -0.2819
 7880SOL    HW135102   1.946   4.584   2.875 -0.7588  2.1691  0.0263
 7880SOL    HW235103   2.048   4.596   2.978 -0.6348  0.9335  0.2867
 7881SOL     OW35104   0.782   1.548   0.180 -0.2009  0.6391  0.2005
 7881SOL    HW135105   0.708   1.570   0.238  0.0911  0.8566  0.4934
 7881SOL    HW235106   0.740   1.478   0.132 -0.3176  0.4053  0.6412
 7882SOL     OW35107   3.187   3.878   9.582 -0.0058 -0.3469 -0.6522
 7882SOL    HW135108   3.267   3.908   9.538  0.5881  1.6251  1.7694
 7882SOL    HW235109   3.179   3.952   9.642  0.3984  0.1829 -1.2459
 7883SOL     OW35110   4.650   3.078  16.448 -0.0977  0.2577 -1.0701
 7883SOL    HW135111   4.707   3.008  16.415 -1.4770 -1.6022  0.4385
 7883SOL    HW235112   4.701   3.158  16.441  0.4302  0.0013 -0.1360
 7884SOL     OW35113   1.222   2.257   7.127 -0.4625  0.7566 -0.0046
 7884SOL    HW135114   1.155   2.195   7.097 -0.0763  0.8399 -1.0507
 7884SOL    HW235115   1.299   2.228   7.078 -0.6327  0.2972  0.0011
 7885SOL     OW35116   0.945   0.301   7.929 -0.4887  0.3593  0.0008
 7885SOL    HW135117   0.961   0.264   8.015 -0.1057  0.1938 -0.1422
 7885SOL    HW235118   0.895   0.232   7.885 -2.1673  1.6093 -0.0574
 7886SOL     OW35119   3.391   3.267   6.777  0.0085  0.1118  0.4037
 7886SOL    HW135120   3.365   3.304   6.862 -0.7163 -0.4997  0.4523
 7886SOL    HW235121   3.433   3.340   6.731  1.4228 -0.0850  1.3694
 7887SOL     OW35122   2.054   2.816   8.856 -0.3084 -0.3691  0.7124
 7887SOL    HW135123   2.075   2.763   8.779  0.0077  0.7409  0.0300
 7887SOL    HW235124   2.002   2.755   8.908  0.4408  0.4926  2.4537
 7888SOL     OW35125   0.401   1.492  16.283 -0.2459  1.2433  0.3480
 7888SOL    HW135126   0.358   1.520  16.202  0.2227  1.8511  0.3057
 7888SOL    HW235127   0.488   1.468  16.251 -1.4078 -0.5910 -1.4271
 7889SOL     OW35128   2.151   4.156  10.341  0.8759 -0.5802  0.0072
 7889SOL    HW135129   2.241   4.180  10.319 -0.0732  1.5088 -1.5567
 7889SOL    HW235130   2.162   4.097  10.416  0.7999 -0.2742  0.2605
 7890SOL     OW35131   1.663   1.918   2.001 -0.3140  0.2737 -0.1328
 7890SOL    HW135132   1.693   1.891   1.914 -0.1821  2.7462 -0.8653
 7890SOL    HW235133   1.729   1.987   2.010 -0.0339  0.0567 -0.5342
 7891SOL     OW35134   0.414   4.426   5.313  0.2128 -0.1017  0.1223
 7891SOL    HW135135   0.369   4.393   5.235  0.7069  0.5797 -0.4548
 7891SOL    HW235136   0.465   4.494   5.270  1.3692 -0.5011  0.8617
 7892SOL     OW35137   4.403   2.177   5.280 -0.2738  0.0911  0.2678
 7892SOL    HW135138   4.437   2.101   5.232  3.1260  1.7764 -0.0382
 7892SOL    HW235139   4.374   2.242   5.215  2.3184  0.6214 -0.3679
 7893SOL     OW35140   2.241   4.514   1.757 -0.1296  0.1546 -0.2001
 7893SOL    HW135141   2.271   4.423   1.763 -0.5611  0.0069 -0.2714
 7893SOL    HW235142   2.266   4.537   1.667  0.2162 -3.7359 -1.1194
 7894SOL     OW35143   2.651   3.591   6.504 -0.2202 -0.0479  0.0042
 7894SOL    HW135144   2.705   3.615   6.429 -1.7690  0.7707 -0.8560
 7894SOL    HW235145   2.652   3.673   6.553 -1.9962  0.2806 -0.4944
 7895SOL     OW35146   1.315   1.293   2.842  0.3576  0.0825 -0.2922
 7895SOL    HW135147   1.338   1.214   2.891 -0.1655  0.0116 -0.1597
 7895SOL    HW235148   1.226   1.266   2.819  1.8240 -1.0209 -4.7156
 7896SOL     OW35149   4.231   2.699   2.812 -0.3071 -0.2259  0.1825
 7896SOL    HW135150   4.281   2.687   2.893 -2.4115 -2.4240  1.1960
 7896SOL    HW235151   4.293   2.659   2.751  0.4818 -0.1638  0.9434
 7897SOL     OW35152   1.199   4.524  10.441 -0.2173 -0.0616  0.1507
 7897SOL    HW135153   1.230   4.603  10.396 -1.1878  0.1871 -0.0738
 7897SOL    HW235154   1.177   4.563  10.526  1.3954  3.7362 -1.1729
 7898SOL     OW35155   3.865   3.612  10.355 -0.7554  0.2423  0.1974
 7898SOL    HW135156   3.906   3.597  10.270 -1.3105 -0.7603  0.0936
 7898SOL    HW235157   3.921   3.560  10.414  0.8433 -2.1121 -3.3599
 7899SOL     OW35158   0.761   3.520  14.354  0.6276  0.0672  0.1877
 7899SOL    HW135159   0.845   3.504  14.310  0.2542 -1.8064  0.1662
 7899SOL    HW235160   0.701   3.481  14.290 -0.3328  1.8025  0.0426
 7900SOL     OW35161   3.726   1.667   9.180  0.2005  0.0618 -0.4708
 7900SOL    HW135162   3.727   1.761   9.165  1.0613  0.0562 -0.4109
 7900SOL    HW235163   3.753   1.636   9.093  1.0085 -0.9680  0.1508
 7901SOL     OW35164   4.129   0.884  16.859  0.4742 -0.0023  0.1518
 7901SOL    HW135165   4.149   0.806  16.808 -0.0328  0.1523 -0.2846
 7901SOL    HW235166   4.212   0.927  16.884  1.2753 -0.2479 -2.1228
 7902SOL     OW35167   2.179   4.474  14.124 -0.1456 -0.2630 -0.0448
 7902SOL    HW135168   2.108   4.512  14.074  0.9905 -1.3041 -2.4614
 7902SOL    HW235169   2.249   4.483  14.059 -1.6816  0.0671 -1.6485
 7903SOL     OW35170   3.929   4.149   4.474  0.3330 -0.2339  0.5222
 7903SOL    HW135171   3.849   4.097   4.487  0.4953 -1.3811 -3.0494
 7903SOL    HW235172   3.901   4.193   4.394  1.0739 -2.1233 -0.7766
 7904SOL     OW35173   1.006   1.722  15.234  0.0051 -0.0325 -0.0898
 7904SOL    HW135174   1.060   1.801  15.234 -0.6756  0.4236 -1.1716
 7904SOL    HW235175   1.033   1.683  15.151 -0.3273  1.5129 -0.9155
 7905SOL     OW35176   1.175   2.905   5.941 -0.2246  0.1979  0.3838
 7905SOL    HW135177   1.192   2.811   5.931 -0.1697  0.5462 -2.7885
 7905SOL    HW235178   1.261   2.944   5.952  0.3129 -0.4514 -1.4609
 7906SOL     OW35179   2.099   3.172  13.191 -0.2755  0.0713 -0.4046
 7906SOL    HW135180   2.033   3.137  13.252 -1.3624  0.0133 -1.6240
 7906SOL    HW235181   2.108   3.115  13.116  0.7074 -3.0969  2.1263
 7907SOL     OW35182   1.312   3.526  15.497  0.2031  0.0674 -0.2009
 7907SOL    HW135183   1.280   3.451  15.548 -1.2626  0.5668 -0.4043
 7907SOL    HW235184   1.407   3.520  15.511  0.1567  2.1153  0.8931
 7908SOL     OW35185   2.673   3.613   2.035 -0.3326 -0.3635  0.2294
 7908SOL    HW135186   2.668   3.701   2.074 -0.0139  0.3139 -1.2543
 7908SOL    HW235187   2.758   3.618   1.992  0.3208 -0.8149  1.4699
 7909SOL     OW35188   4.449   0.760   9.169  0.3913  0.5015 -0.3208
 7909SOL    HW135189   4.517   0.768   9.102 -0.4951 -0.1691 -1.3204
 7909SOL    HW235190   4.406   0.844   9.153  0.7613  0.3990 -1.9080
 7910SOL     OW35191   1.578   1.240   4.919 -0.2326  0.3435 -0.4853
 7910SOL    HW135192   1.593   1.273   4.831 -2.9229  1.6408 -0.4772
 7910SOL    HW235193   1.630   1.161   4.925 -1.1342 -0.0840  1.9030
 7911SOL     OW35194   3.782   4.235   1.230 -0.4548 -0.0455  0.1520
 7911SOL    HW135195   3.797   4.302   1.297  0.0771 -2.0190  1.9851
 7911SOL    HW235196   3.712   4.180   1.265 -1.8586  0.8838 -1.1545
 7912SOL     OW35197   2.802   2.100   6.774 -0.0931 -0.3601  0.2267
 7912SOL    HW135198   2.769   2.116   6.863  0.9985  1.1556  0.3529
 7912SOL    HW235199   2.721   2.106   6.724 -0.9499  0.2366  1.6912
 7913SOL     OW35200   3.798   4.654   5.783 -0.0191  0.0998  0.1765
 7913SOL    HW135201   3.841   4.592   5.723 -1.1384  0.4615 -1.0156
 7913SOL    HW235202   3.816   4.618   5.869  3.0576  1.8053  0.2514
 7914SOL     OW35203   1.659   4.293  16.657 -0.5351  0.0854 -0.1639
 7914SOL    HW135204   1.573   4.261  16.685  1.3207 -2.1262  2.9733
 7914SOL    HW235205   1.661   4.258  16.568 -0.8414 -1.9461  0.6175
 7915SOL     OW35206   3.096   2.748  13.302 -0.2480 -0.3446 -0.1592
 7915SOL    HW135207   3.185   2.715  13.290 -0.3778 -1.3257  1.5422
 7915SOL    HW235208   3.121   2.821  13.359 -2.4121 -0.5503  1.0530
 7916SOL     OW35209   2.995   2.874   5.445  0.2222 -0.2818  0.7819
 7916SOL    HW135210   2.964   2.907   5.529 -0.4709 -1.2396  0.9128
 7916SOL    HW235211   3.080   2.840   5.471 -0.1291 -2.3083 -0.6173
 7917SOL     OW35212   4.658   3.344  14.010  0.1858 -1.0973 -0.6529
 7917SOL    HW135213   4.639   3.437  14.025 -2.0843 -1.6693  0.1211
 7917SOL    HW235214   4.583   3.289  14.036 -1.7341  1.2077 -1.2725
 7918SOL     OW35215   0.965   2.539  10.499 -0.3323  0.4291 -0.1650
 7918SOL    HW135216   1.034   2.505  10.442  1.2023  1.7966  0.8871
 7918SOL    HW235217   0.999   2.625  10.521 -2.6040  0.9834  1.1018
 7919SOL     OW35218   1.461   0.603   4.210 -0.2293 -0.5351  0.3031
 7919SOL    HW135219   1.408   0.525   4.225  0.5221 -1.0132  0.4793
 7919SOL    HW235220   1.469   0.624   4.304 -0.2471 -1.6584  0.5555
 7920SOL     OW35221   3.074   2.929   4.248  0.1244 -0.4058 -0.5164
 7920SOL    HW135222   3.043   2.871   4.318 -0.1782  1.0913  0.5677
 7920SOL    HW235223   3.137   2.983   4.295 -0.3386  0.7818 -1.2564
 7921SOL     OW35224   1.234   4.631   9.521 -0.0303  0.1196 -0.7240
 7921SOL    HW135225   1.169   4.695   9.550  0.5864 -0.3877  1.7867
 7921SOL    HW235226   1.194   4.586   9.446  0.2275 -2.5723  0.7688
 7922SOL     OW35227   3.715   3.604   5.469  0.0170  0.7689  0.0764
 7922SOL    HW135228   3.719   3.528   5.526 -0.5556  0.1043 -0.7674
 7922SOL    HW235229   3.770   3.666   5.517  1.2164 -0.6285  0.4941
 7923SOL     OW35230   3.541   2.142  12.317 -0.4561 -0.1651  0.1907
 7923SOL    HW135231   3.492   2.064  12.342 -2.2589  1.5117  1.8625
 7923SOL    HW235232   3.627   2.135  12.357  0.5392  1.3761 -1.6438
 7924SOL     OW35233   0.132   4.094  12.040  0.0363  0.0296  0.0903
 7924SOL    HW135234   0.106   4.136  12.122  2.9562 -1.1517  1.6042
 7924SOL    HW235235   0.166   4.009  12.070 -1.0323 -0.6543 -0.6336
 7925SOL     OW35236   2.496   4.015   2.690 -0.3971 -0.2894 -0.2159
 7925SOL    HW135237   2.521   3.928   2.658 -0.4295 -0.2840 -0.2556
 7925SOL    HW235238   2.485   3.985   2.781  0.0272  0.2297  0.0050
 7926SOL     OW35239   2.155   1.144   2.678  0.2161  0.3137  0.3642
 7926SOL    HW135240   2.213   1.100   2.616 -0.8105  1.2867 -1.2584
 7926SOL    HW235241   2.173   1.091   2.756  2.4800 -1.0232 -1.0548
 7927SOL     OW35242   0.651   1.516  15.045 -0.0113  0.0623 -0.0012
 7927SOL    HW135243   0.577   1.515  14.984  1.1874 -0.7430 -1.4505
 7927SOL    HW235244   0.622   1.590  15.098  0.7654  1.1009 -1.0322
 7928SOL     OW35245   3.199   0.665   8.801 -0.3908  0.1842  0.7012
 7928SOL    HW135246   3.117   0.694   8.760  0.3719  0.5315 -0.5579
 7928SOL    HW235247   3.262   0.678   8.731 -1.7673  0.1595 -0.5345
 7929SOL     OW35248   1.998   1.013  14.293 -0.4657 -0.4523 -0.4228
 7929SOL    HW135249   1.988   0.924  14.261  0.5930 -0.8021  0.2025
 7929SOL    HW235250   2.043   1.001  14.377  1.1404  1.3268 -1.0211
 7930SOL     OW35251   2.350   2.647   1.348 -0.4415  0.0774 -0.0793
 7930SOL    HW135252   2.419   2.614   1.290  0.2772  2.5337 -0.6016
 7930SOL    HW235253   2.389   2.729   1.380 -1.8124  0.6700  0.0500
 7931SOL     OW35254   3.442   0.145  15.820 -0.1518  0.4471  0.0173
 7931SOL    HW135255   3.458   0.151  15.914  1.7904 -0.0235 -0.2694
 7931SOL    HW235256   3.505   0.078  15.792  0.8884  1.4762 -0.0944
 7932SOL     OW35257   2.877   2.528  15.125  0.0253  0.4001  0.4775
 7932SOL    HW135258   2.872   2.544  15.219 -2.2358 -0.7251  0.5653
 7932SOL    HW235259   2.941   2.592  15.098 -0.1682 -0.1237 -1.2230
 7933SOL     OW35260   2.412   0.729   4.401  0.9380  0.2560 -0.2832
 7933SOL    HW135261   2.432   0.706   4.310 -1.2417  0.8875 -0.9299
 7933SOL    HW235262   2.494   0.768   4.431  0.8205  0.3439 -0.0725
 7934SOL     OW35263   4.128   1.000  16.017  0.5919  0.2986 -0.2609
 7934SOL    HW135264   4.087   1.082  15.990  1.8514  1.8671  2.6542
 7934SOL    HW235265   4.201   1.028  16.072  0.1558 -0.0771  0.5089
 7935SOL     OW35266   3.594   1.921   8.906 -0.1015 -0.0692 -0.3572
 7935SOL    HW135267   3.600   2.016   8.911 -0.8100 -0.1028  1.1909
 7935SOL    HW235268   3.651   1.895   8.979 -1.4082 -1.0430  0.3002
 7936SOL     OW35269   0.485   4.686   8.450 -0.5503  0.1110 -0.0220
 7936SOL    HW135270   0.432   4.689   8.371  2.5105 -0.1739 -2.1047
 7936SOL    HW235271   0.566   4.649   8.414 -0.2183  0.2965  0.5398
 7937SOL     OW35272   0.975   0.572   6.309 -0.4783 -0.2192  0.3600
 7937SOL    HW135273   0.950   0.500   6.251 -0.0676 -1.1138  1.2983
 7937SOL    HW235274   0.951   0.532   6.392  0.0988 -1.2076  0.0411
 7938SOL     OW35275   3.793   3.523  10.935  0.5286  0.1013  0.2395
 7938SOL    HW135276   3.790   3.523  11.031 -1.2732 -1.4850  0.1849
 7938SOL    HW235277   3.773   3.430  10.925  2.0145 -0.1968  0.0760
 7939SOL     OW35278   1.190   4.670   9.041  0.3489  0.4723 -0.1202
 7939SOL    HW135279   1.221   0.032   9.025 -1.4589  0.8961 -1.2675
 7939SOL    HW235280   1.116   4.663   8.980 -0.2478  1.9433  0.4413
 7940SOL     OW35281   1.605   0.668   3.053 -0.3054 -0.0509  0.2331
 7940SOL    HW135282   1.661   0.668   3.131  0.9498 -2.3255 -0.6604
 7940SOL    HW235283   1.598   0.573   3.045  0.4568  0.1031 -2.2534
 7941SOL     OW35284   3.998   2.330   1.027  0.1516 -0.3069 -0.2244
 7941SOL    HW135285   4.071   2.384   0.998 -1.0895  0.5099 -1.8557
 7941SOL    HW235286   3.930   2.376   0.977  2.1708  1.0834 -1.6566
 7942SOL     OW35287   2.098   3.975   8.211  0.3647  0.1681  0.3485
 7942SOL    HW135288   2.089   3.886   8.177 -1.1695 -0.1751  1.6287
 7942SOL    HW235289   2.190   3.980   8.236  0.3526  1.4349  0.1574
 7943SOL     OW35290   0.236   3.199   6.622 -0.8240 -0.1841  0.1685
 7943SOL    HW135291   0.229   3.214   6.716 -0.7117  0.2201  0.1120
 7943SOL    HW235292   0.313   3.144   6.609 -0.5882  0.3705 -0.8539
 7944SOL     OW35293   2.523   3.727  15.682  0.5462  0.2095 -0.2171
 7944SOL    HW135294   2.479   3.812  15.678  1.9996  0.9240 -1.0092
 7944SOL    HW235295   2.517   3.709  15.775 -2.2694  0.1423 -0.4118
 7945SOL     OW35296   2.691   3.796   9.745  0.7093 -0.3054 -0.2318
 7945SOL    HW135297   2.634   3.842   9.807  0.5717 -1.7665  0.7352
 7945SOL    HW235298   2.776   3.829   9.775  0.3665 -0.2067  0.6249
 7946SOL     OW35299   4.539   2.721   5.886  0.8577  0.4575  0.4488
 7946SOL    HW135300   4.619   2.771   5.870 -0.2813  2.3493  0.5874
 7946SOL    HW235301   4.568   2.665   5.957  1.9442  0.2530 -0.1541
 7947SOL     OW35302   3.689   0.195   1.024  0.9083  0.2328  0.0473
 7947SOL    HW135303   3.596   0.179   1.008  0.6612  1.9562 -0.2008
 7947SOL    HW235304   3.721   0.204   0.934 -1.2775  3.0312 -0.4241
 7948SOL     OW35305   4.165   0.306  15.039  0.7714 -0.3858 -0.2725
 7948SOL    HW135306   4.082   0.350  15.058  0.5728 -1.4066  1.2416
 7948SOL    HW235307   4.151   0.305  14.944 -1.3242  0.1367  0.0227
 7949SOL     OW35308   4.353   4.483   3.859  0.6783  0.0287 -0.3606
 7949SOL    HW135309   4.400   4.506   3.779  1.5395 -0.6285 -0.0431
 7949SOL    HW235310   4.296   4.416   3.820 -0.7157  0.4323  0.9700
 7950SOL     OW35311   3.847   3.788   5.669  0.1688  0.1938  0.0733
 7950SOL    HW135312   3.766   3.773   5.718 -0.1861 -1.6263 -1.0948
 7950SOL    HW235313   3.894   3.817   5.747  1.8675  1.0656 -1.2923
 7951SOL     OW35314   2.411   0.793  12.507 -0.1779 -0.0651  0.0348
 7951SOL    HW135315   2.484   0.733  12.521 -1.1632 -1.1487  0.6246
 7951SOL    HW235316   2.345   0.734  12.469 -1.3371  1.1381  0.1969
 7952SOL     OW35317   2.082   4.173   1.052  1.0617 -0.2240 -0.5284
 7952SOL    HW135318   2.024   4.122   0.995  0.0608  2.0942 -1.6295
 7952SOL    HW235319   2.012   4.228   1.088  1.1298  1.2592 -2.6567
 7953SOL     OW35320   2.527   2.841   4.004  0.7682  0.1518  0.6465
 7953SOL    HW135321   2.453   2.813   3.951 -0.2267  0.4908  1.8432
 7953SOL    HW235322   2.583   2.766   3.989  1.0770  0.5665 -0.2496
 7954SOL     OW35323   3.511   3.380  12.882 -0.0266 -0.1822  0.5922
 7954SOL    HW135324   3.552   3.467  12.882 -0.0373 -0.1835 -0.6912
 7954SOL    HW235325   3.419   3.407  12.890  0.3190  0.7361  1.5330
 7955SOL     OW35326   0.302   3.441   3.533 -0.1567  0.6107 -0.3036
 7955SOL    HW135327   0.231   3.391   3.573 -1.3488  2.4095 -0.1521
 7955SOL    HW235328   0.379   3.411   3.581 -0.0559  1.6909  0.2087
 7956SOL     OW35329   3.743   2.551  14.943  0.4391  0.2308  0.0243
 7956SOL    HW135330   3.658   2.593  14.928 -0.2182 -1.5583 -1.2694
 7956SOL    HW235331   3.722   2.476  14.998  0.9630 -0.1805 -0.3355
 7957SOL     OW35332   1.071   2.644   8.567  0.3358  0.2605  0.2511
 7957SOL    HW135333   0.991   2.594   8.580  1.0194 -1.3720 -1.9072
 7957SOL    HW235334   1.021   2.721   8.539 -0.7916 -0.3883  0.4997
 7958SOL     OW35335   0.387   3.092   2.750  0.2721 -0.2141 -0.0757
 7958SOL    HW135336   0.470   3.125   2.783 -0.0281  0.5356 -0.0810
 7958SOL    HW235337   0.346   3.070   2.834 -0.5379 -0.0563 -0.4297
 7959SOL     OW35338   1.035   3.777   8.728 -0.6515 -0.0141  0.8951
 7959SOL    HW135339   1.028   3.749   8.819  0.4149 -3.4360 -0.0533
 7959SOL    HW235340   1.077   3.863   8.732 -0.5272 -0.0964  1.3484
 7960SOL     OW35341   2.940   1.914   1.192  0.2296 -0.2265 -0.5106
 7960SOL    HW135342   3.007   1.913   1.260 -2.0634  0.7934  1.7439
 7960SOL    HW235343   2.858   1.927   1.239  0.7326  0.0771  0.2817
 7961SOL     OW35344   3.717   1.057  17.193 -0.3320 -0.4740  0.5724
 7961SOL    HW135345   3.732   1.146  17.161  0.1376 -0.8143 -0.1629
 7961SOL    HW235346   3.793   1.047  17.250 -0.8997 -2.6772  0.9378
 7962SOL     OW35347   2.547   4.390   2.657  0.6980 -0.5367 -0.0273
 7962SOL    HW135348   2.577   4.430   2.576 -1.6966 -0.3028 -0.7982
 7962SOL    HW235349   2.625   4.337   2.673  0.0889 -0.8748  1.8645
 7963SOL     OW35350   3.216   3.192  17.099  0.0342 -0.2460  0.0253
 7963SOL    HW135351   3.160   3.269  17.105  1.6626  0.9444  0.1371
 7963SOL    HW235352   3.205   3.154  17.186 -1.0796  1.7424  0.7572
 7964SOL     OW35353   3.674   0.960   6.606 -0.1783  0.1172 -0.1763
 7964SOL    HW135354   3.742   1.026   6.589  1.3809 -1.1409  1.1278
 7964SOL    HW235355   3.601   1.021   6.601  0.0703  0.7547  4.1212
 7965SOL     OW35356   3.431   3.494   0.100  0.3684 -0.6460  0.2713
 7965SOL    HW135357   3.392   3.577   0.072 -0.0629 -0.1914  2.2029
 7965SOL    HW235358   3.512   3.531   0.135  0.1379 -0.2018  0.3331
 7966SOL     OW35359   3.497   3.860   5.999  0.1111  0.0330 -0.0020
 7966SOL    HW135360   3.468   3.786   6.053 -1.6530  1.0720  0.4769
 7966SOL    HW235361   3.556   3.903   6.060 -0.2479  2.4074 -1.3240
 7967SOL     OW35362   3.910   3.373   2.167  0.1488 -0.3308  0.2901
 7967SOL    HW135363   4.002   3.347   2.173 -0.3859 -2.0852  0.8038
 7967SOL    HW235364   3.905   3.444   2.230  2.1205  1.0720 -1.1311
 7968SOL     OW35365   4.026   2.944   6.363 -0.2027 -0.0118  0.6090
 7968SOL    HW135366   4.072   2.958   6.446  0.6732  1.9896 -0.2195
 7968SOL    HW235367   3.964   3.017   6.369 -0.9168 -0.6013  0.2758
 7969SOL     OW35368   4.146   4.317   5.645  0.5626  0.3883  0.6515
 7969SOL    HW135369   4.102   4.308   5.730 -2.0721  0.4546 -0.7097
 7969SOL    HW235370   4.129   4.233   5.602 -1.8948  1.2615 -0.0614
 7970SOL     OW35371   4.494   3.278  14.634  0.3718 -0.3572  1.0788
 7970SOL    HW135372   4.508   3.183  14.626  2.1756 -0.0234  0.2252
 7970SOL    HW235373   4.582   3.316  14.633  1.0582 -1.9639 -0.6727
 7971SOL     OW35374   2.540   0.093  13.854  0.4746  0.0889 -0.1149
 7971SOL    HW135375   2.613   0.039  13.823 -0.1225 -1.0566  0.5068
 7971SOL    HW235376   2.565   0.172  13.804 -3.6592  0.9559 -0.8010
 7972SOL     OW35377   1.626   2.350  12.685  0.1003 -0.2216  0.5831
 7972SOL    HW135378   1.665   2.263  12.692  0.0028 -0.3633 -0.7620
 7972SOL    HW235379   1.686   2.409  12.731  0.5380  1.9342 -2.7901
 7973SOL     OW35380   2.971   0.314   8.776 -0.1582  0.2542 -0.2353
 7973SOL    HW135381   3.055   0.335   8.817 -0.5483  0.4541  0.4662
 7973SOL    HW235382   2.913   0.323   8.852  0.2441 -1.1432  0.2524
 7974SOL     OW35383   1.621   3.766  11.074 -0.1260  0.4222 -0.2300
 7974SOL    HW135384   1.655   3.741  11.160  1.2538 -0.9409 -1.1640
 7974SOL    HW235385   1.607   3.860  11.078 -3.1803 -0.0732  0.4273
 7975SOL     OW35386   0.383   0.918   2.790  0.2107  0.7359 -0.4174
 7975SOL    HW135387   0.462   0.971   2.781  0.9060  0.1190  2.1638
 7975SOL    HW235388   0.427   0.835   2.812 -1.6606 -0.3850 -0.9065
 7976SOL     OW35389   0.414   2.972  11.478 -0.1933 -0.1059  0.3420
 7976SOL    HW135390   0.367   3.052  11.455 -0.4308 -0.1757  0.5891
 7976SOL    HW235391   0.504   2.998  11.457 -0.5490 -0.4062 -1.5275
 7977SOL     OW35392   1.055   1.178   3.681  0.3758  0.0031  0.1871
 7977SOL    HW135393   1.043   1.236   3.606  0.1203 -1.1830 -0.6851
 7977SOL    HW235394   0.970   1.173   3.726 -0.3947 -1.4205 -1.4478
 7978SOL     OW35395   4.203   3.322   3.885  0.2104  0.8388  0.4222
 7978SOL    HW135396   4.189   3.393   3.947  0.2708  0.7216  0.5698
 7978SOL    HW235397   4.145   3.256   3.924  1.7702 -1.1849 -0.6798
 7979SOL     OW35398   3.275   1.368  15.818 -0.2760 -0.1555 -0.3095
 7979SOL    HW135399   3.272   1.457  15.784 -0.7041 -0.1801 -0.3333
 7979SOL    HW235400   3.370   1.357  15.828 -0.3746 -3.4092 -2.7471
 7980SOL     OW35401   1.576   0.427  10.056 -0.6147  0.2788  0.2741
 7980SOL    HW135402   1.620   0.487  10.117  1.0979  0.1298 -0.7966
 7980SOL    HW235403   1.497   0.398  10.101 -0.8228 -0.0076 -0.2766
 7981SOL     OW35404   1.130   2.404  15.492  0.2427  0.2014  0.0069
 7981SOL    HW135405   1.225   2.418  15.487  0.3110 -0.8748 -1.4601
 7981SOL    HW235406   1.116   2.499  15.482  2.3865  0.3103 -2.1243
 7982SOL     OW35407   3.471   4.339   7.377 -0.7227 -0.1772  0.2359
 7982SOL    HW135408   3.543   4.295   7.332 -1.9098 -1.0620 -0.7974
 7982SOL    HW235409   3.515   4.421   7.401  0.4375 -1.4821  2.5306
 7983SOL     OW35410   0.608   2.950   4.539  0.3225 -0.1903 -0.2246
 7983SOL    HW135411   0.553   3.020   4.574 -1.2070 -1.9745  0.9504
 7983SOL    HW235412   0.675   2.937   4.606 -1.9480 -1.4801  1.8059
 7984SOL     OW35413   2.419   2.866   3.472  0.1573  0.0178 -0.6114
 7984SOL    HW135414   2.411   2.770   3.472 -0.4920  0.0796  0.7531
 7984SOL    HW235415   2.325   2.882   3.482  0.4110  1.0867  0.0278
 7985SOL     OW35416   0.696   2.174   6.558  0.5399  0.6136  0.4963
 7985SOL    HW135417   0.620   2.232   6.551  0.0861 -0.1876 -1.1919
 7985SOL    HW235418   0.655   2.113   6.621 -0.4074  1.0749  0.3352
 7986SOL     OW35419   3.162   4.480   8.156  0.2180 -0.3224  0.3476
 7986SOL    HW135420   3.097   4.480   8.226  1.0040  1.3954  1.0846
 7986SOL    HW235421   3.186   4.572   8.140 -0.4682 -0.0083  1.1008
 7987SOL     OW35422   2.345   1.413   6.309 -0.2518 -0.2905  0.6951
 7987SOL    HW135423   2.350   1.459   6.225  2.4305  2.5167  2.3880
 7987SOL    HW235424   2.250   1.408   6.322 -0.3678  1.1986  0.3960
 7988SOL     OW35425   2.521   1.707   6.338 -0.0662  0.0132 -0.2129
 7988SOL    HW135426   2.537   1.673   6.250  1.2538  0.0705 -0.0100
 7988SOL    HW235427   2.584   1.647   6.379 -1.6994 -1.4938  0.0406
 7989SOL     OW35428   3.951   3.580   4.514 -0.3137 -0.0736 -0.7221
 7989SOL    HW135429   3.878   3.520   4.530  0.5089 -1.4225 -2.1098
 7989SOL    HW235430   3.993   3.545   4.436 -0.3596 -0.7319 -0.4461
 7990SOL     OW35431   2.697   1.133  11.214  0.0628 -0.1580 -0.3507
 7990SOL    HW135432   2.735   1.128  11.301 -1.4788  0.4822  0.3727
 7990SOL    HW235433   2.624   1.194  11.230  1.1790  1.3644 -1.0366
 7991SOL     OW35434   2.298   3.213   1.916 -0.0684 -1.0011  0.2936
 7991SOL    HW135435   2.219   3.159   1.922  0.2762 -1.5090  0.2004
 7991SOL    HW235436   2.284   3.273   1.990  2.6155 -0.7263  0.5732
 7992SOL     OW35437   3.522   3.114  11.754  0.4288 -0.0923  0.1618
 7992SOL    HW135438   3.511   3.117  11.849  1.2983 -1.7784  0.3148
 7992SOL    HW235439   3.610   3.077  11.755  0.1661 -0.7159 -0.0222
 7993SOL     OW35440   0.512   0.764   7.411 -0.2964 -0.0006  0.4288
 7993SOL    HW135441   0.563   0.772   7.492 -2.3593 -1.2980  1.8651
 7993SOL    HW235442   0.550   0.835   7.358 -0.7685 -0.3734 -0.4130
 7994SOL     OW35443   3.486   4.695  11.095  0.3575 -0.2041 -0.5732
 7994SOL    HW135444   3.503   4.648  11.013 -0.9413  1.4679 -1.8121
 7994SOL    HW235445   3.557   0.030  11.099  0.6501 -0.5041 -1.0052
 7995SOL     OW35446   2.373   3.836   9.223 -0.2388  0.2101  1.1237
 7995SOL    HW135447   2.382   3.794   9.308 -1.6862 -0.2545  1.0488
 7995SOL    HW235448   2.283   3.810   9.203 -0.2246  1.4307 -0.5244
 7996SOL     OW35449   2.948   2.736   3.760  0.6338  0.5013  0.0883
 7996SOL    HW135450   2.881   2.766   3.821  0.2511  1.6471 -0.8939
 7996SOL    HW235451   2.908   2.655   3.728  0.9135 -0.0461  1.1443
 7997SOL     OW35452   1.851   0.640   9.347  0.3843  0.4446 -0.1157
 7997SOL    HW135453   1.942   0.666   9.355  1.1765 -2.0824 -0.8596
 7997SOL    HW235454   1.831   0.622   9.439  0.7102 -2.0524 -0.5267
 7998SOL     OW35455   1.832   1.822   2.843 -0.1462  0.8022  0.0657
 7998SOL    HW135456   1.869   1.747   2.796 -1.5828 -0.1583  0.4534
 7998SOL    HW235457   1.845   1.793   2.933  0.9291 -0.9904 -0.6650
 7999SOL     OW35458   1.449   0.947   0.020 -0.5192 -0.5084 -0.0807
 7999SOL    HW135459   1.418   1.034   0.044 -1.0493 -0.2579 -1.6638
 7999SOL    HW235460   1.515   0.959  17.663 -0.7408 -1.8077 -0.5294
 8000SOL     OW35461   1.937   0.215   2.551  0.0664 -0.2419  0.2899
 8000SOL    HW135462   1.867   0.188   2.492  0.4232  1.4246 -0.9050
 8000SOL    HW235463   2.013   0.184   2.501  0.5998 -0.6298  1.3344
 8001SOL     OW35464   1.456   1.824   1.351 -0.2638 -0.0021 -0.3481
 8001SOL    HW135465   1.500   1.800   1.270  0.4910  0.5568 -0.0970
 8001SOL    HW235466   1.403   1.745   1.364  1.4229 -1.0620  0.0157
 8002SOL     OW35467   0.536   2.363   3.827  0.2142  0.2168 -0.1869
 8002SOL    HW135468   0.459   2.360   3.770 -1.1365  0.6897  1.5996
 8002SOL    HW235469   0.498   2.394   3.909  0.8713 -1.5214  0.7778
 8003SOL     OW35470   0.603   0.433   6.337  0.0382 -0.7121 -0.4593
 8003SOL    HW135471   0.686   0.385   6.336 -0.6595 -1.9074 -0.5235
 8003SOL    HW235472   0.604   0.489   6.259  1.8307  2.1073  1.6024
 8004SOL     OW35473   0.112   4.130   8.273 -0.2193 -0.5400 -0.0593
 8004SOL    HW135474   0.051   4.057   8.260 -1.8065  1.0290 -1.4533
 8004SOL    HW235475   0.170   4.135   8.197 -0.1785  2.5531  0.1517
 8005SOL     OW35476   2.642   1.824  17.297  0.8558 -0.3854 -0.3589
 8005SOL    HW135477   2.566   1.852  17.246 -0.7064  0.0693  2.2173
 8005SOL    HW235478   2.669   1.910  17.329  0.5132 -0.2434 -0.4427
 8006SOL     OW35479   3.134   3.774   9.020 -0.1189 -0.3720  0.9061
 8006SOL    HW135480   3.137   3.858   9.065  0.6639  0.2267 -0.2646
 8006SOL    HW235481   3.163   3.712   9.086  3.3698 -0.0950 -0.3480
 8007SOL     OW35482   1.325   4.193   6.283 -0.4527  0.5425  0.2769
 8007SOL    HW135483   1.328   4.271   6.338 -0.4172  1.7128 -1.3849
 8007SOL    HW235484   1.417   4.194   6.255 -0.3399 -0.4651  0.6362
 8008SOL     OW35485   1.759   0.727   3.296 -0.4927 -0.1756  0.0406
 8008SOL    HW135486   1.834   0.748   3.240 -0.6112 -0.5151 -0.2388
 8008SOL    HW235487   1.743   0.812   3.339 -1.8377  0.8556 -2.4772
 8009SOL     OW35488   3.987   4.335  16.607 -0.5294  0.2515  1.0514
 8009SOL    HW135489   4.019   4.285  16.532  0.3921  2.8051 -0.2607
 8009SOL    HW235490   4.065   4.369  16.653 -0.4827  2.2463 -0.5148
 8010SOL     OW35491   2.987   2.647   3.420  0.1653  0.1680 -0.0524
 8010SOL    HW135492   3.044   2.650   3.343 -0.1699 -2.1660 -0.4116
 8010SOL    HW235493   3.013   2.726   3.466  1.0351 -0.4908  0.5965
 8011SOL     OW35494   2.414   1.293  10.389  0.7774  0.0844  0.0835
 8011SOL    HW135495   2.353   1.256  10.325  1.7338 -0.8241 -0.3105
 8011SOL    HW235496   2.360   1.343  10.450  1.3277  0.4334  0.2902
 8012SOL     OW35497   0.304   4.183   2.714 -0.4231 -0.3253 -0.0172
 8012SOL    HW135498   0.372   4.187   2.781 -0.3035  1.1833 -0.2421
 8012SOL    HW235499   0.349   4.157   2.633  0.5204  0.8633  0.1405
 8013SOL     OW35500   2.096   3.657  11.605 -0.1470 -0.3975  0.2236
 8013SOL    HW135501   2.187   3.635  11.584  0.6211  0.8294  2.2142
 8013SOL    HW235502   2.055   3.630  11.523 -3.1113  0.4351  1.4085
 8014SOL     OW35503   1.170   1.413  17.538 -0.6658 -0.1831 -0.2766
 8014SOL    HW135504   1.120   1.441  17.461 -1.3789  0.6439  0.4903
 8014SOL    HW235505   1.179   1.319  17.524 -0.4121 -0.2079  0.0563
 8015SOL     OW35506   2.858   3.686  15.272 -0.2160 -0.5073  0.3991
 8015SOL    HW135507   2.766   3.706  15.256 -0.1720 -0.2004  0.5233
 8015SOL    HW235508   2.898   3.761  15.228  0.3103 -1.4989 -0.8031
 8016SOL     OW35509   1.834   0.920   4.657  0.2433 -0.7058  0.1837
 8016SOL    HW135510   1.895   0.890   4.725  1.6020 -1.4583 -1.3687
 8016SOL    HW235511   1.882   0.906   4.575  1.2137  1.5589  0.3832
 8017SOL     OW35512   1.986   4.470   4.109  0.3922 -0.1106  1.0934
 8017SOL    HW135513   1.962   4.394   4.056  2.3186  2.3625 -3.2883
 8017SOL    HW235514   1.926   4.458   4.183  0.0377  2.1529  1.1738
 8018SOL     OW35515   0.270   4.171   5.564 -0.2528 -0.6205 -0.0297
 8018SOL    HW135516   0.277   4.138   5.474  1.0749 -0.5632  0.0468
 8018SOL    HW235517   0.274   4.085   5.605  0.8223  0.3998  1.9968
 8019SOL     OW35518   2.601   4.084   4.931  0.7126 -0.2486  0.2078
 8019SOL    HW135519   2.684   4.049   4.965  0.1946 -0.8501  0.8450
 8019SOL    HW235520   2.537   4.065   5.000 -0.0847 -1.6753 -0.9269
 8020SOL     OW35521   3.244   4.399  16.729 -0.3342 -0.0263  0.2784
 8020SOL    HW135522   3.316   4.452  16.693  0.2937  0.0006  1.5847
 8020SOL    HW235523   3.174   4.417  16.667  0.7657  1.0624 -0.6767
 8021SOL     OW35524   2.929   1.077   2.987  0.1130 -0.3817 -0.1011
 8021SOL    HW135525   2.871   1.133   2.935 -1.0342 -1.7541 -0.3125
 8021SOL    HW235526   2.965   1.023   2.916  0.9378 -2.1337  1.6734
 8022SOL     OW35527   0.500   2.634   3.592  0.2837 -0.2025 -1.0637
 8022SOL    HW135528   0.569   2.653   3.529 -0.3031  2.1783 -0.9821
 8022SOL    HW235529   0.428   2.601   3.538  0.8435 -1.7107 -0.9136
 8023SOL     OW35530   3.945   1.544   7.607 -0.4125 -0.3497  0.1852
 8023SOL    HW135531   3.857   1.514   7.631 -0.6631 -0.3064 -0.6864
 8023SOL    HW235532   3.970   1.607   7.675  1.3502  0.7752 -1.4985
 8024SOL     OW35533   4.254   3.878   6.341  0.1388 -0.1394 -0.0269
 8024SOL    HW135534   4.329   3.933   6.319  0.0092 -0.1113 -0.4120
 8024SOL    HW235535   4.301   3.795   6.340  0.0454 -0.1957  0.2450
 8025SOL     OW35536   3.452   1.911  16.756 -0.1477 -0.3458 -0.1187
 8025SOL    HW135537   3.369   1.869  16.776 -0.9653  1.0431 -0.6006
 8025SOL    HW235538   3.449   1.899  16.661 -1.9380  0.8240 -0.2098
 8026SOL     OW35539   2.818   1.242  16.916 -0.2419  0.3279 -0.2196
 8026SOL    HW135540   2.856   1.304  16.853 -1.6153  1.0243 -0.3631
 8026SOL    HW235541   2.889   1.241  16.980 -0.0066 -2.9106 -0.5364
 8027SOL     OW35542   0.969   2.387   4.971  0.2615  0.1001 -0.4127
 8027SOL    HW135543   0.990   2.296   4.990 -0.4095  0.0882  0.3032
 8027SOL    HW235544   0.892   2.373   4.916  0.1729  0.1862 -0.3109
 8028SOL     OW35545   0.588   2.118  10.928  0.2326  0.2365  0.0205
 8028SOL    HW135546   0.557   2.160  10.848  0.6477 -0.4178 -0.4839
 8028SOL    HW235547   0.572   2.194  10.984  1.2145  1.0976 -0.8573
 8029SOL     OW35548   4.457   1.291   1.068 -0.7561  0.6043  0.5655
 8029SOL    HW135549   4.512   1.331   1.000 -2.5367  2.6760  0.3369
 8029SOL    HW235550   4.481   1.199   1.074 -2.1977  0.1605 -0.6843
 8030SOL     OW35551   2.481   0.900   5.792 -0.0497  0.0498  0.1467
 8030SOL    HW135552   2.442   0.911   5.878  0.8723 -0.4063  0.6254
 8030SOL    HW235553   2.415   0.927   5.728 -2.4644 -1.6933  1.9065
 8031SOL     OW35554   0.684   0.417   0.387 -0.1722 -0.5004 -0.1459
 8031SOL    HW135555   0.709   0.328   0.412  0.3638 -0.9626 -2.3257
 8031SOL    HW235556   0.638   0.444   0.466  1.5040  1.0052  0.3297
 8032SOL     OW35557   1.404   3.273  13.225 -0.2037 -0.1717 -0.3051
 8032SOL    HW135558   1.373   3.335  13.159 -0.6068  0.0576  0.1019
 8032SOL    HW235559   1.330   3.226  13.263  1.6681 -2.7052  0.2123
 8033SOL     OW35560   1.129   3.155   7.336  0.2339 -0.2052  0.4223
 8033SOL    HW135561   1.206   3.143   7.392 -0.5887  0.1599  1.6446
 8033SOL    HW235562   1.067   3.086   7.360 -0.3077  0.4292  0.8564
 8034SOL     OW35563   2.736   0.088  14.147  0.0143 -0.1791  0.2554
 8034SOL    HW135564   2.756   0.124  14.233  0.9606 -1.7324  0.6890
 8034SOL    HW235565   2.649   0.124  14.134 -0.1787 -1.1922 -1.2824
 8035SOL     OW35566   0.519   4.491   4.879 -0.2204  0.3639  0.2468
 8035SOL    HW135567   0.502   4.469   4.788  2.6091  2.8945 -0.8997
 8035SOL    HW235568   0.572   4.416   4.905  0.6037  0.5455 -0.8952
 8036SOL     OW35569   1.360   2.679   1.599 -0.3683 -0.8745  0.1492
 8036SOL    HW135570   1.325   2.754   1.647  0.4206  0.6823 -1.6999
 8036SOL    HW235571   1.276   2.638   1.576 -1.3955  1.1644  0.2437
 8037SOL     OW35572   4.267   1.428   0.920 -0.1520  0.4292 -0.0780
 8037SOL    HW135573   4.314   1.374   0.982  0.5687 -0.1602 -1.1338
 8037SOL    HW235574   4.333   1.453   0.855  0.5455 -1.8764 -0.2647
 8038SOL     OW35575   2.240   1.956   5.493 -0.3809 -0.5366 -0.1330
 8038SOL    HW135576   2.223   1.961   5.399 -0.9112 -2.5311 -0.1408
 8038SOL    HW235577   2.190   2.030   5.526  1.6994  1.8427 -2.3781
 8039SOL     OW35578   3.792   3.746   7.498 -0.0921 -0.0917 -0.3198
 8039SOL    HW135579   3.722   3.685   7.522 -2.8543  1.9712 -3.1242
 8039SOL    HW235580   3.768   3.815   7.560  1.8196  1.1012 -0.9122
 8040SOL     OW35581   1.026   1.225   6.599  0.1645  0.3358 -0.7992
 8040SOL    HW135582   1.030   1.235   6.694  1.0056 -1.9401 -0.5818
 8040SOL    HW235583   0.932   1.238   6.591 -0.4050 -4.2858 -2.1541
 8041SOL     OW35584   3.337   3.301   4.416 -0.0089 -0.1250 -0.3256
 8041SOL    HW135585   3.424   3.339   4.425 -0.1404 -0.0176  0.4524
 8041SOL    HW235586   3.280   3.376   4.430  1.8603  0.9786  1.2294
 8042SOL     OW35587   3.495   4.425   5.948 -0.2889 -0.1617  0.1536
 8042SOL    HW135588   3.534   4.511   5.932  0.7786 -0.7117 -0.1746
 8042SOL    HW235589   3.529   4.378   5.872 -0.5039  0.7069 -0.4795
 8043SOL     OW35590   4.667   4.252   4.599  0.1452 -0.4504 -0.4947
 8043SOL    HW135591   4.622   4.228   4.680  2.2164 -1.2729  0.4155
 8043SOL    HW235592   4.642   4.344   4.593 -2.1926 -0.9358  1.8410
 8044SOL     OW35593   2.685   4.425  14.672  0.1600 -0.0504  0.0854
 8044SOL    HW135594   2.777   4.437  14.696 -0.7753  1.6604  2.8118
 8044SOL    HW235595   2.681   4.339  14.630  1.1032 -0.1213  0.1359
 8045SOL     OW35596   0.484   0.837   1.443  0.1403 -0.5968  0.5756
 8045SOL    HW135597   0.491   0.928   1.413 -1.2794 -0.6143  0.2152
 8045SOL    HW235598   0.470   0.850   1.537 -2.1876  2.4311 -0.1937
 8046SOL     OW35599   2.985   1.809   3.863  0.0564 -0.2445  0.7271
 8046SOL    HW135600   2.908   1.841   3.814  0.4748 -0.2055  0.0875
 8046SOL    HW235601   2.997   1.876   3.931  1.8212 -1.3801  1.5258
 8047SOL     OW35602   0.282   0.902   3.113  0.4206 -0.3240  0.2877
 8047SOL    HW135603   0.215   0.834   3.106 -0.0756  0.4292 -2.1405
 8047SOL    HW235604   0.351   0.869   3.054  2.3748  3.2610  0.5747
 8048SOL     OW35605   1.408   1.160   6.798 -0.6431  0.6992  0.6879
 8048SOL    HW135606   1.444   1.245   6.771  0.7588  0.0088  0.3606
 8048SOL    HW235607   1.434   1.106   6.723 -2.1126 -0.0710  0.7351
 8049SOL     OW35608   3.786   3.817  17.091  0.1960  0.7699 -0.0338
 8049SOL    HW135609   3.852   3.840  17.026  2.8094 -1.2806  1.8652
 8049SOL    HW235610   3.813   3.726  17.083  0.3154  1.0796 -3.3202
 8050SOL     OW35611   0.161   0.081  13.058  0.4884  0.4782  0.0601
 8050SOL    HW135612   0.192   4.718  13.067 -1.7098 -0.1077  1.6808
 8050SOL    HW235613   0.150   0.078  12.963  2.3403  1.8547 -0.2044
 8051SOL     OW35614   2.456   4.540  14.755 -0.5426 -0.4260  0.7743
 8051SOL    HW135615   2.517   4.498  14.695 -3.4005 -3.5104 -0.0198
 8051SOL    HW235616   2.473   4.632  14.736  0.6626 -0.8122 -0.0226
 8052SOL     OW35617   3.655   2.125  16.157  0.4292  0.0720 -0.2609
 8052SOL    HW135618   3.587   2.135  16.090  0.1977  0.9391  0.1025
 8052SOL    HW235619   3.639   2.204  16.209  1.4650  0.4906 -0.5914
 8053SOL     OW35620   2.113   4.421   3.434 -0.1373  0.6358  0.1801
 8053SOL    HW135621   2.181   4.476   3.394  1.1809  0.0218  1.5503
 8053SOL    HW235622   2.159   4.406   3.517  0.4835 -1.7440 -0.5883
 8054SOL     OW35623   0.919   1.902   3.235 -0.1330 -0.1283  0.2386
 8054SOL    HW135624   0.941   1.919   3.327 -1.4832  0.5976  0.4119
 8054SOL    HW235625   0.986   1.833   3.231  0.5901  0.6140 -0.4412
 8055SOL     OW35626   3.239   2.659   4.692 -0.0967 -0.2561 -0.0287
 8055SOL    HW135627   3.287   2.739   4.673 -1.3951  0.0645 -1.9127
 8055SOL    HW235628   3.152   2.688   4.663  0.0903 -0.5118 -0.8449
 8056SOL     OW35629   1.183   3.741  12.006 -0.0463  0.0111 -0.2113
 8056SOL    HW135630   1.128   3.782  11.939  1.4983  1.0952 -0.8177
 8056SOL    HW235631   1.183   3.823  12.055  3.0272  0.6767 -1.3070
 8057SOL     OW35632   2.559   4.642   7.026 -0.8442 -0.0364  0.2042
 8057SOL    HW135633   2.543   4.564   7.079  2.1154 -0.3054  0.6972
 8057SOL    HW235634   2.485   4.641   6.966 -0.4181 -2.4151 -0.2817
 8058SOL     OW35635   0.165   3.575   1.824  0.0859  0.2686 -0.5397
 8058SOL    HW135636   0.119   3.506   1.776 -2.3285  1.3779  0.1945
 8058SOL    HW235637   0.157   3.534   1.911 -0.4227  1.3418 -0.0878
 8059SOL     OW35638   1.796   3.911   6.425 -0.5073  0.2222  0.2859
 8059SOL    HW135639   1.809   3.989   6.478 -0.9507 -0.1225  0.9087
 8059SOL    HW235640   1.884   3.872   6.425 -1.8590 -2.9035 -2.0686
 8060SOL     OW35641   3.837   2.774   2.353  0.5702  0.3375 -0.6832
 8060SOL    HW135642   3.814   2.686   2.323  0.9416 -0.6471  1.9421
 8060SOL    HW235643   3.923   2.792   2.316  0.5795  0.7580 -0.4508
 8061SOL     OW35644   0.706   3.518   5.043 -0.1084  0.4517 -0.0356
 8061SOL    HW135645   0.692   3.547   5.133 -0.6289  1.3586 -0.3989
 8061SOL    HW235646   0.678   3.427   5.050 -2.1030  0.7041 -4.4493
 8062SOL     OW35647   2.268   1.365   8.290 -0.5468 -0.5589 -0.1168
 8062SOL    HW135648   2.333   1.310   8.335 -1.2448 -0.3372  1.1404
 8062SOL    HW235649   2.237   1.416   8.365 -0.7494  1.9059 -1.8841
 8063SOL     OW35650   2.928   4.023   2.412 -0.1147  0.2021  1.0689
 8063SOL    HW135651   2.973   3.962   2.471 -0.5692 -2.3367 -1.1854
 8063SOL    HW235652   2.866   3.963   2.370  1.0845 -1.2914  1.4152
 8064SOL     OW35653   3.780   0.644   6.002 -0.0483 -0.2462  0.0783
 8064SOL    HW135654   3.697   0.597   6.010 -0.6717  0.8849  0.1954
 8064SOL    HW235655   3.770   0.689   6.085 -2.1629 -0.3620 -0.1333
 8065SOL     OW35656   4.727   1.951   1.467 -0.5658 -0.5317 -0.0099
 8065SOL    HW135657   0.072   1.912   1.516 -0.6136 -1.3616 -0.5973
 8065SOL    HW235658   0.063   1.976   1.400 -1.1757  0.2094 -0.3201
 8066SOL     OW35659   3.688   3.499  11.456  0.7466 -0.4648 -0.1478
 8066SOL    HW135660   3.628   3.437  11.497  2.0899 -1.2247  0.6919
 8066SOL    HW235661   3.674   3.579  11.507 -2.5706 -1.0088 -0.2417
 8067SOL     OW35662   0.115   1.396   6.602 -0.1014  0.1025  0.2609
 8067SOL    HW135663   0.119   1.340   6.525 -1.9427  2.1339 -1.3299
 8067SOL    HW235664   0.098   1.336   6.674 -0.6053 -0.0091  0.0464
 8068SOL     OW35665   1.517   2.406   0.918 -0.0755  0.3598  0.3153
 8068SOL    HW135666   1.475   2.379   0.836  1.2602  1.5240 -0.7406
 8068SOL    HW235667   1.559   2.486   0.886 -0.8756  1.3301  1.6956
 8069SOL     OW35668   4.659   1.829   6.337 -0.2333  0.0569  0.0514
 8069SOL    HW135669   4.604   1.836   6.415 -0.3820 -1.6779  0.1046
 8069SOL    HW235670   4.710   1.747   6.346  0.3518  0.1549 -2.5415
 8070SOL     OW35671   1.040   3.145  12.790  0.3028  0.2925 -0.1941
 8070SOL    HW135672   0.985   3.069  12.772 -0.9201  0.5206  2.6148
 8070SOL    HW235673   1.089   3.114  12.866  1.1138 -1.1539 -1.3156
 8071SOL     OW35674   3.892   0.579   4.858 -0.1992  0.5165  0.3393
 8071SOL    HW135675   3.883   0.637   4.934  1.2505  1.0161  0.1336
 8071SOL    HW235676   3.977   0.536   4.872 -0.0042  0.6011 -0.5791
 8072SOL     OW35677   0.677   4.419   4.126  0.1195  0.4254 -0.3272
 8072SOL    HW135678   0.605   4.359   4.104  1.1225 -0.1589 -2.0185
 8072SOL    HW235679   0.684   4.478   4.050 -0.0077  1.3311  0.3659
 8073SOL     OW35680   3.488   1.690  12.828 -0.2893  0.7793 -0.2367
 8073SOL    HW135681   3.394   1.705  12.818 -0.3678 -0.0256 -0.7071
 8073SOL    HW235682   3.511   1.755  12.894 -1.1313 -0.7418  1.5623
 8074SOL     OW35683   4.542   3.002   0.694 -0.3910  0.4147 -0.2896
 8074SOL    HW135684   4.622   2.952   0.707  0.8483  2.1150 -1.3292
 8074SOL    HW235685   4.578   3.086   0.664 -1.2081  0.1601 -2.0235
 8075SOL     OW35686   2.548   4.471   2.040  0.6874  0.1385 -0.4517
 8075SOL    HW135687   2.477   4.518   1.998  0.3066 -3.1106 -3.4569
 8075SOL    HW235688   2.606   4.540   2.072 -1.4697  0.6399  2.3491
 8076SOL     OW35689   0.593   0.501   5.728  0.3635  0.5123  0.4818
 8076SOL    HW135690   0.498   0.487   5.736  0.5450 -0.1592  1.5639
 8076SOL    HW235691   0.591   0.592   5.698 -1.3142  0.4036  0.2646
 8077SOL     OW35692   1.346   0.876   0.762 -0.7249 -0.4468  0.0229
 8077SOL    HW135693   1.325   0.948   0.822  2.4714 -0.8287  1.5968
 8077SOL    HW235694   1.385   0.919   0.686  2.1923 -0.5604  1.4787
 8078SOL     OW35695   3.451   4.012   5.395 -0.0978  0.6231 -0.6678
 8078SOL    HW135696   3.381   4.004   5.329  0.6347  1.5455 -1.5475
 8078SOL    HW235697   3.496   3.928   5.385 -1.7895 -0.5728  1.6071
 8079SOL     OW35698   3.864   1.809  17.100 -0.5225 -0.2780  0.4407
 8079SOL    HW135699   3.857   1.826  17.006  0.4839  0.3909  0.4869
 8079SOL    HW235700   3.774   1.826  17.129 -1.0092  1.3454 -2.0223
 8080SOL     OW35701   0.338   2.117  14.846 -0.4865  0.1203 -0.1933
 8080SOL    HW135702   0.396   2.061  14.795  0.9903 -0.4604  2.1399
 8080SOL    HW235703   0.400   2.188  14.863  0.4236 -1.0431  1.2408
 8081SOL     OW35704   1.636   2.997   0.320 -0.4784 -0.2357  0.0218
 8081SOL    HW135705   1.708   2.934   0.312 -0.5486 -0.3399  0.2136
 8081SOL    HW235706   1.673   3.054   0.387  1.5569  0.8240 -2.0073
 8082SOL     OW35707   4.425   4.055   9.831 -0.7710  0.1344 -0.3149
 8082SOL    HW135708   4.419   4.150   9.834 -2.3743 -0.0430  2.6146
 8082SOL    HW235709   4.399   4.046   9.739 -0.4229  1.7686 -0.5673
 8083SOL     OW35710   2.724   1.298   8.236  0.2278  0.3580 -0.1009
 8083SOL    HW135711   2.766   1.374   8.277  1.4693 -2.0052  3.0116
 8083SOL    HW235712   2.647   1.326   8.188  1.6154  0.4199 -2.2908
 8084SOL     OW35713   0.835   1.198   7.946  0.0662  0.0480 -0.6008
 8084SOL    HW135714   0.878   1.250   7.879 -0.3628  1.0087 -0.1308
 8084SOL    HW235715   0.751   1.243   7.934 -0.7579 -2.0181 -2.6285
 8085SOL     OW35716   3.951   3.486   3.102  0.1274  0.1275  0.1272
 8085SOL    HW135717   3.958   3.558   3.040 -0.1716 -0.9575 -1.1615
 8085SOL    HW235718   3.858   3.465   3.090  0.0502 -0.0487  0.9960
 8086SOL     OW35719   1.231   0.178  10.490 -0.4425  0.1558  0.5162
 8086SOL    HW135720   1.307   0.229  10.517 -1.1529  1.8094 -0.5959
 8086SOL    HW235721   1.267   0.122  10.421 -2.8839 -3.1415  1.9238
 8087SOL     OW35722   2.626   0.522   9.972 -0.3761  0.1845  0.4607
 8087SOL    HW135723   2.678   0.588   9.926 -0.4628  0.3054  0.5368
 8087SOL    HW235724   2.598   0.482   9.890  0.1527 -1.0593  0.8750
 8088SOL     OW35725   1.895   3.295   8.198  0.2248 -0.5135  0.0385
 8088SOL    HW135726   1.939   3.324   8.278 -0.0787 -2.8069  1.0576
 8088SOL    HW235727   1.891   3.203   8.225 -1.5471 -0.4094  0.1460
 8089SOL     OW35728   4.284   1.682   2.007 -0.0024 -0.6107 -0.1725
 8089SOL    HW135729   4.290   1.686   2.103  0.6373 -3.2727 -0.0911
 8089SOL    HW235730   4.214   1.621   1.984  0.0698 -0.9057  0.3776
 8090SOL     OW35731   0.900   1.983   1.220 -0.4057  0.2175 -0.1258
 8090SOL    HW135732   0.882   1.933   1.140  0.2588  0.3781 -0.3788
 8090SOL    HW235733   0.808   1.995   1.244 -1.0716  0.5793 -2.8848
 8091SOL     OW35734   2.246   0.976   6.443  0.4746 -0.2237  0.7671
 8091SOL    HW135735   2.237   0.959   6.537  0.7154  2.4835  1.2708
 8091SOL    HW235736   2.230   1.070   6.446  2.3437  0.1807 -2.2419
 8092SOL     OW35737   0.071   1.704  13.249  0.2436 -0.0094  0.2060
 8092SOL    HW135738   0.030   1.638  13.194  0.2924  0.0402  0.1095
 8092SOL    HW235739   4.727   1.764  13.269  0.4555 -0.3517  1.9960
 8093SOL     OW35740   0.335   4.596   3.025 -0.4364  0.1251 -0.5829
 8093SOL    HW135741   0.387   4.536   3.079  1.1373  0.3401 -1.8491
 8093SOL    HW235742   0.352   4.562   2.937  3.0446  0.7073 -0.1079
 8094SOL     OW35743   0.919   4.683  12.896  0.1261  0.1395 -0.0745
 8094SOL    HW135744   0.992   4.625  12.876  1.3673  1.9896 -0.9746
 8094SOL    HW235745   0.850   4.639  12.847  0.9377 -0.7775 -0.3958
 8095SOL     OW35746   2.002   2.046   1.031 -0.4128 -0.0209 -0.3106
 8095SOL    HW135747   1.964   2.128   1.063 -0.2600 -0.6907  1.5998
 8095SOL    HW235748   1.923   2.018   0.985 -0.1670  1.2135 -1.4798
 8096SOL     OW35749   3.642   1.022   7.602 -0.5661 -0.1255 -0.0375
 8096SOL    HW135750   3.617   0.938   7.562  0.0947 -0.9645  1.3010
 8096SOL    HW235751   3.624   0.992   7.691 -0.1084 -1.3325 -0.3484
 8097SOL     OW35752   1.517   3.203  15.664 -0.4926  0.4517  0.0345
 8097SOL    HW135753   1.438   3.251  15.640 -0.9836  0.9228  2.5650
 8097SOL    HW235754   1.471   3.126  15.698 -1.1629  1.1014  0.5852
 8098SOL     OW35755   0.110   2.185   8.980 -0.5842  0.1664 -0.0846
 8098SOL    HW135756   0.200   2.169   8.950 -0.6254  1.2395 -0.8004
 8098SOL    HW235757   0.098   2.123   9.052  1.1132 -0.7219 -0.5594
 8099SOL     OW35758   2.847   2.224  12.904 -0.0206 -0.0165 -0.4052
 8099SOL    HW135759   2.775   2.286  12.890 -1.0175 -1.0091  0.3401
 8099SOL    HW235760   2.844   2.211  12.999  0.2203 -0.6566 -0.4846
 8100SOL     OW35761   2.356   2.027  15.154 -0.4828 -0.2952 -0.4110
 8100SOL    HW135762   2.286   1.965  15.133 -0.8114 -0.4931  1.2601
 8100SOL    HW235763   2.318   2.047  15.240  1.0992  1.3410 -0.0890
 8101SOL     OW35764   3.576   1.455   4.868 -0.3507  0.5440  0.2456
 8101SOL    HW135765   3.559   1.382   4.807  1.1291  1.5753 -1.4123
 8101SOL    HW235766   3.494   1.504   4.864 -1.4363 -1.4599 -2.8802
 8102SOL     OW35767   0.269   3.639  15.364 -0.6335  0.1094  0.2026
 8102SOL    HW135768   0.296   3.596  15.283 -1.2391 -0.2059  0.1648
 8102SOL    HW235769   0.344   3.618  15.419 -1.9087  0.2186  1.9992
 8103SOL     OW35770   1.999   2.538   5.200  0.0433 -1.1235 -0.0047
 8103SOL    HW135771   1.936   2.590   5.151  0.0972 -0.1522  0.9556
 8103SOL    HW235772   2.071   2.601   5.208  1.2659 -2.3549 -1.4887
 8104SOL     OW35773   0.407   4.589   1.310 -0.5485 -0.1963  0.6884
 8104SOL    HW135774   0.451   4.673   1.323 -0.0082 -0.4600  0.5480
 8104SOL    HW235775   0.337   4.601   1.374 -1.5086  0.3169 -0.4517
 8105SOL     OW35776   4.226   3.948  17.114  0.1238  0.0994 -0.3618
 8105SOL    HW135777   4.238   3.863  17.072  1.3980  0.5137 -0.8337
 8105SOL    HW235778   4.149   3.915  17.161  0.4300 -1.4358 -0.9606
 8106SOL     OW35779   3.552   1.973  11.521 -0.5717  0.7323  0.5449
 8106SOL    HW135780   3.630   1.959  11.574 -0.5093  2.2118  0.8662
 8106SOL    HW235781   3.534   2.060  11.557 -1.0683  0.6396  0.5280
 8107SOL     OW35782   2.367   1.451  13.920 -0.4293  0.1623  0.3251
 8107SOL    HW135783   2.330   1.516  13.981 -0.6223  2.2832 -2.0546
 8107SOL    HW235784   2.330   1.368  13.951 -0.8515 -0.6367 -2.3386
 8108SOL     OW35785   2.525   3.745  11.573  0.0987  0.1404 -0.1182
 8108SOL    HW135786   2.501   3.663  11.531 -2.0948 -1.0096  3.3643
 8108SOL    HW235787   2.524   3.718  11.665  2.0485  2.6527  0.6515
 8109SOL     OW35788   4.484   4.193   9.465 -0.1285  0.3541 -0.6003
 8109SOL    HW135789   4.465   4.282   9.433  0.8879 -0.2847 -2.9595
 8109SOL    HW235790   4.399   4.161   9.494  1.2358 -1.8785  0.9286
 8110SOL     OW35791   3.514   3.960   6.300  0.2280 -0.1178  0.4800
 8110SOL    HW135792   3.475   4.045   6.278  0.2730 -0.4853 -0.9737
 8110SOL    HW235793   3.591   3.997   6.343  0.2347 -0.0939  0.4476
 8111SOL     OW35794   1.739   1.510   2.953 -0.0892  0.4783 -0.3848
 8111SOL    HW135795   1.724   1.556   3.035  0.3954 -2.5944  1.4655
 8111SOL    HW235796   1.760   1.427   2.996 -0.4286  1.4282  1.6400
 8112SOL     OW35797   0.994   4.189   1.959  0.5438  0.3200 -0.2281
 8112SOL    HW135798   0.994   4.254   1.889 -1.7839 -0.7114 -1.1848
 8112SOL    HW235799   0.952   4.119   1.908  2.0939 -0.8963  0.1585
 8113SOL     OW35800   2.379   0.828   5.155 -0.1031  0.0211  0.0128
 8113SOL    HW135801   2.389   0.816   5.061  1.6649 -1.4913  0.4020
 8113SOL    HW235802   2.468   0.800   5.174 -0.3530 -1.4879 -1.1176
 8114SOL     OW35803   1.081   2.421   5.731 -0.2719  0.2303  0.2249
 8114SOL    HW135804   1.111   2.373   5.654  0.9068 -0.9439  1.4051
 8114SOL    HW235805   1.142   2.390   5.798 -0.1311 -0.9644 -0.4451
 8115SOL     OW35806   4.607   2.423   8.339  0.1895 -0.3568  0.5671
 8115SOL    HW135807   4.550   2.499   8.334  1.2046  0.1364 -3.2849
 8115SOL    HW235808   4.627   2.418   8.433 -0.3803  1.9706  0.8075
 8116SOL     OW35809   0.289   3.928   5.666  0.2519 -0.0494 -0.0776
 8116SOL    HW135810   0.313   3.868   5.595 -1.2493 -0.4013 -0.2807
 8116SOL    HW235811   0.203   3.890   5.686  0.3602  0.4516  1.3004
 8117SOL     OW35812   1.377   3.793   1.479  0.3065 -0.2723 -0.0239
 8117SOL    HW135813   1.422   3.877   1.466 -1.9144  1.0012  0.6003
 8117SOL    HW235814   1.289   3.813   1.446  0.4964 -0.1538 -0.4548
 8118SOL     OW35815   0.435   3.677   8.241  0.5075  0.5838  0.0234
 8118SOL    HW135816   0.466   3.670   8.150 -0.4511  0.2943 -0.2838
 8118SOL    HW235817   0.342   3.703   8.240  0.9760  2.3009  1.9992
 8119SOL     OW35818   1.517   2.792   5.905  0.3979  0.3220 -0.4008
 8119SOL    HW135819   1.567   2.816   5.984  2.0954  0.2647 -1.4551
 8119SOL    HW235820   1.483   2.875   5.872 -2.0185 -0.2119  0.7932
 8120SOL     OW35821   3.640   3.337   4.855 -0.0908 -0.2043  0.2708
 8120SOL    HW135822   3.637   3.283   4.934  0.0472 -0.1605  0.3058
 8120SOL    HW235823   3.551   3.372   4.862 -0.8004 -1.5713 -2.2356
 8121SOL     OW35824   4.221   1.718   7.533 -0.0351 -0.3026 -0.7579
 8121SOL    HW135825   4.164   1.702   7.609 -1.4365  1.0594 -1.5241
 8121SOL    HW235826   4.313   1.704   7.556 -0.0920  1.1733  0.3713
 8122SOL     OW35827   4.568   3.415  12.178 -0.8600 -0.0062 -0.1449
 8122SOL    HW135828   4.516   3.336  12.191  0.6661 -0.9722  0.0649
 8122SOL    HW235829   4.651   3.383  12.213 -0.8191  0.9607  0.6328
 8123SOL     OW35830   0.500   3.945   5.827 -0.3854  0.2600 -0.0494
 8123SOL    HW135831   0.478   3.862   5.869  0.1752 -0.1462 -0.5571
 8123SOL    HW235832   0.423   3.968   5.774  0.3280  1.6113 -0.5028
 8124SOL     OW35833   2.045   0.243  10.441  0.4347 -0.2462  0.0127
 8124SOL    HW135834   1.975   0.200  10.392 -1.9477  1.8695  1.5660
 8124SOL    HW235835   2.037   0.195  10.524  0.3645 -1.7817 -0.8775
 8125SOL     OW35836   3.950   2.380  14.873 -0.1488 -0.4973 -0.3612
 8125SOL    HW135837   3.876   2.440  14.885 -1.5239 -2.3788  0.6287
 8125SOL    HW235838   4.013   2.430  14.924 -1.5582  0.9195 -0.0189
 8126SOL     OW35839   2.028   0.673   1.931  0.5336 -0.5408 -0.4293
 8126SOL    HW135840   2.087   0.658   2.005 -2.2052 -1.9369  1.4668
 8126SOL    HW235841   1.968   0.741   1.960 -1.2274 -2.2568 -0.0340
 8127SOL     OW35842   0.092   1.401  12.483 -0.1675  0.1010  0.4092
 8127SOL    HW135843   0.033   1.441  12.420 -0.2220 -1.9010 -0.8152
 8127SOL    HW235844   0.081   1.463  12.555  0.3397  0.3196  0.2986
 8128SOL     OW35845   3.959   0.044   5.397 -0.5225  0.2697  0.5629
 8128SOL    HW135846   3.997   4.713   5.463 -0.1274  0.7713  0.7763
 8128SOL    HW235847   3.869   0.061   5.428 -0.9606  1.1215 -1.1754
 8129SOL     OW35848   4.335   0.737   6.074  0.4585  0.2107 -0.3679
 8129SOL    HW135849   4.368   0.817   6.115  1.3742 -1.5549  2.3054
 8129SOL    HW235850   4.325   0.688   6.155  3.1749  2.4115  1.2716
 8130SOL     OW35851   0.627   0.254   5.833  0.2169 -0.2811 -0.2509
 8130SOL    HW135852   0.546   0.272   5.880  1.2320 -1.6431  2.0255
 8130SOL    HW235853   0.632   0.319   5.763  0.9009  1.5560  1.5060
 8131SOL     OW35854   0.964   2.143   5.897  0.5358  0.4055 -0.1687
 8131SOL    HW135855   1.014   2.063   5.912  0.6719  0.3282 -1.0337
 8131SOL    HW235856   1.025   2.188   5.839 -0.0452 -0.8729 -1.7627
 8132SOL     OW35857   0.831   2.268   8.714  0.1156  0.3503 -0.5288
 8132SOL    HW135858   0.812   2.268   8.621 -0.6012 -0.4226 -0.3784
 8132SOL    HW235859   0.913   2.318   8.717  0.8794 -0.8425 -1.2216
 8133SOL     OW35860   1.633   0.748   0.930 -0.1476  0.0569  0.5537
 8133SOL    HW135861   1.601   0.825   0.883 -0.8996  0.0521  1.0562
 8133SOL    HW235862   1.702   0.714   0.873 -1.2938 -0.2341 -0.6530
 8134SOL     OW35863   2.758   2.424   2.407  0.1318 -0.2303  0.1995
 8134SOL    HW135864   2.709   2.494   2.365  0.1001  0.3756  1.2465
 8134SOL    HW235865   2.843   2.437   2.365  0.3739  1.9189  1.3391
 8135SOL     OW35866   0.813   0.689   0.495  0.4258  0.3334  0.6598
 8135SOL    HW135867   0.763   0.613   0.527 -0.3176  0.1714 -0.8850
 8135SOL    HW235868   0.756   0.761   0.522 -1.0188 -0.9847  1.1522
 8136SOL     OW35869   0.575   1.538   5.733 -0.3073 -0.0011 -0.8014
 8136SOL    HW135870   0.571   1.615   5.790  1.2079  0.1271 -0.8659
 8136SOL    HW235871   0.525   1.570   5.658 -1.2810  1.6811  0.5595
 8137SOL     OW35872   2.091   4.415   5.645 -0.4105 -0.7033  0.5375
 8137SOL    HW135873   2.071   4.495   5.695  0.1942  1.7588 -3.1847
 8137SOL    HW235874   2.154   4.456   5.587 -0.2120 -0.5379  0.8687
 8138SOL     OW35875   2.353   3.705   9.870  0.0817 -0.0785  0.2110
 8138SOL    HW135876   2.405   3.625   9.885  3.2433  2.2044  1.5330
 8138SOL    HW235877   2.298   3.689   9.794  0.9920  1.2286 -0.7148
 8139SOL     OW35878   4.648   0.858   3.312  0.2051 -0.1153  0.0570
 8139SOL    HW135879   4.677   0.797   3.381  3.5935  2.3516  0.8092
 8139SOL    HW235880   4.702   0.817   3.245  1.7048  1.8291  0.0710
 8140SOL     OW35881   2.938   3.739   6.473  0.0040  0.5467 -0.2406
 8140SOL    HW135882   3.028   3.717   6.499 -0.3501 -1.4462 -0.6651
 8140SOL    HW235883   2.947   3.833   6.481  1.1810  0.4852 -0.8001
 8141SOL     OW35884   1.624   4.152   6.051 -0.6110 -0.1989  0.5883
 8141SOL    HW135885   1.712   4.137   6.085 -0.7484 -0.3322  0.8874
 8141SOL    HW235886   1.603   4.071   6.005 -1.0613  0.3080 -0.0970
 8142SOL     OW35887   2.804   2.023  14.991  0.3103  0.7252  0.2332
 8142SOL    HW135888   2.733   2.036  14.928  0.3642 -1.8657 -0.3846
 8142SOL    HW235889   2.845   2.108  14.978 -0.4237  1.2774  1.4912
 8143SOL     OW35890   0.434   4.244   0.392  0.7620  0.0759 -0.3160
 8143SOL    HW135891   0.411   4.272   0.304 -0.2963  0.9805  0.2509
 8143SOL    HW235892   0.462   4.153   0.382  0.3653 -0.1082  0.1961
 8144SOL     OW35893   1.449   4.063   8.366  0.0813 -0.1953  0.4604
 8144SOL    HW135894   1.476   4.155   8.368 -2.0467  0.4756 -2.1172
 8144SOL    HW235895   1.535   4.020   8.370  0.6620  0.9244  0.1599
 8145SOL     OW35896   4.539   1.451  17.551  0.2659 -0.5714 -0.2040
 8145SOL    HW135897   4.580   1.381  17.603 -0.2039  0.4319  1.5255
 8145SOL    HW235898   4.444   1.445  17.560  0.0644  2.1103 -0.6309
 8146SOL     OW35899   4.184   3.198   7.677  0.1479 -0.0520 -0.5000
 8146SOL    HW135900   4.224   3.240   7.602 -2.6634  0.1333 -1.9054
 8146SOL    HW235901   4.248   3.216   7.746 -0.2277 -0.4892 -0.0382
 8147SOL     OW35902   0.877   4.027   1.777 -0.2094 -0.4214 -0.2257
 8147SOL    HW135903   0.907   4.096   1.718  1.6990 -0.9110  0.1744
 8147SOL    HW235904   0.849   3.966   1.708 -0.9574 -1.1441  0.7302
 8148SOL     OW35905   0.810   1.103   3.920  0.0152 -0.3843 -0.5023
 8148SOL    HW135906   0.806   1.051   4.001  1.1280  0.6680  0.2261
 8148SOL    HW235907   0.759   1.180   3.942 -1.5831 -2.0995  1.8171
 8149SOL     OW35908   2.020   2.032  12.127  0.1584 -0.4411 -0.3548
 8149SOL    HW135909   2.063   2.074  12.201  0.9804 -1.5030 -0.2260
 8149SOL    HW235910   2.040   1.939  12.142  0.1461 -0.3816  0.0322
 8150SOL     OW35911   2.109   4.095  14.706 -0.3828 -0.1747 -0.4170
 8150SOL    HW135912   2.154   4.084  14.790 -0.2761  1.1274 -0.2936
 8150SOL    HW235913   2.151   4.177  14.679 -1.2810  1.2917  2.6162
 8151SOL     OW35914   3.237   1.335   5.025 -0.2818  0.0691  0.1933
 8151SOL    HW135915   3.236   1.241   5.041  1.5599  0.7080  4.1576
 8151SOL    HW235916   3.146   1.347   5.055 -0.4161 -0.4396 -0.0169
 8152SOL     OW35917   1.137   1.502   1.926  0.1503  0.2755  0.0923
 8152SOL    HW135918   1.077   1.561   1.971 -1.2432 -0.4889 -0.7458
 8152SOL    HW235919   1.081   1.426   1.914 -0.2324  0.7388 -1.0404
 8153SOL     OW35920   2.681   3.436   2.775  0.9159 -0.5603 -0.1706
 8153SOL    HW135921   2.630   3.501   2.727 -0.1350 -1.2013  0.0918
 8153SOL    HW235922   2.729   3.481   2.845  1.3910 -0.4822 -0.5445
 8154SOL     OW35923   2.255   0.508   9.726  0.0858  0.5530 -0.5937
 8154SOL    HW135924   2.256   0.433   9.786 -0.9210  0.9113 -0.1368
 8154SOL    HW235925   2.330   0.495   9.669  1.0616  3.3687  0.0670
 8155SOL     OW35926   2.335   2.978   2.325 -0.5828  0.4038 -0.2208
 8155SOL    HW135927   2.399   2.908   2.310 -0.8695 -0.3783  2.1575
 8155SOL    HW235928   2.386   3.053   2.296  2.9490 -1.8434  0.2003
 8156SOL     OW35929   0.384   1.214   6.532  0.3907  0.2010  0.0652
 8156SOL    HW135930   0.442   1.260   6.471 -1.3581  2.8170  0.3666
 8156SOL    HW235931   0.416   1.253   6.613  1.6525  3.3032 -1.9141
 8157SOL     OW35932   1.354   0.351  10.195 -0.6191  0.1488  0.2331
 8157SOL    HW135933   1.375   0.259  10.177  0.2626  0.1020  1.4673
 8157SOL    HW235934   1.349   0.354  10.290 -1.0627  1.2214  0.1721
 8158SOL     OW35935   2.703   0.731  12.711  0.0600 -0.1523 -0.1995
 8158SOL    HW135936   2.719   0.818  12.676 -0.2396  0.5728  1.4719
 8158SOL    HW235937   2.684   0.670  12.640 -2.7402  1.4832 -0.8520
 8159SOL     OW35938   1.624   0.731   2.649  0.1720 -0.0980 -0.1708
 8159SOL    HW135939   1.709   0.713   2.609  0.0445 -1.7022  0.2803
 8159SOL    HW235940   1.651   0.737   2.741  3.8686  3.0611 -1.4340
 8160SOL     OW35941   4.584   2.446   0.245 -0.2008 -0.6836  0.3183
 8160SOL    HW135942   4.571   2.425   0.152  1.0622  1.1848 -0.2870
 8160SOL    HW235943   4.521   2.387   0.287 -0.2437 -0.9069 -0.0562
 8161SOL     OW35944   4.720   4.576   9.953 -0.0741  0.0694  0.1251
 8161SOL    HW135945   0.067   4.635   9.950  1.8325 -2.2921  1.8746
 8161SOL    HW235946   4.655   4.642   9.978  0.0084  0.1837  0.0364
 8162SOL     OW35947   2.230   4.239  16.227 -0.0556 -0.1173 -0.2310
 8162SOL    HW135948   2.171   4.301  16.271 -0.4481  0.0087 -0.9419
 8162SOL    HW235949   2.161   4.184  16.191 -0.9355  0.4867  0.5153
 8163SOL     OW35950   0.056   2.255   8.234  0.1264 -0.1461  0.1081
 8163SOL    HW135951   4.706   2.292   8.276 -1.1278 -0.2193 -2.1297
 8163SOL    HW235952   0.093   2.223   8.316 -1.8865 -0.6487  0.8257
 8164SOL     OW35953   3.073   0.873   6.748  0.5856  0.0414 -0.0527
 8164SOL    HW135954   3.009   0.844   6.813  2.1986  0.7938  1.8605
 8164SOL    HW235955   3.014   0.863   6.674 -0.8984  2.7198  0.7715
 8165SOL     OW35956   2.895   2.867   6.120 -0.0115 -0.4269  0.2045
 8165SOL    HW135957   2.849   2.937   6.074 -0.5476 -2.7502 -2.7666
 8165SOL    HW235958   2.863   2.788   6.077  0.9197 -1.5011  1.5044
 8166SOL     OW35959   4.095   4.459   2.370  0.2400 -0.9332  0.1699
 8166SOL    HW135960   4.001   4.478   2.368  0.9636  2.5008 -1.3823
 8166SOL    HW235961   4.126   4.542   2.335  1.4046 -0.4836  2.2603
 8167SOL     OW35962   0.682   3.708   4.303 -0.5517 -0.0505  0.2367
 8167SOL    HW135963   0.682   3.788   4.356  2.1084 -0.3935  0.7671
 8167SOL    HW235964   0.745   3.650   4.346  0.7306  1.9571  1.1052
 8168SOL     OW35965   2.999   2.283  14.720  0.0333  0.7271  0.1367
 8168SOL    HW135966   2.956   2.213  14.672  0.1121  1.5176 -1.0891
 8168SOL    HW235967   2.934   2.351  14.740 -4.6509 -4.0220  0.8329
 8169SOL     OW35968   3.864   1.551   2.766  0.5935  0.0440  0.0566
 8169SOL    HW135969   3.933   1.522   2.706 -0.6805  0.6418 -1.6908
 8169SOL    HW235970   3.792   1.499   2.729 -1.5423  1.3785  2.3187
 8170SOL     OW35971   4.454   1.215   4.156 -0.3430  0.3392  0.1406
 8170SOL    HW135972   4.365   1.221   4.121 -0.2366 -2.2639 -0.5835
 8170SOL    HW235973   4.503   1.261   4.088 -0.5909  0.2260 -0.1180
 8171SOL     OW35974   3.020   3.382  17.078 -0.3208  0.0092  0.5943
 8171SOL    HW135975   2.944   3.439  17.088  0.0155  0.5869 -0.1872
 8171SOL    HW235976   3.042   3.401  16.986  0.6988 -0.3617  0.7605
 8172SOL     OW35977   2.775   0.216   5.820 -0.0347  0.4051 -0.3528
 8172SOL    HW135978   2.721   0.231   5.897  0.8123 -0.1155  0.3408
 8172SOL    HW235979   2.784   0.122   5.833  0.9589  0.6064  0.3932
 8173SOL     OW35980   3.521   3.168   8.978 -0.7989  0.1031 -0.5221
 8173SOL    HW135981   3.616   3.162   8.989 -0.5955  1.1691 -1.7573
 8173SOL    HW235982   3.493   3.095   9.033  2.8031 -2.1297 -1.6284
 8174SOL     OW35983   1.813   3.538   7.869 -0.0971 -0.3903 -0.2657
 8174SOL    HW135984   1.754   3.528   7.943 -0.9605  0.0365 -0.9013
 8174SOL    HW235985   1.815   3.634   7.861  0.3460 -0.4985 -1.4235
 8175SOL     OW35986   4.403   1.991   4.268 -0.3827 -1.0922  0.3816
 8175SOL    HW135987   4.402   2.051   4.343  2.4823  0.9413 -1.2278
 8175SOL    HW235988   4.490   2.004   4.230 -0.2293 -1.6413  0.5483
 8176SOL     OW35989   2.145   3.101   6.933  0.2659  0.5667 -0.2020
 8176SOL    HW135990   2.157   3.125   7.025  2.7417  1.8573 -0.8771
 8176SOL    HW235991   2.139   3.006   6.944 -1.3060  0.5291 -1.3284
 8177SOL     OW35992   3.381   1.242   6.979  0.3958  0.5916  1.0999
 8177SOL    HW135993   3.360   1.228   7.072  1.7294 -1.0843  1.1484
 8177SOL    HW235994   3.308   1.299   6.957 -1.2029 -1.5963  0.6813
 8178SOL     OW35995   4.255   4.495  13.212 -0.2899  0.0611  0.7849
 8178SOL    HW135996   4.300   4.579  13.206 -0.6669  0.1745 -0.5705
 8178SOL    HW235997   4.332   4.438  13.213 -0.0057  0.4412  0.3034
 8179SOL     OW35998   0.280   1.579   8.831  0.2398 -0.4319 -0.5675
 8179SOL    HW135999   0.292   1.665   8.870 -0.9318 -0.3266 -0.4429
 8179SOL    HW236000   0.278   1.528   8.913  0.3033  0.4122 -0.0413
 8180SOL     OW36001   2.666   0.215   6.584  0.0433 -0.3396  0.2541
 8180SOL    HW136002   2.749   0.263   6.590 -0.2719  0.2896 -0.2992
 8180SOL    HW236003   2.606   0.289   6.570  1.1003  0.6515  0.9520
 8181SOL     OW36004   0.688   0.484   0.679 -1.1158  0.4479  0.0331
 8181SOL    HW136005   0.690   0.518   0.768 -0.6985  1.8545 -0.5124
 8181SOL    HW236006   0.621   0.416   0.689 -1.3274  0.4318 -1.5450
 8182SOL     OW36007   4.471   2.371   4.213 -0.1230  0.4286 -0.4378
 8182SOL    HW136008   4.473   2.313   4.137  1.4542  0.8868 -0.7349
 8182SOL    HW236009   4.459   2.453   4.165 -0.1168  1.6909  1.7258
 8183SOL     OW36010   1.257   1.937   3.492  0.7805  0.0404 -0.3732
 8183SOL    HW136011   1.274   1.897   3.406 -0.7821  2.0995 -1.6527
 8183SOL    HW236012   1.162   1.922   3.495  0.6816  1.3637  2.4268
 8184SOL     OW36013   0.185   1.130   9.060 -0.7237 -0.6031 -0.5766
 8184SOL    HW136014   0.169   1.148   9.153 -2.6055 -0.0154 -0.9972
 8184SOL    HW236015   0.256   1.066   9.067  0.5435  0.6015 -2.5328
 8185SOL     OW36016   2.652   1.712   4.072 -0.3623 -0.0861 -0.5588
 8185SOL    HW136017   2.658   1.681   3.982 -2.7215 -1.4670 -0.2390
 8185SOL    HW236018   2.745   1.704   4.093 -0.6830  0.5444  1.1382
 8186SOL     OW36019   4.441   4.597   8.635  0.1314 -0.5102 -0.1830
 8186SOL    HW136020   4.511   4.535   8.654  0.1098 -0.6633 -0.6063
 8186SOL    HW236021   4.479   4.647   8.563  1.8234 -1.8454 -0.2129
 8187SOL     OW36022   0.138   3.779   3.467  0.1935 -0.3712  0.4469
 8187SOL    HW136023   0.094   3.720   3.406  0.8227 -1.1010  0.6848
 8187SOL    HW236024   0.086   3.762   3.546 -1.7339 -0.9594 -0.9693
 8188SOL     OW36025   4.666   0.175  16.305 -0.3327 -0.1490 -0.2957
 8188SOL    HW136026   4.620   0.179  16.221  0.8093  1.7065 -0.8295
 8188SOL    HW236027   4.663   0.084  16.335  0.5417  0.4434  1.6218
 8189SOL     OW36028   3.512   3.349   7.799  0.5978 -0.3294 -0.1791
 8189SOL    HW136029   3.522   3.341   7.894 -0.5800  2.7260  0.2092
 8189SOL    HW236030   3.588   3.397   7.766  1.5121 -1.6938 -0.0671
 8190SOL     OW36031   4.635   4.703  11.985 -0.3855 -0.3456 -0.0074
 8190SOL    HW136032   4.590   4.693  11.900  2.8267 -0.0672 -1.7280
 8190SOL    HW236033   4.724   4.719  11.955  0.1180 -1.3312  0.9749
 8191SOL     OW36034   0.442   1.000   4.330  0.1322  0.2822  0.1521
 8191SOL    HW136035   0.412   0.951   4.253  0.0373 -2.2935  1.8491
 8191SOL    HW236036   0.367   0.997   4.389 -0.8206  2.5912 -0.9579
 8192SOL     OW36037   4.032   3.635  11.232  0.7135 -0.2025 -0.2738
 8192SOL    HW136038   4.100   3.598  11.176  1.7626 -0.3667  1.0945
 8192SOL    HW236039   4.073   3.715  11.265 -1.8165 -0.3136  3.0418
 8193SOL     OW36040   3.161   0.476   8.025 -0.0795  0.1607  0.2920
 8193SOL    HW136041   3.117   0.452   8.106  0.1289  1.1044  0.6816
 8193SOL    HW236042   3.100   0.539   7.988  0.6630  1.2037  0.8515
 8194SOL     OW36043   1.696   1.918   0.691 -0.1191  0.4942  0.6761
 8194SOL    HW136044   1.640   1.875   0.626 -0.8643 -1.6452  2.7320
 8194SOL    HW236045   1.779   1.873   0.676 -1.9779 -2.3328 -1.1424
 8195SOL     OW36046   1.754   0.034  16.106 -0.1812 -0.3634  0.4172
 8195SOL    HW136047   1.775   0.073  16.191 -0.4447  0.0631  0.2901
 8195SOL    HW236048   1.811   4.686  16.092 -1.5597 -1.6755  1.9763
 8196SOL     OW36049   0.347   4.326   8.589  0.0267 -0.4134 -0.1993
 8196SOL    HW136050   0.340   4.303   8.682 -1.3168 -1.8190 -0.6470
 8196SOL    HW236051   0.431   4.371   8.591  0.2726 -0.8365 -0.9194
 8197SOL     OW36052   3.437   3.398   8.265  0.9463  0.2433 -0.6411
 8197SOL    HW136053   3.449   3.490   8.289 -1.7141 -0.1968  2.3636
 8197SOL    HW236054   3.383   3.365   8.337 -0.1567  0.0459 -1.5737
 8198SOL     OW36055   2.246   4.634  11.961  0.0247  0.5397  0.2362
 8198SOL    HW136056   2.239   4.547  11.921  0.0771  0.3987  0.5300
 8198SOL    HW236057   2.220   4.689  11.887 -0.2037  1.7380  1.2223
 8199SOL     OW36058   3.487   1.533  15.672  0.0249 -0.2491 -0.1148
 8199SOL    HW136059   3.542   1.611  15.662 -1.2713  0.5477 -0.9744
 8199SOL    HW236060   3.398   1.565  15.661  1.3107  2.7930 -1.4976
 8200SOL     OW36061   4.262   0.449  10.752 -0.5318 -0.4098 -0.5533
 8200SOL    HW136062   4.240   0.452  10.845  0.9379  0.4921 -0.2532
 8200SOL    HW236063   4.335   0.388  10.761 -0.5206 -0.0601  1.6679
 8201SOL     OW36064   0.410   0.783   7.983  1.0394  0.2529  0.2115
 8201SOL    HW136065   0.403   0.808   8.075  2.6470 -0.1631  0.4379
 8201SOL    HW236066   0.391   0.690   7.990  0.9747  0.1317 -1.4158
 8202SOL     OW36067   4.518   2.444  13.443 -0.4704 -0.0349  0.1454
 8202SOL    HW136068   4.540   2.358  13.408  0.4185  0.9217 -1.6609
 8202SOL    HW236069   4.441   2.471  13.393 -1.4344 -0.8305  1.1980
 8203SOL     OW36070   1.946   2.656   6.003  0.3921 -0.0351  0.2517
 8203SOL    HW136071   1.938   2.579   6.059 -0.8454 -0.0442  0.0524
 8203SOL    HW236072   1.886   2.636   5.932  0.3264 -1.1065  0.6084
 8204SOL     OW36073   3.320   1.314   7.233  0.1366  0.2298  0.0175
 8204SOL    HW136074   3.225   1.323   7.227  0.3001  1.2389 -0.9816
 8204SOL    HW236075   3.342   1.386   7.294  0.6907 -0.4177  0.5856
 8205SOL     OW36076   4.270   0.158   7.664  0.2154  0.5565 -0.6364
 8205SOL    HW136077   4.332   0.153   7.590  0.1346  0.2495 -0.6842
 8205SOL    HW236078   4.210   0.087   7.642 -0.3948  0.7198  0.5533
 8206SOL     OW36079   4.013   1.553   0.937  0.5886  0.2348  0.5017
 8206SOL    HW136080   4.079   1.519   0.877  0.8055  0.3931  0.6527
 8206SOL    HW236081   3.968   1.619   0.885  0.9862 -0.7147 -1.0248
 8207SOL     OW36082   0.843   4.067   3.360  0.0560 -0.2825 -0.2091
 8207SOL    HW136083   0.770   4.127   3.350 -0.9567 -1.2056  1.7315
 8207SOL    HW236084   0.857   4.040   3.269  1.8693 -2.1602  0.6152
 8208SOL     OW36085   1.976   4.009  16.909  0.0057  0.2645 -0.6014
 8208SOL    HW136086   2.063   4.048  16.910 -0.5099  1.3724  0.6696
 8208SOL    HW236087   1.929   4.075  16.960 -0.2145 -0.9779  0.8183
 8209SOL     OW36088   0.935   3.960   2.185 -0.1739 -0.1196 -0.2752
 8209SOL    HW136089   0.967   3.978   2.097 -1.1020 -1.4647 -0.8903
 8209SOL    HW236090   0.863   4.022   2.192 -1.8176 -2.1932  1.4130
 8210SOL     OW36091   1.642   1.003   0.787  0.3471 -0.0293 -0.1408
 8210SOL    HW136092   1.565   1.037   0.743  0.1333  1.0457  1.0483
 8210SOL    HW236093   1.708   1.006   0.718 -0.7463  1.1636 -1.1225
 8211SOL     OW36094   0.640   4.615   7.464 -0.3127  0.0005  0.4064
 8211SOL    HW136095   0.706   4.675   7.430  0.6312 -0.5971  1.2003
 8211SOL    HW236096   0.645   4.541   7.403 -0.8688 -0.4866  0.9449
 8212SOL     OW36097   2.453   3.265   1.378 -0.1520  0.0213 -0.3176
 8212SOL    HW136098   2.387   3.249   1.311 -1.1490 -1.9762  1.1377
 8212SOL    HW236099   2.417   3.204   1.442 -2.2861  1.1520 -0.4288
 8213SOL     OW36100   3.016   2.920  17.206 -0.3833  0.1028 -0.3653
 8213SOL    HW136101   2.968   3.000  17.182 -0.5905  0.1950  0.3421
 8213SOL    HW236102   3.092   2.959  17.248  0.2222 -0.8500 -0.5799
 8214SOL     OW36103   4.402   2.371   5.044  0.1790  0.5365  0.1460
 8214SOL    HW136104   4.316   2.413   5.052  0.1477  0.3592  0.8029
 8214SOL    HW236105   4.456   2.412   4.976 -1.2347  1.6541 -0.2954
 8215SOL     OW36106   3.926   0.281   4.506  0.7086  0.6644 -0.2805
 8215SOL    HW136107   3.861   0.220   4.540  0.0867  0.8327 -1.1727
 8215SOL    HW236108   3.936   0.263   4.413  2.1418  1.3301 -0.2552
 8216SOL     OW36109   1.868   1.005   3.630 -0.2065 -0.3254 -0.1359
 8216SOL    HW136110   1.879   0.925   3.683  0.9427 -0.7074 -0.9538
 8216SOL    HW236111   1.950   0.998   3.580 -0.2001 -0.4658 -0.1060
 8217SOL     OW36112   1.582   3.081   1.405 -0.7503 -0.1321 -0.0370
 8217SOL    HW136113   1.519   3.139   1.449  1.2819  0.1858  2.4723
 8217SOL    HW236114   1.570   3.112   1.316  0.4203  0.6489  0.0850
 8218SOL     OW36115   1.288   3.037   5.212  0.2005  0.3003  0.4511
 8218SOL    HW136116   1.195   3.047   5.192 -0.0184 -0.1268  1.2685
 8218SOL    HW236117   1.320   3.127   5.217 -0.8864  0.7977 -1.8877
 8219SOL     OW36118   1.352   3.424   3.819 -0.0288 -0.0550 -0.0173
 8219SOL    HW136119   1.272   3.475   3.829 -0.0785  0.1550 -1.4498
 8219SOL    HW236120   1.324   3.339   3.853 -0.5436  0.2847  0.4015
 8220SOL     OW36121   4.075   4.439   1.949  0.0151 -0.6896 -0.1271
 8220SOL    HW136122   4.046   4.362   1.900 -0.0622 -0.9364  0.3094
 8220SOL    HW236123   4.001   4.457   2.008 -0.3132 -2.1582 -0.0725
 8221SOL     OW36124   0.360   4.515  14.818 -0.3303 -0.3622  0.6107
 8221SOL    HW136125   0.384   4.606  14.834  0.8150 -0.6236  0.3702
 8221SOL    HW236126   0.383   4.510  14.725  2.0716 -1.7343  1.2826
 8222SOL     OW36127   0.241   3.904  17.331 -0.6600 -0.3006 -0.1100
 8222SOL    HW136128   0.186   3.915  17.408  2.5124 -1.1162  2.2710
 8222SOL    HW236129   0.219   3.813  17.314 -3.0562  0.2940 -0.1804
 8223SOL     OW36130   3.611   0.011   7.103  0.2177  0.4040  0.1286
 8223SOL    HW136131   3.628   0.104   7.120 -0.5487  0.8895 -1.7905
 8223SOL    HW236132   3.523   0.004   7.141 -0.3865  0.8576 -1.2205
 8224SOL     OW36133   3.983   1.188   4.329 -0.1323 -0.5756 -0.1204
 8224SOL    HW136134   4.029   1.248   4.389 -0.7891 -0.8645  0.6820
 8224SOL    HW236135   3.921   1.158   4.396 -2.2782  2.9247 -0.5182
 8225SOL     OW36136   1.249   4.008  12.118 -0.3036  0.1656 -0.5171
 8225SOL    HW136137   1.225   4.090  12.074  0.6335  0.6746 -0.0723
 8225SOL    HW236138   1.270   4.041  12.206 -0.9638  1.0464 -0.6863
 8226SOL     OW36139   0.670   4.603  13.285 -0.6996 -0.4804 -0.4392
 8226SOL    HW136140   0.755   4.567  13.260  0.0695  1.4249 -0.6041
 8226SOL    HW236141   0.663   4.567  13.373  1.9002  1.2114  0.4784
 8227SOL     OW36142   0.277   1.490  16.611 -0.2257  0.0049 -0.1845
 8227SOL    HW136143   0.227   1.515  16.689  1.4730  1.1885  0.5348
 8227SOL    HW236144   0.342   1.559  16.597 -0.5318  0.2929 -0.1945
 8228SOL     OW36145   1.476   1.767   1.666  0.2584 -0.1995 -0.2081
 8228SOL    HW136146   1.548   1.709   1.692  0.7897  1.4954  2.0727
 8228SOL    HW236147   1.470   1.814   1.750 -1.6172  2.2300 -1.7285
 8229SOL     OW36148   4.509   2.517   7.606  0.3970 -0.1195  0.3915
 8229SOL    HW136149   4.557   2.441   7.641  0.0400 -0.2601  0.5706
 8229SOL    HW236150   4.461   2.536   7.687  2.2908  1.9880  1.0263
 8230SOL     OW36151   0.630   2.917   5.394  0.2801 -0.3084 -0.3456
 8230SOL    HW136152   0.711   2.869   5.411  1.0950  0.4339 -2.1538
 8230SOL    HW236153   0.614   2.981   5.464 -0.3496  0.3379 -1.0780
 8231SOL     OW36154   3.313   3.023   6.709 -0.0427  0.3611 -0.1413
 8231SOL    HW136155   3.367   2.999   6.784 -1.8729 -2.9959  0.1006
 8231SOL    HW236156   3.351   3.110   6.712  0.0240  0.2747  1.6481
 8232SOL     OW36157   1.360   4.449  10.043 -0.2123  0.0275 -0.1523
 8232SOL    HW136158   1.289   4.438  10.106  0.3855 -0.9807  0.3432
 8232SOL    HW236159   1.432   4.454  10.105 -0.5682 -0.3711  0.2910
 8233SOL     OW36160   2.925   4.458  11.988 -0.8150  0.0647  0.6001
 8233SOL    HW136161   3.010   4.414  11.983 -0.8290 -0.1030  1.8193
 8233SOL    HW236162   2.877   4.382  12.020  0.6415 -0.5238  1.4239
 8234SOL     OW36163   3.327   0.544  12.019 -0.2747 -0.4054 -0.0256
 8234SOL    HW136164   3.274   0.489  11.960  1.2325 -2.0434  0.1382
 8234SOL    HW236165   3.323   0.627  11.973  0.5400  0.4948  1.5281
 8235SOL     OW36166   3.919   4.601   7.915 -0.4392  0.1289 -0.0268
 8235SOL    HW136167   3.995   4.566   7.867 -0.5353  0.8891 -0.7366
 8235SOL    HW236168   3.879   4.519   7.943  0.1223 -0.4151 -0.8344
 8236SOL     OW36169   1.284   2.852  10.435  0.8347  0.4319  0.0513
 8236SOL    HW136170   1.346   2.809  10.494  0.6820  1.0580  0.6710
 8236SOL    HW236171   1.206   2.802  10.456 -0.7556  1.6031 -3.0191
 8237SOL     OW36172   3.526   0.524   8.662  0.5078  0.0174  0.2526
 8237SOL    HW136173   3.543   0.444   8.611  0.7493  0.6672 -0.6844
 8237SOL    HW236174   3.523   0.497   8.754 -0.5695 -0.5077  0.0692
 8238SOL     OW36175   4.257   1.634   7.834  0.0569 -0.5149  0.5810
 8238SOL    HW136176   4.296   1.563   7.783  0.2122 -0.1046  0.1270
 8238SOL    HW236177   4.215   1.579   7.900 -0.1440 -0.6673  0.3247
 8239SOL     OW36178   1.203   2.779   8.833 -0.7170  0.1291 -0.3037
 8239SOL    HW136179   1.162   2.744   8.755 -0.6391  0.8235 -0.6621
 8239SOL    HW236180   1.125   2.791   8.888 -1.4676 -0.9837 -1.1502
 8240SOL     OW36181   2.737   3.222   4.290 -0.3710  0.4977  0.3691
 8240SOL    HW136182   2.687   3.205   4.211 -2.7697  1.2867  1.7247
 8240SOL    HW236183   2.688   3.177   4.359  1.4995 -0.9552  0.7565
 8241SOL     OW36184   2.472   2.445   2.684 -0.2476  0.3124 -0.1380
 8241SOL    HW136185   2.520   2.377   2.637  1.2659  1.5122 -0.3444
 8241SOL    HW236186   2.542   2.487   2.734  0.5975  1.8081 -2.5579
 8242SOL     OW36187   3.346   0.627   3.861  0.4617  0.3335 -0.1723
 8242SOL    HW136188   3.411   0.692   3.837  0.1981  0.5584 -0.2778
 8242SOL    HW236189   3.406   0.578   3.916  0.7494  1.1908  0.2703
 8243SOL     OW36190   1.450   4.250   7.586  0.2176  0.5185 -0.6462
 8243SOL    HW136191   1.431   4.192   7.659  1.2146  1.8386  0.6643
 8243SOL    HW236192   1.393   4.326   7.595  1.4217  1.1237  1.8673
 8244SOL     OW36193   4.207   4.196  13.182  0.6859  0.0698  0.0068
 8244SOL    HW136194   4.162   4.267  13.226  1.9422  1.3850 -0.8281
 8244SOL    HW236195   4.286   4.244  13.154  0.1733  0.8851 -0.0311
 8245SOL     OW36196   4.592   0.218   4.257  0.8193 -0.0030  0.1466
 8245SOL    HW136197   4.666   0.158   4.250  0.0889 -0.8800  0.0135
 8245SOL    HW236198   4.530   0.167   4.308  0.6895  0.5814  0.5759
 8246SOL     OW36199   0.933   1.632   8.436 -0.4326  0.5128 -0.2022
 8246SOL    HW136200   0.839   1.624   8.452 -0.5192  1.1810 -0.3920
 8246SOL    HW236201   0.944   1.703   8.499  3.2479  0.1482 -0.4089
 8247SOL     OW36202   4.345   2.015  16.718  0.2906 -0.4227 -0.0771
 8247SOL    HW136203   4.390   2.098  16.731  1.2335 -0.9409 -0.0552
 8247SOL    HW236204   4.415   1.949  16.716  0.7797  0.0831  0.4095
 8248SOL     OW36205   3.375   0.469  10.111  0.5620  0.3171  0.1317
 8248SOL    HW136206   3.334   0.440  10.192 -0.1493 -1.0370 -0.7235
 8248SOL    HW236207   3.384   0.381  10.077  0.3470  1.0316 -1.7535
 8249SOL     OW36208   3.417   4.382  14.415 -0.0485  0.0099  0.2120
 8249SOL    HW136209   3.350   4.441  14.450 -0.2126  0.5244 -0.9916
 8249SOL    HW236210   3.390   4.297  14.452  0.1537  0.9462  2.4840
 8250SOL     OW36211   0.516   4.198   3.961 -0.4020  0.1137  0.0042
 8250SOL    HW136212   0.564   4.118   3.982 -1.4147 -0.0184  1.7764
 8250SOL    HW236213   0.446   4.174   4.021 -0.3343  0.2346  0.1315
 8251SOL     OW36214   3.943   0.736  17.593  0.2409 -0.1993  0.4454
 8251SOL    HW136215   3.922   0.810  17.535  1.6585 -0.7024 -0.7046
 8251SOL    HW236216   4.010   0.773  17.651  1.0482  2.2969 -2.0546
 8252SOL     OW36217   2.921   4.520   2.635  0.3036 -0.5798 -0.4071
 8252SOL    HW136218   2.972   4.559   2.564  0.0884  1.2660  0.4470
 8252SOL    HW236219   2.897   4.436   2.595  0.4714 -0.4423 -0.7911
 8253SOL     OW36220   3.126   3.696   3.788  0.1365  0.0726  0.1712
 8253SOL    HW136221   3.215   3.662   3.781  0.2002  0.5430 -1.3926
 8253SOL    HW236222   3.113   3.718   3.696 -1.8057 -0.4151  0.3407
 8254SOL     OW36223   1.244   3.687  10.899  0.2189  0.1059 -0.3538
 8254SOL    HW136224   1.171   3.669  10.959 -0.7980  1.3288 -1.2122
 8254SOL    HW236225   1.233   3.783  10.900  3.1919  0.3997  3.3680
 8255SOL     OW36226   2.944   3.272  11.124  0.2937 -0.3982 -0.3370
 8255SOL    HW136227   2.908   3.359  11.104 -0.9245 -1.3171 -2.0719
 8255SOL    HW236228   2.872   3.215  11.098  0.7430 -0.9007 -0.4866
 8256SOL     OW36229   3.497   3.083  12.869 -0.4078  0.3384 -0.1030
 8256SOL    HW136230   3.404   3.099  12.857 -1.1719 -1.8998  3.1336
 8256SOL    HW236231   3.525   3.175  12.868  1.4012 -0.2024 -0.0209
 8257SOL     OW36232   3.505   3.995   7.309 -0.7601 -0.0300  0.0840
 8257SOL    HW136233   3.541   3.950   7.232 -0.4964 -0.4126  0.4346
 8257SOL    HW236234   3.553   4.078   7.319  2.3903 -1.7867 -0.2541
 8258SOL     OW36235   4.112   0.186   5.225  0.1172  0.7294 -0.5489
 8258SOL    HW136236   4.053   0.260   5.213 -2.0367 -1.0163 -0.7513
 8258SOL    HW236237   4.061   0.143   5.294 -0.8041  2.0740 -0.4030
 8259SOL     OW36238   3.663   1.863   4.989 -0.1970 -0.3177  0.2437
 8259SOL    HW136239   3.654   1.958   4.980 -0.5083 -0.3678  0.0046
 8259SOL    HW236240   3.718   1.867   5.067 -0.5417  1.8326  0.3739
 8260SOL     OW36241   0.559   2.466   7.018 -0.1889 -0.1500 -0.2168
 8260SOL    HW136242   0.613   2.474   6.939 -3.6670  0.6800 -2.5109
 8260SOL    HW236243   0.558   2.558   7.045  1.3362 -0.5744  1.2855
 8261SOL     OW36244   4.654   4.389   0.492 -0.3044 -0.1531  0.2425
 8261SOL    HW136245   4.724   4.408   0.554 -0.3234  1.2030 -0.1529
 8261SOL    HW236246   4.607   4.471   0.508 -2.1735 -1.1101 -0.3735
 8262SOL     OW36247   0.795   3.491   3.916  0.4977  0.0895  0.5031
 8262SOL    HW136248   0.768   3.515   3.827 -0.2128 -0.1126  0.6689
 8262SOL    HW236249   0.725   3.430   3.938  0.0246  1.1054  1.8288
 8263SOL     OW36250   4.113   1.181   3.359  0.7515  0.0488  0.2287
 8263SOL    HW136251   4.165   1.261   3.368 -0.6943  1.1227 -0.9385
 8263SOL    HW236252   4.054   1.195   3.433 -0.4208 -2.5121 -0.2241
 8264SOL     OW36253   0.822   2.568   1.313 -0.6922  0.5891 -0.1099
 8264SOL    HW136254   0.780   2.530   1.235 -1.1612 -0.4246  0.6352
 8264SOL    HW236255   0.881   2.497   1.340 -0.3054  0.8182 -0.3522
 8265SOL     OW36256   2.499   3.721  12.664  0.3193  0.0430 -0.2434
 8265SOL    HW136257   2.405   3.718  12.652  0.1525 -1.4555  1.3530
 8265SOL    HW236258   2.530   3.656  12.601  0.0571 -2.7651  2.4953
 8266SOL     OW36259   4.412   0.045   1.932  0.4012 -0.1278 -0.5599
 8266SOL    HW136260   4.478   4.703   1.937  0.5592  0.1137  0.5965
 8266SOL    HW236261   4.377   0.034   1.844  0.6639 -0.7795 -0.5843
 8267SOL     OW36262   3.748   1.788   4.094 -0.6235  0.1785  0.8463
 8267SOL    HW136263   3.783   1.809   4.181 -0.5728  0.1650  0.8296
 8267SOL    HW236264   3.653   1.788   4.102 -0.7426  1.2394 -0.6426
 8268SOL     OW36265   4.136   3.936   3.394  0.0314  0.1529 -0.3784
 8268SOL    HW136266   4.221   3.946   3.352 -0.1537 -0.3734 -0.8917
 8268SOL    HW236267   4.156   3.866   3.455 -1.0696 -0.3817 -0.6345
 8269SOL     OW36268   3.391   0.243  13.020 -0.3053 -0.2576  0.3366
 8269SOL    HW136269   3.473   0.209  12.982  0.3245  1.5061  0.1430
 8269SOL    HW236270   3.405   0.229  13.113 -1.3727  0.2747  0.5713
 8270SOL     OW36271   3.075   1.880   2.642  0.5753 -0.0691  0.5991
 8270SOL    HW136272   3.040   1.844   2.723 -1.0831  1.4981  0.5828
 8270SOL    HW236273   2.993   1.893   2.594  0.2947  1.4394  1.4757
 8271SOL     OW36274   2.586   0.595  12.466  0.6849  0.3364 -0.0674
 8271SOL    HW136275   2.578   0.536  12.391 -1.1693  1.5154 -0.8062
 8271SOL    HW236276   2.589   0.538  12.543 -2.1903  1.6456  1.0285
 8272SOL     OW36277   2.396   2.885  14.182 -0.0439  0.0778 -0.0691
 8272SOL    HW136278   2.436   2.819  14.126 -0.4969 -1.4576  1.4381
 8272SOL    HW236279   2.469   2.935  14.219  0.8787  1.2479 -3.4105
 8273SOL     OW36280   2.949   3.679  14.531 -0.4063  0.4360 -0.5276
 8273SOL    HW136281   2.901   3.724  14.461  0.5676  0.0585 -1.4434
 8273SOL    HW236282   2.930   3.586  14.520  0.2535 -0.0211  2.1997
 8274SOL     OW36283   0.313   3.051   3.411 -0.3076 -0.0880 -0.1067
 8274SOL    HW136284   0.322   3.047   3.506  1.8538 -0.6365 -0.3433
 8274SOL    HW236285   0.275   2.964   3.394 -1.5378  0.1670  1.2975
 8275SOL     OW36286   0.162   1.783   7.997 -0.1255 -0.1714 -0.4109
 8275SOL    HW136287   0.188   1.704   8.045 -1.8057 -1.2308 -1.2540
 8275SOL    HW236288   0.147   1.847   8.067  1.4958  1.0787 -1.2202
 8276SOL     OW36289   4.065   0.525   3.842  0.0938 -0.2068  0.2233
 8276SOL    HW136290   4.102   0.481   3.765 -2.9195 -2.9269  0.3075
 8276SOL    HW236291   3.974   0.501   3.824  0.1501  0.2076 -0.6313
 8277SOL     OW36292   0.004   2.435  14.049  0.1949 -0.2613 -0.3830
 8277SOL    HW136293   0.086   2.484  14.049  1.2296 -1.9989  0.3287
 8277SOL    HW236294   0.021   2.368  14.116 -0.4774  0.3057  0.3442
 8278SOL     OW36295   2.187   0.019   4.636 -0.2631 -0.1294  0.2122
 8278SOL    HW136296   2.231   0.104   4.629  0.3614 -0.6349 -2.0374
 8278SOL    HW236297   2.113   0.046   4.691 -0.0644  2.0821 -0.5827
 8279SOL     OW36298   3.696   3.615   4.211 -0.4916  0.4075 -0.0435
 8279SOL    HW136299   3.633   3.544   4.225  1.2900 -1.2117 -0.2797
 8279SOL    HW236300   3.768   3.587   4.267 -0.8548  1.9505  1.2168
 8280SOL     OW36301   0.782   0.107   7.337  0.3853  0.0676  0.3283
 8280SOL    HW136302   0.841   0.090   7.411  0.2085  0.7796  0.6399
 8280SOL    HW236303   0.733   0.187   7.358  0.7029  0.7132 -1.3683
 8281SOL     OW36304   2.497   3.345   6.551 -0.0696 -0.0107  0.4897
 8281SOL    HW136305   2.553   3.421   6.537  1.8343 -1.2820  1.2243
 8281SOL    HW236306   2.425   3.391   6.594  0.2309  0.5926  0.3393
 8282SOL     OW36307   1.892   1.923   5.843  0.0598  0.2579  0.1028
 8282SOL    HW136308   1.879   1.844   5.789 -1.8090  0.2718  0.5072
 8282SOL    HW236309   1.867   1.997   5.788 -0.9240 -1.9323 -2.4003
 8283SOL     OW36310   0.346   1.166   8.319 -0.1937 -0.4953  0.7628
 8283SOL    HW136311   0.269   1.187   8.372 -2.6114  0.0011 -2.9159
 8283SOL    HW236312   0.297   1.140   8.241  0.4088 -0.2463  0.3032
 8284SOL     OW36313   1.272   0.608  12.837  0.0488 -0.1662  0.0370
 8284SOL    HW136314   1.222   0.680  12.875  0.8315  0.3373  0.1008
 8284SOL    HW236315   1.287   0.643  12.749 -2.1014  0.4553 -0.0885
 8285SOL     OW36316   1.785   3.334  12.240  0.7446  0.4764  0.1250
 8285SOL    HW136317   1.758   3.425  12.235 -2.2694 -0.3406  1.5388
 8285SOL    HW236318   1.745   3.309  12.324  1.5404  0.5636  0.5276
 8286SOL     OW36319   3.135   0.217  13.377 -0.2364  0.4056  0.6651
 8286SOL    HW136320   3.186   0.263  13.444  0.6918 -0.0731  0.2826
 8286SOL    HW236321   3.214   0.188  13.331  0.2265  0.2928  1.5249
 8287SOL     OW36322   0.209   3.052   0.304  0.3516  0.4508  0.7594
 8287SOL    HW136323   0.223   2.959   0.324  0.5073  0.3432  0.1422
 8287SOL    HW236324   0.166   3.043   0.219  1.7269  3.1068 -0.2128
 8288SOL     OW36325   1.905   1.586  16.642  0.3565  0.4458  0.4850
 8288SOL    HW136326   1.974   1.653  16.645  0.9971 -0.2310  1.1396
 8288SOL    HW236327   1.841   1.649  16.674  1.0525  1.2364  0.3355
 8289SOL     OW36328   0.168   2.714   7.905  0.3177  0.7361  0.7477
 8289SOL    HW136329   0.146   2.625   7.933  1.3683  0.0060 -0.7311
 8289SOL    HW236330   0.264   2.714   7.909  0.2043  0.5213  2.9696
 8290SOL     OW36331   0.600   3.700   5.619  0.3114  0.5513 -0.4470
 8290SOL    HW136332   0.583   3.794   5.629  1.3039  0.5481  1.3237
 8290SOL    HW236333   0.687   3.705   5.659  0.9247  0.6378 -1.8084
 8291SOL     OW36334   4.710   0.599   8.777 -0.2131 -0.4566 -0.3486
 8291SOL    HW136335   4.685   0.560   8.860 -2.0919 -2.7646 -1.9970
 8291SOL    HW236336   4.678   0.688   8.795  1.7717  0.2425 -0.3215
 8292SOL     OW36337   0.841   2.926  13.767 -0.5545 -0.0948  0.3682
 8292SOL    HW136338   0.917   2.956  13.817  1.2225 -2.4221 -0.9452
 8292SOL    HW236339   0.776   2.996  13.777 -1.4601 -0.8657 -0.2461
 8293SOL     OW36340   3.743   1.561   2.170 -0.6165 -1.2424  0.0930
 8293SOL    HW136341   3.746   1.487   2.109 -0.9979 -1.1654 -0.0180
 8293SOL    HW236342   3.833   1.590   2.157 -0.9804  0.5457  1.6524
 8294SOL     OW36343   2.553   1.696  17.514 -0.4153  0.3121 -0.1719
 8294SOL    HW136344   2.604   1.615  17.526  0.9661  1.5138  2.1902
 8294SOL    HW236345   2.572   1.738  17.430 -1.2868 -0.1690 -0.6086
 8295SOL     OW36346   4.165   4.392  14.745 -0.0260 -0.3621 -0.3235
 8295SOL    HW136347   4.161   4.436  14.830  1.9111  1.1218 -0.9986
 8295SOL    HW236348   4.182   4.300  14.764  2.0247 -0.0929 -0.8345
 8296SOL     OW36349   3.714   0.214   5.064 -0.0268  0.9304  0.0654
 8296SOL    HW136350   3.735   0.121   5.064  0.0479  0.9519  2.2775
 8296SOL    HW236351   3.740   0.235   4.974 -1.1717  3.8785  0.4149
 8297SOL     OW36352   2.338   1.113   3.638  0.0443  0.3807  0.2874
 8297SOL    HW136353   2.322   1.103   3.732 -2.1952  0.5487 -0.0660
 8297SOL    HW236354   2.367   1.204   3.638 -0.4419  0.5364  1.0117
 8298SOL     OW36355   1.374   3.037   6.089 -0.7072  0.5686  0.0109
 8298SOL    HW136356   1.453   3.039   6.142 -0.3829  0.3741 -0.4675
 8298SOL    HW236357   1.314   3.087   6.144  1.5717  2.5660  0.6615
 8299SOL     OW36358   4.501   0.127   0.677 -0.1289 -0.0481 -0.1426
 8299SOL    HW136359   4.580   0.161   0.717 -0.5549  2.5253 -1.4698
 8299SOL    HW236360   4.447   0.200   0.707 -0.6930  0.8947 -3.3657
 8300SOL     OW36361   3.477   2.615  14.891 -0.3317  0.3811 -0.7118
 8300SOL    HW136362   3.459   2.522  14.904  0.9769  0.2545  0.2643
 8300SOL    HW236363   3.408   2.633  14.827 -0.0430  0.5422 -0.9815
 8301SOL     OW36364   2.210   3.323   4.583  0.1209 -0.0252  0.4268
 8301SOL    HW136365   2.172   3.247   4.539 -1.5136  0.6754  0.6560
 8301SOL    HW236366   2.212   3.303   4.676 -3.4883  0.1238  0.5225
 8302SOL     OW36367   0.170   1.368   7.879 -0.4170 -0.4058 -0.4323
 8302SOL    HW136368   0.207   1.299   7.823 -2.8958 -0.6463 -1.7943
 8302SOL    HW236369   0.209   1.444   7.836 -0.3130 -0.4033 -0.3311
 8303SOL     OW36370   0.666   1.545  16.203 -0.2304 -0.5571 -0.1008
 8303SOL    HW136371   0.641   1.490  16.128 -1.6864 -0.7327  0.5179
 8303SOL    HW236372   0.745   1.586  16.170 -0.8619  1.0807  0.4336
 8304SOL     OW36373   2.371   0.709   4.660 -0.2858  0.3084 -0.0348
 8304SOL    HW136374   2.350   0.695   4.568  0.9556  3.4845 -0.7728
 8304SOL    HW236375   2.416   0.792   4.649  1.7207 -0.7014  0.5871
 8305SOL     OW36376   2.868   2.602  16.265 -0.4796 -0.1107 -0.3358
 8305SOL    HW136377   2.843   2.662  16.195 -0.6690  1.3704  0.9946
 8305SOL    HW236378   2.790   2.601  16.321 -0.7274  2.8752 -0.6273
 8306SOL     OW36379   0.860   3.110  16.011  0.1299  0.7406 -0.1768
 8306SOL    HW136380   0.847   3.049  16.083 -4.6839 -1.7128 -3.0675
 8306SOL    HW236381   0.847   3.053  15.935  0.9086 -0.8856  0.9161
 8307SOL     OW36382   1.036   2.024   5.498 -0.6458 -0.0734 -0.2891
 8307SOL    HW136383   0.944   2.019   5.522 -1.0378  1.5840 -1.4483
 8307SOL    HW236384   1.086   1.973   5.562 -0.9796  0.6875  0.5839
 8308SOL     OW36385   1.308   2.037   9.310  0.0110  0.4099 -0.3939
 8308SOL    HW136386   1.213   2.048   9.307 -0.0212  0.7066  1.7125
 8308SOL    HW236387   1.347   2.124   9.319 -1.8456  1.3560 -1.5729
 8309SOL     OW36388   1.532   4.111  10.288  0.0458  0.0781 -0.2785
 8309SOL    HW136389   1.598   4.047  10.316 -0.0289  0.0462 -0.1762
 8309SOL    HW236390   1.537   4.103  10.192  2.6448  1.0650 -0.2437
 8310SOL     OW36391   0.811   0.052   7.059 -0.1492 -0.0039 -0.1124
 8310SOL    HW136392   0.795   0.139   7.024 -0.3845 -0.4509 -1.1053
 8310SOL    HW236393   0.822   0.068   7.153 -0.5021 -2.5287  0.3670
 8311SOL     OW36394   4.281   1.705   8.216  0.8435  0.1517  0.2399
 8311SOL    HW136395   4.356   1.682   8.161  1.1225 -1.6613  1.4047
 8311SOL    HW236396   4.327   1.763   8.277  2.7227 -1.1396  0.0338
 8312SOL     OW36397   0.711   0.899   5.030 -0.3976 -0.0511  0.5156
 8312SOL    HW136398   0.758   0.927   5.109 -0.7567 -1.3470  1.2011
 8312SOL    HW236399   0.770   0.923   4.959 -0.3196  0.1640  0.6534
 8313SOL     OW36400   2.388   1.860   4.461  0.1376  0.1574 -0.2179
 8313SOL    HW136401   2.346   1.946   4.468 -1.7832 -0.9252  1.6283
 8313SOL    HW236402   2.403   1.853   4.555  1.4901  0.6246 -0.4044
 8314SOL     OW36403   2.202   1.587  15.262 -0.2551 -0.1877 -0.7114
 8314SOL    HW136404   2.284   1.588  15.312 -1.7083 -1.4722  1.7014
 8314SOL    HW236405   2.131   1.582  15.326  1.1631  1.8057  1.0265
 8315SOL     OW36406   1.224   3.557   9.919 -0.9031 -0.0082  0.2462
 8315SOL    HW136407   1.305   3.597   9.951 -2.4921  1.5193  2.3250
 8315SOL    HW236408   1.152   3.599   9.967  1.2502  1.9456  1.7701
 8316SOL     OW36409   2.619   0.209   5.610 -0.1526 -0.5420  0.4197
 8316SOL    HW136410   2.608   0.304   5.619  2.7515 -0.0535 -1.3149
 8316SOL    HW236411   2.704   0.205   5.654 -0.2776  0.9925  0.8094
 8317SOL     OW36412   1.914   1.758  17.569 -0.6065  0.2979  0.2790
 8317SOL    HW136413   1.954   1.673  17.587  0.8538  0.9209  0.0128
 8317SOL    HW236414   1.860   1.740  17.492 -0.3917 -1.1202  0.4649
 8318SOL     OW36415   2.587   2.598   7.003  0.0563  0.8796 -0.3551
 8318SOL    HW136416   2.631   2.531   7.055  0.1811  1.2529  0.0211
 8318SOL    HW236417   2.497   2.595   7.036 -0.3980 -2.4515 -1.8828
 8319SOL     OW36418   1.139   2.991   4.814 -0.8305 -0.5106  0.1536
 8319SOL    HW136419   1.045   2.982   4.833 -0.3680 -0.8966  2.2882
 8319SOL    HW236420   1.143   3.044   4.735 -5.1085  1.8265  1.4848
 8320SOL     OW36421   0.985   3.781  16.957  0.0611 -0.2083 -0.1677
 8320SOL    HW136422   0.998   3.736  16.874 -0.5099  0.0890 -0.4217
 8320SOL    HW236423   0.996   3.874  16.937  1.3052  0.1164  2.0614
 8321SOL     OW36424   2.040   4.032   4.078 -0.1384  0.5991  0.1637
 8321SOL    HW136425   2.031   3.953   4.131  1.0610  1.8297  2.1842
 8321SOL    HW236426   2.135   4.045   4.083  0.1099 -1.5805  1.2846
 8322SOL     OW36427   0.375   4.390   0.600 -0.0129 -0.4384 -0.2419
 8322SOL    HW136428   0.414   4.331   0.535 -1.0373 -0.0161 -1.2437
 8322SOL    HW236429   0.289   4.349   0.608  0.1258 -0.6738  0.0444
 8323SOL     OW36430   3.677   3.252   4.007 -0.0616  0.3238  0.2830
 8323SOL    HW136431   3.695   3.256   3.913 -2.0632  1.0521 -0.0575
 8323SOL    HW236432   3.615   3.323   4.023  1.3833  1.9079 -1.1476
 8324SOL     OW36433   0.655   0.771   4.650 -0.6344  0.1429 -0.7683
 8324SOL    HW136434   0.569   0.733   4.666 -0.9755  1.2675  0.1270
 8324SOL    HW236435   0.614   0.848   4.611 -1.1296 -1.0780 -2.6500
 8325SOL     OW36436   4.344   1.231  16.449  0.0777 -0.2806  0.0970
 8325SOL    HW136437   4.387   1.153  16.486 -1.6190 -0.7685  1.0398
 8325SOL    HW236438   4.422   1.280  16.425  1.3901 -1.2494  2.3810
 8326SOL     OW36439   2.573   4.225  12.322 -0.0490  0.1795 -0.3242
 8326SOL    HW136440   2.587   4.265  12.408 -0.0578  0.0420 -0.2578
 8326SOL    HW236441   2.539   4.300  12.274 -1.9994  0.1609  1.0137
 8327SOL     OW36442   3.539   1.279  15.812 -0.4806 -0.0120  0.2352
 8327SOL    HW136443   3.580   1.360  15.781  0.6911 -1.0482 -0.8780
 8327SOL    HW236444   3.617   1.225  15.827  0.1085  0.6539 -0.4673
 8328SOL     OW36445   4.137   2.403  10.698  0.1414  0.0733 -0.5390
 8328SOL    HW136446   4.176   2.332  10.749  2.5737  0.1353 -2.3122
 8328SOL    HW236447   4.165   2.370  10.613  0.8446 -0.5687 -0.0567
 8329SOL     OW36448   1.092   0.165   6.037  0.7858 -0.6491 -0.5456
 8329SOL    HW136449   1.166   0.225   6.051 -1.2670  1.3696  1.7499
 8329SOL    HW236450   1.101   0.137   5.946  0.1827 -0.4787 -0.6611
 8330SOL     OW36451   1.894   1.985   7.887 -0.2116 -0.2126 -0.3272
 8330SOL    HW136452   1.812   1.972   7.934 -0.8340  0.3023 -1.2651
 8330SOL    HW236453   1.925   2.070   7.917 -3.8300  0.4088  1.6840
 8331SOL     OW36454   1.105   2.777   7.683 -0.5743 -0.0585  0.7082
 8331SOL    HW136455   1.047   2.704   7.660  0.0604 -0.9920  2.1246
 8331SOL    HW236456   1.059   2.815   7.758  1.3659  0.8363  1.4423
 8332SOL     OW36457   4.187   3.362   9.268 -0.0996 -0.0342 -0.3479
 8332SOL    HW136458   4.112   3.354   9.209 -0.4345  0.5455 -0.0103
 8332SOL    HW236459   4.256   3.399   9.213 -0.7507  2.0142  0.1970
 8333SOL     OW36460   0.383   4.040   6.095  0.5246  0.1121 -0.1745
 8333SOL    HW136461   0.417   3.971   6.152 -2.3524  0.1440  1.6105
 8333SOL    HW236462   0.430   4.019   6.014  0.9503 -0.5983  0.2536
 8334SOL     OW36463   3.658   2.026   3.864  0.4013  0.1371  0.0662
 8334SOL    HW136464   3.644   1.937   3.830 -1.8334 -0.3858  2.3237
 8334SOL    HW236465   3.645   2.084   3.789  1.1393 -1.4866 -1.3310
 8335SOL     OW36466   2.906   2.759   6.393  0.0018  0.0480  0.0837
 8335SOL    HW136467   2.838   2.814   6.431  1.1670  0.7065  1.2273
 8335SOL    HW236468   2.874   2.774   6.304 -0.9874  0.3465  0.4973
 8336SOL     OW36469   1.843   1.457   0.113  0.4444  0.2882 -0.4143
 8336SOL    HW136470   1.833   1.384   0.053  0.0182  0.3866 -0.4670
 8336SOL    HW236471   1.919   1.496   0.071  0.1388  0.7860 -0.5136
 8337SOL     OW36472   2.618   3.355   1.034 -0.0736 -0.3235 -0.3207
 8337SOL    HW136473   2.531   3.369   1.071  0.2491 -0.6251  0.5594
 8337SOL    HW236474   2.654   3.440   1.009 -1.1531 -0.5321 -2.5578
 8338SOL     OW36475   3.816   2.710   9.751  0.3018 -0.0190 -0.3748
 8338SOL    HW136476   3.909   2.732   9.760  0.7875 -1.3662 -1.9271
 8338SOL    HW236477   3.788   2.702   9.842 -1.0123 -1.9845 -0.9575
 8339SOL     OW36478   3.376   3.629   0.472 -0.0198 -0.5973 -0.3767
 8339SOL    HW136479   3.463   3.623   0.433  0.1486 -0.0212 -0.0860
 8339SOL    HW236480   3.376   3.724   0.479 -0.7927 -0.6100 -0.2307
 8340SOL     OW36481   0.922   2.907   4.161  0.1434 -0.5006 -0.1370
 8340SOL    HW136482   0.864   2.980   4.184 -2.3173 -2.4290 -0.2457
 8340SOL    HW236483   0.949   2.876   4.248  2.0711  0.9858 -0.2084
 8341SOL     OW36484   1.809   1.941   4.408  0.1820 -0.2565 -0.4841
 8341SOL    HW136485   1.811   1.945   4.313  3.2546 -0.9565 -0.4391
 8341SOL    HW236486   1.898   1.913   4.429  0.4983  0.3743 -0.9817
 8342SOL     OW36487   0.921   2.766   1.599  0.3486 -0.7140 -0.5234
 8342SOL    HW136488   0.877   2.837   1.647 -0.9445 -3.6311  2.6261
 8342SOL    HW236489   0.910   2.698   1.665 -0.3216  0.6098  0.7285
 8343SOL     OW36490   2.443   4.026  10.493  0.9004  0.2346  0.2292
 8343SOL    HW136491   2.486   4.107  10.522  0.2937  0.2153  1.2002
 8343SOL    HW236492   2.358   4.043  10.533  0.8262 -2.6193  1.3023
 8344SOL     OW36493   1.721   3.338   1.248  0.0813  0.6454  0.2229
 8344SOL    HW136494   1.772   3.307   1.322 -0.9945 -0.1235  0.6397
 8344SOL    HW236495   1.697   3.260   1.198 -0.9928  0.9947  0.1769
 8345SOL     OW36496   3.988   1.421   5.519 -0.0956 -0.2961  0.0617
 8345SOL    HW136497   4.013   1.398   5.429 -1.0760  1.3680 -0.6218
 8345SOL    HW236498   4.039   1.362   5.575 -0.8729 -1.5394 -0.5524
 8346SOL     OW36499   3.556   1.807  15.625  0.1954  0.0111 -0.1717
 8346SOL    HW136500   3.515   1.889  15.596 -0.1677 -0.0415  0.1881
 8346SOL    HW236501   3.649   1.832  15.620  0.4564 -1.0676 -0.5747
 8347SOL     OW36502   1.348   3.717   8.899  0.0548 -0.1607  0.1014
 8347SOL    HW136503   1.275   3.690   8.955  0.3694 -1.5980 -0.1987
 8347SOL    HW236504   1.306   3.739   8.815 -0.1970  0.8688  0.4893
 8348SOL     OW36505   2.772   0.230   4.735  0.0186 -0.4340  0.2583
 8348SOL    HW136506   2.708   0.297   4.757 -0.1140 -1.0684  1.7895
 8348SOL    HW236507   2.721   0.187   4.665 -1.0406 -0.4570  1.0427
 8349SOL     OW36508   4.431   2.807   2.272  0.0880  0.2359  0.2311
 8349SOL    HW136509   4.375   2.859   2.214 -0.4223  1.0550  1.4371
 8349SOL    HW236510   4.370   2.794   2.345 -0.0389 -3.1180 -0.4703
 8350SOL     OW36511   2.692   2.931   6.463 -0.5677 -0.4765 -0.3611
 8350SOL    HW136512   2.622   2.985   6.426 -1.6490 -0.6198  1.5276
 8350SOL    HW236513   2.674   2.946   6.555  0.3311  1.9951 -0.5915
 8351SOL     OW36514   2.964   2.174   6.049 -0.6920 -0.0640 -0.1205
 8351SOL    HW136515   2.960   2.132   6.135 -0.9682  0.0891 -0.0583
 8351SOL    HW236516   2.921   2.108   5.995 -0.6163 -0.8819  0.8135
 8352SOL     OW36517   1.105   2.436   3.895 -0.2168  0.2004  0.2140
 8352SOL    HW136518   1.056   2.435   3.977 -1.9655  4.0354 -0.7467
 8352SOL    HW236519   1.044   2.390   3.838 -0.6694 -0.9428  1.6306
 8353SOL     OW36520   3.038   4.539   6.522 -1.0455 -0.2790 -0.2749
 8353SOL    HW136521   2.974   4.609   6.519 -0.5257  0.1217 -2.4738
 8353SOL    HW236522   3.114   4.588   6.490 -0.4346 -0.6604  0.5783
 8354SOL     OW36523   4.456   0.224   6.618 -0.4200 -0.0952  0.2297
 8354SOL    HW136524   4.411   0.198   6.538  1.3674  0.4979 -0.9795
 8354SOL    HW236525   4.522   0.286   6.585 -1.0506 -0.0584 -0.9681
 8355SOL     OW36526   1.498   2.219   1.935  0.2163 -0.3810 -0.4464
 8355SOL    HW136527   1.551   2.254   2.007  0.1800  1.0169 -1.0907
 8355SOL    HW236528   1.436   2.174   1.992  0.6917  1.1699  1.3077
 8356SOL     OW36529   0.505   1.174   3.001  0.5356 -0.3640  0.5601
 8356SOL    HW136530   0.517   1.250   2.944  0.9563  0.8967  2.3344
 8356SOL    HW236531   0.585   1.167   3.054 -1.0539 -3.1665  2.5986
 8357SOL     OW36532   0.909   4.177   9.502 -0.1887 -0.0442 -0.1115
 8357SOL    HW136533   0.952   4.229   9.434  0.4560 -3.2253 -2.0945
 8357SOL    HW236534   0.819   4.205   9.482 -0.2483 -1.0895 -1.2950
 8358SOL     OW36535   2.414   1.521   7.925  0.2413  0.4291 -0.5287
 8358SOL    HW136536   2.337   1.464   7.931 -2.0614  3.4869 -0.7520
 8358SOL    HW236537   2.446   1.474   7.848 -0.0823  0.4370 -0.6715
 8359SOL     OW36538   1.508   4.698   2.617  0.1189 -0.0397  0.2299
 8359SOL    HW136539   1.439   0.032   2.593 -0.8359 -0.6762  1.4023
 8359SOL    HW236540   1.495   4.677   2.709 -1.0093 -0.8472 -0.1228
 8360SOL     OW36541   3.387   3.574   7.256 -0.7843 -0.5338 -0.3596
 8360SOL    HW136542   3.304   3.594   7.299 -2.1830  0.0092 -3.3324
 8360SOL    HW236543   3.430   3.516   7.319 -1.8736 -0.6476  0.2741
 8361SOL     OW36544   4.349   3.632  10.615 -0.0482 -0.1891 -0.0334
 8361SOL    HW136545   4.330   3.579  10.538  0.9134  0.0812 -0.4616
 8361SOL    HW236546   4.394   3.709  10.582 -2.6499  1.2138 -0.2597
 8362SOL     OW36547   4.131   1.627   8.438 -0.2404  0.3359 -0.6720
 8362SOL    HW136548   4.185   1.659   8.365 -1.1157  1.1179 -0.9730
 8362SOL    HW236549   4.057   1.687   8.428 -1.1761 -0.7596 -0.2024
 8363SOL     OW36550   2.495   2.408  10.648 -0.2478 -0.3965  0.0062
 8363SOL    HW136551   2.571   2.456  10.617 -0.6935  0.8120  0.7680
 8363SOL    HW236552   2.537   2.360  10.719 -1.6812 -2.0941 -0.2791
 8364SOL     OW36553   1.736   2.823   9.541  0.8564 -0.2012 -0.4708
 8364SOL    HW136554   1.711   2.863   9.458  0.3488  0.7016  0.1275
 8364SOL    HW236555   1.817   2.869   9.561 -1.0534  2.2091  1.5483
 8365SOL     OW36556   4.398   1.075   9.937 -0.2757 -0.1724 -0.0134
 8365SOL    HW136557   4.432   1.035  10.016 -1.7804 -2.1622 -0.3771
 8365SOL    HW236558   4.313   1.107   9.968 -0.3325  0.3201 -0.6620
 8366SOL     OW36559   3.093   3.965   9.326  0.1067  0.1265 -0.2132
 8366SOL    HW136560   3.117   3.929   9.412 -0.1827  0.8995  0.1928
 8366SOL    HW236561   3.001   3.939   9.321  0.1166  0.3539 -1.6411
 8367SOL     OW36562   3.169   1.798  13.437  0.0900  0.0811  0.7936
 8367SOL    HW136563   3.081   1.761  13.432 -0.1397  0.9198 -1.1211
 8367SOL    HW236564   3.179   1.812  13.531 -1.0393 -0.5368  1.0017
 8368SOL     OW36565   3.137   0.483   3.463 -0.1764  0.0499  0.0244
 8368SOL    HW136566   3.060   0.443   3.502  0.4150 -2.5768 -1.4774
 8368SOL    HW236567   3.171   0.525   3.542 -3.0120  2.9074 -0.2882
 8369SOL     OW36568   4.423   1.824  11.923  0.0231 -0.7496  0.6980
 8369SOL    HW136569   4.441   1.845  12.015  0.1379  1.9587  0.0473
 8369SOL    HW236570   4.507   1.800  11.885  1.6807  4.6521  0.9364
 8370SOL     OW36571   1.732   1.741   2.485 -0.2926  0.2540 -0.4676
 8370SOL    HW136572   1.709   1.755   2.393 -0.9911 -3.0914 -0.7784
 8370SOL    HW236573   1.812   1.794   2.486  0.7645 -1.2747 -3.0030
 8371SOL     OW36574   4.453   4.432   9.370  0.2535 -0.0807  0.6783
 8371SOL    HW136575   4.388   4.500   9.388 -1.1877 -1.3770  0.3795
 8371SOL    HW236576   4.514   4.492   9.327 -0.0273 -0.9607 -0.9201
 8372SOL     OW36577   2.589   3.576   0.596  0.3771 -0.7785 -0.5799
 8372SOL    HW136578   2.643   3.646   0.561 -1.0709  0.9206  0.5710
 8372SOL    HW236579   2.563   3.621   0.677 -3.2035  1.0816 -2.7535
 8373SOL     OW36580   0.640   3.902   2.628  0.3713  0.1678 -0.2682
 8373SOL    HW136581   0.716   3.879   2.575  0.2012 -2.9858  0.9005
 8373SOL    HW236582   0.582   3.828   2.608  0.9887  0.3740 -2.9027
 8374SOL     OW36583   0.232   2.748   0.993  0.0397  0.2650 -0.2759
 8374SOL    HW136584   0.290   2.700   0.934  0.0325  1.4396 -1.2360
 8374SOL    HW236585   0.272   2.747   1.080 -1.6370 -2.0330  0.4442
 8375SOL     OW36586   2.609   2.921  15.702 -0.6429 -1.0463 -0.2774
 8375SOL    HW136587   2.580   2.833  15.725  2.4316 -1.4120  2.2821
 8375SOL    HW236588   2.701   2.932  15.728 -0.0686  0.8714 -3.0955
 8376SOL     OW36589   2.301   0.915   4.052 -0.5441 -0.2851  0.1412
 8376SOL    HW136590   2.251   0.871   3.983 -1.0913  1.2967 -0.4683
 8376SOL    HW236591   2.224   0.938   4.106 -0.6929 -1.5368  0.4681
 8377SOL     OW36592   2.727   3.283   1.289 -0.2028  0.3219 -0.5541
 8377SOL    HW136593   2.705   3.298   1.197 -0.0899 -1.8490 -0.9382
 8377SOL    HW236594   2.643   3.275   1.333  0.9006 -2.9555  1.0074
 8378SOL     OW36595   1.992   3.085   7.599 -0.2781 -0.5507  0.0223
 8378SOL    HW136596   2.075   3.047   7.571  1.3155  1.5271  2.0002
 8378SOL    HW236597   2.011   3.178   7.594 -0.0164 -0.6805 -1.3209
 8379SOL     OW36598   3.876   1.031  17.710  0.1372  0.1282 -0.5047
 8379SOL    HW136599   3.946   0.983   0.043  0.1677  1.1648  0.5917
 8379SOL    HW236600   3.805   0.985   0.043 -0.2708  1.4848  0.2304
 8380SOL     OW36601   2.961   0.404   7.582  0.6412 -0.4181  0.2628
 8380SOL    HW136602   3.014   0.452   7.518 -2.5704  0.9040 -1.4176
 8380SOL    HW236603   2.933   0.480   7.633  0.8922 -0.8687  1.0594
 8381SOL     OW36604   2.698   0.506  13.166 -0.2533 -0.7347  0.0315
 8381SOL    HW136605   2.636   0.576  13.144  0.0594  0.1141  1.8595
 8381SOL    HW236606   2.700   0.475  13.076  1.2073  1.1541 -0.5898
 8382SOL     OW36607   2.857   0.264   2.553  0.1127  0.3963 -0.5065
 8382SOL    HW136608   2.888   0.333   2.611 -2.7926  0.2406  1.2645
 8382SOL    HW236609   2.881   0.184   2.599  1.6327  0.3163 -1.4620
 8383SOL     OW36610   2.779   4.609   4.447 -0.0643  0.4596  0.1639
 8383SOL    HW136611   2.707   4.561   4.488 -2.4531  3.4719 -0.5334
 8383SOL    HW236612   2.803   4.551   4.374 -1.2501 -1.5592  1.3818
 8384SOL     OW36613   2.350   4.290  10.214 -0.0781 -0.3075 -0.3096
 8384SOL    HW136614   2.386   4.204  10.191  1.0708  0.4079 -1.1820
 8384SOL    HW236615   2.374   4.333  10.132 -0.7214 -0.9093 -0.8158
 8385SOL     OW36616   1.985   0.357   4.755  0.5177 -0.0981  0.1545
 8385SOL    HW136617   2.057   0.323   4.702  2.0230  1.5255  1.1582
 8385SOL    HW236618   1.997   0.451   4.744 -0.8745 -0.0343 -0.9228
 8386SOL     OW36619   1.989   1.254   0.320 -0.5263  0.2524  0.1407
 8386SOL    HW136620   1.940   1.336   0.319  1.3120  1.3586  1.9751
 8386SOL    HW236621   2.022   1.254   0.409 -0.1855  0.3476  0.0154
 8387SOL     OW36622   3.124   2.664  11.935 -0.0475  0.4441 -0.2123
 8387SOL    HW136623   3.170   2.619  12.006 -0.9911 -0.0906  0.0541
 8387SOL    HW236624   3.036   2.668  11.972 -0.5795 -0.7000 -1.3544
 8388SOL     OW36625   3.350   1.796  12.576  0.0526  0.4617  0.5974
 8388SOL    HW136626   3.441   1.804  12.607  0.9170 -0.2072 -1.7575
 8388SOL    HW236627   3.306   1.748  12.647 -1.3128  0.1871 -0.4385
 8389SOL     OW36628   1.369   0.871   1.081 -0.0754 -0.1605 -0.0219
 8389SOL    HW136629   1.375   0.817   1.002 -0.8948 -0.0901 -0.1333
 8389SOL    HW236630   1.378   0.806   1.150 -0.4986 -0.8096 -0.5778
 8390SOL     OW36631   3.438   2.919   8.044  0.4487 -0.3144  0.1464
 8390SOL    HW136632   3.466   2.874   8.124 -0.1867  0.0908  0.5904
 8390SOL    HW236633   3.524   2.932   8.003 -0.1735 -1.7867 -1.6298
 8391SOL     OW36634   0.523   0.776   5.753 -0.1782  0.3620 -0.3443
 8391SOL    HW136635   0.535   0.871   5.753 -1.2472  0.4969  0.6221
 8391SOL    HW236636   0.519   0.762   5.848 -2.0203  2.1378 -0.1523
 8392SOL     OW36637   4.262   2.814  11.048  0.8956  0.2919  0.4268
 8392SOL    HW136638   4.201   2.748  11.014  1.2056  0.2345 -0.0236
 8392SOL    HW236639   4.198   2.882  11.069 -1.1511 -1.2891 -0.6781
 8393SOL     OW36640   1.124   0.065   5.784 -0.4629 -0.0218  0.0263
 8393SOL    HW136641   1.139   0.114   5.704  0.8777 -0.3275  0.0840
 8393SOL    HW236642   1.201   0.009   5.777 -0.0300  0.6396 -0.4231
 8394SOL     OW36643   4.175   3.374   3.540  0.1041  0.1303  0.0504
 8394SOL    HW136644   4.134   3.289   3.529 -0.1735  0.0357  1.8245
 8394SOL    HW236645   4.262   3.333   3.539 -0.0984 -0.2803 -2.0239
 8395SOL     OW36646   2.601   1.765   0.334 -0.0481 -0.5631 -0.1533
 8395SOL    HW136647   2.587   1.858   0.317 -3.5690 -0.9063  0.8329
 8395SOL    HW236648   2.617   1.741   0.242  0.9519  2.7691 -0.8704
 8396SOL     OW36649   1.325   3.044   1.575  0.2574 -0.4809  0.4171
 8396SOL    HW136650   1.302   2.989   1.650 -2.1506 -0.7761 -0.5391
 8396SOL    HW236651   1.305   2.981   1.506  0.1328 -1.2337  1.1447
 8397SOL     OW36652   2.668   1.401   3.077  0.4925  0.2002 -0.4451
 8397SOL    HW136653   2.673   1.437   3.165  1.4497 -2.6772  0.6546
 8397SOL    HW236654   2.573   1.409   3.064  0.3953 -0.2377  0.0031
 8398SOL     OW36655   2.339   3.231   8.638  0.5701  0.4389 -0.1472
 8398SOL    HW136656   2.373   3.149   8.674 -1.8145 -0.8493 -0.8142
 8398SOL    HW236657   2.408   3.293   8.660  0.1757  1.1046 -0.7874
 8399SOL     OW36658   3.495   2.942  10.159  0.2988  0.2333 -0.3208
 8399SOL    HW136659   3.470   3.026  10.121  0.4500  0.0240 -0.8822
 8399SOL    HW236660   3.590   2.932  10.160  0.2039 -0.8377 -1.8028
 8400SOL     OW36661   1.655   0.746   7.348  0.4614  0.5361  0.4808
 8400SOL    HW136662   1.614   0.800   7.280  0.6495 -0.5717 -0.5248
 8400SOL    HW236663   1.742   0.787   7.346  0.7643 -0.1851 -1.2213
 8401SOL     OW36664   2.252   3.860   1.945 -0.2623 -0.7620  0.2214
 8401SOL    HW136665   2.343   3.873   1.919 -0.2332  0.1227  0.7622
 8401SOL    HW236666   2.255   3.900   2.032 -3.4120 -0.4481  0.1811
 8402SOL     OW36667   1.045   0.995  11.626  0.0547  0.9160  0.8800
 8402SOL    HW136668   1.013   0.993  11.716  0.8340 -1.0617  1.1372
 8402SOL    HW236669   1.123   0.939  11.617 -0.4078  0.2515  1.0040
 8403SOL     OW36670   3.864   3.905  16.623 -0.1712 -0.4915  0.2742
 8403SOL    HW136671   3.940   3.963  16.624 -1.0816  0.6674  1.9546
 8403SOL    HW236672   3.852   3.898  16.528  3.4980 -0.9282 -0.1570
 8404SOL     OW36673   0.846   2.963   3.233 -0.0145  0.9007  0.1003
 8404SOL    HW136674   0.868   2.957   3.326  2.2615  1.0113 -0.4248
 8404SOL    HW236675   0.841   3.057   3.217  1.8072  0.7382 -1.4886
 8405SOL     OW36676   0.432   2.717   8.057 -0.0977 -0.3816 -0.2649
 8405SOL    HW136677   0.522   2.725   8.025 -0.0398  2.0483  0.5336
 8405SOL    HW236678   0.426   2.635   8.107  0.6325  0.4553  1.2065
 8406SOL     OW36679   1.825   1.130   5.669  0.1569  0.3190 -0.0933
 8406SOL    HW136680   1.749   1.074   5.681 -0.7364  1.6417  0.4774
 8406SOL    HW236681   1.830   1.149   5.576 -1.0503  2.2425  0.2271
 8407SOL     OW36682   0.824   2.516   7.159  0.2454  0.0876  0.3750
 8407SOL    HW136683   0.750   2.576   7.166  1.3100  1.5108 -0.5089
 8407SOL    HW236684   0.900   2.575   7.151 -1.2855  2.1846  1.1922
 8408SOL     OW36685   1.824   1.488   6.320 -0.5200 -0.3320 -0.2668
 8408SOL    HW136686   1.900   1.450   6.277  0.8041  2.8067 -0.6786
 8408SOL    HW236687   1.746   1.480   6.265 -1.0453 -0.8350  0.5502
 8409SOL     OW36688   0.473   2.101   6.764  0.4606 -0.0525 -0.0497
 8409SOL    HW136689   0.408   2.036   6.789  0.6932 -0.3435 -0.1911
 8409SOL    HW236690   0.416   2.164   6.720  0.3535  0.5572  0.9837
 8410SOL     OW36691   0.341   2.101   5.856 -0.1617  0.4506 -0.0900
 8410SOL    HW136692   0.403   2.174   5.857 -0.8771  1.0255  2.2031
 8410SOL    HW236693   0.303   2.099   5.944  1.5062  0.6893  0.6360
 8411SOL     OW36694   1.641   0.355   8.709  0.2813  0.5938 -0.1644
 8411SOL    HW136695   1.729   0.391   8.721  0.6538 -0.3198 -0.1779
 8411SOL    HW236696   1.655   0.262   8.729  1.5104  0.0883 -3.3822
 8412SOL     OW36697   3.187   3.054   8.058  0.1014 -0.1862 -0.0859
 8412SOL    HW136698   3.281   3.037   8.055 -0.1227 -1.7074  0.9812
 8412SOL    HW236699   3.143   2.975   8.090 -0.2418 -0.5658 -1.5091
 8413SOL     OW36700   4.678   0.825   6.785  0.6075  0.1089 -0.0619
 8413SOL    HW136701   4.613   0.770   6.830  0.2255  1.0172  0.4840
 8413SOL    HW236702   0.032   0.776   6.787  0.6237  0.1593  0.8177
 8414SOL     OW36703   3.376   1.190   3.355  0.2652  0.2646 -0.7048
 8414SOL    HW136704   3.297   1.173   3.304  0.3844  2.5760 -1.6863
 8414SOL    HW236705   3.413   1.269   3.316 -1.7516  1.2600 -0.5943
 8415SOL     OW36706   0.765   0.491   4.634 -0.1028  0.5350  0.1137
 8415SOL    HW136707   0.740   0.582   4.650  0.7988  1.0310 -1.2656
 8415SOL    HW236708   0.685   0.448   4.604 -1.8644  3.9764 -0.2181
 8416SOL     OW36709   0.385   2.235   4.812  0.1213  0.5736 -0.2651
 8416SOL    HW136710   0.437   2.315   4.806  1.7860 -0.5929 -1.4437
 8416SOL    HW236711   0.320   2.263   4.876 -0.2371  2.3477 -1.3893
 8417SOL     OW36712   4.306   2.588   6.853 -0.0736  0.2846  0.4214
 8417SOL    HW136713   4.231   2.530   6.842 -1.1009  1.4547  1.3172
 8417SOL    HW236714   4.386   2.537   6.868 -0.7399 -0.5167  1.2373
 8418SOL     OW36715   3.391   2.379  12.318  0.3644 -0.0377  0.3463
 8418SOL    HW136716   3.335   2.337  12.383 -0.4999 -1.6147 -1.4235
 8418SOL    HW236717   3.448   2.304  12.302  0.1707 -0.7182  2.8612
 8419SOL     OW36718   0.300   1.513   3.053 -0.1860  0.0263  0.3778
 8419SOL    HW136719   0.367   1.528   3.120 -0.0460  1.8591 -0.1860
 8419SOL    HW236720   0.363   1.506   2.981 -0.2173 -0.8636  0.4300
 8420SOL     OW36721   2.129   2.596   8.146 -0.0628  0.1330  0.6160
 8420SOL    HW136722   2.117   2.593   8.051  3.1276 -1.4382  0.2637
 8420SOL    HW236723   2.094   2.680   8.174  0.7645  0.9509 -0.8422
 8421SOL     OW36724   3.707   3.649  15.729  0.1819 -0.2878  0.6061
 8421SOL    HW136725   3.776   3.661  15.795  0.9616  0.9308 -0.4368
 8421SOL    HW236726   3.640   3.711  15.757  0.7213  0.9885 -0.9415
 8422SOL     OW36727   3.493   2.698   6.458 -0.6804 -0.3670 -0.5834
 8422SOL    HW136728   3.404   2.729   6.476 -0.5546 -0.5953  0.4701
 8422SOL    HW236729   3.488   2.623   6.399  1.7057 -0.6194 -0.4639
 8423SOL     OW36730   2.825   0.575   1.895 -0.2437 -0.3284 -0.0627
 8423SOL    HW136731   2.797   0.648   1.950  2.0005  0.9516 -0.6359
 8423SOL    HW236732   2.909   0.537   1.921  0.1783  1.0071  0.5063
 8424SOL     OW36733   4.416   2.304   6.252  0.3599 -0.0807 -0.7561
 8424SOL    HW136734   4.383   2.243   6.319 -0.4884 -0.0322 -1.1198
 8424SOL    HW236735   4.335   2.298   6.201 -0.9037  1.4531  1.1066
 8425SOL     OW36736   3.900   1.401  11.578 -0.1455 -0.2099 -0.0252
 8425SOL    HW136737   3.865   1.358  11.656  1.0148 -0.8198  0.1547
 8425SOL    HW236738   3.991   1.396  11.610 -0.4250 -0.4987  0.7409
 8426SOL     OW36739   1.212   4.104  10.149  0.0673 -0.3993  1.1065
 8426SOL    HW136740   1.234   4.047  10.222 -0.6980  0.2808  1.8728
 8426SOL    HW236741   1.185   4.186  10.191  0.9342  1.2257 -1.4722
 8427SOL     OW36742   1.938   3.801   9.262  0.1786  0.1840 -0.5329
 8427SOL    HW136743   2.024   3.770   9.233  1.2802  1.2194  1.5451
 8427SOL    HW236744   1.950   3.889   9.225  0.5334 -0.0356 -0.9359
 8428SOL     OW36745   4.001   4.221   6.887 -0.2322  0.2147  0.4378
 8428SOL    HW136746   4.053   4.244   6.964 -0.2054  0.3081  0.3919
 8428SOL    HW236747   3.999   4.127   6.904 -0.7993  0.1301 -0.1314
 8429SOL     OW36748   3.916   3.588  17.045  0.6417 -0.0691 -0.1220
 8429SOL    HW136749   3.907   3.527  16.973 -1.0861 -0.7443  0.6560
 8429SOL    HW236750   4.009   3.604  17.061 -0.4875  2.7917  3.7658
 8430SOL     OW36751   3.062   0.449   3.920 -0.3388 -0.1761  0.2940
 8430SOL    HW136752   3.057   0.483   4.009 -1.3772  3.6095 -1.1700
 8430SOL    HW236753   3.033   0.358   3.925  1.2094 -0.7842 -1.8976
 8431SOL     OW36754   0.715   3.824   9.878 -0.4330 -0.8219 -0.1923
 8431SOL    HW136755   0.690   3.874   9.955 -1.1694 -1.0767 -0.2695
 8431SOL    HW236756   0.736   3.899   9.822  1.6479 -0.3896  1.1516
 8432SOL     OW36757   2.371   3.401   4.820  0.8534 -0.1956 -0.3501
 8432SOL    HW136758   2.313   3.438   4.886 -1.0277 -2.0093 -0.9958
 8432SOL    HW236759   2.423   3.477   4.794 -0.2792  0.1536 -1.5860
 8433SOL     OW36760   2.337   0.822   8.187  0.1848  0.1595 -0.3313
 8433SOL    HW136761   2.341   0.737   8.231 -1.4255  0.6026  0.6764
 8433SOL    HW236762   2.419   0.862   8.216 -0.7183  0.7358  1.4392
 8434SOL     OW36763   1.015   0.921   2.015  0.6240 -0.0211 -0.0684
 8434SOL    HW136764   0.960   0.992   1.982  0.1702  0.5545  1.9587
 8434SOL    HW236765   1.097   0.967   2.035  0.6665 -1.0656  2.1478
 8435SOL     OW36766   0.233   3.760  15.906 -0.3957  0.0777  0.3908
 8435SOL    HW136767   0.217   3.669  15.880 -1.3944  0.6180 -0.8362
 8435SOL    HW236768   0.148   3.803  15.901 -0.1712  0.6925  1.8456
 8436SOL     OW36769   1.500   3.169   5.875  0.2649  0.1101 -0.7012
 8436SOL    HW136770   1.528   3.244   5.927 -2.8338 -0.0362  1.1688
 8436SOL    HW236771   1.444   3.127   5.941  0.9217 -1.2021 -0.9858
 8437SOL     OW36772   0.419   1.518  14.897 -0.1459  0.0080 -0.3317
 8437SOL    HW136773   0.459   1.496  14.813  0.4992  1.4203 -0.3979
 8437SOL    HW236774   0.365   1.595  14.881 -1.4729 -0.4517  1.8722
 8438SOL     OW36775   0.912   0.137  14.498 -0.4745 -0.2491 -0.3256
 8438SOL    HW136776   0.818   0.154  14.490 -0.4804 -0.7987 -1.3799
 8438SOL    HW236777   0.910   0.117  14.591 -0.6357 -1.3491 -0.5652
 8439SOL     OW36778   1.387   0.853  14.392  0.1727  0.1120  0.1296
 8439SOL    HW136779   1.365   0.819  14.305 -0.2377 -1.6909  0.9322
 8439SOL    HW236780   1.473   0.816  14.414 -1.0103 -0.5060  3.6432
 8440SOL     OW36781   3.042   2.763  15.050 -0.3289  0.0397 -0.1243
 8440SOL    HW136782   3.107   2.697  15.077  0.1180  0.6299  0.2550
 8440SOL    HW236783   3.054   2.828  15.120 -2.5092 -0.4225  0.6841
 8441SOL     OW36784   1.375   3.775   3.316 -0.2433  0.3935  0.4893
 8441SOL    HW136785   1.312   3.726   3.263 -0.0680  3.7210 -2.7712
 8441SOL    HW236786   1.403   3.840   3.252  1.7241  1.1988  2.1396
 8442SOL     OW36787   1.328   3.207   2.342  0.3744  0.5685 -0.2790
 8442SOL    HW136788   1.264   3.194   2.411  0.6233  0.3312 -0.0936
 8442SOL    HW236789   1.409   3.189   2.390  0.3533 -0.9425 -0.8133
 8443SOL     OW36790   0.717   2.440   6.809  0.3208 -0.0213 -0.4900
 8443SOL    HW136791   0.785   2.491   6.766  1.9299 -0.4415  1.5788
 8443SOL    HW236792   0.647   2.428   6.745  1.1228  1.0383 -1.5712
 8444SOL     OW36793   4.404   2.577   1.882  0.2229  0.3313  0.0653
 8444SOL    HW136794   4.409   2.519   1.958 -0.5300  2.0097  1.4055
 8444SOL    HW236795   4.412   2.517   1.808  0.9366  1.1449 -0.5116
 8445SOL     OW36796   0.440   4.712   3.930  0.3117  0.5753  0.3118
 8445SOL    HW136797   0.375   4.674   3.871 -0.1716 -0.5331  1.5515
 8445SOL    HW236798   0.510   4.647   3.926 -0.9251 -0.7686  0.6425
 8446SOL     OW36799   1.923   1.723   3.723  0.5185  0.0337 -0.0263
 8446SOL    HW136800   1.884   1.732   3.810  1.8431  0.3932  0.5180
 8446SOL    HW236801   2.014   1.725   3.751  0.9076  0.5218 -1.3455
 8447SOL     OW36802   4.651   3.360   3.284 -0.0042 -0.2318  0.0813
 8447SOL    HW136803   0.011   3.324   3.268 -0.5661 -1.5529 -0.0739
 8447SOL    HW236804   4.586   3.300   3.246  0.6895 -0.5375 -0.6244
 8448SOL     OW36805   3.892   2.010   6.005  0.0314  0.2164  0.1718
 8448SOL    HW136806   3.928   2.005   6.093 -0.2904  1.0827  0.3578
 8448SOL    HW236807   3.864   2.102   6.006 -0.8765 -0.0411 -0.8301
 8449SOL     OW36808   3.171   0.246   2.915 -0.0704 -0.7866  0.3872
 8449SOL    HW136809   3.075   0.252   2.915 -0.1440 -1.9376  0.1857
 8449SOL    HW236810   3.193   0.340   2.917  1.4730 -1.0961 -2.0940
 8450SOL     OW36811   2.830   2.438   9.473  0.6277  0.6059  0.2825
 8450SOL    HW136812   2.821   2.439   9.568  0.8498 -0.5298  0.3144
 8450SOL    HW236813   2.756   2.385   9.444  0.0145  0.1812  2.5987
 8451SOL     OW36814   0.706   4.597   1.158  0.1982  0.3785  0.1045
 8451SOL    HW136815   0.763   4.544   1.213  0.6019 -0.5935 -1.2287
 8451SOL    HW236816   0.760   4.629   1.086  0.4253  0.1811  0.1862
 8452SOL     OW36817   2.814   3.047   2.177  0.4761 -0.1525  0.1647
 8452SOL    HW136818   2.827   2.999   2.258  0.0819 -2.3470 -1.0498
 8452SOL    HW236819   2.896   3.025   2.133 -0.1691 -1.2977 -0.4789
 8453SOL     OW36820   4.670   2.180  15.772 -0.4231  0.2849 -0.3817
 8453SOL    HW136821   4.650   2.271  15.795 -2.0379  0.2544 -1.6199
 8453SOL    HW236822   4.611   2.157  15.700 -0.1687 -1.7015  0.0628
 8454SOL     OW36823   1.218   2.211  15.816  0.1665 -0.4998 -0.7174
 8454SOL    HW136824   1.246   2.125  15.849  0.4945  0.7745  2.3578
 8454SOL    HW236825   1.295   2.243  15.770  2.3999 -2.5489  1.5448
 8455SOL     OW36826   0.560   1.247   5.569  0.3667 -0.6190 -0.0713
 8455SOL    HW136827   0.583   1.328   5.523  1.4540 -0.0767  1.4423
 8455SOL    HW236828   0.552   1.184   5.497 -0.3574 -2.1981  1.3924
 8456SOL     OW36829   0.153   0.232  14.960  0.7957  0.1653 -0.1832
 8456SOL    HW136830   0.110   0.316  14.977 -0.5361 -1.2658  3.3708
 8456SOL    HW236831   0.121   0.217  14.871  2.0730 -1.0953 -0.4223
 8457SOL     OW36832   1.152   2.042   1.227 -0.2773 -0.5244  0.4475
 8457SOL    HW136833   1.146   2.090   1.309 -0.9158 -0.0361  0.1098
 8457SOL    HW236834   1.059   2.025   1.217  0.4682 -3.5018 -1.3695
 8458SOL     OW36835   2.818   1.463  16.740  0.2647  0.1692 -0.7430
 8458SOL    HW136836   2.743   1.522  16.748  0.6001  0.4743  0.1907
 8458SOL    HW236837   2.793   1.421  16.658 -0.6478 -1.5178  0.4060
 8459SOL     OW36838   3.897   4.345   4.257  0.1690  0.1531 -0.3603
 8459SOL    HW136839   3.899   4.402   4.179  0.5292  1.0220  0.2788
 8459SOL    HW236840   3.948   4.404   4.313 -1.2489 -0.1412  1.2436
 8460SOL     OW36841   2.436   1.090  12.557 -0.2920 -0.3713  0.2453
 8460SOL    HW136842   2.500   1.136  12.612  0.7251 -1.3564 -0.1106
 8460SOL    HW236843   2.460   0.998  12.547 -1.1838 -0.6702  0.8890
 8461SOL     OW36844   2.294   2.821   3.863 -0.4315 -0.8158 -0.3348
 8461SOL    HW136845   2.295   2.858   3.775  0.0944 -1.3342 -0.5457
 8461SOL    HW236846   2.205   2.794   3.886 -0.8269 -0.5265 -1.5364
 8462SOL     OW36847   3.672   2.834   1.877 -0.0883 -0.3850  0.5813
 8462SOL    HW136848   3.620   2.899   1.831  0.9617  0.3782  0.4618
 8462SOL    HW236849   3.609   2.817   1.947  1.1065  0.0426  1.7772
 8463SOL     OW36850   1.166   1.659   7.445  0.6482 -0.8518  0.2315
 8463SOL    HW136851   1.166   1.675   7.539  1.9836 -0.4327  0.1498
 8463SOL    HW236852   1.213   1.577   7.431 -1.1600 -1.5032 -2.0833
 8464SOL     OW36853   4.235   2.232   9.994  0.3711 -0.2367 -0.1422
 8464SOL    HW136854   4.183   2.291  10.047  1.5955 -1.6604  2.6813
 8464SOL    HW236855   4.205   2.152  10.038  2.4239 -1.8555 -1.6164
 8465SOL     OW36856   4.392   4.178   8.705  0.3634 -0.0138 -0.3383
 8465SOL    HW136857   4.394   4.182   8.800  1.1988 -2.6630 -0.2323
 8465SOL    HW236858   4.453   4.106   8.688  1.3561  0.1456  2.6931
 8466SOL     OW36859   3.292   0.754   4.521 -0.4598  0.2139  0.3171
 8466SOL    HW136860   3.308   0.833   4.573  1.4433 -0.8599  1.3648
 8466SOL    HW236861   3.350   0.692   4.567  0.4797  0.9089  0.0585
 8467SOL     OW36862   4.532   0.505  13.461  0.1181  0.7656  0.0778
 8467SOL    HW136863   4.494   0.425  13.498 -2.1703  1.4336 -0.8016
 8467SOL    HW236864   4.624   0.491  13.482 -0.2878  3.2024  3.3855
 8468SOL     OW36865   2.982   0.490   4.186 -0.2633  0.2569  0.5569
 8468SOL    HW136866   3.064   0.530   4.215  0.1939  0.7337 -1.4038
 8468SOL    HW236867   2.978   0.407   4.233  0.1394 -1.7998 -3.0740
 8469SOL     OW36868   4.632   0.905   8.623 -0.4634 -0.3315  0.1264
 8469SOL    HW136869   4.549   0.889   8.668 -0.9621  2.0606  0.0447
 8469SOL    HW236870   4.600   0.951   8.545 -0.0817  1.4725  1.0471
 8470SOL     OW36871   4.642   1.674  13.829 -0.2981 -0.6669  0.2041
 8470SOL    HW136872   4.643   1.685  13.734  3.2850  0.1828  0.3216
 8470SOL    HW236873   4.678   1.586  13.838  3.1692  0.8434  1.3142
 8471SOL     OW36874   0.206   2.161   9.580  0.0400 -0.0140  0.0159
 8471SOL    HW136875   0.271   2.182   9.647  0.7248 -0.5729 -0.4757
 8471SOL    HW236876   0.266   2.118   9.520  0.3799  0.7360 -0.1726
 8472SOL     OW36877   4.718   1.871   8.578 -0.0525  0.0948 -0.3175
 8472SOL    HW136878   4.681   1.942   8.526 -1.0306  0.4100  0.7903
 8472SOL    HW236879   4.642   1.823   8.613 -0.1320 -0.3282 -1.0760
 8473SOL     OW36880   1.416   4.629   8.363  0.0557 -0.4730  0.0476
 8473SOL    HW136881   1.417   4.534   8.376 -0.3186 -0.6366 -1.1546
 8473SOL    HW236882   1.322   4.646   8.364  0.2270  0.4607  0.8223
 8474SOL     OW36883   3.863   1.587   9.398  0.0074 -0.5176 -0.0550
 8474SOL    HW136884   3.802   1.623   9.334  0.6141  1.3367  0.4072
 8474SOL    HW236885   3.929   1.656   9.406 -0.1050 -0.5317  0.9683
 8475SOL     OW36886   1.729   2.041   5.003 -0.4650 -0.7583  0.1702
 8475SOL    HW136887   1.673   1.981   5.051  0.4636 -1.2023  0.7034
 8475SOL    HW236888   1.687   2.039   4.917 -0.2758  2.5224 -0.0205
 8476SOL     OW36889   3.042   3.003   2.075  0.5218  0.2549  0.2668
 8476SOL    HW136890   3.120   2.949   2.088 -0.3556 -1.4826 -1.5808
 8476SOL    HW236891   3.072   3.059   2.004 -0.9387  1.0595  0.2839
 8477SOL     OW36892   3.607   1.701   4.760 -0.4410 -0.1085  0.5452
 8477SOL    HW136893   3.625   1.607   4.764 -1.5790 -0.3771 -0.4545
 8477SOL    HW236894   3.638   1.731   4.845  0.6598  0.8228 -0.1804
 8478SOL     OW36895   3.002   3.934   1.870 -0.7213  0.3052  0.3449
 8478SOL    HW136896   2.996   3.982   1.953  2.1909 -1.0062  1.3139
 8478SOL    HW236897   3.003   4.003   1.804  1.0378  0.2924  0.3391
 8479SOL     OW36898   4.714   1.520  15.789  0.0483 -0.5771 -0.3300
 8479SOL    HW136899   4.668   1.512  15.872  0.4766 -0.3436 -0.0719
 8479SOL    HW236900   4.700   1.432  15.755  0.3810 -0.9679  0.5541
 8480SOL     OW36901   0.821   0.337  12.899  0.1226 -0.7047  0.2653
 8480SOL    HW136902   0.778   0.306  12.819 -2.1348 -0.7003  1.4956
 8480SOL    HW236903   0.872   0.416  12.876 -0.5281 -0.8077 -1.5488
 8481SOL     OW36904   2.928   0.327  14.139 -0.4638 -0.0212 -0.0502
 8481SOL    HW136905   3.007   0.275  14.124 -0.8019 -0.3378 -0.6979
 8481SOL    HW236906   2.931   0.332  14.235 -0.2024 -1.1415 -0.0014
 8482SOL     OW36907   1.209   3.973   1.676 -0.0571  0.3171  0.0029
 8482SOL    HW136908   1.231   3.941   1.589 -0.0992  1.4164 -0.4101
 8482SOL    HW236909   1.291   4.020   1.686  1.5155 -2.6763  1.0093
 8483SOL     OW36910   2.990   4.062   2.141 -0.1329 -0.4269  0.2363
 8483SOL    HW136911   2.994   4.007   2.219 -4.1483 -1.6973 -0.4464
 8483SOL    HW236912   3.028   4.143   2.174  0.2261 -0.1464 -0.8794
 8484SOL     OW36913   2.874   0.740   5.830  0.4421 -0.3617 -0.8749
 8484SOL    HW136914   2.901   0.737   5.921  0.3307 -2.0572 -0.9021
 8484SOL    HW236915   2.795   0.689   5.845  0.9421 -0.1145  2.4044
 8485SOL     OW36916   2.370   3.072  17.651 -0.3909  0.2050  0.2470
 8485SOL    HW136917   2.283   3.056  17.614 -0.0580 -0.6326 -0.1828
 8485SOL    HW236918   2.403   2.982  17.657 -1.4689 -0.3797 -2.3820
 8486SOL     OW36919   2.687   0.385   2.924 -1.2176  0.5763  0.3542
 8486SOL    HW136920   2.616   0.358   2.867  1.5141 -3.8557 -0.9740
 8486SOL    HW236921   2.643   0.406   3.006  1.2576  0.6267  1.6961
 8487SOL     OW36922   1.018   4.065   7.762 -0.6952 -0.0633 -0.0404
 8487SOL    HW136923   1.045   4.155   7.743  1.4582 -0.8826 -0.8581
 8487SOL    HW236924   0.979   4.040   7.678  0.1210 -1.1618 -0.0968
 8488SOL     OW36925   3.141   0.399  16.696 -0.1144 -0.1207 -0.7424
 8488SOL    HW136926   3.196   0.472  16.723  2.6449 -2.3476 -0.3860
 8488SOL    HW236927   3.209   0.334  16.712 -0.3705 -0.8044 -2.4205
 8489SOL     OW36928   0.289   1.335   4.138  0.1218  0.1511  0.2251
 8489SOL    HW136929   0.280   1.401   4.208 -2.7711 -1.6694  1.5549
 8489SOL    HW236930   0.376   1.303   4.161  0.2349  0.5949  0.4269
 8490SOL     OW36931   1.795   1.238   0.541  0.0750 -0.0872 -0.4410
 8490SOL    HW136932   1.790   1.211   0.449  0.3607  0.8520 -0.7426
 8490SOL    HW236933   1.839   1.162   0.578  2.2597  1.1288 -0.4988
 8491SOL     OW36934   3.152   2.397   2.103  0.6186 -0.0154  0.6882
 8491SOL    HW136935   3.235   2.443   2.089  1.0672 -0.8649  0.5131
 8491SOL    HW236936   3.146   2.352   2.018 -2.1073  2.5551 -0.4713
 8492SOL     OW36937   2.062   2.053  10.850  0.2004  0.4985  0.0504
 8492SOL    HW136938   1.988   2.039  10.790  0.5500 -1.3124  0.0391
 8492SOL    HW236939   2.123   2.097  10.792 -0.4453  2.8872  1.2078
 8493SOL     OW36940   4.560   3.389   8.064  0.0108 -0.0540  0.4019
 8493SOL    HW136941   4.654   3.370   8.060 -0.2829 -0.9554 -2.5650
 8493SOL    HW236942   4.529   3.378   7.974 -0.0952  1.5945  0.2335
 8494SOL     OW36943   3.629   3.173   5.952  0.2175 -0.1032  0.1192
 8494SOL    HW136944   3.563   3.112   5.984 -0.0007  0.4601  0.7261
 8494SOL    HW236945   3.567   3.228   5.905 -1.1656 -1.1804  0.6795
 8495SOL     OW36946   3.431   1.833   0.717 -0.4788  0.0119  0.9042
 8495SOL    HW136947   3.354   1.777   0.724 -0.9786  0.6877  0.8605
 8495SOL    HW236948   3.496   1.772   0.753  0.6832  1.2352  0.8847
 8496SOL     OW36949   3.907   2.567   8.314 -0.1354  0.9945  0.5929
 8496SOL    HW136950   3.871   2.652   8.290 -2.9071 -1.5447 -4.2889
 8496SOL    HW236951   3.834   2.527   8.363 -0.3939  0.4870 -0.1979
 8497SOL     OW36952   3.113   3.220   3.025 -0.6820 -0.1840 -0.5763
 8497SOL    HW136953   3.064   3.297   3.053 -0.4326  0.2518 -1.3360
 8497SOL    HW236954   3.198   3.240   3.064 -1.1988  0.4644  0.2183
 8498SOL     OW36955   3.101   3.988   4.275  0.6517  0.1410  0.3140
 8498SOL    HW136956   3.130   4.062   4.221 -0.3467  0.3205  0.0252
 8498SOL    HW236957   3.190   3.982   4.312 -0.1134  0.0976  2.1368
 8499SOL     OW36958   4.316   1.684   6.708 -0.3610  0.1401 -0.5285
 8499SOL    HW136959   4.281   1.742   6.641  1.7469 -0.5382 -2.1909
 8499SOL    HW236960   4.252   1.709   6.775 -1.0289 -0.4279 -0.9426
 8500SOL     OW36961   1.308   0.127   5.379  0.1833 -0.2250  0.1400
 8500SOL    HW136962   1.374   0.126   5.309 -0.1649  0.6580 -0.2057
 8500SOL    HW236963   1.234   0.088   5.332 -0.3378  2.4575 -1.2442
 8501SOL     OW36964   1.409   0.622   1.186  0.3167  0.1968 -0.2497
 8501SOL    HW136965   1.497   0.587   1.177  0.4114  0.4474 -0.3016
 8501SOL    HW236966   1.352   0.553   1.154 -0.6519 -0.5749  3.0925
 8502SOL     OW36967   0.713   2.946   8.230 -0.2238  0.0009 -0.0858
 8502SOL    HW136968   0.637   2.973   8.180 -0.3554 -1.0306 -0.4392
 8502SOL    HW236969   0.693   2.853   8.223  1.0595 -0.1497 -1.7085
 8503SOL     OW36970   1.766   1.364   7.137  0.2997  0.4516  0.2113
 8503SOL    HW136971   1.759   1.431   7.069 -0.6797  0.7111  0.5530
 8503SOL    HW236972   1.796   1.409   7.216  3.1779  1.8584 -1.7254
 8504SOL     OW36973   4.010   0.430   7.190 -0.2116 -0.0616  0.4419
 8504SOL    HW136974   4.016   0.456   7.098  1.6700  2.2219  1.1955
 8504SOL    HW236975   4.042   0.509   7.234 -0.2665  1.2617 -1.8592
 8505SOL     OW36976   0.414   0.018   5.498 -0.1162 -0.1452  0.5799
 8505SOL    HW136977   0.491   4.720   5.548 -0.5912 -1.9121  0.4109
 8505SOL    HW236978   0.350   4.702   5.554 -1.0901 -0.5224 -0.8174
 8506SOL     OW36979   1.351   1.444  16.736  0.7413  0.6339 -0.0714
 8506SOL    HW136980   1.271   1.493  16.718  0.1023  0.2899  1.7484
 8506SOL    HW236981   1.423   1.481  16.685  1.8899 -0.3141  0.8531
 8507SOL     OW36982   0.681   2.131   8.474  0.3426 -0.8575  0.3903
 8507SOL    HW136983   0.696   2.109   8.566 -0.6122  0.3387  0.8314
 8507SOL    HW236984   0.754   2.080   8.440  0.0674 -2.3760  2.0834
 8508SOL     OW36985   1.364   0.837  14.717 -0.0554  0.0373  0.0367
 8508SOL    HW136986   1.384   0.779  14.792 -1.4492  0.4029  0.6896
 8508SOL    HW236987   1.287   0.790  14.686  0.2350 -0.5393  0.1804
 8509SOL     OW36988   0.342   2.165  10.050  0.2490 -0.1439  0.1429
 8509SOL    HW136989   0.340   2.171   9.954 -1.2325 -1.0164  0.1238
 8509SOL    HW236990   0.272   2.227  10.069  1.3792  1.0267  0.4808
 8510SOL     OW36991   2.506   1.852   1.948 -0.3210 -0.4681 -0.1512
 8510SOL    HW136992   2.502   1.938   1.991 -0.2586 -0.1716 -0.7346
 8510SOL    HW236993   2.559   1.799   2.007 -1.7798 -1.6878  0.0541
 8511SOL     OW36994   4.716   2.455   9.044  0.2772 -0.6377 -0.7396
 8511SOL    HW136995   0.076   2.426   9.018 -0.2646 -1.6877 -1.3994
 8511SOL    HW236996   4.692   2.388   9.108 -0.9180  2.4577  2.0383
 8512SOL     OW36997   2.914   1.651   6.419  0.3093  0.1272  0.9182
 8512SOL    HW136998   2.832   1.601   6.424 -0.6785  1.9183  2.6868
 8512SOL    HW236999   2.973   1.591   6.374  0.7267  0.4148  1.0753
 8513SOL     OW37000   2.665   0.784   4.482 -0.4646  0.3538  0.6621
 8513SOL    HW137001   2.697   0.874   4.475 -0.6587  0.4795  1.3826
 8513SOL    HW237002   2.676   0.771   4.576  2.4790 -2.0126 -0.0185
 8514SOL     OW37003   4.153   2.963   8.259 -0.1226 -0.6404 -0.5132
 8514SOL    HW137004   4.135   2.903   8.186  0.1867 -0.1852 -0.9687
 8514SOL    HW237005   4.225   2.916   8.303  0.6011  0.5636 -0.4257
 8515SOL     OW37006   1.292   3.364   0.718 -0.4854 -0.1295 -0.1180
 8515SOL    HW137007   1.314   3.335   0.806 -0.6945 -0.6897 -0.2453
 8515SOL    HW237008   1.324   3.453   0.727 -0.0273 -0.3041 -0.0129
 8516SOL     OW37009   2.130   2.299  14.548 -0.0749 -0.3264  0.4568
 8516SOL    HW137010   2.038   2.275  14.534  0.2450 -0.8840 -0.6707
 8516SOL    HW237011   2.165   2.295  14.459 -0.2310 -0.4019  0.3979
 8517SOL     OW37012   3.553   2.990   0.685 -0.3071  0.1392  0.5791
 8517SOL    HW137013   3.593   3.034   0.610 -1.2317 -1.4951 -0.8765
 8517SOL    HW237014   3.586   2.902   0.665 -0.9336  0.0428 -0.0528
 8518SOL     OW37015   3.902   0.412   1.032 -0.5415 -0.0370 -0.2233
 8518SOL    HW137016   3.857   0.467   0.968 -0.9656 -0.9966 -0.7552
 8518SOL    HW237017   3.840   0.407   1.104  1.7653  0.0946  1.7655
 8519SOL     OW37018   2.628   0.696   8.219 -0.8527 -0.5687  0.3235
 8519SOL    HW137019   2.714   0.656   8.234 -0.5498  0.0156  0.1770
 8519SOL    HW237020   2.567   0.651   8.277  0.7652 -3.9640 -0.6511
 8520SOL     OW37021   1.941   1.844   8.778 -0.0956  0.4862 -0.0737
 8520SOL    HW137022   1.857   1.845   8.824 -0.7172  2.2499 -1.2308
 8520SOL    HW237023   1.984   1.771   8.823 -2.7712  0.1856  1.9845
 8521SOL     OW37024   4.304   2.352  12.866 -0.1840 -0.3908  0.5098
 8521SOL    HW137025   4.276   2.272  12.822 -1.7294  1.5804 -2.1323
 8521SOL    HW237026   4.308   2.417  12.796 -0.3087 -2.4196 -1.3432
 8522SOL     OW37027   2.804   2.408   4.828  0.4678  0.2022 -0.0060
 8522SOL    HW137028   2.808   2.480   4.891 -3.1897 -0.0440  0.4977
 8522SOL    HW237029   2.785   2.453   4.746  0.9606 -1.3168 -0.9504
 8523SOL     OW37030   4.197   2.754   6.583  0.1491  0.7269  0.2255
 8523SOL    HW137031   4.235   2.842   6.572 -3.5973  2.6617  2.6052
 8523SOL    HW237032   4.177   2.757   6.677 -1.1934 -0.2525 -0.0460
 8524SOL     OW37033   2.992   2.115   4.999  0.2023 -0.3607 -0.4450
 8524SOL    HW137034   2.899   2.092   5.005  0.4597 -1.6354 -1.3555
 8524SOL    HW237035   2.992   2.174   4.924 -0.9122  1.5175  1.0140
 8525SOL     OW37036   1.511   2.978   9.473  0.7293 -0.5852  0.1036
 8525SOL    HW137037   1.458   2.905   9.440 -0.6059  0.4440 -0.0467
 8525SOL    HW237038   1.508   3.044   9.404  0.9642  0.1369  0.7772
 8526SOL     OW37039   3.938   0.451  14.413 -0.5400  0.0274 -0.1203
 8526SOL    HW137040   3.974   0.526  14.463 -2.2877  1.0212 -0.3608
 8526SOL    HW237041   3.993   0.459  14.335 -0.2590  1.2361  0.1916
 8527SOL     OW37042   4.398   0.787   7.849 -0.2648 -0.0908  0.0879
 8527SOL    HW137043   4.418   0.870   7.807 -1.6249 -0.0067 -0.3920
 8527SOL    HW237044   4.302   0.786   7.854 -0.2848  1.2631  0.0218
 8528SOL     OW37045   2.575   4.074   3.799 -0.0692 -0.6295 -0.6010
 8528SOL    HW137046   2.502   4.031   3.845  0.1869  0.9093  1.2747
 8528SOL    HW237047   2.541   4.085   3.711  2.6773  1.2292 -1.4225
 8529SOL     OW37048   2.237   0.884   7.947 -0.6039  0.2213 -0.1709
 8529SOL    HW137049   2.307   0.827   7.915  0.3679  2.7849 -2.5476
 8529SOL    HW237050   2.257   0.878   8.041 -1.0937 -1.1691 -0.1488
 8530SOL     OW37051   4.027   3.381  13.586  0.0607  0.5514  0.0049
 8530SOL    HW137052   3.965   3.454  13.595 -1.8388 -0.8002 -1.9951
 8530SOL    HW237053   3.996   3.339  13.505  0.7840  1.1202 -0.5665
 8531SOL     OW37054   4.487   2.212   7.875  0.3289  0.3264  0.0967
 8531SOL    HW137055   4.532   2.138   7.833  0.0285 -0.6983  1.5914
 8531SOL    HW237056   4.504   2.290   7.823  0.5760  1.6226  2.1452
 8532SOL     OW37057   1.210   3.592  11.570 -0.2502 -1.1397 -0.1744
 8532SOL    HW137058   1.197   3.549  11.486  1.6474 -1.0182 -0.5192
 8532SOL    HW237059   1.287   3.541  11.596  0.8775  1.5819  1.8314
 8533SOL     OW37060   1.867   2.753   3.292 -1.1866  0.1598 -0.2127
 8533SOL    HW137061   1.796   2.702   3.253 -1.2149  0.5880 -0.7126
 8533SOL    HW237062   1.948   2.706   3.271 -0.4824  1.2131  0.1473
 8534SOL     OW37063   0.723   0.548   1.868 -0.6739  0.8058  0.0812
 8534SOL    HW137064   0.753   0.637   1.849 -0.9321  0.7498 -0.5919
 8534SOL    HW237065   0.802   0.496   1.852 -0.0942  1.4933  0.7234
 8535SOL     OW37066   0.167   1.805   1.666 -0.1107 -0.3077 -0.0774
 8535SOL    HW137067   0.129   1.722   1.639 -1.5463  0.4855 -0.4647
 8535SOL    HW237068   0.134   1.807   1.756 -0.9910  0.8472 -0.4354
 8536SOL     OW37069   2.776   4.501  11.538 -0.3998 -0.4816  0.1129
 8536SOL    HW137070   2.806   4.471  11.452 -1.5163 -1.5908  0.1041
 8536SOL    HW237071   2.723   4.577  11.514  1.0721  0.8982  1.2580
 8537SOL     OW37072   1.949   3.130   5.599 -0.3596  0.3445 -0.6893
 8537SOL    HW137073   1.875   3.110   5.657 -1.8999  1.9692 -2.1065
 8537SOL    HW237074   1.980   3.213   5.634 -0.0642 -0.0439 -0.0257
 8538SOL     OW37075   0.224   2.846   5.620  0.3452  0.4217 -0.2643
 8538SOL    HW137076   0.264   2.902   5.686  3.0930 -3.2738  1.1959
 8538SOL    HW237077   0.143   2.895   5.604 -0.1010  0.8686  3.3004
 8539SOL     OW37078   0.944   4.668   2.407 -0.2678  0.3443 -0.2566
 8539SOL    HW137079   0.904   4.685   2.492  2.0603 -0.2434  0.9597
 8539SOL    HW237080   0.957   0.029   2.374  1.1204 -0.1826 -1.1213
 8540SOL     OW37081   2.225   0.133   2.053 -0.0831  0.0426 -0.3260
 8540SOL    HW137082   2.259   0.222   2.061  0.4450 -0.2876  1.1240
 8540SOL    HW237083   2.135   0.131   2.085 -0.3819 -1.6033 -1.2296
 8541SOL     OW37084   1.351   3.701   9.599 -0.4451  0.0881  0.0608
 8541SOL    HW137085   1.366   3.618   9.645  3.0064  1.2770  1.0286
 8541SOL    HW237086   1.400   3.763   9.652  2.1291  0.0450 -2.3084
 8542SOL     OW37087   2.891   0.154  11.852 -0.2834  0.3781 -0.1083
 8542SOL    HW137088   2.978   0.167  11.813 -1.4883  2.2811 -2.1936
 8542SOL    HW237089   2.908   0.122  11.941 -0.1863  2.3014  0.5549
 8543SOL     OW37090   3.600   2.828   4.394  0.4155 -0.8387  0.4152
 8543SOL    HW137091   3.627   2.905   4.344  0.1619 -0.6069  0.6344
 8543SOL    HW237092   3.683   2.798   4.432  2.3711  2.5492 -1.1196
 8544SOL     OW37093   1.125   0.160   2.944  0.1827  0.0221  0.8821
 8544SOL    HW137094   1.138   0.083   2.999  0.6182 -1.1738 -0.8985
 8544SOL    HW237095   1.098   0.230   3.004  1.3789  2.6552 -1.6408
 8545SOL     OW37096   4.076   3.573   8.650 -0.6796  0.3390  0.1830
 8545SOL    HW137097   4.088   3.481   8.628 -0.7925  0.4322 -0.2568
 8545SOL    HW237098   4.049   3.613   8.568 -0.9949 -0.3830 -0.0672
 8546SOL     OW37099   1.430   1.841   7.059 -0.8380  0.3804  0.5375
 8546SOL    HW137100   1.412   1.935   7.048 -0.5381  0.5512  1.4468
 8546SOL    HW237101   1.360   1.825   7.122 -1.3671  0.1376 -0.1164
 8547SOL     OW37102   4.180   1.149   6.645  0.2566  0.4565  0.2897
 8547SOL    HW137103   4.183   1.074   6.586 -3.1932  0.4010  0.2069
 8547SOL    HW237104   4.257   1.195   6.612  0.2831 -0.4999 -0.9521
 8548SOL     OW37105   2.735   2.227   8.069  0.7068  0.5902  0.5051
 8548SOL    HW137106   2.673   2.217   7.997 -0.4897  1.1019  1.4685
 8548SOL    HW237107   2.798   2.159   8.046  1.5638  1.3653  0.5398
 8549SOL     OW37108   3.110   4.451  15.921 -0.1903 -0.2544  0.7687
 8549SOL    HW137109   3.124   4.376  15.980 -0.1256 -0.4835  0.4646
 8549SOL    HW237110   3.015   4.446  15.907  0.2838  1.2694 -2.9749
 8550SOL     OW37111   1.875   3.260   6.381 -0.2920  0.2312 -0.4548
 8550SOL    HW137112   1.868   3.168   6.404  0.3146  0.2446 -0.2220
 8550SOL    HW237113   1.901   3.250   6.289  1.6988  0.6751  0.0668
 8551SOL     OW37114   4.349   4.246   7.264 -0.2976 -0.5902  0.1747
 8551SOL    HW137115   4.381   4.302   7.193 -4.1430  0.9043 -0.3966
 8551SOL    HW237116   4.412   4.268   7.332 -0.0280 -1.0265  0.0677
 8552SOL     OW37117   0.252   0.901  15.128  0.1832 -0.1222  0.0970
 8552SOL    HW137118   0.323   0.859  15.176  2.0592  2.0970 -0.7222
 8552SOL    HW237119   0.232   0.827  15.071  0.6783 -0.9672  1.0480
 8553SOL     OW37120   1.562   2.790  11.478 -0.0996 -0.6992 -0.0021
 8553SOL    HW137121   1.595   2.776  11.389 -1.7920 -1.7093 -0.4600
 8553SOL    HW237122   1.556   2.885  11.484  2.8334 -0.3412 -2.7112
 8554SOL     OW37123   4.029   1.024  12.281  0.0979  0.6433  0.3185
 8554SOL    HW137124   3.997   1.111  12.258  1.7394  1.0670 -0.3535
 8554SOL    HW237125   3.956   0.969  12.255  0.3420  0.3188  0.3170
 8555SOL     OW37126   4.283   1.523   6.090 -0.3479 -0.3912 -0.4422
 8555SOL    HW137127   4.358   1.466   6.103  0.4936  0.7573 -0.2214
 8555SOL    HW237128   4.311   1.569   6.011 -3.6867  2.4861  0.0363
 8556SOL     OW37129   2.605   0.745  11.002  0.5385 -0.0542 -0.2013
 8556SOL    HW137130   2.611   0.665  10.950 -0.4619 -1.5503  1.9800
 8556SOL    HW237131   2.519   0.780  10.981  0.5147  0.3534  0.5711
 8557SOL     OW37132   3.544   1.701   1.978  0.3496  0.6259 -0.3639
 8557SOL    HW137133   3.580   1.649   1.906 -0.2511  0.1343 -0.3155
 8557SOL    HW237134   3.574   1.641   2.046 -2.6375  0.1252  0.5492
 8558SOL     OW37135   0.975   4.355  11.787 -0.2082 -0.4379 -0.0870
 8558SOL    HW137136   0.916   4.357  11.711 -1.5518 -0.0602  0.9673
 8558SOL    HW237137   1.052   4.394  11.746  0.6431 -0.0470  1.9099
 8559SOL     OW37138   2.406   2.473   8.710  0.1638  0.0901  0.2108
 8559SOL    HW137139   2.391   2.476   8.615 -0.4802  0.5956  0.3262
 8559SOL    HW237140   2.334   2.418   8.740 -0.4604  1.8389  1.8995
 8560SOL     OW37141   0.817   3.249   6.340  0.0134 -0.0347  0.3488
 8560SOL    HW137142   0.905   3.224   6.365  0.3101  0.5794 -0.0816
 8560SOL    HW237143   0.813   3.332   6.388 -1.9140 -0.5478  1.0860
 8561SOL     OW37144   3.459   2.535   3.893  0.0668  0.5404 -0.5385
 8561SOL    HW137145   3.523   2.511   3.826 -1.2988  0.0610 -1.6718
 8561SOL    HW237146   3.465   2.630   3.885  1.0878  0.3258 -2.4330
 8562SOL     OW37147   4.102   3.038   5.757  0.0994 -0.1743  0.0659
 8562SOL    HW137148   4.045   3.006   5.827 -1.4629 -0.6981 -1.4369
 8562SOL    HW237149   4.163   2.966   5.742 -1.1145 -1.1492 -0.2078
 8563SOL     OW37150   2.652   1.731   2.128  0.0299 -0.6174 -0.4902
 8563SOL    HW137151   2.659   1.750   2.222  0.0398 -0.2419 -0.5677
 8563SOL    HW237152   2.692   1.644   2.124  1.5639  0.0556  0.1113
 8564SOL     OW37153   3.238   1.426  12.688  0.3512  0.2366 -0.2021
 8564SOL    HW137154   3.143   1.410  12.686  0.8573 -2.6310 -1.0289
 8564SOL    HW237155   3.249   1.519  12.710 -0.4213  0.2017  0.3656
 8565SOL     OW37156   0.739   1.621  16.466  0.1291 -0.2563  0.6038
 8565SOL    HW137157   0.808   1.686  16.458 -0.8479  0.6384 -0.5041
 8565SOL    HW237158   0.706   1.609  16.377 -4.0262  1.6800  1.8946
 8566SOL     OW37159   1.005   2.089   8.565  0.0602 -0.0663 -0.1166
 8566SOL    HW137160   1.066   2.161   8.550 -0.4531  0.1411 -1.2405
 8566SOL    HW237161   1.052   2.009   8.543 -1.1994 -0.2238 -2.2639
 8567SOL     OW37162   3.824   1.013  16.319  0.5344  0.4936 -0.6307
 8567SOL    HW137163   3.819   0.938  16.378 -0.8667  1.0778 -0.0245
 8567SOL    HW237164   3.778   0.978  16.243  1.1923 -1.1964 -0.2510
 8568SOL     OW37165   3.431   0.333   4.727 -0.4613 -0.2687 -0.0667
 8568SOL    HW137166   3.452   0.350   4.819 -3.5156  0.7795  0.4266
 8568SOL    HW237167   3.397   0.243   4.733 -0.7176 -0.1398  0.4342
 8569SOL     OW37168   3.833   0.242   3.869  0.1514  0.6921 -0.1440
 8569SOL    HW137169   3.901   0.218   3.806 -1.2666 -2.2219 -0.5892
 8569SOL    HW237170   3.821   0.332   3.839  0.8225 -0.0583 -2.6678
 8570SOL     OW37171   4.050   1.208  16.682 -0.2211 -0.7155  0.2396
 8570SOL    HW137172   4.143   1.229  16.681 -0.1588 -1.1663 -2.4387
 8570SOL    HW237173   4.025   1.218  16.774  0.8477  2.2447  0.1920
 8571SOL     OW37174   1.974   1.624   4.190  0.4784  0.0232  0.2557
 8571SOL    HW137175   1.946   1.700   4.139 -4.0794 -0.4058  2.0655
 8571SOL    HW237176   2.065   1.641   4.214  0.5168  3.6887 -2.3600
 8572SOL     OW37177   1.244   4.566   3.358  0.2155  0.5444 -0.2002
 8572SOL    HW137178   1.228   4.515   3.278 -1.5603 -0.5073  0.8270
 8572SOL    HW237179   1.171   4.541   3.415 -0.9445  0.5222 -1.6918
 8573SOL     OW37180   4.498   3.720   7.272 -0.3631  0.0686  0.2516
 8573SOL    HW137181   4.475   3.664   7.347 -2.1244  0.9625  0.3654
 8573SOL    HW237182   4.414   3.725   7.227  0.7974 -1.9685 -2.1019
 8574SOL     OW37183   0.893   1.474   4.626 -0.1103  0.1957 -0.4233
 8574SOL    HW137184   0.949   1.505   4.697 -0.1757 -1.0440  0.1700
 8574SOL    HW237185   0.908   1.541   4.560 -0.0734  0.9227  0.3259
 8575SOL     OW37186   3.320   1.789   2.619  1.1876 -0.1472 -0.3702
 8575SOL    HW137187   3.344   1.813   2.529 -1.4758  0.0093 -1.0377
 8575SOL    HW237188   3.226   1.806   2.623  0.3963 -3.9336 -2.3539
 8576SOL     OW37189   3.947   3.547   0.624 -0.2678  0.0912 -0.4912
 8576SOL    HW137190   3.980   3.495   0.551 -0.2960  1.5067 -1.5196
 8576SOL    HW237191   3.995   3.630   0.613 -2.0634  1.0820 -0.8225
 8577SOL     OW37192   0.132   0.907   8.148  0.3507 -0.7271 -0.1094
 8577SOL    HW137193   0.118   0.855   8.069  0.2306  1.2041 -1.3659
 8577SOL    HW237194   0.177   0.988   8.125 -1.2817  0.7854  1.9804
 8578SOL     OW37195   3.603   2.437  12.514  0.3750  0.4865 -0.2754
 8578SOL    HW137196   3.521   2.486  12.507  0.6865  1.0531 -0.0377
 8578SOL    HW237197   3.656   2.485  12.450  0.0026 -1.3518 -1.9410
 8579SOL     OW37198   4.092   1.437  15.810 -0.1344  0.2180 -0.7060
 8579SOL    HW137199   4.115   1.388  15.731  2.5039  0.8038 -0.2998
 8579SOL    HW237200   4.058   1.517  15.769 -1.6741  1.8457  3.7005
 8580SOL     OW37201   3.454   2.785   5.310 -0.5401 -0.8510  0.3441
 8580SOL    HW137202   3.427   2.807   5.221  3.5633  0.1555 -0.6660
 8580SOL    HW237203   3.500   2.862   5.342  1.3542 -0.4682 -3.3417
 8581SOL     OW37204   1.851   2.673   8.985 -0.1067  0.0250  0.7340
 8581SOL    HW137205   1.830   2.707   9.072  2.3555 -0.0019  1.3600
 8581SOL    HW237206   1.796   2.721   8.923 -1.7328 -0.1744  2.0364
 8582SOL     OW37207   2.876   4.095   8.193  0.2027  0.2721  0.4123
 8582SOL    HW137208   2.969   4.117   8.193 -0.5543  3.5233  1.9899
 8582SOL    HW237209   2.868   4.048   8.276  1.0248  2.5646  1.8024
 8583SOL     OW37210   1.671   3.259  13.165 -0.0265 -0.1268 -0.2786
 8583SOL    HW137211   1.658   3.307  13.246 -1.4094  0.8827 -1.1197
 8583SOL    HW237212   1.580   3.241  13.145 -0.3161 -1.1420  1.9340
 8584SOL     OW37213   3.037   2.270   4.749 -0.5083 -0.1502 -0.7613
 8584SOL    HW137214   3.078   2.332   4.689 -0.8160  0.0939 -0.7220
 8584SOL    HW237215   2.949   2.305   4.765 -0.5993 -1.2099  1.0184
 8585SOL     OW37216   4.447   2.680   5.100  0.0009 -0.4015  0.3888
 8585SOL    HW137217   4.485   2.733   5.030 -1.6346  1.8269  1.2264
 8585SOL    HW237218   4.517   2.672   5.164  0.0082 -3.0654  0.0839
 8586SOL     OW37219   2.902   0.124   7.665  0.4557  0.2161 -0.4733
 8586SOL    HW137220   2.809   0.111   7.682  0.0624  2.5049 -0.8264
 8586SOL    HW237221   2.920   0.219   7.662  0.6269  0.2159  0.8830
 8587SOL     OW37222   1.369   2.564  11.316 -0.6613 -0.4320 -0.2742
 8587SOL    HW137223   1.318   2.536  11.393 -0.3964 -1.3785 -0.4367
 8587SOL    HW237224   1.308   2.634  11.293  2.5457  2.6533  0.7276
 8588SOL     OW37225   0.298   2.769   0.325  0.1059 -0.0787  0.1290
 8588SOL    HW137226   0.230   2.703   0.339  0.0058 -0.1503 -0.7269
 8588SOL    HW237227   0.309   2.789   0.419  1.7219 -2.3409  0.4061
 8589SOL     OW37228   3.359   0.389   2.751 -0.0349  0.5693 -0.3528
 8589SOL    HW137229   3.402   0.446   2.687  1.0318  1.6461  1.3030
 8589SOL    HW237230   3.329   0.452   2.816 -3.7960 -2.2855  0.6705
 8590SOL     OW37231   0.854   1.265   2.643  0.1731  0.2767 -0.0593
 8590SOL    HW137232   0.795   1.200   2.681  0.4100 -0.7490 -1.4514
 8590SOL    HW237233   0.938   1.243   2.683 -1.1737 -0.4982  2.3243
 8591SOL     OW37234   0.571   3.469   6.553 -0.2102 -0.4274 -0.5206
 8591SOL    HW137235   0.577   3.415   6.631  0.5589  0.9927  0.4164
 8591SOL    HW237236   0.530   3.402   6.499 -0.8389 -1.1820  0.8857
 8592SOL     OW37237   3.599   4.270   1.657  0.3965  0.3143 -0.4972
 8592SOL    HW137238   3.653   4.255   1.735 -0.1663  1.6084  0.1485
 8592SOL    HW237239   3.629   4.210   1.589 -0.2913  1.3339 -1.6982
 8593SOL     OW37240   3.229   2.778  16.839 -0.0831  0.1130  0.0608
 8593SOL    HW137241   3.166   2.849  16.850 -0.6867 -0.5550  0.9762
 8593SOL    HW237242   3.237   2.774  16.744 -0.3988  2.5830 -0.0542
 8594SOL     OW37243   3.169   1.946   5.750  0.1935  0.4867 -0.2129
 8594SOL    HW137244   3.153   1.924   5.658  0.4549 -0.9566  0.0940
 8594SOL    HW237245   3.095   2.005   5.763  0.1370  0.2911  0.3287
 8595SOL     OW37246   3.868   3.448   1.182  0.0114 -0.1679 -0.5387
 8595SOL    HW137247   3.843   3.426   1.092 -0.3522  0.4855 -0.5986
 8595SOL    HW237248   3.933   3.379   1.187  0.1835 -0.0832 -1.5640
 8596SOL     OW37249   2.241   3.752   5.160  0.2183 -0.2909  0.2383
 8596SOL    HW137250   2.238   3.668   5.205  0.9546  0.2070  1.2261
 8596SOL    HW237251   2.158   3.793   5.182  1.2105  1.7960  0.1730
 8597SOL     OW37252   4.587   1.181   2.709  0.3734  0.1916  0.2872
 8597SOL    HW137253   4.680   1.169   2.690 -0.2977  0.7307 -3.3625
 8597SOL    HW237254   4.564   1.109   2.651 -0.6355  1.3390 -0.7345
 8598SOL     OW37255   1.283   4.271  10.789 -0.4974 -0.0434 -0.0294
 8598SOL    HW137256   1.266   4.212  10.863 -1.7604 -0.0799 -0.3362
 8598SOL    HW237257   1.225   4.342  10.819  2.2845  2.7105 -1.2547
 8599SOL     OW37258   3.968   1.408   5.255  0.2698 -0.0414  0.0361
 8599SOL    HW137259   3.886   1.397   5.208  0.6473 -0.9256 -0.4100
 8599SOL    HW237260   4.008   1.485   5.215  0.7177 -0.5377 -0.4689
 8600SOL     OW37261   1.497   4.689   6.708  0.3025 -0.2877 -0.0713
 8600SOL    HW137262   1.411   4.727   6.731 -0.5526 -2.0738 -0.3567
 8600SOL    HW237263   1.463   4.604   6.682  1.7215  0.1584 -3.3540
 8601SOL     OW37264   1.946   3.242   4.954 -0.0493  0.2100 -0.1564
 8601SOL    HW137265   1.946   3.195   4.870  0.3652 -0.7700  0.3841
 8601SOL    HW237266   1.864   3.290   4.944 -0.0758  0.1824 -0.0690
 8602SOL     OW37267   0.454   1.363   4.734 -0.1888  0.4194 -0.1675
 8602SOL    HW137268   0.383   1.375   4.671 -1.4775 -0.8675  1.0497
 8602SOL    HW237269   0.498   1.446   4.716 -1.0034  1.2756  1.8202
 8603SOL     OW37270   2.972   3.363   5.700 -0.1351 -0.2055 -0.0064
 8603SOL    HW137271   2.979   3.341   5.793 -3.0506  1.2315  0.5328
 8603SOL    HW237272   2.885   3.326   5.685  0.8914 -3.1221  1.2181
 8604SOL     OW37273   3.334   2.516   5.055  0.1154 -0.6988  0.4966
 8604SOL    HW137274   3.359   2.608   5.061  0.5413 -0.8674  1.3032
 8604SOL    HW237275   3.242   2.530   5.030  0.6173  1.7482  0.0695
 8605SOL     OW37276   1.447   0.175   4.899  0.2918  0.2296 -0.5906
 8605SOL    HW137277   1.474   0.086   4.875 -1.0552 -0.2964 -0.1990
 8605SOL    HW237278   1.424   0.215   4.815  0.6781  1.0449 -0.3015
 8606SOL     OW37279   2.402   1.317   5.841  0.2535  0.1105 -0.2107
 8606SOL    HW137280   2.351   1.383   5.888 -1.2714 -0.2485 -1.3590
 8606SOL    HW237281   2.333   1.255   5.816 -0.1174  0.4545 -0.0529
 8607SOL     OW37282   1.523   1.661   4.760 -0.3128  0.5306 -0.6929
 8607SOL    HW137283   1.573   1.671   4.680 -0.0990  1.5513 -0.4232
 8607SOL    HW237284   1.583   1.605   4.810  0.0592  2.8350  1.4231
 8608SOL     OW37285   3.577   0.085   2.614 -0.1109 -0.1471 -0.1113
 8608SOL    HW137286   3.617   0.172   2.612 -1.0825  0.3100  0.4102
 8608SOL    HW237287   3.569   0.074   2.709 -0.8423 -0.0676 -0.1617
 8609SOL     OW37288   1.544   3.885  13.670  0.3583 -0.6256 -0.1608
 8609SOL    HW137289   1.554   3.806  13.723  1.9441  0.4852  1.1978
 8609SOL    HW237290   1.633   3.898  13.636 -0.0673 -0.1410 -1.0788
 8610SOL     OW37291   3.138   0.542  14.683 -0.2364 -0.0738  0.3175
 8610SOL    HW137292   3.100   0.563  14.598  0.9370 -0.4824 -0.3101
 8610SOL    HW237293   3.229   0.555  14.658 -0.9838  0.9662 -1.7882
 8611SOL     OW37294   0.364   1.844   6.463 -0.2240 -0.0063  0.0590
 8611SOL    HW137295   0.452   1.821   6.493 -0.7694  1.7850  3.0224
 8611SOL    HW237296   0.316   1.770   6.500 -1.3225  0.0986 -1.1690
 8612SOL     OW37297   0.143   0.141   4.019 -0.3038  0.2073 -0.3543
 8612SOL    HW137298   0.128   0.108   4.108  0.5164 -0.1061 -0.3395
 8612SOL    HW237299   0.081   0.091   3.966 -1.7865 -0.2982  1.8524
 8613SOL     OW37300   3.746   1.368   1.991 -0.1678 -0.3131 -0.2838
 8613SOL    HW137301   3.733   1.290   2.044  2.3167  0.1879  1.0463
 8613SOL    HW237302   3.783   1.323   1.915  0.7349 -1.3677  0.7979
 8614SOL     OW37303   2.708   1.237   6.823  0.3529 -0.3491 -0.0408
 8614SOL    HW137304   2.724   1.283   6.905  0.6388  0.6425 -0.6555
 8614SOL    HW237305   2.767   1.285   6.765  0.1572 -0.9223 -0.7215
 8615SOL     OW37306   4.559   1.382   2.469  0.1055 -0.0059  0.0143
 8615SOL    HW137307   4.628   1.390   2.403  0.5991  2.3271  0.8057
 8615SOL    HW237308   4.601   1.330   2.538 -1.4184 -1.2974 -0.0313
 8616SOL     OW37309   0.068   4.101   0.886  0.5725  0.4222 -0.1033
 8616SOL    HW137310   0.075   4.005   0.881 -4.0766  0.0035  1.2530
 8616SOL    HW237311   0.004   4.112   0.957  0.2830  1.1745 -0.4872
 8617SOL     OW37312   4.372   3.636   6.354 -0.5346  0.2376 -0.9158
 8617SOL    HW137313   4.424   3.601   6.282  0.5124 -0.4214  0.1456
 8617SOL    HW237314   4.291   3.591   6.332 -1.1781  0.4760  1.0018
 8618SOL     OW37315   3.664   4.174   0.601  0.3332  0.1262  0.0852
 8618SOL    HW137316   3.599   4.105   0.614 -1.2052  1.6160  0.2313
 8618SOL    HW237317   3.671   4.165   0.506  0.3948  0.7227  0.0319
 8619SOL     OW37318   1.064   3.908   3.566  0.3624 -0.4527 -0.1275
 8619SOL    HW137319   1.136   3.845   3.563  0.7647  0.0068 -0.2341
 8619SOL    HW237320   1.078   3.977   3.631  2.9089  0.4385 -1.6078
 8620SOL     OW37321   1.417   2.000  10.970  0.2910  0.3879 -0.5900
 8620SOL    HW137322   1.453   1.989  11.058 -0.0893 -1.7065 -0.6853
 8620SOL    HW237323   1.352   2.069  10.982 -2.5001 -2.5338  1.0036
 8621SOL     OW37324   1.829   0.210   1.570 -0.0096  0.0732 -0.0781
 8621SOL    HW137325   1.803   0.215   1.662 -0.2659  0.4555 -0.1716
 8621SOL    HW237326   1.750   0.189   1.520  0.4452 -0.3874 -0.5975
 8622SOL     OW37327   3.454   3.980   9.744 -0.0178 -0.0578  0.7435
 8622SOL    HW137328   3.422   3.953   9.831 -0.3843  0.2252  0.6983
 8622SOL    HW237329   3.381   4.037   9.720 -1.0296  0.0326  3.9063
 8623SOL     OW37330   0.130   0.277  13.256  0.4053  0.2546  0.3404
 8623SOL    HW137331   0.143   0.199  13.202  3.4001  1.6207 -0.9439
 8623SOL    HW237332   0.216   0.317  13.240  0.3209  0.4069  0.2612
 8624SOL     OW37333   1.699   1.808   7.021 -0.0167 -0.1776  0.6719
 8624SOL    HW137334   1.725   1.895   7.053 -2.3125  1.0655 -0.8821
 8624SOL    HW237335   1.604   1.811   7.029 -0.1138 -0.9774 -0.2815
 8625SOL     OW37336   2.996   0.689  10.728  0.1587 -0.1691  0.2335
 8625SOL    HW137337   3.019   0.659  10.816  1.2513  1.8964  0.6352
 8625SOL    HW237338   3.002   0.783  10.739  2.8728 -0.1049 -1.8817
 8626SOL     OW37339   1.038   2.125  10.931  0.4429 -0.7570 -0.4727
 8626SOL    HW137340   0.953   2.151  10.967  1.9357 -0.7969  3.0710
 8626SOL    HW237341   1.090   2.205  10.934 -1.5034  0.5380 -0.8162
 8627SOL     OW37342   2.832   1.393   5.413  0.4197 -0.0845 -0.0225
 8627SOL    HW137343   2.914   1.360   5.450  0.2432  0.7616  1.1196
 8627SOL    HW237344   2.848   1.484   5.389 -0.4349  0.2853  0.8080
 8628SOL     OW37345   1.132   3.719   4.396  0.5685  0.1161 -0.1980
 8628SOL    HW137346   1.099   3.629   4.403 -0.3410  0.3854 -1.2451
 8628SOL    HW237347   1.086   3.762   4.468 -0.2650 -0.0597 -0.6330
 8629SOL     OW37348   4.567   1.292   0.165 -0.6879  0.2099 -0.2141
 8629SOL    HW137349   4.596   1.208   0.200 -1.5353 -0.4303 -1.0642
 8629SOL    HW237350   4.650   1.317   0.125 -0.8598 -1.3498 -1.5254
 8630SOL     OW37351   1.680   2.069   7.430  0.3733 -0.0768  0.3954
 8630SOL    HW137352   1.604   2.014   7.448 -0.5210  2.0159  3.0591
 8630SOL    HW237353   1.652   2.158   7.452 -1.3155 -0.4892 -0.1667
 8631SOL     OW37354   4.634   4.600   1.750  0.2731  0.5408 -0.7280
 8631SOL    HW137355   4.576   4.526   1.766  0.6622  0.3909  0.0079
 8631SOL    HW237356   4.716   4.553   1.733 -0.1635 -0.0025 -1.3118
 8632SOL     OW37357   0.121   0.595   7.040 -0.3183  0.1278  0.5187
 8632SOL    HW137358   0.132   0.525   6.975  0.3539  0.6509  0.0589
 8632SOL    HW237359   0.031   0.589   7.070  0.0478 -1.6194  1.2387
 8633SOL     OW37360   2.204   2.618   9.026 -0.2515 -0.0410 -0.2757
 8633SOL    HW137361   2.201   2.672   9.105 -0.6109 -0.5389  0.0427
 8633SOL    HW237362   2.196   2.529   9.060  0.3145 -0.2524 -0.6932
 8634SOL     OW37363   3.878   0.581   9.549  0.0608  0.0698 -0.2966
 8634SOL    HW137364   3.891   0.608   9.640 -0.1405 -1.9086  0.3185
 8634SOL    HW237365   3.914   0.493   9.558 -0.7382 -0.2246 -0.0283
 8635SOL     OW37366   4.236   3.973   6.944 -0.0212 -0.3107  0.5099
 8635SOL    HW137367   4.142   3.969   6.928  0.6416 -0.1347 -3.5123
 8635SOL    HW237368   4.227   4.000   7.035  4.5828  0.8103  0.6327
 8636SOL     OW37369   3.846   3.121   0.810  0.5629  0.3166 -0.3355
 8636SOL    HW137370   3.815   3.114   0.720 -1.2387 -1.1382  0.4017
 8636SOL    HW237371   3.921   3.061   0.805  0.6828  0.5111 -0.9784
 8637SOL     OW37372   0.552   4.646  11.176 -0.5413 -0.8668  0.3670
 8637SOL    HW137373   0.616   4.717  11.166  1.4219 -2.8839 -1.5476
 8637SOL    HW237374   0.506   4.643  11.093 -0.3803  2.2751  0.1787
 8638SOL     OW37375   0.653   2.663  15.771  0.1611 -0.2379  0.5881
 8638SOL    HW137376   0.582   2.603  15.795 -0.2686 -0.4910 -1.2792
 8638SOL    HW237377   0.645   2.667  15.676  1.8973 -1.3195  0.3972
 8639SOL     OW37378   0.792   0.226  13.412 -0.3979 -0.5659 -0.1622
 8639SOL    HW137379   0.724   0.232  13.479 -0.9567 -2.4512 -0.5558
 8639SOL    HW237380   0.738   0.235  13.333  0.3412  0.1025 -0.5904
 8640SOL     OW37381   1.478   1.826   9.270 -0.0396  0.1890 -0.2555
 8640SOL    HW137382   1.421   1.793   9.200 -0.7574 -1.9385  1.3218
 8640SOL    HW237383   1.426   1.901   9.298 -1.8720 -0.4566 -1.9235
 8641SOL     OW37384   4.594   1.846   8.925  0.2016  0.9173 -0.3838
 8641SOL    HW137385   4.548   1.920   8.884 -1.0830 -0.7844 -2.0259
 8641SOL    HW237386   4.560   1.864   9.013 -3.1735  2.2027 -1.9409
 8642SOL     OW37387   1.584   3.106   5.534 -0.2001  0.2115 -0.2080
 8642SOL    HW137388   1.635   3.032   5.502  0.1318  0.5624 -0.4928
 8642SOL    HW237389   1.620   3.103   5.623  1.0303  0.7818 -0.6830
 8643SOL     OW37390   3.718   0.138   6.700  0.1395  0.7735 -0.4614
 8643SOL    HW137391   3.686   0.069   6.758  1.0643  0.6974 -0.0377
 8643SOL    HW237392   3.778   0.089   6.644  1.2719  0.0340  1.4199
 8644SOL     OW37393   3.241   3.160   6.362  0.3228  0.2706 -0.2079
 8644SOL    HW137394   3.270   3.143   6.452 -0.3720 -1.5504 -0.3221
 8644SOL    HW237395   3.177   3.089   6.350  2.3173 -1.8922  1.9170
 8645SOL     OW37396   1.777   3.563   6.813 -0.2205  0.0086  0.0934
 8645SOL    HW137397   1.827   3.586   6.735 -1.2959 -0.2991 -0.6802
 8645SOL    HW237398   1.704   3.515   6.775  1.0437 -0.0851 -2.1785
 8646SOL     OW37399   4.478   4.068   0.671 -0.4451 -0.0593 -0.4151
 8646SOL    HW137400   4.463   3.991   0.726 -0.3039  1.0390  1.1591
 8646SOL    HW237401   4.567   4.045   0.642  0.5834 -0.7187  3.3202
 8647SOL     OW37402   2.807   1.529   8.389 -0.1750 -0.0431 -0.0319
 8647SOL    HW137403   2.716   1.555   8.403 -1.0026 -0.7902 -4.2054
 8647SOL    HW237404   2.846   1.608   8.351 -0.8777 -0.5176 -1.7440
 8648SOL     OW37405   2.570   1.999   5.825  0.5791  0.2886 -0.1964
 8648SOL    HW137406   2.522   2.077   5.796 -0.8450 -0.5019  0.0445
 8648SOL    HW237407   2.530   1.983   5.910  1.1738 -0.3453 -0.0369
 8649SOL     OW37408   0.338   3.365  17.597 -0.1524  0.2257  0.1117
 8649SOL    HW137409   0.361   3.292  17.654 -1.3314 -2.7245 -3.2599
 8649SOL    HW237410   0.396   3.357  17.522  0.6144 -1.0593  0.8520
 8650SOL     OW37411   4.203   4.338   3.322 -0.4452  0.1938  0.2246
 8650SOL    HW137412   4.135   4.280   3.356  0.2691  0.5807  2.3137
 8650SOL    HW237413   4.242   4.297   3.245  0.1851 -2.3252  1.8873
 8651SOL     OW37414   1.931   2.038  17.511  0.3687  0.2572 -0.2143
 8651SOL    HW137415   1.947   1.991  17.430 -2.2489  2.7794 -2.1850
 8651SOL    HW237416   1.908   1.974  17.580 -1.8413  0.5458 -0.6825
 8652SOL     OW37417   3.659   0.707   5.743 -0.1875 -0.1157 -0.4947
 8652SOL    HW137418   3.750   0.680   5.755 -1.0759 -3.6583 -1.4722
 8652SOL    HW237419   3.671   0.800   5.759  2.9314 -0.6055  0.0651
 8653SOL     OW37420   0.117   2.126   7.996  0.0167  0.1933 -0.5486
 8653SOL    HW137421   0.047   2.089   7.943 -0.7771  1.2963 -0.2885
 8653SOL    HW237422   0.062   2.158   8.068  0.8125  0.0283  0.1254
 8654SOL     OW37423   0.001   2.838   2.031 -0.9396 -0.1044 -0.3227
 8654SOL    HW137424   4.690   2.796   2.107 -0.3939 -1.9966 -1.0821
 8654SOL    HW237425   0.028   2.763   1.979 -1.1945 -0.6801  0.3859
 8655SOL     OW37426   0.495   1.872   2.832  0.2555 -0.5319 -0.2551
 8655SOL    HW137427   0.471   1.922   2.754  1.7925  0.6948  0.0457
 8655SOL    HW237428   0.552   1.935   2.877  0.7674  0.3222 -2.0641
 8656SOL     OW37429   0.815   3.458   5.791  0.1783  0.4304 -0.6141
 8656SOL    HW137430   0.786   3.440   5.881  1.1407  1.7838 -0.0368
 8656SOL    HW237431   0.824   3.553   5.794 -1.5994  0.6177 -1.5753
 8657SOL     OW37432   4.330   3.221  15.360  0.5251 -0.1090  0.1687
 8657SOL    HW137433   4.242   3.254  15.380 -0.5645 -2.3428 -0.9499
 8657SOL    HW237434   4.387   3.297  15.351  0.4543 -0.2158 -1.1145
 8658SOL     OW37435   4.324   4.698   1.690  0.1659 -0.5511 -0.3994
 8658SOL    HW137436   4.270   4.712   1.612 -0.6023  2.0118  0.5743
 8658SOL    HW237437   4.300   4.615   1.732  1.0820 -1.0258 -0.8127
 8659SOL     OW37438   2.353   0.524   0.018  0.0253 -0.6735 -0.0517
 8659SOL    HW137439   2.335   0.450  17.672  1.9639 -2.9182  2.2244
 8659SOL    HW237440   2.448   0.527   0.013  0.1019  0.0015  1.5088
 8660SOL     OW37441   4.004   1.174   3.628 -0.2681  0.2382 -0.1015
 8660SOL    HW137442   3.934   1.219   3.674 -0.9060 -0.4280 -0.4285
 8660SOL    HW237443   3.964   1.094   3.595  1.0246 -0.4776  0.0366
 8661SOL     OW37444   1.539   1.333   5.765  0.2710 -0.3320 -0.2398
 8661SOL    HW137445   1.515   1.249   5.725 -0.7633 -0.4196  0.5726
 8661SOL    HW237446   1.504   1.320   5.853  1.1453 -1.3750 -0.0331
 8662SOL     OW37447   2.882   0.518   4.576 -0.3327  0.1654 -0.0634
 8662SOL    HW137448   2.809   0.468   4.538 -1.3670 -0.4422  2.6878
 8662SOL    HW237449   2.896   0.477   4.661  1.2256  0.1232 -0.3506
 8663SOL     OW37450   3.086   0.152   5.056 -0.6688  0.2127 -0.5883
 8663SOL    HW137451   3.057   0.229   5.105 -3.6915 -1.1453 -0.2047
 8663SOL    HW237452   3.004   0.132   5.010 -0.8899 -0.1280 -0.0541
 8664SOL     OW37453   0.586   2.948   8.953  0.0466  0.2172  0.5990
 8664SOL    HW137454   0.654   2.924   9.015  1.2299 -0.9031 -1.1381
 8664SOL    HW237455   0.590   3.043   8.948  0.6391  0.1626  0.0344
 8665SOL     OW37456   1.630   1.949   8.033  0.0794  0.5479 -0.1915
 8665SOL    HW137457   1.578   2.029   8.035 -0.2661  0.3092  0.2866
 8665SOL    HW237458   1.598   1.914   7.949 -1.3585 -3.2279  1.9182
 8666SOL     OW37459   0.627   4.227   5.708 -0.6662 -0.5510  0.0823
 8666SOL    HW137460   0.596   4.231   5.798 -0.6829  1.1822 -0.0121
 8666SOL    HW237461   0.577   4.151   5.678 -1.5092  0.7002 -1.6742
 8667SOL     OW37462   3.700   1.701  14.425  0.0979  0.1721 -0.0756
 8667SOL    HW137463   3.640   1.758  14.376  0.2673  0.8849  0.5370
 8667SOL    HW237464   3.692   1.618  14.379  1.7783  0.0412 -0.1287
 8668SOL     OW37465   2.188   1.887   0.899 -0.3853 -0.3048 -0.2508
 8668SOL    HW137466   2.134   1.811   0.879  1.3521 -1.4650 -0.5031
 8668SOL    HW237467   2.129   1.947   0.945  0.8637  0.5126  0.3022
 8669SOL     OW37468   2.218   4.481   2.205 -0.4903  0.2237  0.3301
 8669SOL    HW137469   2.192   4.411   2.145 -0.1500  1.1197 -0.8474
 8669SOL    HW237470   2.142   4.539   2.197  1.4271  2.4780 -1.3387
 8670SOL     OW37471   4.197   0.632  16.050  0.0518  0.2751  0.1637
 8670SOL    HW137472   4.256   0.618  15.975 -0.4310 -3.1153  0.4548
 8670SOL    HW237473   4.186   0.727  16.062 -0.7989  0.3657 -1.3303
 8671SOL     OW37474   1.025   0.374  13.396 -0.2346  0.2910 -0.2353
 8671SOL    HW137475   0.948   0.319  13.412  0.1620 -1.1065 -3.1606
 8671SOL    HW237476   1.015   0.391  13.302 -0.0824  1.7601  0.0069
 8672SOL     OW37477   1.813   1.109   7.853 -0.3459 -0.6423 -0.4823
 8672SOL    HW137478   1.890   1.058   7.827 -1.3240 -2.2789 -0.1461
 8672SOL    HW237479   1.765   1.033   7.884 -0.1441  0.4812  2.5109
 8673SOL     OW37480   1.994   4.555  13.938  0.3503 -0.5043 -0.0934
 8673SOL    HW137481   2.054   4.539  13.865  0.8771  0.3924  0.1348
 8673SOL    HW237482   1.914   4.557  13.885  0.7994 -1.6384 -0.8029
 8674SOL     OW37483   3.110   2.961  14.661  0.3919 -0.3962 -0.1244
 8674SOL    HW137484   3.081   3.053  14.661 -0.0548 -0.5487  1.8571
 8674SOL    HW237485   3.137   2.939  14.750 -0.7306 -0.3377  0.2359
 8675SOL     OW37486   0.744   3.703  13.131 -0.5112  0.1770 -0.0083
 8675SOL    HW137487   0.780   3.746  13.053 -1.0014 -0.1250 -0.4017
 8675SOL    HW237488   0.719   3.618  13.095 -0.2604 -0.2170  0.7347
 8676SOL     OW37489   2.201   3.382  15.577 -0.4144  0.2864 -0.0444
 8676SOL    HW137490   2.136   3.446  15.547 -0.9852  0.6915  2.0331
 8676SOL    HW237491   2.277   3.439  15.567 -0.5355  0.5267  0.4197
 8677SOL     OW37492   2.593   0.794   7.952 -0.1839  0.0554 -0.0263
 8677SOL    HW137493   2.578   0.758   8.039 -0.3776 -0.3991 -0.2456
 8677SOL    HW237494   2.651   0.867   7.974 -1.2898  0.9588 -0.0699
 8678SOL     OW37495   1.271   3.153   7.584  0.1200  0.3482  0.1613
 8678SOL    HW137496   1.302   3.128   7.671 -2.3359  0.0092  0.9442
 8678SOL    HW237497   1.212   3.228   7.595  0.2371  0.1540  2.2013
 8679SOL     OW37498   3.695   1.687   3.602  0.1957  0.2649 -0.6069
 8679SOL    HW137499   3.677   1.607   3.553 -0.8908  0.5018 -0.5942
 8679SOL    HW237500   3.789   1.704   3.593  0.8413 -1.9134  1.9594
 8680SOL     OW37501   2.627   2.111  14.780  0.3816 -0.2851  0.3893
 8680SOL    HW137502   2.616   2.190  14.833  1.5746 -0.0202  0.2608
 8680SOL    HW237503   2.534   2.089  14.783 -0.0648  1.1990 -2.4438
 8681SOL     OW37504   2.261   2.283   0.997  0.1755  0.3274  0.0873
 8681SOL    HW137505   2.218   2.202   0.971  1.0166  0.0728 -0.5119
 8681SOL    HW237506   2.281   2.262   1.089  2.2536 -2.4480 -0.9981
 8682SOL     OW37507   4.593   0.563  15.175 -0.0887 -0.0881 -0.0429
 8682SOL    HW137508   4.638   0.525  15.250 -0.2277  1.0620  0.6262
 8682SOL    HW237509   4.502   0.536  15.186  0.1686 -1.3327 -0.9048
 8683SOL     OW37510   4.038   3.265   3.240  0.6420  0.4887  0.1601
 8683SOL    HW137511   4.114   3.263   3.181  0.5090  2.4124 -0.0866
 8683SOL    HW237512   3.996   3.346   3.210 -1.3864 -1.4980 -2.3550
 8684SOL     OW37513   4.296   4.242   9.221  0.0559 -0.2486  0.3925
 8684SOL    HW137514   4.342   4.168   9.261 -0.7115 -0.7295  0.3954
 8684SOL    HW237515   4.312   4.307   9.289 -1.3776  1.8075 -1.2207
 8685SOL     OW37516   3.747   2.443   5.674 -0.3014  0.6288 -0.3706
 8685SOL    HW137517   3.702   2.464   5.593 -1.8255 -0.0669  0.3060
 8685SOL    HW237518   3.779   2.354   5.656  1.5735  1.0155  0.9714
 8686SOL     OW37519   4.460   4.642   5.322  0.0285 -0.0898  0.6878
 8686SOL    HW137520   4.441   4.587   5.398  0.7710 -0.1474  0.8411
 8686SOL    HW237521   4.500   4.716   5.369  1.5380  0.0593 -0.7972
 8687SOL     OW37522   0.870   2.540  11.995 -0.2951 -0.0918 -0.2836
 8687SOL    HW137523   0.825   2.493  12.066  0.6863  4.2919  3.2003
 8687SOL    HW237524   0.910   2.610  12.046 -2.3794  0.8638  0.0529
 8688SOL     OW37525   3.079   1.986   0.046 -0.1531 -0.3146  0.0202
 8688SOL    HW137526   3.048   2.073   0.071 -0.8008  0.3899 -3.2260
 8688SOL    HW237527   3.054   1.986  17.665 -0.1855  0.4742  0.0266
 8689SOL     OW37528   2.592   3.727  17.184  0.0616  0.2481 -1.2014
 8689SOL    HW137529   2.527   3.688  17.242  0.3515  1.9631  0.2789
 8689SOL    HW237530   2.551   3.702  17.101  0.5236 -0.2064 -1.2931
 8690SOL     OW37531   0.387   1.765  16.788  0.3268  0.2315 -0.4051
 8690SOL    HW137532   0.415   1.733  16.702  1.8464 -2.4335  1.1059
 8690SOL    HW237533   0.303   1.797  16.756 -0.2029  2.2730  3.0417
 8691SOL     OW37534   3.312   3.040   4.356 -0.1411 -0.3344 -0.1258
 8691SOL    HW137535   3.290   3.124   4.398 -0.0456 -1.3497  1.9468
 8691SOL    HW237536   3.354   3.074   4.277  1.3292 -3.1570 -0.5532
 8692SOL     OW37537   1.266   2.686   5.174 -0.4000 -0.6762 -0.5392
 8692SOL    HW137538   1.356   2.655   5.168 -0.1432 -0.2899  1.5865
 8692SOL    HW237539   1.258   2.713   5.082  1.1241  1.7273  0.0249
 8693SOL     OW37540   3.947   2.515   3.113  0.2551  0.2748 -0.4236
 8693SOL    HW137541   3.915   2.572   3.043 -0.7951  0.6368  0.3485
 8693SOL    HW237542   4.033   2.553   3.128 -0.3010  1.0490  0.8226
 8694SOL     OW37543   0.676   2.324   9.698 -0.6064 -0.3421  0.7712
 8694SOL    HW137544   0.741   2.313   9.768  0.2097  0.3173  0.1281
 8694SOL    HW237545   0.715   2.384   9.634  1.5847 -1.6697  0.8839
 8695SOL     OW37546   2.284   0.322  10.525  0.0256 -0.0492 -0.2917
 8695SOL    HW137547   2.268   0.319  10.619  2.6090 -2.5667  0.0564
 8695SOL    HW237548   2.189   0.326  10.512  0.2918  1.0178 -1.8432
 8696SOL     OW37549   4.668   4.673  17.387 -0.1139 -0.4138 -0.3991
 8696SOL    HW137550   0.011   4.724  17.426 -1.4424  0.2994  1.0958
 8696SOL    HW237551   4.592   4.720  17.423 -0.6691 -1.1204 -0.6395
 8697SOL     OW37552   1.103   4.530   2.673  0.2641 -0.3203  0.1672
 8697SOL    HW137553   1.140   4.618   2.671 -0.3977 -0.0012  2.4635
 8697SOL    HW237554   1.046   4.534   2.749  1.0519 -2.3002  0.8759
 8698SOL     OW37555   3.754   1.216  12.361 -0.5550  0.3907 -0.6347
 8698SOL    HW137556   3.786   1.221  12.271 -2.0260  0.5660 -1.1471
 8698SOL    HW237557   3.701   1.136  12.361 -1.9662  1.3161 -0.6123
 8699SOL     OW37558   3.043   1.933  10.934  0.0150 -0.1958  0.0595
 8699SOL    HW137559   3.011   1.936  11.024  2.0270  0.8959  0.7365
 8699SOL    HW237560   3.005   2.018  10.911  0.2454 -0.6276 -1.9199
 8700SOL     OW37561   0.358   2.930   4.948  0.1415  0.2932  0.7246
 8700SOL    HW137562   0.316   2.871   5.010  0.0855 -0.3423  0.0809
 8700SOL    HW237563   0.444   2.943   4.990  0.8444 -1.5598 -0.1319
 8701SOL     OW37564   1.871   2.688   9.293 -0.0632  0.1136 -0.3778
 8701SOL    HW137565   1.791   2.651   9.254 -0.9214  1.8196 -0.2067
 8701SOL    HW237566   1.943   2.627   9.276 -1.7716 -2.6341  2.1112
 8702SOL     OW37567   0.545   4.666   8.016 -0.2078  0.0622 -0.0319
 8702SOL    HW137568   0.533   4.577   7.982  1.4433 -0.8967  1.8973
 8702SOL    HW237569   0.478   4.662   8.084 -1.4433  1.4250 -1.1645
 8703SOL     OW37570   3.624   0.518   9.772  0.2263  0.3923 -0.1225
 8703SOL    HW137571   3.628   0.458   9.846  0.1607  0.9583  0.3410
 8703SOL    HW237572   3.674   0.593   9.805 -0.6053  0.2268  1.5240
 8704SOL     OW37573   2.597   3.921  16.672 -0.2909  0.1390 -0.1365
 8704SOL    HW137574   2.686   3.911  16.705 -0.8139 -0.3371  1.1832
 8704SOL    HW237575   2.587   4.015  16.682 -1.0435  0.2096 -1.5640
 8705SOL     OW37576   2.061   4.623  10.091 -0.1915  0.4897  0.5312
 8705SOL    HW137577   2.083   4.709  10.128  0.3556  0.5082  0.1549
 8705SOL    HW237578   2.093   4.568  10.163  0.8020 -0.2235 -0.4463
 8706SOL     OW37579   2.560   4.577   9.338 -0.3743 -0.3304  0.3059
 8706SOL    HW137580   2.594   4.656   9.380  1.4458 -0.5353 -0.7945
 8706SOL    HW237581   2.468   4.601   9.324 -0.7306 -1.3851  0.8333
 8707SOL     OW37582   3.884   1.811   7.492 -0.0367  0.4954  0.3026
 8707SOL    HW137583   3.930   1.731   7.465  0.9514  1.1703 -0.0433
 8707SOL    HW237584   3.881   1.798   7.587  0.9541  1.3072  0.4409
 8708SOL     OW37585   1.957   2.449   2.730  0.0751  0.1458 -0.5019
 8708SOL    HW137586   2.044   2.488   2.716 -0.5513  2.0138  0.7864
 8708SOL    HW237587   1.973   2.358   2.706 -0.3222 -0.1335  0.3029
 8709SOL     OW37588   3.360   0.560   0.060 -0.0372 -0.5563 -0.5113
 8709SOL    HW137589   3.321   0.516   0.136  1.4431  0.0248  0.5774
 8709SOL    HW237590   3.452   0.536   0.070  0.5260  1.9267  0.3292
 8710SOL     OW37591   4.571   2.410   9.278 -0.2012  0.0326  0.8089
 8710SOL    HW137592   4.494   2.361   9.250  1.6189 -0.2650 -3.6444
 8710SOL    HW237593   4.518   2.489   9.294  0.3088  0.9008 -1.8332
 8711SOL     OW37594   4.272   0.645   4.208  0.0931  0.0467  0.0665
 8711SOL    HW137595   4.329   0.611   4.277  0.1716 -0.6601 -0.3509
 8711SOL    HW237596   4.252   0.731   4.246  3.0767  1.0025 -0.5283
 8712SOL     OW37597   2.269   2.793   2.782 -0.6382  0.0402  0.0784
 8712SOL    HW137598   2.351   2.840   2.768 -0.7877  0.3419  0.2248
 8712SOL    HW237599   2.204   2.860   2.804 -0.1257  0.8516 -0.9046
 8713SOL     OW37600   3.213   0.184   3.545 -0.4377 -0.5409 -0.0307
 8713SOL    HW137601   3.273   0.233   3.602 -2.8808  0.6070  1.5840
 8713SOL    HW237602   3.151   0.253   3.521  0.5396  0.6295  0.7926
 8714SOL     OW37603   1.223   1.217   4.442  0.0407 -0.7370 -0.6840
 8714SOL    HW137604   1.309   1.258   4.452 -1.4026  2.0281  0.1861
 8714SOL    HW237605   1.251   1.132   4.408 -0.4602 -1.1720 -0.0253
 8715SOL     OW37606   3.330   1.474   8.689  0.4797 -0.3424  0.2288
 8715SOL    HW137607   3.389   1.422   8.744  1.0290 -0.3041 -0.3282
 8715SOL    HW237608   3.252   1.453   8.740 -0.3857  2.0869 -0.0777
 8716SOL     OW37609   0.718   2.275   4.097 -0.5250  0.2464 -0.6108
 8716SOL    HW137610   0.654   2.344   4.083  0.1029  0.7722 -0.8542
 8716SOL    HW237611   0.682   2.230   4.174  1.8446 -0.5667  0.0245
 8717SOL     OW37612   3.500   1.307   5.173  0.2618  0.2564 -1.3136
 8717SOL    HW137613   3.503   1.213   5.195 -1.1758  0.3166 -0.9066
 8717SOL    HW237614   3.436   1.304   5.101  1.8051 -0.5115 -2.6679
 8718SOL     OW37615   3.724   2.755   7.299 -0.0322  0.3035 -0.0044
 8718SOL    HW137616   3.738   2.711   7.383 -0.2321 -0.6613 -0.4728
 8718SOL    HW237617   3.705   2.674   7.251  0.5436  1.2419 -1.7958
 8719SOL     OW37618   3.711   0.025   3.567  0.5633 -0.2942  0.2297
 8719SOL    HW137619   3.621   4.721   3.557  0.4878 -0.9668  3.0281
 8719SOL    HW237620   3.706   0.119   3.550  0.4030 -0.4337 -0.4949
 8720SOL     OW37621   3.569   1.151  10.413 -0.1431 -0.0837 -0.0101
 8720SOL    HW137622   3.529   1.120  10.332 -2.0697  1.3637  0.3899
 8720SOL    HW237623   3.492   1.204  10.434  0.4955  0.6964  0.3219
 8721SOL     OW37624   3.054   3.801   2.553 -0.0680 -0.3296  0.1875
 8721SOL    HW137625   3.071   3.784   2.460  2.0270  1.0453  0.3273
 8721SOL    HW237626   3.136   3.842   2.579  0.1809 -2.6635  3.0988
 8722SOL     OW37627   2.586   0.780   3.229  0.4091  0.5519  0.2860
 8722SOL    HW137628   2.635   0.812   3.305 -2.1871 -1.1607  2.6646
 8722SOL    HW237629   2.506   0.833   3.227 -0.5251 -0.8952 -0.4755
 8723SOL     OW37630   2.204   1.059   5.103  0.0252 -0.4215 -0.2032
 8723SOL    HW137631   2.217   1.099   5.189  0.8615 -1.0148 -0.0621
 8723SOL    HW237632   2.290   1.023   5.082 -2.2115 -3.8727 -3.4727
 8724SOL     OW37633   1.814   2.956   4.211  0.0737 -0.2441  0.7418
 8724SOL    HW137634   1.856   2.987   4.131 -1.9181  0.7994  0.0941
 8724SOL    HW237635   1.889   2.936   4.267  0.1781 -0.2546  0.5975
 8725SOL     OW37636   2.451   0.232   4.663 -0.0680  0.2210 -0.3479
 8725SOL    HW137637   2.495   0.249   4.746 -2.5886 -0.8922  1.2038
 8725SOL    HW237638   2.511   0.165   4.630  1.0382  0.2181  1.6240
 8726SOL     OW37639   2.975   3.924  15.211 -0.0202 -0.4299 -0.7417
 8726SOL    HW137640   3.062   3.960  15.226 -0.8428  0.3323  2.1102
 8726SOL    HW237641   2.938   3.965  15.132  1.7085  1.6009 -0.4775
 8727SOL     OW37642   4.022   3.041   1.405  0.0156  0.6700 -0.2512
 8727SOL    HW137643   4.117   3.049   1.409  0.1889 -1.9071  0.7422
 8727SOL    HW237644   4.004   2.948   1.419 -0.3050  0.5903 -1.1663
 8728SOL     OW37645   0.701   4.673   5.293 -0.3309  0.2129 -0.5343
 8728SOL    HW137646   0.764   0.018   5.292 -0.9778  0.7176 -3.6481
 8728SOL    HW237647   0.747   4.606   5.243 -1.1768 -0.6817 -0.1298
 8729SOL     OW37648   2.513   2.110  14.409 -0.0790 -0.0112  0.5645
 8729SOL    HW137649   2.453   2.080  14.477  2.2120 -2.6243  1.4106
 8729SOL    HW237650   2.580   2.160  14.456 -0.6548  1.7951 -0.5080
 8730SOL     OW37651   1.319   2.804   4.011 -0.3565  0.3188  0.0726
 8730SOL    HW137652   1.363   2.732   3.964 -1.6262 -0.1702 -0.3508
 8730SOL    HW237653   1.273   2.761   4.082  0.4905  0.7295  0.8702
 8731SOL     OW37654   1.215   3.077   0.607  0.6767  0.2363  0.3347
 8731SOL    HW137655   1.148   3.130   0.564  0.5177 -0.3018 -0.0792
 8731SOL    HW237656   1.276   3.142   0.643  0.3280  0.1794  1.0340
 8732SOL     OW37657   1.661   0.799  14.493  0.1454  0.2874  0.3369
 8732SOL    HW137658   1.655   0.705  14.477 -2.0163  0.7885 -1.8439
 8732SOL    HW237659   1.746   0.807  14.537 -0.3078  2.4594  0.7996
 8733SOL     OW37660   3.660   4.158   0.333 -0.1681 -0.2823 -0.1068
 8733SOL    HW137661   3.582   4.193   0.290 -0.8383 -0.0283  1.2974
 8733SOL    HW237662   3.715   4.235   0.317  0.6761 -0.0633  3.7560
 8734SOL     OW37663   4.505   4.100  12.378 -0.1442 -0.1256  0.7682
 8734SOL    HW137664   4.493   4.023  12.322  1.4795 -0.8743  1.4495
 8734SOL    HW237665   4.515   4.057  12.463  2.5118 -0.8254  0.1037
 8735SOL     OW37666   1.497   0.112  16.316  0.3204 -0.3131  0.2259
 8735SOL    HW137667   1.432   0.160  16.367  1.1549 -0.0449  1.0442
 8735SOL    HW237668   1.579   0.160  16.330 -1.2255  1.9203  1.6033
 8736SOL     OW37669   0.459   3.340   2.453 -0.6424 -0.2421 -0.6780
 8736SOL    HW137670   0.498   3.328   2.540  0.9884  0.3282 -1.3212
 8736SOL    HW237671   0.533   3.365   2.398 -0.8304 -0.1929 -0.9065
 8737SOL     OW37672   2.940   0.370   3.641  0.6355  0.0571 -0.1399
 8737SOL    HW137673   2.990   0.320   3.705 -2.8206  0.4753  2.9032
 8737SOL    HW237674   2.856   0.380   3.686  1.4043 -1.2711  1.5960
 8738SOL     OW37675   0.694   2.398   7.816  0.2062 -0.2093  0.0990
 8738SOL    HW137676   0.628   2.381   7.883  1.2629 -0.7508  0.9948
 8738SOL    HW237677   0.681   2.492   7.798  2.5035 -0.5374 -3.4132
 8739SOL     OW37678   4.231   3.457   8.398  0.0901 -0.7050 -0.0204
 8739SOL    HW137679   4.242   3.463   8.303  0.1470  0.5115  0.0675
 8739SOL    HW237680   4.280   3.533   8.428 -0.0956 -1.0999  1.2523
 8740SOL     OW37681   3.077   2.928   3.617  0.3427  0.4007  0.7552
 8740SOL    HW137682   3.042   2.850   3.660  0.7317 -0.8493 -1.2184
 8740SOL    HW237683   3.002   2.988   3.623  1.6694  2.0204  1.1353
 8741SOL     OW37684   3.059   2.540  12.811  0.2190 -0.0379  0.2216
 8741SOL    HW137685   3.084   2.450  12.787 -0.8790 -0.2034 -0.2958
 8741SOL    HW237686   3.052   2.526  12.905  0.2312  0.1908  0.2562
 8742SOL     OW37687   2.183   2.617  13.468 -0.4225  0.7199  0.3250
 8742SOL    HW137688   2.177   2.580  13.556 -1.2665 -0.8432 -0.3748
 8742SOL    HW237689   2.238   2.694  13.476  2.0143 -1.1394  1.6055
 8743SOL     OW37690   0.169   1.922   5.157 -0.4838 -0.0705  0.0970
 8743SOL    HW137691   0.158   1.952   5.067  1.4636 -2.1221 -0.8109
 8743SOL    HW237692   0.217   1.840   5.148  2.6725  1.9632 -1.4339
 8744SOL     OW37693   3.249   1.629   6.808  0.5160 -0.3068  0.4416
 8744SOL    HW137694   3.179   1.670   6.758  0.4882 -0.7448  0.1213
 8744SOL    HW237695   3.264   1.694   6.877  2.4870 -0.0445 -0.2178
 8745SOL     OW37696   2.121   0.203  17.010 -0.7736  0.2918 -0.5070
 8745SOL    HW137697   2.054   0.177  16.947 -0.7234 -0.6752 -0.1509
 8745SOL    HW237698   2.177   0.267  16.965 -1.5746  1.4060  0.0990
 8746SOL     OW37699   4.453   4.005   6.166 -0.8655  0.0505 -0.2793
 8746SOL    HW137700   4.529   4.064   6.172 -1.8270  1.3281 -0.5014
 8746SOL    HW237701   4.378   4.064   6.158  0.0553  0.8296 -3.3468
 8747SOL     OW37702   1.484   3.755  11.911  0.5377  0.5781 -0.2894
 8747SOL    HW137703   1.495   3.850  11.917  1.8735  0.2466  2.4652
 8747SOL    HW237704   1.392   3.745  11.936  0.3547  1.5417 -0.5874
 8748SOL     OW37705   1.417   4.143   2.456  0.1343 -0.1395  0.2386
 8748SOL    HW137706   1.456   4.227   2.427 -2.8822  1.5778  1.2284
 8748SOL    HW237707   1.326   4.171   2.458  0.6729  1.6179  0.8910
 8749SOL     OW37708   3.676   3.808  14.031 -0.1257 -0.1447 -0.0052
 8749SOL    HW137709   3.607   3.758  13.988  0.9935 -1.8950  0.2395
 8749SOL    HW237710   3.632   3.841  14.110  0.3082  1.7875 -0.5640
 8750SOL     OW37711   4.132   3.540   9.757 -0.1411 -0.0401  0.5016
 8750SOL    HW137712   4.137   3.445   9.764 -0.0201 -0.0795 -0.1324
 8750SOL    HW237713   4.040   3.567   9.745  0.1296  1.2135  1.2420
 8751SOL     OW37714   3.898   3.273   3.678 -0.3588 -0.0833  0.3091
 8751SOL    HW137715   3.978   3.288   3.729 -0.5612  0.3106  0.5074
 8751SOL    HW237716   3.889   3.178   3.686 -1.4251 -0.0981 -1.0278
 8752SOL     OW37717   1.150   0.276   4.630 -0.3397  0.8016  0.5569
 8752SOL    HW137718   1.094   0.243   4.560 -0.0787  0.1879  0.6426
 8752SOL    HW237719   1.113   0.237   4.709  0.5488 -0.6251  0.2525
 8753SOL     OW37720   1.381   2.174   3.621 -0.6765  0.5491  0.4209
 8753SOL    HW137721   1.349   2.100   3.570  0.0592 -0.5823  1.6151
 8753SOL    HW237722   1.344   2.160   3.709 -0.2388 -1.9128  0.1881
 8754SOL     OW37723   1.364   1.187   0.421 -0.0316 -0.4551  0.1689
 8754SOL    HW137724   1.296   1.126   0.394  0.8203  0.2876 -3.5587
 8754SOL    HW237725   1.434   1.128   0.393  0.4061 -0.1407  0.6094
 8755SOL     OW37726   2.303   0.965   5.396  0.1097  0.1390 -0.2285
 8755SOL    HW137727   2.261   0.906   5.333  0.9074  0.5012 -1.0988
 8755SOL    HW237728   2.395   0.943   5.381 -0.1298 -0.6322 -0.5750
 8756SOL     OW37729   1.652   4.543  13.546  0.5879 -0.1222  0.2757
 8756SOL    HW137730   1.643   4.496  13.463 -2.2346 -1.3847  1.2797
 8756SOL    HW237731   1.569   4.592  13.540  0.6432 -0.3272 -2.3601
 8757SOL     OW37732   4.152   0.472  17.432 -0.0739 -0.1487 -0.1278
 8757SOL    HW137733   4.162   0.556  17.387 -1.0713 -0.4058 -0.8397
 8757SOL    HW237734   4.104   0.495  17.512  0.7113  2.5809 -0.4223
 8758SOL     OW37735   2.017   3.785  11.178  0.1532  0.7515 -0.6271
 8758SOL    HW137736   1.943   3.752  11.228  1.5290 -0.7945  0.4207
 8758SOL    HW237737   2.068   3.811  11.255 -0.1626 -0.0612 -0.1431
 8759SOL     OW37738   3.170   0.649  14.990 -0.0363 -0.3616 -0.0041
 8759SOL    HW137739   3.160   0.655  14.895  1.2285 -0.4760 -0.1344
 8759SOL    HW237740   3.174   0.554  14.997  0.6456 -0.3141  0.1700
 8760SOL     OW37741   0.646   2.097   4.279  0.0609  0.3114 -0.0686
 8760SOL    HW137742   0.669   2.005   4.268  1.5298  1.0306 -3.0081
 8760SOL    HW237743   0.608   2.100   4.367  0.1359 -1.6202  0.0332
 8761SOL     OW37744   4.582   1.726   2.304  0.1311 -0.4325 -0.1877
 8761SOL    HW137745   4.548   1.745   2.392 -1.3607 -1.0040 -0.6475
 8761SOL    HW237746   4.675   1.706   2.315  0.1490  1.1606  2.6570
 8762SOL     OW37747   2.786   4.607  14.468 -0.3283  0.5721 -0.3350
 8762SOL    HW137748   2.759   4.556  14.544 -2.4264  1.5773 -0.3966
 8762SOL    HW237749   2.799   4.540  14.401  1.6216 -1.5003  2.1552
 8763SOL     OW37750   1.824   2.960   8.013  0.2130 -0.4369 -0.0050
 8763SOL    HW137751   1.743   2.909   8.007 -0.2288  0.2653  0.1176
 8763SOL    HW237752   1.865   2.930   7.932  0.0095 -2.7940  0.7587
 8764SOL     OW37753   1.825   2.353  10.778  0.1731  0.1759 -0.2635
 8764SOL    HW137754   1.751   2.312  10.734  1.1360  0.5297 -2.2411
 8764SOL    HW237755   1.845   2.414  10.707  1.5121  0.6248  0.5005
 8765SOL     OW37756   0.229   4.509   1.937  0.1406 -0.2257 -0.1678
 8765SOL    HW137757   0.196   4.481   1.852  0.1305 -1.4902  0.2600
 8765SOL    HW237758   0.242   4.420   1.969  1.3576 -0.1051 -0.3188
 8766SOL     OW37759   1.080   1.664   3.163 -0.2999 -0.3426 -0.8721
 8766SOL    HW137760   1.138   1.639   3.091  2.2204  2.9942  0.0388
 8766SOL    HW237761   0.998   1.620   3.139  0.1711 -1.7039 -0.0413
 8767SOL     OW37762   4.369   0.980   2.101  0.1037  0.1562 -0.4980
 8767SOL    HW137763   4.372   0.983   2.005  2.0754  4.6316 -0.3307
 8767SOL    HW237764   4.312   0.906   2.119  0.8444 -0.2513  0.1348
 8768SOL     OW37765   1.006   0.568   2.022 -0.0206 -0.0012 -0.5013
 8768SOL    HW137766   0.967   0.622   2.091  1.3775 -1.4512  1.4424
 8768SOL    HW237767   1.020   0.483   2.064 -0.1992 -0.3954 -1.2481
 8769SOL     OW37768   1.558   0.275   5.857 -0.4193 -0.7436 -0.0772
 8769SOL    HW137769   1.546   0.277   5.763 -2.6655 -2.4620  0.1679
 8769SOL    HW237770   1.614   0.198   5.865 -0.7917 -1.1752 -1.7301
 8770SOL     OW37771   0.749   0.637   4.272  0.1043  0.5760 -0.1395
 8770SOL    HW137772   0.696   0.692   4.329 -0.9644 -0.5395 -0.0589
 8770SOL    HW237773   0.690   0.595   4.210 -0.9177  2.0660 -0.1746
 8771SOL     OW37774   2.894   3.249   6.839 -0.1503 -0.0784  0.2619
 8771SOL    HW137775   2.972   3.220   6.793  0.8971  0.5979  1.5890
 8771SOL    HW237776   2.854   3.291   6.763 -2.4060 -1.0284  0.9370
 8772SOL     OW37777   3.367   0.645   7.626 -0.0011 -0.2801  0.0511
 8772SOL    HW137778   3.356   0.638   7.721 -1.6079 -1.4277 -0.2073
 8772SOL    HW237779   3.370   0.741   7.621  1.0065 -0.2953  0.4169
 8773SOL     OW37780   4.634   2.713   5.287 -0.3426  0.0818  0.3753
 8773SOL    HW137781   4.651   2.763   5.367  1.4315 -0.0908  0.1068
 8773SOL    HW237782   4.600   2.631   5.323  0.2119 -0.7117 -0.9123
 8774SOL     OW37783   2.135   2.995  17.548 -0.2110 -0.0509  0.4815
 8774SOL    HW137784   2.098   3.001  17.460 -0.1772  0.4656  0.5036
 8774SOL    HW237785   2.067   2.957  17.605 -0.6122 -0.0937 -0.0249
 8775SOL     OW37786   4.530   1.790   2.588 -0.2516  0.3536 -0.3427
 8775SOL    HW137787   4.456   1.834   2.630  1.2373  0.2393  2.3950
 8775SOL    HW237788   4.608   1.832   2.624 -0.2604 -1.8368  2.2753
 8776SOL     OW37789   3.027   0.938   2.772 -0.0588 -0.2353  0.2683
 8776SOL    HW137790   2.991   1.003   2.711  1.9270  0.8225  0.2112
 8776SOL    HW237791   2.970   0.865   2.748 -2.9012  1.8092  0.7453
 8777SOL     OW37792   1.935   2.729   4.816 -0.1186 -0.2179  0.0223
 8777SOL    HW137793   2.030   2.730   4.826 -0.4046  0.8427  2.5314
 8777SOL    HW237794   1.906   2.809   4.858  3.5953  2.0505 -1.7353
 8778SOL     OW37795   2.633   0.322   6.030 -0.0244 -0.3954  0.2780
 8778SOL    HW137796   2.626   0.311   6.125  0.2811  0.4856  0.4034
 8778SOL    HW237797   2.540   0.333   6.011 -0.0699 -1.3954 -0.0910
 8779SOL     OW37798   0.076   2.427   3.819  0.3246 -0.0678 -0.7248
 8779SOL    HW137799   4.727   2.471   3.783 -0.2401  0.5669  1.2779
 8779SOL    HW237800   0.047   2.343   3.855 -1.0086 -0.1817 -2.0838
 8780SOL     OW37801   1.817   4.486  13.736 -0.6428 -0.0448 -0.1081
 8780SOL    HW137802   1.815   4.391  13.725 -2.7311 -0.1952  1.5413
 8780SOL    HW237803   1.770   4.510  13.656  1.3194  2.2874 -0.5603
 8781SOL     OW37804   4.520   3.245   6.569 -0.1947  0.3131 -0.0056
 8781SOL    HW137805   4.545   3.335   6.590 -0.2657 -0.0824  1.8083
 8781SOL    HW237806   4.442   3.267   6.518 -0.4201 -0.3562  0.0504
 8782SOL     OW37807   4.539   0.598   3.796  0.5908 -0.1801  0.1353
 8782SOL    HW137808   4.530   0.693   3.798 -1.0887 -0.3543  0.1764
 8782SOL    HW237809   4.462   0.573   3.745  1.0452  1.5117 -1.3633
 8783SOL     OW37810   4.053   3.910  11.174  0.3615  0.3711 -0.1560
 8783SOL    HW137811   3.958   3.903  11.170  0.3806  0.8882 -1.5474
 8783SOL    HW237812   4.063   4.003  11.152 -2.2057  0.3460 -1.3565
 8784SOL     OW37813   0.873   4.446   4.550 -0.1964  0.0910 -0.5282
 8784SOL    HW137814   0.897   4.519   4.606 -0.8946 -0.3732  0.3964
 8784SOL    HW237815   0.841   4.376   4.608 -1.9607  2.7726  1.7077
 8785SOL     OW37816   2.492   0.281   7.149  0.2447 -0.3613 -0.1618
 8785SOL    HW137817   2.470   0.242   7.065 -0.5750 -0.8679  0.2865
 8785SOL    HW237818   2.429   0.353   7.152 -0.2121 -0.7031 -1.5115
 8786SOL     OW37819   0.787   1.265   8.772 -0.2159  0.3103  0.1034
 8786SOL    HW137820   0.713   1.283   8.830  0.0024 -0.9540  0.7814
 8786SOL    HW237821   0.839   1.193   8.808  0.2193 -1.0044 -3.1327
 8787SOL     OW37822   2.168   1.388   9.947  0.0549  0.2485 -0.0241
 8787SOL    HW137823   2.153   1.302   9.907  0.5139  0.2526 -0.2096
 8787SOL    HW237824   2.217   1.432   9.878  0.7496 -0.8077 -0.2147
 8788SOL     OW37825   0.673   2.966  15.455  0.1623  0.0536  0.3138
 8788SOL    HW137826   0.727   2.986  15.379  1.7597  1.2696  1.7784
 8788SOL    HW237827   0.591   2.923  15.430  0.5416  0.2031 -1.1483
 8789SOL     OW37828   3.405   4.722   8.569  0.2263 -0.1387 -0.4968
 8789SOL    HW137829   3.341   0.061   8.542  0.2818 -0.8569 -2.4151
 8789SOL    HW237830   3.412   0.007   8.664  1.9143  0.3082 -0.6762
 8790SOL     OW37831   4.558   4.128   1.862  0.0930 -0.7719  0.4869
 8790SOL    HW137832   4.523   4.170   1.784 -1.5694 -1.6429  0.7645
 8790SOL    HW237833   4.641   4.174   1.871 -0.4455  0.0184  1.3849
 8791SOL     OW37834   2.821   0.514  14.806 -0.3057  0.9029 -0.2994
 8791SOL    HW137835   2.900   0.522  14.752 -1.1433 -0.1170 -1.6704
 8791SOL    HW237836   2.853   0.491  14.893 -0.7821 -2.0309 -0.9163
 8792SOL     OW37837   3.899   0.296  12.841 -0.5046 -0.3799 -0.0985
 8792SOL    HW137838   3.987   0.334  12.832 -0.9164 -0.0547 -2.7936
 8792SOL    HW237839   3.865   0.286  12.752 -0.6472  1.3492 -0.2403
 8793SOL     OW37840   1.969   0.819   8.448  0.4508  0.2150 -0.7469
 8793SOL    HW137841   1.985   0.727   8.468  0.7987  0.8352  1.7815
 8793SOL    HW237842   1.927   0.804   8.363 -1.2396  1.4009 -0.1414
 8794SOL     OW37843   0.465   2.679   2.724 -0.2388  0.4589 -0.0677
 8794SOL    HW137844   0.552   2.662   2.687  0.6426  1.2515  1.5714
 8794SOL    HW237845   0.440   2.596   2.764  2.1832  0.0078  0.5313
 8795SOL     OW37846   2.786   1.090   8.473  0.5492 -0.3332  0.0096
 8795SOL    HW137847   2.707   1.043   8.500  0.7131  0.0597  1.1743
 8795SOL    HW237848   2.766   1.112   8.382  1.4800 -0.8921 -0.3268
 8796SOL     OW37849   3.210   3.660   6.538 -0.0580 -0.2014 -0.9170
 8796SOL    HW137850   3.257   3.673   6.455  0.1093  1.1753 -0.6057
 8796SOL    HW237851   3.240   3.741   6.579  3.1826 -2.1510  0.6014
 8797SOL     OW37852   0.519   0.436   7.187 -0.5768  0.5923  0.5148
 8797SOL    HW137853   0.434   0.396   7.172  0.6923 -2.3066  1.1620
 8797SOL    HW237854   0.519   0.510   7.126  1.5809  0.8312  0.8062
 8798SOL     OW37855   1.912   1.246   7.538 -0.0322 -0.2451  0.5498
 8798SOL    HW137856   1.836   1.189   7.530 -1.3367  1.3844  1.4468
 8798SOL    HW237857   1.893   1.287   7.622  0.3736 -1.0179  1.0193
 8799SOL     OW37858   2.899   0.179  13.885 -0.0513 -0.2615 -0.2820
 8799SOL    HW137859   2.922   0.269  13.909 -1.5526 -0.4110  1.7532
 8799SOL    HW237860   2.869   0.142  13.968  0.0887 -0.5783 -0.3758
 8800SOL     OW37861   3.983   1.055   2.526  0.1144 -0.0373  0.3061
 8800SOL    HW137862   4.034   1.058   2.444  0.1459 -0.6145  0.3059
 8800SOL    HW237863   4.042   1.098   2.587  0.9545 -0.3688 -0.2688
 8801SOL     OW37864   0.686   3.526  17.353  0.8187 -0.2730 -0.3783
 8801SOL    HW137865   0.683   3.614  17.315 -1.2296  0.8024  2.2431
 8801SOL    HW237866   0.593   3.502  17.349  0.5704  0.2610  1.8344
 8802SOL     OW37867   3.329   4.420   6.593 -0.2590 -0.5729 -0.4069
 8802SOL    HW137868   3.336   4.395   6.685 -0.6592 -1.9890 -0.7667
 8802SOL    HW237869   3.282   4.345   6.556 -1.3426 -1.1190  2.1220
 8803SOL     OW37870   3.426   3.464   4.958 -0.0329 -0.2935 -0.0686
 8803SOL    HW137871   3.411   3.551   4.993 -0.6152 -0.2084 -0.5222
 8803SOL    HW237872   3.368   3.472   4.882  1.3739 -0.3581 -1.1421
 8804SOL     OW37873   0.557   3.506   6.209  0.1588 -0.3467  0.3030
 8804SOL    HW137874   0.474   3.497   6.162 -0.8800  0.0619  2.0175
 8804SOL    HW237875   0.556   3.450   6.287  1.8505  0.4638  0.9153
 8805SOL     OW37876   4.078   0.463   4.118  0.1581 -0.0753 -0.9440
 8805SOL    HW137877   4.093   0.465   4.023 -0.2109 -0.4588 -1.0084
 8805SOL    HW237878   4.144   0.524   4.151  0.0786 -0.8082  0.5799
 8806SOL     OW37879   4.232   2.597   8.628  0.3423 -0.4761 -0.3549
 8806SOL    HW137880   4.300   2.547   8.674  2.7731  1.2812 -2.0501
 8806SOL    HW237881   4.254   2.687   8.654  1.1741 -0.5283 -0.8891
 8807SOL     OW37882   4.712   0.488   4.840 -0.0364  0.2268 -0.1854
 8807SOL    HW137883   0.004   0.397   4.859 -0.4867 -0.0909 -1.1989
 8807SOL    HW237884   4.649   0.523   4.903  0.4890  1.2925 -0.2456
 8808SOL     OW37885   2.725   4.640   1.154 -0.0538 -0.0935 -0.2998
 8808SOL    HW137886   2.676   4.703   1.207 -0.6952 -0.9272  0.1159
 8808SOL    HW237887   2.695   4.648   1.064 -0.8731  1.0793  0.0797
 8809SOL     OW37888   1.974   3.786   5.905  0.1991 -0.1563  0.3943
 8809SOL    HW137889   1.954   3.870   5.946  0.0833  0.4938 -1.0105
 8809SOL    HW237890   2.026   3.744   5.974 -1.7044  0.7935  2.4114
 8810SOL     OW37891   2.907   3.598  17.460  0.0769 -0.4723  0.6015
 8810SOL    HW137892   2.813   3.584  17.470 -0.4830  3.3672  0.6566
 8810SOL    HW237893   2.910   3.590  17.365  0.7393  0.5913  0.5345
 8811SOL     OW37894   1.728   4.255   5.009 -0.0814 -0.2787 -0.2467
 8811SOL    HW137895   1.708   4.289   4.922 -1.2421  0.2280  0.2151
 8811SOL    HW237896   1.639   4.241   5.042 -0.6271  2.4687 -0.5768
 8812SOL     OW37897   2.073   3.275  13.682  0.3378  0.4900  0.2263
 8812SOL    HW137898   2.130   3.200  13.698  0.1195 -0.0667 -1.6949
 8812SOL    HW237899   2.054   3.300  13.773 -0.9566 -1.9705  0.6416
 8813SOL     OW37900   3.175   3.174   1.939  0.4586 -0.0140  0.7268
 8813SOL    HW137901   3.267   3.190   1.957  0.8404  0.2558 -1.3723
 8813SOL    HW237902   3.129   3.230   2.001 -1.6971  1.5503 -2.2755
 8814SOL     OW37903   3.069   2.792   7.690 -0.3827  0.7409  0.1942
 8814SOL    HW137904   3.085   2.734   7.764 -1.4443 -1.8761 -1.6330
 8814SOL    HW237905   3.020   2.863   7.732  0.0649  0.9283  0.3988
 8815SOL     OW37906   2.045   0.436   2.991  0.3891 -0.1160 -0.0833
 8815SOL    HW137907   2.138   0.431   2.970 -0.0411 -0.6738 -1.8619
 8815SOL    HW237908   2.013   0.348   3.011 -0.1641  0.1015 -0.0016
 8816SOL     OW37909   2.569   3.027   2.994 -0.3623 -0.3098  0.4264
 8816SOL    HW137910   2.597   3.066   3.077 -1.6614  2.4740 -0.4676
 8816SOL    HW237911   2.488   2.996   3.035 -0.7266 -0.8020 -0.6727
 8817SOL     OW37912   2.939   2.770  14.147 -0.0937 -0.6708 -0.2116
 8817SOL    HW137913   2.995   2.786  14.223 -1.6349 -0.5154  0.8796
 8817SOL    HW237914   2.978   2.693  14.106  0.1747 -0.0711 -1.1067
 8818SOL     OW37915   0.675   4.445  14.779 -0.1191  0.3729  0.0949
 8818SOL    HW137916   0.632   4.359  14.776 -0.8202  0.7231 -0.0611
 8818SOL    HW237917   0.635   4.491  14.704 -3.1229  0.2892  1.6401
 8819SOL     OW37918   0.446   2.073   3.736  0.0243  0.4545 -0.1539
 8819SOL    HW137919   0.466   2.164   3.713 -2.1576  0.4996 -1.9360
 8819SOL    HW237920   0.352   2.059   3.727  0.1904 -0.0123 -1.1326
 8820SOL     OW37921   0.660   3.844   3.458  0.0323  0.0450 -0.5465
 8820SOL    HW137922   0.589   3.783   3.477 -0.0935  0.6472  0.8787
 8820SOL    HW237923   0.611   3.924   3.439 -1.8787 -0.7003  1.3261
 8821SOL     OW37924   0.860   0.064   6.306 -0.3732  0.4267  0.2489
 8821SOL    HW137925   0.911   0.006   6.249 -0.6865  1.2755 -0.8819
 8821SOL    HW237926   0.910   0.078   6.386 -0.2459 -1.4988  0.5180
 8822SOL     OW37927   1.135   1.743   4.862 -0.0429 -0.0896  0.1991
 8822SOL    HW137928   1.050   1.704   4.886 -1.3732  2.2755 -0.6683
 8822SOL    HW237929   1.191   1.666   4.865 -0.6512 -0.4737  2.0304
 8823SOL     OW37930   1.233   2.737   4.887 -0.3048 -0.2640  0.0329
 8823SOL    HW137931   1.224   2.829   4.860  0.4561 -0.3168 -0.4101
 8823SOL    HW237932   1.322   2.708   4.864 -0.0807 -1.4588  2.3653
 8824SOL     OW37933   3.757   2.742   8.078 -0.4984 -0.9428 -0.6566
 8824SOL    HW137934   3.721   2.765   8.164 -2.0699 -1.7700 -1.1026
 8824SOL    HW237935   3.739   2.816   8.021 -0.6053 -0.4544  0.0132
 8825SOL     OW37936   2.065   0.313   5.466  0.1557  0.3340  0.6295
 8825SOL    HW137937   2.091   0.221   5.460 -0.2331  0.3644 -1.6949
 8825SOL    HW237938   2.130   0.359   5.519 -1.8494  1.1892  2.3343
 8826SOL     OW37939   2.490   0.611   1.615 -0.0341  0.2637 -0.5173
 8826SOL    HW137940   2.575   0.569   1.630  0.1373  0.7462 -0.1338
 8826SOL    HW237941   2.452   0.540   1.564  1.2754  0.0539 -1.2078
 8827SOL     OW37942   0.626   0.231   9.354 -0.5877 -0.2072 -0.4472
 8827SOL    HW137943   0.628   0.209   9.447  2.0347 -0.1246 -0.4835
 8827SOL    HW237944   0.712   0.273   9.354  0.1598 -1.7335  0.8815
 8828SOL     OW37945   1.958   1.610   8.101  0.2410 -0.0891 -0.4042
 8828SOL    HW137946   1.942   1.532   8.154 -1.5403  1.5821  1.5153
 8828SOL    HW237947   1.882   1.607   8.043  1.0841 -0.9244 -1.4677
 8829SOL     OW37948   3.508   1.936   2.757 -0.0774 -0.6859 -0.1901
 8829SOL    HW137949   3.433   1.883   2.732  0.0344 -0.3640 -1.1953
 8829SOL    HW237950   3.467   2.022   2.744  1.0082 -0.4375 -1.8882
 8830SOL     OW37951   4.369   1.879   4.810 -0.1851  0.3649  0.1544
 8830SOL    HW137952   4.289   1.868   4.759  1.1345 -2.0812 -1.3716
 8830SOL    HW237953   4.365   1.971   4.838 -1.5736 -0.7907  3.7668
 8831SOL     OW37954   2.950   2.774  12.712 -0.0210  0.3351 -0.5017
 8831SOL    HW137955   3.040   2.807  12.707  0.3349 -0.3039  2.0378
 8831SOL    HW237956   2.974   2.686  12.738 -1.8462  0.3847  1.3394
 8832SOL     OW37957   3.123   4.098   7.572  0.5337 -0.8196  0.6381
 8832SOL    HW137958   3.209   4.056   7.567  1.0913  0.5214 -1.3488
 8832SOL    HW237959   3.097   4.093   7.480  0.3690  0.6773  0.5958
 8833SOL     OW37960   1.083   0.781   6.139 -0.6100 -0.3390 -0.7966
 8833SOL    HW137961   1.053   0.717   6.204 -2.7737  0.4019 -1.0850
 8833SOL    HW237962   1.144   0.726   6.090  1.2063  1.0415 -0.0902
 8834SOL     OW37963   2.305   2.851   0.568  0.4345 -0.5917 -0.5814
 8834SOL    HW137964   2.342   2.878   0.484  0.8882 -1.1282 -0.5531
 8834SOL    HW237965   2.381   2.855   0.625  0.0124  1.0040 -0.1045
 8835SOL     OW37966   2.020   0.031   6.220 -0.2489 -0.3790 -1.1685
 8835SOL    HW137967   1.945   0.052   6.164 -1.1665  0.4937  0.3933
 8835SOL    HW237968   1.980   4.712   6.293 -1.3000  2.1472 -0.1269
 8836SOL     OW37969   4.510   2.919   4.971 -0.4581  0.8892 -0.2885
 8836SOL    HW137970   4.593   2.945   5.009  0.2703  0.0738 -1.3378
 8836SOL    HW237971   4.475   2.996   4.924 -0.2826  0.3647 -1.2825
 8837SOL     OW37972   0.152   0.159   7.182  0.2037 -0.1615  0.0472
 8837SOL    HW137973   0.239   0.119   7.181  0.3990  0.1878  2.3660
 8837SOL    HW237974   0.167   0.221   7.253 -0.9278  1.7568 -1.3705
 8838SOL     OW37975   3.367   4.142   1.760  0.4561  0.1187 -0.7244
 8838SOL    HW137976   3.398   4.053   1.744 -2.7175 -0.6548 -2.5192
 8838SOL    HW237977   3.454   4.181   1.757  0.4958 -0.0342 -1.5889
 8839SOL     OW37978   1.607   2.700   3.009 -0.6437  0.1415 -0.1254
 8839SOL    HW137979   1.586   2.641   2.936  1.2393 -3.7388  2.4516
 8839SOL    HW237980   1.544   2.669   3.075  1.6502 -1.4742  1.3045
 8840SOL     OW37981   3.011   3.709   3.179 -0.3012 -0.2762 -0.7863
 8840SOL    HW137982   2.974   3.622   3.160 -3.5685  0.5909  1.6135
 8840SOL    HW237983   3.105   3.704   3.159 -0.6768 -0.8814 -2.4298
 8841SOL     OW37984   1.821   4.166   5.471 -0.1553  0.0391 -0.1671
 8841SOL    HW137985   1.786   4.122   5.548  1.8399  1.1286  1.3625
 8841SOL    HW237986   1.772   4.125   5.399  1.1934  0.0189 -1.0709
 8842SOL     OW37987   4.567   1.626   7.388  0.1739  0.2719  0.5028
 8842SOL    HW137988   4.581   1.535   7.413  1.9695  0.5624  0.6164
 8842SOL    HW237989   4.542   1.673   7.468  1.2720  2.3107 -0.3556
 8843SOL     OW37990   0.992   0.400  13.130 -0.6526 -0.4583 -0.2419
 8843SOL    HW137991   0.919   0.446  13.089  0.5606  0.8005 -0.9623
 8843SOL    HW237992   0.990   0.314  13.087  2.3119 -0.5832 -0.1298
 8844SOL     OW37993   4.683   3.411   6.929  0.5766  0.4250 -0.4400
 8844SOL    HW137994   4.703   3.337   6.871  1.6913  0.5766 -0.2514
 8844SOL    HW237995   4.717   3.490   6.888  2.0326 -0.5794 -1.1674
 8845SOL     OW37996   2.620   3.495   4.410  0.0327 -0.6044 -0.1606
 8845SOL    HW137997   2.533   3.485   4.370 -0.3614 -1.0142  0.7881
 8845SOL    HW237998   2.668   3.421   4.372  1.0866 -0.3294  0.6611
 8846SOL     OW37999   0.514   3.616  15.496  0.0564  0.2968  0.8626
 8846SOL    HW138000   0.599   3.605  15.538  0.6964  0.4797 -0.3912
 8846SOL    HW238001   0.493   3.707  15.516  0.3887  1.0402 -2.2281
 8847SOL     OW38002   4.083   3.607   1.181  0.3396  0.0202  0.3504
 8847SOL    HW138003   4.079   3.659   1.100  0.0810 -0.5164  0.0178
 8847SOL    HW238004   3.997   3.566   1.167  1.4619 -1.7480 -1.2735
 8848SOL     OW38005   4.382   4.260  12.947 -0.3916 -0.7879  0.4638
 8848SOL    HW138006   4.408   4.170  12.930 -1.6944 -0.9357 -0.7194
 8848SOL    HW238007   4.425   4.277  13.031  1.5216 -1.4575 -0.3873
 8849SOL     OW38008   1.586   3.909   5.925  0.3209  0.4283  0.1000
 8849SOL    HW138009   1.563   3.821   5.956  2.2281  0.4899  1.7155
 8849SOL    HW238010   1.516   3.919   5.861  0.0350 -1.6927  0.0682
 8850SOL     OW38011   2.623   2.034   2.275  0.0504  0.0286  0.3747
 8850SOL    HW138012   2.713   2.064   2.262  0.6505 -2.4314 -1.0467
 8850SOL    HW238013   2.589   2.069   2.193  0.2789 -1.2844 -0.2743
 8851SOL     OW38014   2.095   4.357   7.091 -0.0982 -0.5628 -0.2481
 8851SOL    HW138015   2.070   4.265   7.100  1.3567 -0.8666  0.6745
 8851SOL    HW238016   2.079   4.389   7.180  2.9320 -2.1504  0.8816
 8852SOL     OW38017   2.260   0.913   6.722  0.2672 -0.3877  0.0987
 8852SOL    HW138018   2.313   0.982   6.763 -0.4773 -0.9556  2.0117
 8852SOL    HW238019   2.196   0.904   6.793  0.1183  0.3077  0.0536
 8853SOL     OW38020   0.012   1.187   5.777  0.1679 -0.0036 -0.5131
 8853SOL    HW138021   0.052   1.273   5.792 -1.7861  0.5928  1.2928
 8853SOL    HW238022   4.670   1.187   5.842 -0.5502  0.6033 -1.2755
 8854SOL     OW38023   1.964   1.537   2.223  0.5445  0.8273  0.5663
 8854SOL    HW138024   2.021   1.492   2.161  0.9817 -0.2711  1.7529
 8854SOL    HW238025   1.913   1.598   2.170 -0.0687 -0.0532  0.1315
 8855SOL     OW38026   2.699   4.199   5.897  0.1711 -0.0644 -0.2126
 8855SOL    HW138027   2.693   4.284   5.940  4.5050  0.0013  0.2898
 8855SOL    HW238028   2.766   4.145   5.940 -0.5437  0.3771  1.4485
 8856SOL     OW38029   2.241   4.047  15.079 -0.8676  0.0018  0.1673
 8856SOL    HW138030   2.165   4.097  15.049 -0.1792 -0.1248 -1.8094
 8856SOL    HW238031   2.274   4.106  15.146 -0.6651 -0.4488  0.4623
 8857SOL     OW38032   0.018   3.563   2.493  0.4090 -0.2163 -0.3126
 8857SOL    HW138033   0.055   3.544   2.407 -0.3378  0.3874 -0.7613
 8857SOL    HW238034   0.085   3.572   2.562  0.1903 -0.5982 -0.0493
 8858SOL     OW38035   1.106   3.682   2.526  1.2331  0.2541 -0.1826
 8858SOL    HW138036   1.119   3.604   2.471  1.5626  0.2375 -0.0851
 8858SOL    HW238037   1.165   3.665   2.600 -0.6944  1.3261  1.6096
 8859SOL     OW38038   1.660   1.116   8.410 -0.4396  0.4265  0.1280
 8859SOL    HW138039   1.685   1.179   8.342 -1.5103  1.3537  0.5774
 8859SOL    HW238040   1.595   1.069   8.357 -3.0663  3.3924  0.7105
 8860SOL     OW38041   1.518   4.073   1.950 -0.1643  0.1980 -0.0732
 8860SOL    HW138042   1.611   4.072   1.970 -0.1137 -0.2211 -0.3379
 8860SOL    HW238043   1.490   3.982   1.952  2.8662 -0.8134 -3.3788
 8861SOL     OW38044   4.270   1.508  17.673  0.1788 -0.2408  0.2212
 8861SOL    HW138045   4.239   1.594  17.643 -1.9078 -1.2981 -0.6832
 8861SOL    HW238046   4.245   1.508   0.054 -2.7470  0.6284 -0.5591
 8862SOL     OW38047   1.496   1.344   0.920 -0.4480 -0.2682  0.6206
 8862SOL    HW138048   1.511   1.267   0.864 -1.0043  1.2181 -1.5738
 8862SOL    HW238049   1.401   1.348   0.924 -0.3757  0.1454  1.7546
 8863SOL     OW38050   2.555   1.958   4.692 -0.4072  0.2942  0.4390
 8863SOL    HW138051   2.533   2.013   4.766  2.0938  0.1836  1.2572
 8863SOL    HW238052   2.617   2.018   4.651  1.3882 -0.2722  2.3210
 8864SOL     OW38053   2.901   4.339   6.407 -0.3164 -0.5728  0.4853
 8864SOL    HW138054   2.968   4.390   6.452  1.0417 -0.0884 -2.0638
 8864SOL    HW238055   2.849   4.417   6.390 -0.6515 -1.0045 -0.4681
 8865SOL     OW38056   1.541   2.052   4.155  0.5013  0.4182 -0.6225
 8865SOL    HW138057   1.512   2.089   4.239  0.9804  1.0774 -0.7470
 8865SOL    HW238058   1.630   2.088   4.150  1.2605 -1.1727  1.0284
 8866SOL     OW38059   1.653   3.937  17.017  0.1301 -0.0137  0.0194
 8866SOL    HW138060   1.565   3.977  17.021  0.4480  0.7253 -0.3899
 8866SOL    HW238061   1.707   4.013  16.994 -0.9407  1.0099  0.8327
 8867SOL     OW38062   0.989   3.345   5.599  0.8753 -0.9175  0.1204
 8867SOL    HW138063   1.007   3.282   5.669  0.6551 -0.7156  0.3610
 8867SOL    HW238064   0.953   3.418   5.650 -0.0683 -0.5635 -1.0599
 8868SOL     OW38065   1.414   1.504   8.607  0.3285 -0.5997  0.4870
 8868SOL    HW138066   1.350   1.561   8.649 -0.4696 -0.9409 -0.2534
 8868SOL    HW238067   1.493   1.557   8.605  1.2944 -2.0389  0.3393
 8869SOL     OW38068   2.799   4.122   6.537 -0.5990  0.2663  0.2895
 8869SOL    HW138069   2.770   4.168   6.615 -0.2731  2.2546 -0.7713
 8869SOL    HW238070   2.844   4.194   6.492 -1.0176  1.5875  1.9961
 8870SOL     OW38071   3.566   2.402   3.195  0.3428  0.2752 -0.1218
 8870SOL    HW138072   3.508   2.458   3.143 -0.3325  0.1777  0.5326
 8870SOL    HW238073   3.629   2.362   3.134 -2.8386 -0.5511 -2.8467
 8871SOL     OW38074   0.876   3.808   5.191  0.4419  0.0055  0.4672
 8871SOL    HW138075   0.812   3.762   5.246  1.5321 -2.2569 -0.1353
 8871SOL    HW238076   0.959   3.766   5.216 -0.3250 -1.6417  0.2050
 8872SOL     OW38077   4.590   0.864   8.183  0.2812 -0.2846  0.7542
 8872SOL    HW138078   4.683   0.877   8.162  0.0918  0.2588  0.2293
 8872SOL    HW238079   4.579   0.903   8.270 -4.6676  0.2477 -0.1336
 8873SOL     OW38080   3.700   0.198   3.178  0.0565 -0.0543 -0.3941
 8873SOL    HW138081   3.632   0.259   3.208 -1.3816 -1.9449  0.1745
 8873SOL    HW238082   3.711   0.216   3.085  2.0521  0.3623 -0.0754
 8874SOL     OW38083   3.728   3.119  13.281  0.6323  0.7629  0.4345
 8874SOL    HW138084   3.703   3.077  13.199 -2.5469 -0.4364  2.0364
 8874SOL    HW238085   3.653   3.179  13.280  1.5828  1.9342 -0.5763
 8875SOL     OW38086   2.734   4.185   6.221 -0.0462 -0.2108  0.0097
 8875SOL    HW138087   2.821   4.212   6.249 -0.6792  1.9470 -0.0571
 8875SOL    HW238088   2.760   4.116   6.160 -4.2675 -0.0929 -1.9263
 8876SOL     OW38089   1.635   1.506   4.210 -0.2282 -0.2231  0.6331
 8876SOL    HW138090   1.695   1.484   4.281  0.2770  1.3166  0.6915
 8876SOL    HW238091   1.555   1.528   4.258 -0.1020  1.8224 -0.0894
 8877SOL     OW38092   0.501   2.421   8.995 -0.5459 -1.0286 -1.0112
 8877SOL    HW138093   0.596   2.431   8.990 -0.5875 -1.1014 -2.0188
 8877SOL    HW238094   0.495   2.344   9.051 -3.0916  1.9199  2.7909
 8878SOL     OW38095   0.227   2.667   8.435  0.5490  0.2771  0.3045
 8878SOL    HW138096   0.284   2.735   8.471  2.0485  0.0750 -1.7340
 8878SOL    HW238097   0.151   2.716   8.404  1.3970  2.0873  1.1183
 8879SOL     OW38098   1.187   0.685   3.816  0.0576  0.2308 -0.7597
 8879SOL    HW138099   1.266   0.738   3.820  0.3901 -0.4472  1.6858
 8879SOL    HW238100   1.209   0.616   3.878  1.1700  0.2804 -1.0975
 8880SOL     OW38101   0.630   3.531  15.222 -0.2192 -0.2443 -0.0482
 8880SOL    HW138102   0.599   3.545  15.311 -0.4538  2.0455 -0.5022
 8880SOL    HW238103   0.725   3.522  15.223 -0.4146 -2.4191  0.4565
 8881SOL     OW38104   3.557   4.510  17.069 -0.1845 -0.4630  0.3836
 8881SOL    HW138105   3.593   4.458  17.141  0.5302 -1.1424 -0.4697
 8881SOL    HW238106   3.617   4.584  17.078 -3.2842  2.0370  0.5937
 8882SOL     OW38107   3.481   4.134   9.139  0.0628  0.1946 -0.0948
 8882SOL    HW138108   3.543   4.108   9.207  1.5973  0.2662 -1.4727
 8882SOL    HW238109   3.401   4.132   9.192 -0.0884  0.3722 -0.3165
 8883SOL     OW38110   4.265   2.817   7.408  0.5644 -0.2060  0.1792
 8883SOL    HW138111   4.303   2.755   7.346  0.7306  0.0971 -0.0254
 8883SOL    HW238112   4.186   2.769   7.431  0.5811 -0.0406  0.5777
 8884SOL     OW38113   2.210   1.539   1.010 -0.3323  0.5294  0.5353
 8884SOL    HW138114   2.175   1.461   1.052  0.0111 -0.7315 -1.5113
 8884SOL    HW238115   2.161   1.602   1.062 -1.0339  0.2791  0.1665
 8885SOL     OW38116   3.148   3.582   2.771 -0.2507  0.2265  0.1786
 8885SOL    HW138117   3.124   3.529   2.695 -1.8011 -2.6610  2.7133
 8885SOL    HW238118   3.224   3.631   2.738 -0.2169 -0.5423 -0.8778
 8886SOL     OW38119   0.685   3.431   3.096 -0.4446  0.0732 -0.5923
 8886SOL    HW138120   0.646   3.511   3.130 -1.4102 -0.6658  0.0518
 8886SOL    HW238121   0.612   3.372   3.077 -0.2146 -0.3549 -0.1418
 8887SOL     OW38122   3.960   0.043  14.088 -0.5814  0.3049 -0.1806
 8887SOL    HW138123   3.927   0.122  14.046 -2.0999  0.4289  1.2030
 8887SOL    HW238124   3.957   0.067  14.181  0.5341 -2.6282  0.6015
 8888SOL     OW38125   3.572   2.871   8.628 -0.2793 -0.8146  0.9945
 8888SOL    HW138126   3.525   2.833   8.701  0.2110 -1.6604  0.8713
 8888SOL    HW238127   3.658   2.853   8.666 -0.3781 -1.9605  0.6538
 8889SOL     OW38128   0.971   0.857   6.456 -0.1868 -0.3294  0.0061
 8889SOL    HW138129   0.989   0.780   6.403 -1.5427 -0.7024  0.0876
 8889SOL    HW238130   0.995   0.929   6.399  0.3423  0.6242  1.4307
 8890SOL     OW38131   1.124   0.920   0.602  0.7027 -0.5508  0.5467
 8890SOL    HW138132   1.198   0.900   0.660  0.8847  0.5319  0.6865
 8890SOL    HW238133   1.159   0.972   0.530 -0.4969 -1.2843 -0.5655
 8891SOL     OW38134   3.189   3.512   5.606 -0.3781 -0.0051 -0.0717
 8891SOL    HW138135   3.125   3.454   5.648 -0.3644 -0.5798 -0.8323
 8891SOL    HW238136   3.151   3.489   5.521 -0.4224 -1.0764  0.2387
 8892SOL     OW38137   2.115   1.032   8.323  0.1940 -0.0140  0.1990
 8892SOL    HW138138   2.085   0.959   8.376  1.2987 -0.3087  0.4121
 8892SOL    HW238139   2.106   1.001   8.233 -2.6235  3.4968 -0.7254
 8893SOL     OW38140   4.474   2.344   6.634 -0.2753  0.0188  0.1693
 8893SOL    HW138141   4.485   2.342   6.730 -0.7475  0.7613  0.2400
 8893SOL    HW238142   4.395   2.398   6.638 -0.3919 -0.2062  0.9697
 8894SOL     OW38143   1.566   0.899  17.184  0.5348 -0.3008 -0.3924
 8894SOL    HW138144   1.601   0.953  17.255 -1.6405  1.3901 -0.5968
 8894SOL    HW238145   1.489   0.949  17.157 -2.2107 -1.9021  4.4609
 8895SOL     OW38146   0.680   4.032   1.959 -0.1614  0.5174 -0.7612
 8895SOL    HW138147   0.763   3.996   1.929 -0.3704  1.0153 -1.9135
 8895SOL    HW238148   0.665   4.086   1.881  0.6758 -1.2068 -2.1088
 8896SOL     OW38149   3.717   0.250   2.347  0.0998  0.0363  0.1479
 8896SOL    HW138150   3.728   0.333   2.393  0.6775  0.2330 -0.3432
 8896SOL    HW238151   3.624   0.259   2.326 -0.4410 -6.4846 -0.3725
 8897SOL     OW38152   0.050   0.653   3.426  0.2431  0.3778  0.6015
 8897SOL    HW138153   0.076   0.600   3.351  2.1483 -0.6435  1.9988
 8897SOL    HW238154   0.078   0.584   3.485 -2.4560 -0.8718  0.3988
 8898SOL     OW38155   1.363   3.757   5.098  0.5070 -0.2864  0.0526
 8898SOL    HW138156   1.398   3.784   5.013  2.0818  0.4318  0.9320
 8898SOL    HW238157   1.436   3.776   5.157  0.4450  0.8149 -0.2152
 8899SOL     OW38158   4.000   2.572   1.220 -0.5980 -0.5064 -0.3758
 8899SOL    HW138159   3.928   2.548   1.163  0.2121 -0.0406 -1.5964
 8899SOL    HW238160   4.029   2.488   1.255  0.6052 -0.0150 -0.1757
 8900SOL     OW38161   1.695   3.862   3.570 -0.9373  0.4473  0.5721
 8900SOL    HW138162   1.744   3.942   3.552  1.3772 -1.6383 -2.4697
 8900SOL    HW238163   1.610   3.905   3.565  0.3688  2.5177 -4.0507
 8901SOL     OW38164   1.784   4.426  10.271  0.0369 -0.2703  0.5277
 8901SOL    HW138165   1.692   4.442  10.293 -0.5617 -1.4693 -1.0661
 8901SOL    HW238166   1.787   4.452  10.179  1.2140 -0.9636  0.3630
 8902SOL     OW38167   1.929   3.571  13.950 -0.0588  0.6878 -0.9221
 8902SOL    HW138168   1.965   3.482  13.956 -1.9301 -0.0898 -1.3244
 8902SOL    HW238169   1.959   3.608  14.033  0.9908  0.9665 -1.4297
 8903SOL     OW38170   2.757   3.800   0.513  0.1060  0.1203  0.3818
 8903SOL    HW138171   2.800   3.782   0.430 -0.6153 -0.0023  0.0359
 8903SOL    HW238172   2.824   3.850   0.559 -1.6065  1.4949  1.4184
 8904SOL     OW38173   3.248   2.567   8.552  0.6357  0.4442 -0.5259
 8904SOL    HW138174   3.172   2.552   8.495 -0.8612 -0.1024  1.5816
 8904SOL    HW238175   3.320   2.603   8.501 -0.2961  1.5400 -1.0616
 8905SOL     OW38176   0.175   3.839  12.182  0.3568  0.2027 -0.2725
 8905SOL    HW138177   0.170   3.870  12.273 -0.5988 -0.6645 -0.0331
 8905SOL    HW238178   0.171   3.745  12.198 -4.5144  0.8691  2.4851
 8906SOL     OW38179   1.136   1.394   0.651  0.7505 -0.4563  0.3507
 8906SOL    HW138180   1.228   1.421   0.643  0.2812  0.4769 -1.6951
 8906SOL    HW238181   1.152   1.358   0.738  2.2247  1.3885  0.8429
 8907SOL     OW38182   2.893   2.984   4.069 -0.1395  0.1024 -0.5710
 8907SOL    HW138183   2.835   3.049   4.109  0.0233  0.2324 -0.5438
 8907SOL    HW238184   2.972   2.991   4.123 -1.9466  1.0758  1.9346
 8908SOL     OW38185   1.576   3.402  15.068 -0.0432 -0.6173  0.3194
 8908SOL    HW138186   1.670   3.414  15.050 -0.2189  0.5010  0.1412
 8908SOL    HW238187   1.584   3.311  15.096  0.5408 -0.6182  0.1677
 8909SOL     OW38188   2.655   1.271   8.647  0.3881  0.0799 -0.8910
 8909SOL    HW138189   2.704   1.219   8.583  1.2535 -1.5073  1.0488
 8909SOL    HW238190   2.709   1.261   8.726  1.3211  0.1125 -1.5195
 8910SOL     OW38191   1.176   2.378   7.663  0.5238  0.1791  0.2949
 8910SOL    HW138192   1.104   2.439   7.647 -0.5958 -1.4977 -1.0341
 8910SOL    HW238193   1.219   2.379   7.578 -1.1485  3.1881 -0.5385
 8911SOL     OW38194   0.414   3.122   8.571 -0.1765  0.2940  0.2055
 8911SOL    HW138195   0.501   3.097   8.541 -1.1530 -0.2451 -2.2166
 8911SOL    HW238196   0.380   3.041   8.610  1.5509 -0.1328  0.8239
 8912SOL     OW38197   1.951   4.315  10.576  0.5340 -0.1343 -0.4026
 8912SOL    HW138198   2.030   4.309  10.629  0.4840 -1.9479 -0.5212
 8912SOL    HW238199   1.885   4.275  10.633  1.4265 -1.4720 -0.3012
 8913SOL     OW38200   3.100   3.143   7.814  0.6553 -0.5045  0.1180
 8913SOL    HW138201   3.132   3.146   7.904  1.7571 -2.7847 -0.1945
 8913SOL    HW238202   3.042   3.066   7.819  2.5650 -1.9685 -0.3896
 8914SOL     OW38203   3.705   3.351   8.210 -0.0457  0.5298 -0.1627
 8914SOL    HW138204   3.722   3.423   8.149  1.9498  2.5502  2.7515
 8914SOL    HW238205   3.613   3.359   8.233  0.1179  0.0655  0.6504
 8915SOL     OW38206   0.648   1.819   3.958  0.1413  0.5712 -0.2727
 8915SOL    HW138207   0.686   1.867   3.885 -0.1346  3.9193  1.7399
 8915SOL    HW238208   0.588   1.883   3.997 -2.5486 -2.3357  0.3359
 8916SOL     OW38209   0.345   3.817   9.190  0.0140 -0.1336 -0.1943
 8916SOL    HW138210   0.270   3.808   9.249 -2.3221  0.7104 -3.0227
 8916SOL    HW238211   0.328   3.741   9.134 -3.0887 -0.4967  1.2299
 8917SOL     OW38212   1.078   4.314   7.713 -0.1186  0.1192  0.6314
 8917SOL    HW138213   1.042   4.370   7.645  0.8529 -1.4893 -1.1798
 8917SOL    HW238214   1.171   4.337   7.709 -0.1833  0.0513 -0.9941
 8918SOL     OW38215   2.116   0.231  11.603 -0.1104  0.2827  0.0177
 8918SOL    HW138216   2.118   0.275  11.518 -0.2373  2.5381  1.1910
 8918SOL    HW238217   2.033   0.260  11.641 -0.7118  0.2030 -1.2522
 8919SOL     OW38218   2.457   4.169   7.297  0.0209 -0.0014 -0.2139
 8919SOL    HW138219   2.529   4.169   7.235 -1.4389  0.0279 -1.9040
 8919SOL    HW238220   2.463   4.076   7.318 -0.1250  0.1148  0.3451
 8920SOL     OW38221   4.022   3.861  17.255 -0.1851  0.5867  0.1438
 8920SOL    HW138222   4.051   3.830  17.341  0.7588  0.2193 -0.3162
 8920SOL    HW238223   3.932   3.828  17.249  0.7630 -2.0060  0.1701
 8921SOL     OW38224   3.913   0.627   5.725  0.3201 -0.3056 -0.2347
 8921SOL    HW138225   3.922   0.545   5.773  2.4114  0.0418 -0.0408
 8921SOL    HW238226   3.934   0.595   5.638 -1.3628 -0.4838 -0.5708
 8922SOL     OW38227   3.391   4.709   0.546 -0.2661  0.1843  0.0300
 8922SOL    HW138228   3.308   4.662   0.558  0.7407 -1.1768  1.8374
 8922SOL    HW238229   3.437   4.658   0.480 -1.5780 -2.1960  0.9461
 8923SOL     OW38230   4.167   4.037   7.498 -0.2705  0.1031 -0.1994
 8923SOL    HW138231   4.129   3.951   7.479 -0.2772 -0.1932  1.2237
 8923SOL    HW238232   4.253   4.032   7.457 -1.2320  1.0373 -2.3406
 8924SOL     OW38233   1.440   0.292   6.272  0.0513 -0.1422  0.0488
 8924SOL    HW138234   1.401   0.299   6.185 -1.1737  0.7339  0.6651
 8924SOL    HW238235   1.520   0.343   6.259 -1.2140  1.9623  0.5544
 8925SOL     OW38236   0.833   0.453   6.539  0.7146 -0.2076 -0.1243
 8925SOL    HW138237   0.747   0.423   6.570  0.5216 -0.9286 -1.3777
 8925SOL    HW238238   0.884   0.373   6.550  1.4319  0.3687  0.7086
 8926SOL     OW38239   3.762   4.234  17.508  0.8018  0.6500  0.1705
 8926SOL    HW138240   3.680   4.226  17.557  1.9676 -2.7952  1.5052
 8926SOL    HW238241   3.801   4.152  17.538  0.3136  0.4521  0.2561
 8927SOL     OW38242   1.686   1.726   4.557  0.2315  0.2018 -0.0529
 8927SOL    HW138243   1.731   1.797   4.512 -1.9054  1.6497  0.0629
 8927SOL    HW238244   1.726   1.651   4.513  3.3298  2.2040 -0.6213
 8928SOL     OW38245   3.843   2.401   2.499 -0.3435  0.3258 -0.1239
 8928SOL    HW138246   3.906   2.436   2.561 -0.0324 -0.2476 -0.1142
 8928SOL    HW238247   3.850   2.308   2.518  1.5700  0.0262 -2.2879
 8929SOL     OW38248   1.678   2.520  17.164  0.4072  0.6441  0.1430
 8929SOL    HW138249   1.590   2.492  17.140  1.3373  0.2666 -2.8250
 8929SOL    HW238250   1.651   2.581  17.232  0.1058  0.7388 -0.0618
 8930SOL     OW38251   4.404   3.042   7.931 -0.4471  0.4087  0.2347
 8930SOL    HW138252   4.405   3.118   7.873 -4.3705  1.1524  1.1593
 8930SOL    HW238253   4.406   3.100   8.008  2.4138  1.3029 -0.4887
 8931SOL     OW38254   2.497   4.216   4.150 -0.1541  0.3840 -0.3301
 8931SOL    HW138255   2.441   4.143   4.123  0.1612 -0.1788  0.5552
 8931SOL    HW238256   2.584   4.178   4.162 -1.0787 -1.1597  1.4736
 8932SOL     OW38257   2.784   1.682   4.850  0.3425  0.3351 -0.0181
 8932SOL    HW138258   2.797   1.684   4.755  1.1519  0.4016  0.0909
 8932SOL    HW238259   2.868   1.652   4.886 -0.5705  0.5440  2.3024
 8933SOL     OW38260   0.428   2.222   9.745  0.1448  0.0327 -0.6830
 8933SOL    HW138261   0.516   2.258   9.732  0.4550 -0.3908  0.1875
 8933SOL    HW238262   0.453   2.135   9.715  0.6593 -0.0741  0.0503
 8934SOL     OW38263   4.715   3.656   3.285  0.3364  0.4046  0.5791
 8934SOL    HW138264   4.699   3.573   3.330  1.7758  0.0897  0.5073
 8934SOL    HW238265   4.715   3.635   3.192 -1.7652 -0.8388  0.8603
 8935SOL     OW38266   0.964   4.321   4.175  0.4731 -0.1901  0.0626
 8935SOL    HW138267   0.955   4.249   4.238  3.2835  0.0877  0.7667
 8935SOL    HW238268   0.879   4.367   4.178 -0.0796 -1.2770  0.9116
 8936SOL     OW38269   1.467   0.323   9.075 -0.5140  0.7384 -0.1203
 8936SOL    HW138270   1.557   0.341   9.101 -0.0452 -1.2862 -0.3438
 8936SOL    HW238271   1.416   0.393   9.117 -1.2834 -0.4463  0.9455
 8937SOL     OW38272   3.319   2.585   2.302  0.4876 -0.1980  0.8639
 8937SOL    HW138273   3.313   2.617   2.392  2.2210  1.3286  0.4658
 8937SOL    HW238274   3.378   2.510   2.312 -0.3940 -0.7379  1.9258
 8938SOL     OW38275   1.675   4.040  13.233  0.0619 -0.5937 -0.1247
 8938SOL    HW138276   1.716   3.953  13.241 -0.4988 -0.5859  2.7356
 8938SOL    HW238277   1.752   4.096  13.221 -0.5874  0.0427 -1.2290
 8939SOL     OW38278   0.418   2.782   7.717  0.0391 -0.0353 -0.8383
 8939SOL    HW138279   0.399   2.694   7.683  1.6153 -0.2844 -1.0810
 8939SOL    HW238280   0.382   2.835   7.646  2.2698  0.6760 -1.4524
 8940SOL     OW38281   1.735   3.409   3.589  0.3261  0.1761 -0.3549
 8940SOL    HW138282   1.716   3.490   3.541  1.5585  0.4413 -0.3807
 8940SOL    HW238283   1.798   3.373   3.527 -0.2494 -0.4042 -0.6024
 8941SOL     OW38284   0.502   0.234   6.610  0.2689 -0.0195 -0.7561
 8941SOL    HW138285   0.412   0.210   6.631 -0.1112  0.7276 -1.5290
 8941SOL    HW238286   0.549   0.153   6.629 -1.5090 -0.2999  2.4682
 8942SOL     OW38287   2.444   1.199  16.571  0.4856  0.5749  0.4011
 8942SOL    HW138288   2.484   1.164  16.491 -1.3729  1.9977 -1.1843
 8942SOL    HW238289   2.373   1.140  16.593  0.3634  0.4471 -0.3350
 8943SOL     OW38290   0.961   4.513   3.486 -0.3765  0.4094 -0.3716
 8943SOL    HW138291   0.957   4.423   3.454 -1.4234  1.0254 -2.0003
 8943SOL    HW238292   0.996   4.510   3.575 -0.7219  0.7775 -0.2220
 8944SOL     OW38293   2.241   2.961   8.966 -0.3751  0.4402  0.2748
 8944SOL    HW138294   2.268   3.013   8.890  1.0406  0.8519  1.0564
 8944SOL    HW238295   2.165   2.915   8.930 -1.0144  0.3086  1.7954
 8945SOL     OW38296   1.699   4.690   6.475  0.0046 -0.5951  0.4374
 8945SOL    HW138297   1.685   4.656   6.563  0.3475  1.6850  1.3902
 8945SOL    HW238298   1.786   0.002   6.483 -0.5065  0.3594  1.3806
 8946SOL     OW38299   0.088   0.059   7.603  0.6383 -0.7036  0.1624
 8946SOL    HW138300   4.721   0.073   7.599  0.8655  0.4384 -1.1850
 8946SOL    HW238301   0.107   0.016   7.520 -0.4521  0.5982 -0.7637
 8947SOL     OW38302   1.539   0.653  17.114  0.0826 -0.4170  0.4406
 8947SOL    HW138303   1.565   0.741  17.141  1.5000 -0.8308  0.4389
 8947SOL    HW238304   1.456   0.668  17.070  0.7322  1.6678 -0.0710
 8948SOL     OW38305   2.405   2.731   7.649 -0.2772 -0.0728 -0.2046
 8948SOL    HW138306   2.465   2.805   7.660 -0.5406  0.0992  0.0909
 8948SOL    HW238307   2.405   2.708   7.556 -1.1666 -2.0920  0.2985
 8949SOL     OW38308   0.854   3.771   9.016 -0.0201 -0.5240  0.4606
 8949SOL    HW138309   0.789   3.706   8.988  2.3769 -1.0320 -3.7734
 8949SOL    HW238310   0.796   3.831   9.064  0.4665  0.5029 -0.2424
 8950SOL     OW38311   3.120   2.234   2.661 -0.0704 -0.0231  0.1095
 8950SOL    HW138312   3.163   2.217   2.577 -0.5355 -0.6381 -0.0005
 8950SOL    HW238313   3.072   2.310   2.627  2.9199  1.1654 -1.4936
 8951SOL     OW38314   3.750   1.506  11.362  0.2954  0.1140 -0.3697
 8951SOL    HW138315   3.763   1.600  11.373  1.7097 -0.1479  0.1618
 8951SOL    HW238316   3.810   1.466  11.425 -0.8316  0.4817  0.9468
 8952SOL     OW38317   1.390   1.571   1.934 -0.2715 -0.0003 -0.7643
 8952SOL    HW138318   1.403   1.593   2.026 -0.3691  0.0938 -0.7736
 8952SOL    HW238319   1.307   1.524   1.927 -0.7177  0.4094  1.9995
 8953SOL     OW38320   1.350   0.719  10.061  0.0257  0.1720  0.3865
 8953SOL    HW138321   1.298   0.796  10.080 -2.5912 -1.5998  0.4445
 8953SOL    HW238322   1.373   0.711  10.154  1.8547  2.0545  0.1086
 8954SOL     OW38323   1.334   2.951  12.728  0.1700 -0.1917  0.0860
 8954SOL    HW138324   1.339   2.856  12.734 -1.7803 -0.2661  0.5056
 8954SOL    HW238325   1.244   2.955  12.695  0.0972  0.0217  0.3101
 8955SOL     OW38326   0.650   3.205   5.181 -1.0289  0.3483  0.5600
 8955SOL    HW138327   0.628   3.125   5.134 -2.4178  2.1125 -1.8256
 8955SOL    HW238328   0.671   3.167   5.266 -3.8133  0.7106  1.4100
 8956SOL     OW38329   1.734   0.672   4.114  0.4860  0.1644  0.3199
 8956SOL    HW138330   1.655   0.627   4.143  0.7176  0.0830  0.8157
 8956SOL    HW238331   1.716   0.692   4.022  1.1062 -0.8444 -0.0237
 8957SOL     OW38332   1.281   1.793   9.080  0.4116  0.2465 -0.0038
 8957SOL    HW138333   1.191   1.791   9.047  1.0691  1.7000 -1.8560
 8957SOL    HW238334   1.313   1.876   9.046  2.3214 -0.3684  0.2717
 8958SOL     OW38335   1.176   0.739   1.756 -0.0882  0.0122 -0.1565
 8958SOL    HW138336   1.193   0.728   1.850 -0.6698 -0.0118 -0.0527
 8958SOL    HW238337   1.204   0.828   1.736  0.4639 -0.4600 -1.4793
 8959SOL     OW38338   3.357   3.477   8.946 -0.4738  0.0857  0.2462
 8959SOL    HW138339   3.445   3.440   8.944 -1.4733 -2.4248  1.8967
 8959SOL    HW238340   3.369   3.562   8.989  0.4417  1.7390 -3.3083
 8960SOL     OW38341   4.654   1.635  17.348  0.0693 -0.4802 -0.1865
 8960SOL    HW138342   0.017   1.602  17.341  0.6992  1.0214  1.0405
 8960SOL    HW238343   4.632   1.582  17.424 -0.9394  0.1608 -0.0474
 8961SOL     OW38344   0.222   3.904   2.667 -0.1938  0.1450 -0.2079
 8961SOL    HW138345   0.218   3.973   2.601  0.0788  0.8652  0.5282
 8961SOL    HW238346   0.232   3.823   2.617 -1.3068 -0.0627 -0.1043
 8962SOL     OW38347   0.565   4.585   9.542 -0.0755 -0.1968 -0.4600
 8962SOL    HW138348   0.553   4.600   9.636 -1.2336 -0.5831 -0.5411
 8962SOL    HW238349   0.653   4.620   9.525 -0.1680  1.4366  2.3857
 8963SOL     OW38350   1.501   3.099  12.578 -0.5558  0.1975  0.0926
 8963SOL    HW138351   1.419   3.050  12.581 -1.1135  0.9253 -2.9101
 8963SOL    HW238352   1.515   3.106  12.673 -0.6760 -4.6248  0.4691
 8964SOL     OW38353   3.942   1.986   3.538 -0.3528 -0.5016 -0.4427
 8964SOL    HW138354   3.896   1.913   3.497 -1.4388 -0.1354  0.1421
 8964SOL    HW238355   3.968   2.035   3.460  0.2248 -1.1787 -0.6732
 8965SOL     OW38356   2.379   3.408   6.900  0.9532 -0.4057  0.1090
 8965SOL    HW138357   2.351   3.328   6.855  2.5676 -2.2645  2.3854
 8965SOL    HW238358   2.474   3.400   6.898  0.8899 -0.9477 -0.7529
 8966SOL     OW38359   1.492   2.253  15.933  0.1589 -0.2849  0.1551
 8966SOL    HW138360   1.459   2.269  15.845 -0.6540  1.3080  0.7342
 8966SOL    HW238361   1.435   2.316  15.976 -1.0308 -2.5364  1.8724
 8967SOL     OW38362   3.941   2.729   2.950 -0.3292 -0.0770  0.3075
 8967SOL    HW138363   4.034   2.735   2.928 -0.3236 -1.4593 -0.0531
 8967SOL    HW238364   3.896   2.733   2.866 -0.8334 -4.1455  0.3992
 8968SOL     OW38365   1.166   0.015   3.154 -0.1043 -0.1070  0.0597
 8968SOL    HW138366   1.229   4.698   3.212 -0.6449  0.8321  1.3795
 8968SOL    HW238367   1.088   0.006   3.209  0.8027  0.2842  1.4227
 8969SOL     OW38368   4.375   1.257   1.382  0.4115  0.5762 -0.7010
 8969SOL    HW138369   4.455   1.311   1.381 -0.8232  2.3920 -1.3943
 8969SOL    HW238370   4.310   1.327   1.374  0.5101  0.8886  1.2607
 8970SOL     OW38371   0.469   4.618   1.040  0.1805  0.5484  0.4125
 8970SOL    HW138372   0.471   4.622   1.135 -1.9904 -1.3123  0.5217
 8970SOL    HW238373   0.549   4.568   1.022  1.2518  1.8615  1.4823
 8971SOL     OW38374   3.670   0.469   0.101 -0.6929  0.0339 -0.2715
 8971SOL    HW138375   3.730   0.447   0.172 -1.6257  0.1975  0.5782
 8971SOL    HW238376   3.698   0.560   0.088 -0.3447  0.0473  0.6107
 8972SOL     OW38377   4.016   4.324   2.634  0.3868 -0.1236 -0.4840
 8972SOL    HW138378   4.096   4.291   2.675  1.2316  0.6984 -1.4842
 8972SOL    HW238379   4.053   4.356   2.551  2.0380 -3.6912 -1.1204
 8973SOL     OW38380   1.304   1.112  12.431  0.2213 -0.2922 -0.0574
 8973SOL    HW138381   1.245   1.080  12.500 -0.7550  0.6743 -0.4474
 8973SOL    HW238382   1.266   1.192  12.395 -1.2684 -1.8132 -1.8789
 8974SOL     OW38383   2.337   0.238  17.204  0.0992  0.2648  0.0981
 8974SOL    HW138384   2.247   0.207  17.193  0.0491  0.7838 -0.9264
 8974SOL    HW238385   2.392   0.163  17.229 -0.1761 -0.6740 -2.0847
 8975SOL     OW38386   3.359   0.234   1.857  0.2825 -0.3018  0.0867
 8975SOL    HW138387   3.292   0.218   1.791  1.1078  0.1449 -0.8711
 8975SOL    HW238388   3.300   0.231   1.932  0.4985  0.6908  0.3042
 8976SOL     OW38389   0.291   3.690   6.673  0.0632 -0.3544  0.1199
 8976SOL    HW138390   0.286   3.786   6.666 -0.0790 -0.3473  0.3361
 8976SOL    HW238391   0.251   3.655   6.594  1.0824 -1.0140 -0.1006
 8977SOL     OW38392   3.398   1.919  12.349 -0.1181  0.3516  0.1373
 8977SOL    HW138393   3.421   1.863  12.275  0.1555  1.4979 -0.6429
 8977SOL    HW238394   3.412   1.858  12.421 -1.1975  2.4722  2.1764
 8978SOL     OW38395   0.147   2.261   2.950  0.0093 -0.5663  0.7096
 8978SOL    HW138396   0.163   2.224   2.863  0.9910  2.5243 -0.4089
 8978SOL    HW238397   0.139   2.356   2.947  1.2486 -0.4467  1.0107
 8979SOL     OW38398   4.050   2.475   7.443 -0.1130  0.4902 -0.3516
 8979SOL    HW138399   3.981   2.480   7.377  0.7383  0.0111 -1.2818
 8979SOL    HW238400   4.122   2.426   7.403 -1.5640 -0.9546 -1.1857
 8980SOL     OW38401   2.017   0.599   4.664  0.2996 -0.2586 -0.3058
 8980SOL    HW138402   2.068   0.576   4.586  1.3770  1.1952 -0.0389
 8980SOL    HW238403   1.935   0.612   4.617 -0.5783 -0.9906  1.0283
 8981SOL     OW38404   3.347   0.426   7.132  0.2155 -0.0360 -0.4608
 8981SOL    HW138405   3.429   0.452   7.089  0.1035  0.9460 -0.0752
 8981SOL    HW238406   3.311   0.514   7.138 -0.7783 -0.4012 -1.0832
 8982SOL     OW38407   0.685   0.633   4.948 -1.0249  0.3780 -0.3459
 8982SOL    HW138408   0.690   0.727   4.966 -0.2708 -0.1835  2.2821
 8982SOL    HW238409   0.776   0.604   4.956  0.6272  5.8766  1.1283
 8983SOL     OW38410   2.855   0.929   6.561  0.7868 -0.5586 -0.3742
 8983SOL    HW138411   2.787   0.954   6.499  0.4659 -0.7362 -0.0919
 8983SOL    HW238412   2.806   0.876   6.624 -0.2338 -1.4320 -1.9223
 8984SOL     OW38413   1.312   2.855   6.812  0.0082 -0.6819 -0.4705
 8984SOL    HW138414   1.270   2.799   6.877 -3.0169  0.0529 -1.7960
 8984SOL    HW238415   1.402   2.849   6.845 -0.5841 -0.9294  1.0822
 8985SOL     OW38416   2.687   1.866  11.080  0.1139 -0.3188 -0.2898
 8985SOL    HW138417   2.636   1.945  11.092 -2.7249 -2.1135 -0.5894
 8985SOL    HW238418   2.614   1.819  11.040 -0.4460  2.2641 -2.3052
 8986SOL     OW38419   2.097   4.007   3.716  0.7427  0.4361 -0.2603
 8986SOL    HW138420   2.029   4.075   3.706 -0.5055 -0.6738  0.6787
 8986SOL    HW238421   2.107   3.981   3.624  0.7445  1.2490 -0.4914
 8987SOL     OW38422   3.769   0.168   4.152  0.3865  0.2423  1.1304
 8987SOL    HW138423   3.778   0.171   4.057  2.0633  1.6782  1.3391
 8987SOL    HW238424   3.860   0.177   4.181 -0.0259  0.0527  2.4982
 8988SOL     OW38425   1.276   1.331   3.546 -0.0344  0.4349 -0.6647
 8988SOL    HW138426   1.220   1.267   3.590  0.1011  0.7874  0.0165
 8988SOL    HW238427   1.221   1.362   3.475  0.3554 -0.8855 -1.5426
 8989SOL     OW38428   0.221   3.598   7.432  0.0039  0.1208  0.1917
 8989SOL    HW138429   0.247   3.656   7.503  0.3729 -0.6380  0.6873
 8989SOL    HW238430   0.208   3.663   7.363 -0.2650  0.4274  0.5359
 8990SOL     OW38431   3.264   2.967   2.412 -0.3394  0.1898  0.1167
 8990SOL    HW138432   3.212   3.043   2.383 -0.1381 -0.1309 -1.0630
 8990SOL    HW238433   3.269   2.899   2.345  2.5735  0.3319  0.2212
 8991SOL     OW38434   2.055   2.891  13.025  0.2991  0.4538  0.2698
 8991SOL    HW138435   2.107   2.814  13.006  2.1146  2.0228 -1.1706
 8991SOL    HW238436   1.977   2.857  13.068  0.1973  0.2650 -0.0635
 8992SOL     OW38437   2.635   1.859   8.619 -0.1665 -0.0994  0.9753
 8992SOL    HW138438   2.587   1.797   8.563 -0.3576  0.8242  0.1173
 8992SOL    HW238439   2.647   1.942   8.572 -0.0901 -2.6396 -3.5820
 8993SOL     OW38440   1.320   0.553   9.221 -0.0215 -0.1709  1.0182
 8993SOL    HW138441   1.382   0.548   9.294  1.6008  2.2007 -0.2011
 8993SOL    HW238442   1.332   0.646   9.199  2.0010 -1.3019 -2.7232
 8994SOL     OW38443   2.655   2.745   4.389  0.0238  0.4105  0.2363
 8994SOL    HW138444   2.692   2.772   4.305 -1.3105 -4.6140 -1.9275
 8994SOL    HW238445   2.561   2.760   4.377  0.1374  1.5524  0.7452
 8995SOL     OW38446   2.432   2.972  14.683 -0.7227 -0.1584  0.0022
 8995SOL    HW138447   2.430   3.000  14.775  0.9718  1.6649 -0.5326
 8995SOL    HW238448   2.515   2.926  14.681 -0.4896  0.2099  1.3578
 8996SOL     OW38449   3.390   1.987   5.504  0.3425  0.2734 -0.0071
 8996SOL    HW138450   3.352   1.902   5.480 -1.5935  0.7898  1.2068
 8996SOL    HW238451   3.483   1.972   5.489  0.2747  0.5519 -0.7226
 8997SOL     OW38452   0.196   0.343   7.367  0.6437 -0.3083 -0.2656
 8997SOL    HW138453   0.241   0.318   7.448 -1.5278  1.1703  1.4297
 8997SOL    HW238454   0.198   0.439   7.372  0.4818 -0.5649  5.1830
 8998SOL     OW38455   4.371   1.929   5.432  0.4782 -0.8490 -0.8945
 8998SOL    HW138456   4.325   1.939   5.349  1.2891 -0.5874 -1.3157
 8998SOL    HW238457   4.318   1.873   5.489 -2.4152 -1.0885 -3.8539
 8999SOL     OW38458   1.098   0.082   4.383  0.0875  0.3547  0.0949
 8999SOL    HW138459   1.078   4.722   4.414 -2.6852 -0.2348 -3.3434
 8999SOL    HW238460   1.008   0.116   4.384 -0.9639 -2.5908  2.9706
 9000SOL     OW38461   1.521   4.616   4.771  0.5739 -0.4805  0.1212
 9000SOL    HW138462   1.491   4.543   4.825  1.1346 -0.2185  0.7727
 9000SOL    HW238463   1.615   4.603   4.779  0.7108  0.7195  0.4349
 9001SOL     OW38464   4.059   3.493   4.276 -0.5785 -0.3907  0.9880
 9001SOL    HW138465   4.135   3.460   4.227  1.2734  0.6391  3.1605
 9001SOL    HW238466   4.007   3.533   4.206  3.3515  0.2282 -1.5912
 9002SOL     OW38467   3.602   4.339   4.997 -0.3335 -0.6684  0.1319
 9002SOL    HW138468   3.587   4.251   5.031 -0.7485 -0.9539 -0.7958
 9002SOL    HW238469   3.603   4.391   5.078 -1.0488  1.0126 -0.9294
 9003SOL     OW38470   2.280   2.464   1.531  0.1149  1.1977  0.1838
 9003SOL    HW138471   2.245   2.522   1.599 -0.8876 -1.0405  1.5759
 9003SOL    HW238472   2.318   2.520   1.463  0.1103 -1.7254 -2.2026
 9004SOL     OW38473   0.670   3.281   9.610  0.1767  0.5437  0.0072
 9004SOL    HW138474   0.762   3.308   9.607 -0.4768  2.6324 -0.9319
 9004SOL    HW238475   0.665   3.216   9.681 -0.2359 -0.3286 -0.8161
 9005SOL     OW38476   4.039   2.467   2.672  0.2006  0.5219 -1.0470
 9005SOL    HW138477   4.043   2.374   2.694 -1.5929  0.0415 -2.7574
 9005SOL    HW238478   4.093   2.507   2.741 -1.8936  0.5868  0.5357
 9006SOL     OW38479   2.020   2.692   0.250  0.4108  0.2513  0.2770
 9006SOL    HW138480   1.957   2.625   0.222  1.0764 -1.1677  2.2076
 9006SOL    HW238481   2.095   2.666   0.197  0.7323 -1.7866  1.7589
 9007SOL     OW38482   0.970   2.796   5.550  0.0173  0.3403 -0.5795
 9007SOL    HW138483   0.978   2.793   5.455 -3.6414 -1.2884 -0.8438
 9007SOL    HW238484   1.061   2.773   5.570  0.1086  0.0961 -1.2733
 9008SOL     OW38485   1.000   2.989   8.704  0.1859  0.0900  0.5482
 9008SOL    HW138486   0.980   2.922   8.638 -1.3910  1.1107 -0.0154
 9008SOL    HW238487   1.089   3.013   8.679 -0.2438 -0.9013 -1.9534
 9009SOL     OW38488   0.754   1.098   3.643  0.0364  0.1748  0.1117
 9009SOL    HW138489   0.766   1.076   3.736 -0.9621  3.7174  1.0455
 9009SOL    HW238490   0.665   1.132   3.644 -0.2419 -0.6318  2.7375
 9010SOL     OW38491   1.963   2.770   3.762  0.5568  0.2678  0.0005
 9010SOL    HW138492   1.893   2.732   3.708  1.2473 -1.8105  0.5694
 9010SOL    HW238493   1.989   2.849   3.716  0.8838 -0.8733 -1.7695
 9011SOL     OW38494   1.027   2.573  11.733  0.5601  0.0101  0.2321
 9011SOL    HW138495   0.995   2.483  11.723  0.0380  0.1493  0.6229
 9011SOL    HW238496   0.968   2.613  11.798  2.2139  0.1196  1.6672
 9012SOL     OW38497   2.324   0.096   8.989 -0.0721 -0.5711  0.2430
 9012SOL    HW138498   2.306   0.093   9.083  0.5062  0.5782  0.3869
 9012SOL    HW238499   2.315   0.004   8.964 -3.2216 -0.3067  0.4468
 9013SOL     OW38500   0.820   1.017   7.487  0.3822  0.2676 -0.1558
 9013SOL    HW138501   0.887   1.014   7.419  1.1385 -0.6055  0.6292
 9013SOL    HW238502   0.817   0.925   7.514  0.0076  0.5537  0.7703
 9014SOL     OW38503   0.315   1.871  14.479 -0.6466 -0.3358 -0.2729
 9014SOL    HW138504   0.328   1.850  14.387 -0.6927 -0.3528 -0.2758
 9014SOL    HW238505   0.251   1.942  14.484 -0.6900 -0.4972  1.4628
 9015SOL     OW38506   3.925   3.780   9.321 -0.6245  0.5856  0.2979
 9015SOL    HW138507   3.982   3.704   9.333  2.1062  2.6431  0.5244
 9015SOL    HW238508   3.997   3.839   9.296 -0.4601  0.2665  0.0058
 9016SOL     OW38509   2.710   2.604  17.062 -0.2641 -0.7189 -0.4962
 9016SOL    HW138510   2.623   2.642  17.046 -0.3233 -1.3468 -1.6338
 9016SOL    HW238511   2.757   2.662  17.122  0.8766 -0.0131 -2.0915
 9017SOL     OW38512   1.037   2.882   3.923  0.4686 -0.4044  0.3267
 9017SOL    HW138513   1.119   2.847   3.957  0.9244 -1.2393 -1.6391
 9017SOL    HW238514   0.982   2.884   4.001  0.5460  0.5686  0.3581
 9018SOL     OW38515   0.888   1.532  10.841  0.2117  0.0349 -0.0074
 9018SOL    HW138516   0.922   1.616  10.870  1.7939 -0.0371 -1.7010
 9018SOL    HW238517   0.929   1.522  10.755  1.0173  1.2461  0.2356
 9019SOL     OW38518   0.495   2.361   3.077 -0.0688  0.0863  0.3970
 9019SOL    HW138519   0.440   2.329   3.148 -0.6949  0.0982 -0.0789
 9019SOL    HW238520   0.573   2.392   3.123 -0.7304 -0.0843  1.6364
 9020SOL     OW38521   3.345   2.709  16.279  0.3873 -0.1770 -0.1228
 9020SOL    HW138522   3.266   2.761  16.263 -0.1661 -0.9137  0.1849
 9020SOL    HW238523   3.403   2.771  16.322 -0.3342 -0.0525  0.6684
 9021SOL     OW38524   4.549   0.535   8.487 -0.2054 -0.3074 -0.5541
 9021SOL    HW138525   4.507   0.597   8.547 -0.0185 -0.4239 -0.3025
 9021SOL    HW238526   4.512   0.579   8.411 -0.8257 -0.3683 -0.2814
 9022SOL     OW38527   3.668   0.143  17.019 -0.5255 -0.1627  0.0711
 9022SOL    HW138528   3.736   0.091  17.062  1.8351  2.2756 -0.7386
 9022SOL    HW238529   3.595   0.129  17.079  0.7062  0.3418  1.6924
 9023SOL     OW38530   3.628   2.841   6.155 -0.2606  0.0118 -0.5353
 9023SOL    HW138531   3.533   2.839   6.139 -1.2447  0.7346  5.2213
 9023SOL    HW238532   3.625   2.807   6.245 -0.1910 -0.9818 -0.9102
 9024SOL     OW38533   4.010   2.482   4.422 -0.2601 -0.0138  0.3362
 9024SOL    HW138534   3.948   2.409   4.421 -2.4613  1.8660  1.1869
 9024SOL    HW238535   4.092   2.432   4.412 -0.1758 -0.2827  2.2362
 9025SOL     OW38536   2.894   3.540  15.506 -0.4777  0.0126  0.5498
 9025SOL    HW138537   2.867   3.627  15.533 -1.8987  0.1815 -1.3715
 9025SOL    HW238538   2.847   3.553  15.423 -0.2603  1.5736  0.6851
 9026SOL     OW38539   4.035   0.686   3.236 -0.2913  0.3897  0.3218
 9026SOL    HW138540   4.113   0.637   3.211  0.5378  1.3041  1.1656
 9026SOL    HW238541   4.005   0.710   3.148 -2.0146 -1.9524  0.2538
 9027SOL     OW38542   3.522   2.879  16.471 -0.0835 -0.1466 -0.0069
 9027SOL    HW138543   3.541   2.885  16.377 -0.1872 -0.0063 -0.0182
 9027SOL    HW238544   3.583   2.935  16.518  1.1576 -0.4845 -1.2248
 9028SOL     OW38545   4.717   1.359  13.964  0.6325  0.2727  0.0160
 9028SOL    HW138546   4.639   1.305  13.951  0.5686  0.2295  0.5883
 9028SOL    HW238547   0.036   1.366  13.881  0.5538 -1.4012 -0.1686
 9029SOL     OW38548   3.301   0.459  12.341 -0.6740 -0.1207 -0.1453
 9029SOL    HW138549   3.305   0.505  12.257  0.6618  2.3862  1.2686
 9029SOL    HW238550   3.210   0.461  12.368  0.3546  0.0226  3.2675
 9030SOL     OW38551   1.967   3.179   2.936 -0.3413  0.4008 -0.5294
 9030SOL    HW138552   2.050   3.218   2.965  0.5772 -1.3902 -0.7457
 9030SOL    HW238553   1.906   3.191   3.009  0.2899 -0.8604  0.2023
 9031SOL     OW38554   1.398   0.809   9.116 -0.1829  0.1535 -0.0866
 9031SOL    HW138555   1.461   0.812   9.188  0.5430 -0.1118 -0.7059
 9031SOL    HW238556   1.426   0.868   9.046 -3.1565  2.3164  0.5533
 9032SOL     OW38557   1.593   0.322   3.535 -0.2426 -0.1237  0.0424
 9032SOL    HW138558   1.621   0.245   3.485 -0.2597 -0.4292  0.5093
 9032SOL    HW238559   1.649   0.379   3.482 -2.0950  0.1043 -1.6561
 9033SOL     OW38560   3.464   1.272  12.699 -0.7650  0.9883  0.6085
 9033SOL    HW138561   3.382   1.319  12.683 -0.9787 -0.1195 -1.5531
 9033SOL    HW238562   3.520   1.350  12.704 -1.3932  1.6163 -1.9963
 9034SOL     OW38563   0.394   4.324   1.229  0.0402  0.2297  0.0222
 9034SOL    HW138564   0.475   4.330   1.180  0.7000 -0.5181  1.0353
 9034SOL    HW238565   0.376   4.410   1.268 -0.2171 -0.1974  0.8490
 9035SOL     OW38566   2.546   2.500   7.760 -0.2446 -0.2924 -0.2470
 9035SOL    HW138567   2.505   2.583   7.736  1.3733  0.1820 -1.4287
 9035SOL    HW238568   2.530   2.484   7.853 -1.3189 -1.5350 -0.6489
 9036SOL     OW38569   2.575   2.934   8.493 -0.3126  0.0066 -0.0744
 9036SOL    HW138570   2.554   2.963   8.404 -0.6633 -1.5295 -0.5035
 9036SOL    HW238571   2.529   2.851   8.481  0.5881 -0.7362  1.5693
 9037SOL     OW38572   2.108   1.604   1.587 -0.3364  0.0986  0.2545
 9037SOL    HW138573   2.075   1.526   1.631  1.2993 -2.1251 -2.4077
 9037SOL    HW238574   2.201   1.614   1.607 -0.6866  3.5921  0.1566
 9038SOL     OW38575   3.642   3.078   7.032 -0.2113 -0.2535 -0.2645
 9038SOL    HW138576   3.609   3.023   7.103 -1.0854 -1.9708 -1.9661
 9038SOL    HW238577   3.645   3.015   6.959  1.7247  0.5823 -0.8964
 9039SOL     OW38578   0.651   3.163   0.213 -0.4339 -0.4311 -0.3194
 9039SOL    HW138579   0.735   3.119   0.222 -0.4656 -0.2751  0.7196
 9039SOL    HW238580   0.604   3.157   0.296  0.0374 -1.2048 -0.1075
 9040SOL     OW38581   0.176   3.382   8.418  0.1315 -0.3738 -0.5993
 9040SOL    HW138582   0.131   3.450   8.368 -0.2219  0.3342  0.6721
 9040SOL    HW238583   0.108   3.356   8.480 -1.1066  0.3078 -1.6860
 9041SOL     OW38584   2.328   2.093  14.627 -0.3295 -0.0619  0.6096
 9041SOL    HW138585   2.321   2.086  14.722 -0.5482  0.9179  0.6718
 9041SOL    HW238586   2.244   2.138  14.614 -0.2445  0.0236  0.3553
 9042SOL     OW38587   3.807   3.818  15.504  0.7847 -0.1544 -0.2191
 9042SOL    HW138588   3.882   3.855  15.550  0.5448  1.3630 -1.0466
 9042SOL    HW238589   3.794   3.733  15.546  1.8471 -0.5648 -0.7201
 9043SOL     OW38590   1.081   0.496   7.798  0.5074  0.1040  0.3156
 9043SOL    HW138591   1.064   0.428   7.863  2.5885 -0.8642 -0.1756
 9043SOL    HW238592   1.149   0.543   7.847  0.8896 -0.3878  0.2529
 9044SOL     OW38593   0.493   2.428   4.103 -0.0593 -0.2432 -0.1035
 9044SOL    HW138594   0.428   2.411   4.171 -0.5809  0.8708 -0.3137
 9044SOL    HW238595   0.515   2.517   4.132  3.5202 -0.7614 -1.3301
 9045SOL     OW38596   3.798   0.690   2.588  0.4030  0.1990 -0.1116
 9045SOL    HW138597   3.813   0.782   2.610 -0.4440 -0.0999  1.6897
 9045SOL    HW238598   3.885   0.652   2.600  0.0545 -0.3255  0.7555
 9046SOL     OW38599   4.140   1.968   8.334  0.2174 -0.0409 -0.6601
 9046SOL    HW138600   4.226   1.927   8.327 -0.1196 -0.2047 -3.8015
 9046SOL    HW238601   4.151   2.017   8.416  1.5069  2.0989 -2.1051
 9047SOL     OW38602   4.357   1.926   2.773 -0.3008 -0.2208 -0.2254
 9047SOL    HW138603   4.309   2.007   2.791  2.1260  1.0115  0.7769
 9047SOL    HW238604   4.343   1.882   2.856  1.4503 -0.0734  0.1655
 9048SOL     OW38605   2.660   2.581   4.115  0.5938 -0.7857 -0.2499
 9048SOL    HW138606   2.657   2.523   4.191 -0.7213 -0.7682 -0.2947
 9048SOL    HW238607   2.670   2.517   4.045  1.9996 -0.3081 -0.4997
 9049SOL     OW38608   0.046   0.848   2.235  0.0267 -0.2908 -0.1095
 9049SOL    HW138609   4.699   0.816   2.285 -0.9100  0.8611 -0.7781
 9049SOL    HW238610   0.104   0.772   2.244  0.2921 -0.2682 -1.5039
 9050SOL     OW38611   2.568   4.214  16.500 -0.2988  0.0229  0.0329
 9050SOL    HW138612   2.662   4.215  16.516  0.1108 -4.0256 -2.0485
 9050SOL    HW238613   2.539   4.215  16.591  1.6035  0.2686  0.6416
 9051SOL     OW38614   1.718   3.395   4.926  0.3195 -0.6632 -0.5506
 9051SOL    HW138615   1.782   3.465   4.917  0.2598 -0.6041 -0.5212
 9051SOL    HW238616   1.688   3.385   4.835 -1.3804  0.9747 -0.1759
 9052SOL     OW38617   1.730   2.533   9.542  0.7934  0.0451  0.4853
 9052SOL    HW138618   1.816   2.492   9.548  0.8936  0.1111 -0.4816
 9052SOL    HW238619   1.753   2.625   9.528 -0.2611  0.1738 -0.4193
 9053SOL     OW38620   0.888   0.814   1.768  0.2938  0.0721  0.4590
 9053SOL    HW138621   0.947   0.752   1.724 -0.8452  0.2291 -1.2722
 9053SOL    HW238622   0.947   0.839   1.839  0.4820  2.2663 -0.4790
 9054SOL     OW38623   2.999   1.229   3.803  0.1827  0.1302  0.0211
 9054SOL    HW138624   3.060   1.238   3.875 -1.5055 -1.1338  1.6090
 9054SOL    HW238625   3.034   1.294   3.742 -0.6325  1.3021  0.8140
 9055SOL     OW38626   0.054   2.613   7.211  0.2650 -0.0216 -0.7264
 9055SOL    HW138627   0.011   2.686   7.166  0.2600  1.1430  1.1884
 9055SOL    HW238628   4.724   2.606   7.286  0.8734  4.7016  0.2187
 9056SOL     OW38629   0.384   3.064  12.176  0.0255 -0.0109 -0.0627
 9056SOL    HW138630   0.374   3.037  12.085  1.0529  0.6831 -0.3798
 9056SOL    HW238631   0.456   3.128  12.174  2.2251 -2.5435 -1.4362
 9057SOL     OW38632   4.559   0.267  13.267  0.2258  0.3861  0.2151
 9057SOL    HW138633   4.569   0.266  13.172 -0.1430 -0.1208  0.1766
 9057SOL    HW238634   4.649   0.243  13.288  0.5145  1.6935  0.4515
 9058SOL     OW38635   3.903   4.464   1.048  0.2956  0.4163  0.1794
 9058SOL    HW138636   3.877   4.389   1.102  0.7354  0.4936  0.5051
 9058SOL    HW238637   3.853   4.533   1.090  0.0677  0.9078 -0.9264
 9059SOL     OW38638   3.887   1.432   8.593 -0.2591  0.0526  0.0088
 9059SOL    HW138639   3.967   1.428   8.541 -1.0335  1.5896 -1.3116
 9059SOL    HW238640   3.910   1.388   8.675 -3.2560  1.3706  1.5772
 9060SOL     OW38641   4.514   1.574   6.300 -0.0156  0.0209  0.3173
 9060SOL    HW138642   4.515   1.480   6.283  1.3341 -0.2655  1.9939
 9060SOL    HW238643   4.578   1.604   6.235 -1.1162  0.6946 -0.4648
 9061SOL     OW38644   0.787   2.596   4.762 -0.0200 -0.2277  0.0968
 9061SOL    HW138645   0.824   2.509   4.751  0.8660  0.0087  1.1760
 9061SOL    HW238646   0.736   2.595   4.843 -2.0643 -1.1760 -1.2152
 9062SOL     OW38647   2.479   1.374   3.665  0.3667 -0.0965  0.1800
 9062SOL    HW138648   2.477   1.356   3.571 -1.5534  0.6251  0.0946
 9062SOL    HW238649   2.552   1.322   3.699  0.0939 -1.0025 -0.6245
 9063SOL     OW38650   2.196   4.061  10.619  0.1807  0.2405 -0.2344
 9063SOL    HW138651   2.113   4.025  10.651  0.5942  0.2134  0.8091
 9063SOL    HW238652   2.200   4.135  10.679 -0.8810 -0.3699  0.5833
 9064SOL     OW38653   2.159   4.000   6.280  0.3498 -0.2974  0.2033
 9064SOL    HW138654   2.143   4.019   6.188 -0.1277  1.8388  0.7328
 9064SOL    HW238655   2.253   4.020   6.280  0.5576 -1.2866  0.6140
 9065SOL     OW38656   0.978   0.765   7.682  0.1092  0.2846  0.2549
 9065SOL    HW138657   0.978   0.838   7.744  0.5821  1.4965 -1.1563
 9065SOL    HW238658   1.011   0.689   7.730  3.0745 -0.1366 -2.4243
 9066SOL     OW38659   4.452   3.288   7.803  0.0628 -0.0670  0.5251
 9066SOL    HW138660   4.543   3.277   7.777  0.1429  1.7874  0.0412
 9066SOL    HW238661   4.421   3.377   7.785 -1.4005 -0.7103 -0.1905
 9067SOL     OW38662   2.547   3.159   2.549 -0.3740  0.4025  0.5288
 9067SOL    HW138663   2.479   3.199   2.494  1.3683  0.7619 -1.3523
 9067SOL    HW238664   2.627   3.178   2.500 -1.0818 -0.1616 -0.8309
 9068SOL     OW38665   2.626   3.192   4.971 -0.2763 -0.0465  0.2368
 9068SOL    HW138666   2.566   3.125   4.939 -0.0746 -0.3298  0.4483
 9068SOL    HW238667   2.709   3.144   4.973  0.3667  1.0381 -0.3218
 9069SOL     OW38668   0.860   0.313   6.203 -0.3184 -0.9559 -0.2366
 9069SOL    HW138669   0.814   0.231   6.224  0.1983 -0.6395  2.1355
 9069SOL    HW238670   0.919   0.297   6.129  0.6003 -0.6387  0.4233
 9070SOL     OW38671   4.230   1.846  12.152  0.1128 -0.1517 -0.3344
 9070SOL    HW138672   4.242   1.841  12.057  1.8712  3.2104 -0.2853
 9070SOL    HW238673   4.323   1.843  12.174 -0.3960  0.8947  2.0043
 9071SOL     OW38674   2.791   4.495   7.715  0.1243 -0.4118 -0.7569
 9071SOL    HW138675   2.767   4.408   7.745  0.2335 -0.9701 -2.3126
 9071SOL    HW238676   2.755   4.510   7.627 -1.0014  2.2350  0.1438
 9072SOL     OW38677   2.335   2.543  10.469 -0.0806 -0.0333  0.9068
 9072SOL    HW138678   2.403   2.488  10.509  0.1132  0.2334  0.9464
 9072SOL    HW238679   2.365   2.544  10.378 -1.5220 -0.8698  0.4240
 9073SOL     OW38680   3.616   4.348   4.315  0.3077 -0.3866 -0.0377
 9073SOL    HW138681   3.606   4.405   4.239 -2.0576  0.3636  0.8231
 9073SOL    HW238682   3.711   4.344   4.309  0.4416  0.7694  1.1333
 9074SOL     OW38683   3.172   4.646  11.173  0.4898  0.0677 -0.0713
 9074SOL    HW138684   3.267   4.656  11.178  0.6982 -1.4669 -1.0118
 9074SOL    HW238685   3.162   4.564  11.222  0.2036  1.3147  1.9959
 9075SOL     OW38686   4.042   1.725   2.891 -0.7145  0.5382 -0.2661
 9075SOL    HW138687   3.980   1.658   2.863  0.8771 -0.1721 -2.0553
 9075SOL    HW238688   4.116   1.668   2.908 -0.5728  1.0875  0.9584
 9076SOL     OW38689   4.645   2.039   7.528 -0.0375 -0.5757 -0.0358
 9076SOL    HW138690   4.615   2.048   7.438  0.8501 -0.2175 -0.2928
 9076SOL    HW238691   0.012   2.046   7.513 -0.1322 -0.2514 -0.4794
 9077SOL     OW38692   3.384   3.589   8.459  0.6393 -0.1688  0.0726
 9077SOL    HW138693   3.450   3.522   8.479 -1.6050 -2.4304 -0.1988
 9077SOL    HW238694   3.336   3.578   8.541 -1.2109  0.4430 -0.9555
 9078SOL     OW38695   3.462   1.380  14.440  0.0442 -0.2912  0.0419
 9078SOL    HW138696   3.521   1.322  14.392 -0.3043  1.6267 -2.7053
 9078SOL    HW238697   3.397   1.318  14.473  0.1796  0.5543  1.9144
 9079SOL     OW38698   4.269   4.326   2.704  1.1019  0.5313 -0.4683
 9079SOL    HW138699   4.348   4.368   2.737 -0.2404  2.0582  0.7420
 9079SOL    HW238700   4.319   4.276   2.639 -0.5763  0.0613 -1.4055
 9080SOL     OW38701   2.306   4.234   2.651 -0.0024 -0.3143  0.0100
 9080SOL    HW138702   2.385   4.181   2.637 -0.1768 -0.7604  0.7225
 9080SOL    HW238703   2.353   4.317   2.652  3.0465 -2.0367 -0.8298
 9081SOL     OW38704   1.239   1.200   1.889  0.0580  0.0731 -0.1488
 9081SOL    HW138705   1.151   1.203   1.926  0.1752 -0.2322  0.1596
 9081SOL    HW238706   1.278   1.249   1.961  3.5427 -0.1719 -1.8810
 9082SOL     OW38707   3.965   3.948   6.878  0.8737 -0.2482  0.0167
 9082SOL    HW138708   3.917   3.876   6.918 -2.9744  1.5858 -1.3316
 9082SOL    HW238709   3.955   3.934   6.784 -2.0878 -2.2749  0.6477
 9083SOL     OW38710   0.213   1.514  11.632 -0.2988  0.0226  0.1027
 9083SOL    HW138711   0.142   1.576  11.618  0.4872  1.3269  1.8675
 9083SOL    HW238712   0.163   1.440  11.667  0.3051 -1.2290 -1.7158
 9084SOL     OW38713   2.029   2.221   7.999  0.6869  0.4427 -0.1696
 9084SOL    HW138714   2.124   2.225   8.007  0.7245  0.3924 -0.5874
 9084SOL    HW238715   2.027   2.246   7.907  0.4116 -0.2765 -0.3611
 9085SOL     OW38716   0.252   1.928   8.611  0.3704  0.3934  0.0813
 9085SOL    HW138717   0.168   1.883   8.600  0.1578  0.6655  0.5859
 9085SOL    HW238718   0.268   1.904   8.702 -2.2962 -2.8039 -0.3040
 9086SOL     OW38719   1.581   3.465  15.533 -0.5873  0.2066 -0.4604
 9086SOL    HW138720   1.673   3.490  15.547 -0.1215 -1.9775  0.3030
 9086SOL    HW238721   1.583   3.370  15.532  1.7833  0.2740 -2.4339
 9087SOL     OW38722   3.381   2.661  15.969 -0.6872  0.5060 -0.6368
 9087SOL    HW138723   3.377   2.707  16.053  0.1495  1.9857 -1.4020
 9087SOL    HW238724   3.394   2.569  15.993  0.5442  0.6744 -0.6573
 9088SOL     OW38725   2.378   2.235   6.806  0.2263  0.2436 -0.3987
 9088SOL    HW138726   2.450   2.198   6.857 -0.6125 -0.9484 -0.0857
 9088SOL    HW238727   2.308   2.174   6.828 -0.1194  0.3755 -1.1267
 9089SOL     OW38728   1.473   3.666   6.002  0.4240  0.3704 -0.1149
 9089SOL    HW138729   1.381   3.665   5.973  0.6299  2.9163 -0.8850
 9089SOL    HW238730   1.473   3.718   6.083  0.0011 -1.4480  1.0488
 9090SOL     OW38731   3.855   4.323  15.057 -0.2432 -0.1022  0.1479
 9090SOL    HW138732   3.835   4.407  15.098  0.2414  1.0621 -1.9794
 9090SOL    HW238733   3.936   4.294  15.100 -0.6968 -1.6276 -0.0264
 9091SOL     OW38734   0.596   4.715   6.347 -0.1137 -0.3083 -0.6070
 9091SOL    HW138735   0.686   0.011   6.322  0.3329 -1.3950 -0.0092
 9091SOL    HW238736   0.555   4.710   6.261 -0.0137  2.9452 -0.8689
 9092SOL     OW38737   1.318   0.192  14.493  0.6923 -0.1892  0.0948
 9092SOL    HW138738   1.264   0.136  14.550  2.4740 -0.9253  1.0382
 9092SOL    HW238739   1.246   0.223  14.437 -1.3088 -2.4881  1.4117
 9093SOL     OW38740   3.941   0.361   5.768  0.4022 -0.2521 -0.2503
 9093SOL    HW138741   3.910   0.309   5.842  0.1761 -0.7988 -0.7354
 9093SOL    HW238742   4.026   0.325   5.742  0.2916 -1.9271  1.7385
 9094SOL     OW38743   2.038   0.874   4.115 -0.2007 -0.1308 -0.5333
 9094SOL    HW138744   2.062   0.930   4.189 -0.4335 -1.3367  0.4752
 9094SOL    HW238745   1.957   0.913   4.083 -0.9390 -2.1782 -1.2040
 9095SOL     OW38746   3.957   4.653   8.203  0.3394 -0.8833 -0.1087
 9095SOL    HW138747   3.942   4.683   8.113  1.5932  0.1710  0.0370
 9095SOL    HW238748   4.022   4.585   8.184  0.5504 -0.5540 -0.5627
 9096SOL     OW38749   4.338   4.120  11.233 -0.4765  0.1413  0.1352
 9096SOL    HW138750   4.397   4.095  11.163 -1.4915  1.7918 -1.3102
 9096SOL    HW238751   4.385   4.116  11.316 -1.6548 -0.6610  0.7673
 9097SOL     OW38752   0.287   1.894  13.299  0.9449 -0.0149  0.2775
 9097SOL    HW138753   0.249   1.914  13.213 -1.2437 -0.0593  1.2285
 9097SOL    HW238754   0.259   1.803  13.305 -1.5281  1.0344  4.8722
 9098SOL     OW38755   1.455   0.550  16.395 -0.5101  0.6676 -0.1596
 9098SOL    HW138756   1.482   0.496  16.469 -1.1314  0.7922  0.1547
 9098SOL    HW238757   1.371   0.515  16.363  0.6961 -1.3298 -1.1883
 9099SOL     OW38758   1.784   1.013   0.279  0.0349 -0.0980 -0.4134
 9099SOL    HW138759   1.831   1.057   0.208 -1.1309  0.6923 -0.6982
 9099SOL    HW238760   1.786   0.922   0.248  1.6383  0.0283 -0.7032
 9100SOL     OW38761   3.026   1.051   4.596 -0.1899 -0.5242  0.8968
 9100SOL    HW138762   3.003   0.966   4.559 -1.1184  1.3071 -2.7176
 9100SOL    HW238763   2.952   1.060   4.655  0.3033 -0.2477  1.4795
 9101SOL     OW38764   2.045   3.676   2.568  0.2262 -0.3400 -0.0822
 9101SOL    HW138765   1.958   3.694   2.534  0.7750  2.0064 -0.2866
 9101SOL    HW238766   2.053   3.760   2.613 -1.0638 -0.0887 -0.3290
 9102SOL     OW38767   0.931   2.798   4.417  0.3391 -0.7621 -0.1830
 9102SOL    HW138768   0.887   2.863   4.471  1.1130 -0.6399  0.3005
 9102SOL    HW238769   1.008   2.777   4.470  1.5324 -0.3066 -1.7333
 9103SOL     OW38770   2.601   4.444   4.572  0.2927  0.3880 -0.1124
 9103SOL    HW138771   2.600   4.465   4.665  0.2621  0.3128 -0.0953
 9103SOL    HW238772   2.580   4.350   4.569  0.2903  0.4940 -3.2788
 9104SOL     OW38773   1.258   1.876   7.294  0.2308 -0.6767 -0.2163
 9104SOL    HW138774   1.218   1.799   7.333 -1.2813 -0.6449 -1.6947
 9104SOL    HW238775   1.178   1.929   7.286  0.6189  0.2307  1.9837
 9105SOL     OW38776   1.825   4.475   7.967 -0.3846  0.3356 -0.1567
 9105SOL    HW138777   1.910   4.458   7.926  0.0460 -0.5707  1.1023
 9105SOL    HW238778   1.820   4.568   7.988  0.3041  0.2777  0.2753
 9106SOL     OW38779   2.030   1.873  17.267 -0.3790 -0.0738  0.6946
 9106SOL    HW138780   1.958   1.811  17.281 -0.9515  0.6935  1.1682
 9106SOL    HW238781   2.073   1.856  17.183  0.4240 -0.4442  1.1798
 9107SOL     OW38782   3.653   0.130   7.842 -0.7210 -0.1371  0.3674
 9107SOL    HW138783   3.610   0.201   7.794 -2.0696 -1.1576  0.0769
 9107SOL    HW238784   3.700   0.084   7.773 -3.1221 -1.3885 -0.4138
 9108SOL     OW38785   1.532   2.482   3.747 -0.0136 -0.0113 -0.2710
 9108SOL    HW138786   1.473   2.463   3.674  1.0399 -1.1717 -0.8304
 9108SOL    HW238787   1.471   2.511   3.814 -1.2351  0.8827 -1.7646
 9109SOL     OW38788   4.114   4.112  12.305  0.2786  0.1760  0.1418
 9109SOL    HW138789   4.163   4.192  12.285  1.8613 -0.5968  0.9527
 9109SOL    HW238790   4.129   4.101  12.399 -1.2787 -0.4883  0.3073
 9110SOL     OW38791   4.555   0.535  12.282  0.5099 -0.0742 -0.2265
 9110SOL    HW138792   4.561   0.542  12.187  0.0370  1.7073 -0.1181
 9110SOL    HW238793   4.532   0.623  12.311  1.2400  0.6342 -1.7910
 9111SOL     OW38794   4.092   2.559   7.688  0.1612  0.4854  0.2565
 9111SOL    HW138795   4.162   2.494   7.696 -0.3051 -0.1673 -0.9527
 9111SOL    HW238796   4.044   2.524   7.613 -0.3357 -1.1381  1.3122
 9112SOL     OW38797   1.663   3.788   7.228 -0.0124  0.3023  1.0069
 9112SOL    HW138798   1.730   3.770   7.294  1.3757  1.7579 -0.0027
 9112SOL    HW238799   1.711   3.828   7.155 -0.0960 -1.5057 -0.0410
 9113SOL     OW38800   2.364   3.743   4.908  0.6836 -0.0065 -0.5830
 9113SOL    HW138801   2.342   3.735   5.000  0.6949 -1.4074 -0.7139
 9113SOL    HW238802   2.292   3.690   4.873  0.5628 -2.1903  3.0063
 9114SOL     OW38803   2.307   4.356   9.794  0.3303  0.1103  0.2042
 9114SOL    HW138804   2.357   4.383   9.871 -1.2422 -0.0303  1.2958
 9114SOL    HW238805   2.237   4.310   9.841  0.7793 -1.6525 -0.8616
 9115SOL     OW38806   4.326   3.036   8.897 -0.2639 -0.1313 -0.6130
 9115SOL    HW138807   4.316   3.124   8.933 -0.8576 -0.6844  0.5763
 9115SOL    HW238808   4.421   3.031   8.882 -0.4324 -1.3096 -1.3207
 9116SOL     OW38809   2.120   3.158  16.893  0.1395 -0.5565  1.0138
 9116SOL    HW138810   2.151   3.068  16.902 -0.8370 -0.9141  0.8232
 9116SOL    HW238811   2.056   3.148  16.822  0.4526  4.8793 -0.0243
 9117SOL     OW38812   4.336   3.199  14.266 -0.4057 -0.0203 -0.4973
 9117SOL    HW138813   4.365   3.236  14.182 -0.4710  0.1878 -0.4283
 9117SOL    HW238814   4.403   3.132  14.279  1.4939  2.2279  1.4454
 9118SOL     OW38815   2.307   2.597   4.125 -0.0454  0.0170  0.5328
 9118SOL    HW138816   2.267   2.566   4.044 -0.7877  0.2758  0.7931
 9118SOL    HW238817   2.342   2.514   4.156 -0.0170 -0.5212 -0.9176
 9119SOL     OW38818   4.098   1.946   6.215  0.4847  0.4778  0.5504
 9119SOL    HW138819   4.019   1.936   6.268  1.0800  0.9091  1.5151
 9119SOL    HW238820   4.140   1.860   6.211  1.0915  0.8103 -0.2506
 9120SOL     OW38821   4.024   0.719  15.219  0.2685  0.0337 -0.2968
 9120SOL    HW138822   4.038   0.644  15.162  1.5557  0.2082 -0.2187
 9120SOL    HW238823   4.090   0.781  15.186 -0.7161  0.7147 -0.9875
 9121SOL     OW38824   2.975   0.536  13.963  0.7211 -0.3167  0.0822
 9121SOL    HW138825   2.921   0.497  14.031  0.0312 -1.0628 -0.8860
 9121SOL    HW238826   3.046   0.472  13.969  0.0780 -0.7212  3.2798
 9122SOL     OW38827   2.623   4.231   8.118 -0.1858  0.5177 -0.3186
 9122SOL    HW138828   2.693   4.173   8.149 -0.2797  0.3869 -0.3504
 9122SOL    HW238829   2.639   4.293   8.189 -0.8225  1.6748 -1.1904
 9123SOL     OW38830   1.704   1.807   6.045 -0.5676 -0.3520  0.0004
 9123SOL    HW138831   1.669   1.847   5.966 -1.3207 -0.2049  0.4066
 9123SOL    HW238832   1.715   1.887   6.097 -0.4825  0.6463 -1.5718
 9124SOL     OW38833   1.262   2.754   8.080  0.1455  0.3344 -0.6313
 9124SOL    HW138834   1.173   2.769   8.111  1.1262 -0.3244  2.4948
 9124SOL    HW238835   1.281   2.669   8.119  0.8163  0.7218 -0.1068
 9125SOL     OW38836   4.587   3.029   6.165 -0.0841 -0.0444 -0.7181
 9125SOL    HW138837   4.621   3.019   6.254 -1.6864 -1.2928 -0.2441
 9125SOL    HW238838   4.664   3.038   6.108  0.4536  0.9781  0.1632
 9126SOL     OW38839   3.885   0.880  13.889 -0.0750  0.5673 -0.2557
 9126SOL    HW138840   3.842   0.858  13.807 -0.8742 -1.5602  0.7412
 9126SOL    HW238841   3.966   0.927  13.867  0.0940  1.7866  2.9080
 9127SOL     OW38842   2.276   2.368   0.065  0.6648 -0.4940  0.3179
 9127SOL    HW138843   2.217   2.298   0.039 -1.4014  1.2444  0.3571
 9127SOL    HW238844   2.314   2.335   0.147  1.0302 -0.1715  0.2813
 9128SOL     OW38845   3.678   0.872   4.110  0.2058  0.4265 -0.1385
 9128SOL    HW138846   3.662   0.874   4.204 -0.8836  0.6409 -0.3262
 9128SOL    HW238847   3.773   0.881   4.100  0.2494  0.3476  0.2213
 9129SOL     OW38848   2.637   2.402   4.317 -0.0802 -0.0828 -0.0250
 9129SOL    HW138849   2.544   2.385   4.306  0.0123 -1.7806  1.8242
 9129SOL    HW238850   2.675   2.317   4.293  1.9569  0.3427  1.6632
 9130SOL     OW38851   0.531   2.779   3.280 -0.2002 -0.0186 -0.1081
 9130SOL    HW138852   0.532   2.751   3.188 -1.4895  1.0075 -0.4269
 9130SOL    HW238853   0.625   2.767   3.297 -0.1987  0.4141  0.1627
 9131SOL     OW38854   2.646   3.409   8.810 -0.2064 -0.0076 -0.4278
 9131SOL    HW138855   2.711   3.455   8.862 -0.0094 -0.8621  0.0721
 9131SOL    HW238856   2.641   3.330   8.863 -4.1563 -0.3339 -1.2692
 9132SOL     OW38857   4.097   3.408  15.791  0.1979 -0.4648  0.0172
 9132SOL    HW138858   4.033   3.364  15.736  0.1445  0.8461 -0.9821
 9132SOL    HW238859   4.177   3.376  15.749  1.4156  1.6544  0.7111
 9133SOL     OW38860   0.693   1.366  10.924 -0.5451  0.0018  0.2070
 9133SOL    HW138861   0.769   1.418  10.898  0.2459 -1.3833 -0.2582
 9133SOL    HW238862   0.655   1.349  10.838 -0.9042  2.1164 -0.0546
 9134SOL     OW38863   1.114   2.686   4.601  0.4369 -0.1782 -0.5719
 9134SOL    HW138864   1.127   2.602   4.645  1.7688 -1.1349 -2.8106
 9134SOL    HW238865   1.098   2.745   4.675  2.3671  0.2269 -0.4743
 9135SOL     OW38866   2.087   0.701  11.083 -0.2640  0.1202 -0.3571
 9135SOL    HW138867   2.073   0.739  11.170 -0.4032 -1.4165  0.2892
 9135SOL    HW238868   2.118   0.620  11.123  0.0843  0.8386  0.8527
 9136SOL     OW38869   4.528   4.129  17.496  0.1172 -0.1837 -0.1896
 9136SOL    HW138870   4.497   4.152  17.584 -0.2353  2.1756 -0.9227
 9136SOL    HW238871   4.456   4.155  17.438 -0.0631 -0.5209 -0.1171
 9137SOL     OW38872   0.685   3.520   7.242 -0.4340  0.0471  0.1460
 9137SOL    HW138873   0.629   3.586   7.284  0.4149  1.4244 -0.8515
 9137SOL    HW238874   0.665   3.439   7.287 -0.1513  1.9274  3.6312
 9138SOL     OW38875   4.529   3.788   2.523  0.1135  0.3032  0.2600
 9138SOL    HW138876   4.463   3.750   2.466 -1.3331  1.3712  1.2269
 9138SOL    HW238877   4.606   3.733   2.509  0.6825  1.3218 -0.5544
 9139SOL     OW38878   1.108   3.782   7.687  0.1558 -0.5202 -0.3903
 9139SOL    HW138879   1.095   3.861   7.741  0.9643 -0.3478 -0.4416
 9139SOL    HW238880   1.154   3.729   7.751  1.6708  0.0712 -0.9883
 9140SOL     OW38881   0.489   3.204   4.485 -0.1595  0.1217  0.0612
 9140SOL    HW138882   0.507   3.213   4.579  1.1137 -1.8374 -0.0030
 9140SOL    HW238883   0.406   3.156   4.482  0.2494 -0.5719 -0.1311
 9141SOL     OW38884   0.793   3.091  12.286  0.2806  0.1971 -0.0598
 9141SOL    HW138885   0.770   3.152  12.357 -0.8454  0.1700 -0.3896
 9141SOL    HW238886   0.846   3.151  12.234 -0.4454 -0.8536 -2.0146
 9142SOL     OW38887   3.283   0.874  14.126 -0.1944 -0.0444 -0.4846
 9142SOL    HW138888   3.374   0.869  14.156  0.4875 -2.0069 -2.8618
 9142SOL    HW238889   3.285   0.966  14.099 -0.1078  0.5557  1.6176
 9143SOL     OW38890   0.807   2.273   7.006  0.4386 -0.3849  0.2364
 9143SOL    HW138891   0.794   2.320   6.924 -2.0751 -0.5759  0.5192
 9143SOL    HW238892   0.799   2.347   7.066  0.5653  1.9274 -2.5775
 9144SOL     OW38893   2.684   0.762   6.079  0.1394  0.4432  0.5014
 9144SOL    HW138894   2.681   0.854   6.105 -3.6531  0.4189  0.2590
 9144SOL    HW238895   2.741   0.718   6.142 -1.2980 -2.8672 -0.4948
 9145SOL     OW38896   3.716   2.116   0.497  0.2478 -0.6611 -0.0032
 9145SOL    HW138897   3.645   2.070   0.453  1.6201 -1.9033 -0.9108
 9145SOL    HW238898   3.685   2.207   0.496 -1.5384 -1.2586 -0.0312
 9146SOL     OW38899   2.823   2.872   2.452  0.0569 -0.3432  0.3624
 9146SOL    HW138900   2.847   2.963   2.468  1.3979 -0.3125 -2.0297
 9146SOL    HW238901   2.750   2.856   2.512 -1.2362 -0.5106 -1.2486
 9147SOL     OW38902   3.454   2.849   5.740 -0.4115  0.9007  0.3310
 9147SOL    HW138903   3.521   2.904   5.698 -2.3617  1.0775 -2.4954
 9147SOL    HW238904   3.481   2.845   5.832 -1.4103 -0.3547  0.5613
 9148SOL     OW38905   3.019   1.374  13.740  0.2978 -0.0547 -0.2964
 9148SOL    HW138906   2.939   1.388  13.689  0.3452  0.6280 -0.1759
 9148SOL    HW238907   2.974   1.362  13.823  1.7106 -0.1162  0.4496
 9149SOL     OW38908   1.083   1.132   8.753  0.1495  0.3141 -0.0104
 9149SOL    HW138909   1.099   1.109   8.844  0.3488  1.8573  0.3405
 9149SOL    HW238910   1.154   1.193   8.737 -0.5673  1.0854 -0.2501
 9150SOL     OW38911   1.297   3.979  15.828 -0.6032 -0.1079  0.0965
 9150SOL    HW138912   1.383   3.982  15.785 -0.3452  0.7947  0.6719
 9150SOL    HW238913   1.257   3.906  15.781 -2.0399  0.3052  0.6755
 9151SOL     OW38914   3.326   3.832   4.548  0.1979  0.3486  0.0139
 9151SOL    HW138915   3.349   3.868   4.463 -0.8109  0.2143 -0.3140
 9151SOL    HW238916   3.349   3.900   4.612  1.6041 -0.1974  0.0842
 9152SOL     OW38917   3.510   3.636  10.761  0.0502  0.0662  0.2317
 9152SOL    HW138918   3.575   3.604  10.699 -0.2418  0.8944 -0.5030
 9152SOL    HW238919   3.528   3.573  10.830 -0.0760  2.1302  2.1420
 9153SOL     OW38920   3.935   2.044   3.820 -0.1477  0.1794  0.6110
 9153SOL    HW138921   3.923   2.025   3.727  1.1931 -0.0671  0.4854
 9153SOL    HW238922   3.849   2.079   3.842  0.6809  1.7466  1.3673
 9154SOL     OW38923   2.721   4.640  13.756 -0.7144  0.3053 -0.1313
 9154SOL    HW138924   2.720   4.595  13.841 -0.7837 -0.0181 -0.3027
 9154SOL    HW238925   2.709   4.570  13.691  0.9664  0.0564 -0.1779
 9155SOL     OW38926   1.335   1.826   8.446 -0.2351 -0.2001 -0.4323
 9155SOL    HW138927   1.381   1.791   8.369 -0.5847 -1.3356 -0.1227
 9155SOL    HW238928   1.310   1.906   8.400 -0.5396 -0.1679 -0.2068
 9156SOL     OW38929   0.432   0.495  10.555  0.2393 -0.6739 -0.4569
 9156SOL    HW138930   0.495   0.424  10.565 -0.3646 -1.2116 -0.5000
 9156SOL    HW238931   0.405   0.529  10.640  0.6738 -0.4325 -0.4172
 9157SOL     OW38932   0.132   3.022   4.852 -0.2913 -0.4778  0.1611
 9157SOL    HW138933   0.075   2.983   4.918  0.2546  1.1574  1.6094
 9157SOL    HW238934   0.218   2.991   4.882  0.9756  1.5687 -1.3180
 9158SOL     OW38935   3.529   1.923   8.615 -0.2021 -0.2341 -0.4021
 9158SOL    HW138936   3.526   1.967   8.701 -2.0897  0.2752 -0.7420
 9158SOL    HW238937   3.462   1.857   8.630  1.5680 -1.8113  0.5803
 9159SOL     OW38938   1.234   2.010   2.779  0.0059  0.8759 -0.0993
 9159SOL    HW138939   1.162   1.955   2.747 -0.9850  1.9244  0.3144
 9159SOL    HW238940   1.308   1.950   2.775 -0.5109  0.2342 -0.0110
 9160SOL     OW38941   2.045   1.516   0.484 -0.2381 -0.0915 -0.6187
 9160SOL    HW138942   1.973   1.572   0.454 -0.6026 -0.9023 -1.2557
 9160SOL    HW238943   2.020   1.494   0.574 -0.2315  0.2074 -0.5427
 9161SOL     OW38944   4.202   0.221  17.505 -0.5584  0.2963  0.0686
 9161SOL    HW138945   4.196   0.316  17.504 -1.1085  0.2686  0.3431
 9161SOL    HW238946   4.149   0.213  17.425  0.4006 -2.5707 -0.2815
 9162SOL     OW38947   1.933   3.739   3.586  0.0166 -0.3024  0.1605
 9162SOL    HW138948   1.851   3.766   3.544 -0.2509  1.0348  1.5454
 9162SOL    HW238949   1.995   3.777   3.523  0.9547  1.3551  2.0897
 9163SOL     OW38950   3.593   1.108   8.837 -0.2237  0.1427  0.0342
 9163SOL    HW138951   3.586   1.082   8.929  1.1905 -1.3723 -0.2878
 9163SOL    HW238952   3.646   1.034   8.807  0.1422  0.2583  0.3988
 9164SOL     OW38953   0.054   0.713   3.133  0.4779  0.0106 -0.2673
 9164SOL    HW138954   0.075   0.627   3.170  1.3971  1.2392  2.0569
 9164SOL    HW238955   4.719   0.694   3.063 -0.2802 -0.8406  0.6436
 9165SOL     OW38956   4.549   3.013   2.766 -0.4092 -0.2736  0.6175
 9165SOL    HW138957   4.629   2.984   2.723  1.1850  1.0662  2.6844
 9165SOL    HW238958   4.583   3.049   2.848  4.2468 -0.8980 -1.0354
 9166SOL     OW38959   3.439   1.994  13.678 -0.1648  0.2622  0.2680
 9166SOL    HW138960   3.529   1.968  13.701  0.0008 -0.0287 -0.6945
 9166SOL    HW238961   3.457   2.071  13.625  0.2838 -0.0020  0.0325
 9167SOL     OW38962   0.443   0.119  13.883 -0.1656  0.1308  0.1946
 9167SOL    HW138963   0.358   0.077  13.881  0.4837 -1.0375 -3.1138
 9167SOL    HW238964   0.413   0.201  13.843 -0.1450 -0.7257 -1.5751
 9168SOL     OW38965   0.616   1.149   6.079  0.1941  0.6644  0.0113
 9168SOL    HW138966   0.688   1.136   6.141  0.5537  0.7622 -0.3856
 9168SOL    HW238967   0.635   1.232   6.037 -0.5721  2.0734  2.4134
 9169SOL     OW38968   1.787   3.076   4.481 -0.2339  0.2509  0.1760
 9169SOL    HW138969   1.738   3.018   4.424  1.1882 -0.8077  0.0476
 9169SOL    HW238970   1.792   3.153   4.424 -0.7629  0.0960 -0.0808
 9170SOL     OW38971   2.624   1.592   6.012 -0.2644 -0.4193 -0.4589
 9170SOL    HW138972   2.626   1.614   5.919  3.1072  0.7277 -0.1349
 9170SOL    HW238973   2.530   1.579   6.027  0.1396 -2.8619  0.0179
 9171SOL     OW38974   4.024   3.670  10.054  0.0514 -0.0477  0.4493
 9171SOL    HW138975   4.060   3.750  10.016  1.6286 -2.0086 -2.1821
 9171SOL    HW238976   4.093   3.607  10.071  0.1405  0.2045  1.0387
 9172SOL     OW38977   0.615   0.754  16.443 -0.4198  0.1184  0.0458
 9172SOL    HW138978   0.654   0.804  16.514  1.0396 -1.8484  0.6171
 9172SOL    HW238979   0.562   0.825  16.406 -0.0007  0.6686  0.5140
 9173SOL     OW38980   4.127   2.171   8.928  0.7391 -0.3440 -0.1172
 9173SOL    HW138981   4.091   2.087   8.953 -0.1530  1.1804  3.6777
 9173SOL    HW238982   4.107   2.220   9.008  0.4099  1.5837 -1.3531
 9174SOL     OW38983   2.091   4.455   8.102 -0.0192 -0.3092  0.1221
 9174SOL    HW138984   2.041   4.527   8.143  1.9664  1.5476 -0.7034
 9174SOL    HW238985   2.150   4.508   8.049  1.2486 -0.7305  1.1242
 9175SOL     OW38986   4.384   0.295   2.817 -0.1889  0.3805  0.3038
 9175SOL    HW138987   4.467   0.279   2.771 -0.6438  0.2051 -0.4493
 9175SOL    HW238988   4.385   0.217   2.873 -1.2300 -0.2592 -0.5607
 9176SOL     OW38989   3.237   0.397   6.547  0.2150 -0.2227  0.2314
 9176SOL    HW138990   3.241   0.332   6.477  0.5770 -2.0240  1.9362
 9176SOL    HW238991   3.241   0.336   6.620 -0.9643  0.7445  1.0934
 9177SOL     OW38992   3.078   0.704   0.242  0.0414 -0.2293  0.1229
 9177SOL    HW138993   3.020   0.774   0.215 -1.0206 -1.7108 -1.4665
 9177SOL    HW238994   3.117   0.696   0.155  2.4414 -0.5002  1.2193
 9178SOL     OW38995   1.678   3.199   5.247  0.0109 -0.0669 -0.3134
 9178SOL    HW138996   1.667   3.158   5.332 -0.6838  0.0047 -0.3654
 9178SOL    HW238997   1.773   3.201   5.236 -0.1796  4.0743 -1.3583
 9179SOL     OW38998   2.653   2.665   7.382  0.6949 -0.0215  0.4653
 9179SOL    HW138999   2.744   2.672   7.410  0.5902  1.8466  0.3972
 9179SOL    HW239000   2.612   2.612   7.450  1.5534  0.0435  1.0385
 9180SOL     OW39001   3.761   1.926   7.908  0.2731  0.7243 -0.1757
 9180SOL    HW139002   3.778   1.932   8.002  0.1971  0.1382 -0.1238
 9180SOL    HW239003   3.735   1.834   7.899  0.1262  0.9899 -2.3210
 9181SOL     OW39004   4.526   2.294   9.958 -0.3433 -0.4060  0.0114
 9181SOL    HW139005   4.432   2.274   9.966 -0.6810  2.3846  3.2773
 9181SOL    HW239006   4.575   2.221   9.996 -0.5734  0.5476  2.1887
 9182SOL     OW39007   3.253   1.063   8.754 -0.2578 -0.3517 -0.4378
 9182SOL    HW139008   3.331   1.009   8.767 -0.2102 -0.6916 -2.1146
 9182SOL    HW239009   3.188   1.000   8.724 -1.1531 -0.3848  1.5448
 9183SOL     OW39010   0.479   3.980   9.433 -0.1826  0.0144 -0.4827
 9183SOL    HW139011   0.416   3.965   9.504  1.2186 -2.1427  0.3406
 9183SOL    HW239012   0.443   3.945   9.352 -1.5232  0.5180 -0.1077
 9184SOL     OW39013   1.313   4.493   6.130  0.5532 -0.5754  0.0857
 9184SOL    HW139014   1.370   4.545   6.073  1.2967  0.8892  2.1729
 9184SOL    HW239015   1.258   4.444   6.069 -0.4324  1.3593 -0.5786
 9185SOL     OW39016   2.180   3.622   4.733 -0.4464 -0.6405  0.7586
 9185SOL    HW139017   2.094   3.598   4.767 -0.5904 -2.3482 -0.7846
 9185SOL    HW239018   2.205   3.540   4.689 -0.9546  0.4428 -1.5493
 9186SOL     OW39019   2.952   3.955  12.837 -0.5080  0.2815 -0.6903
 9186SOL    HW139020   2.884   3.890  12.850 -0.3114  0.4231  1.0776
 9186SOL    HW239021   3.013   3.925  12.905 -0.2764  0.7631 -0.6820
 9187SOL     OW39022   3.606   3.645   0.259 -0.6874 -0.5888 -0.1071
 9187SOL    HW139023   3.647   3.729   0.277 -0.4710 -0.7307  0.0670
 9187SOL    HW239024   3.661   3.588   0.312 -1.1438 -1.8335 -0.9668
 9188SOL     OW39025   3.789   0.068  10.123 -0.5164 -0.2276  0.4172
 9188SOL    HW139026   3.813   0.050  10.214  0.8773 -0.3172  0.0355
 9188SOL    HW239027   3.806   4.706  10.095 -1.9618  0.8406 -3.9315
 9189SOL     OW39028   0.322   3.502  14.486 -0.1729  0.2014 -0.1033
 9189SOL    HW139029   0.261   3.544  14.425 -0.1840  1.8340  1.0386
 9189SOL    HW239030   0.402   3.552  14.470 -0.8537  0.6242 -2.1664
 9190SOL     OW39031   2.924   2.722   2.110  0.2499 -0.2880  0.1808
 9190SOL    HW139032   2.896   2.740   2.020  0.7047  1.8348  0.4551
 9190SOL    HW239033   2.977   2.800   2.126 -1.4823  1.3532 -2.0436
 9191SOL     OW39034   0.041   3.283   5.739  0.9577  0.1291 -0.3254
 9191SOL    HW139035   0.113   3.275   5.801  0.3291 -0.5524  0.3146
 9191SOL    HW239036   4.714   3.349   5.781 -0.6629 -0.7558 -1.0523
 9192SOL     OW39037   0.371   2.819  13.140 -0.1214  0.6686 -0.1032
 9192SOL    HW139038   0.450   2.828  13.194 -2.3163  1.0304  3.0487
 9192SOL    HW239039   0.412   2.846  13.058 -2.1282  1.6060 -0.7946
 9193SOL     OW39040   0.431   0.671   4.730  0.0581  0.0848 -0.1923
 9193SOL    HW139041   0.338   0.695   4.722  0.5101  1.9126  0.0630
 9193SOL    HW239042   0.428   0.621   4.811 -0.9502 -1.7890 -1.3831
 9194SOL     OW39043   3.417   1.570   7.327 -0.0501  0.1077  0.8486
 9194SOL    HW139044   3.426   1.647   7.384  0.5150  1.2691 -0.8095
 9194SOL    HW239045   3.505   1.534   7.336  0.5589  1.3446 -0.2500
 9195SOL     OW39046   3.908   3.863   8.671  0.0967  0.1089 -0.5828
 9195SOL    HW139047   3.868   3.797   8.614  0.2234 -0.2597 -0.2451
 9195SOL    HW239048   3.973   3.909   8.617 -1.0816  2.7947  0.2954
 9196SOL     OW39049   2.987   3.261   8.637 -0.7565  0.3751 -0.3658
 9196SOL    HW139050   3.032   3.253   8.722 -0.2728 -1.2536 -0.7712
 9196SOL    HW239051   2.915   3.199   8.646 -0.4513  0.1226  0.3692
 9197SOL     OW39052   3.607   1.470   8.684 -0.4380  0.0659 -0.1573
 9197SOL    HW139053   3.702   1.477   8.670 -0.6401  0.7037 -1.1599
 9197SOL    HW239054   3.588   1.535   8.752 -0.5965 -3.0630  2.8236
 9198SOL     OW39055   4.166   1.512  13.469  0.1454 -0.2328  0.0526
 9198SOL    HW139056   4.081   1.476  13.443 -0.1389 -0.5380  1.3814
 9198SOL    HW239057   4.138   1.559  13.548 -0.2382 -0.1907 -0.1067
 9199SOL     OW39058   4.677   3.506   8.683 -0.0523 -0.2617 -0.0340
 9199SOL    HW139059   0.034   3.546   8.707  0.6252 -1.1006 -1.0195
 9199SOL    HW239060   4.677   3.441   8.753  1.0434  0.6611  0.8274
 9200SOL     OW39061   0.217   1.196  16.208 -0.0053 -0.6769 -0.5547
 9200SOL    HW139062   0.143   1.257  16.214 -0.3317 -1.1234  0.0131
 9200SOL    HW239063   0.167   1.119  16.181 -1.3444  0.1533 -0.4782
 9201SOL     OW39064   4.572   4.505   7.859 -0.3970  0.0218 -0.2065
 9201SOL    HW139065   4.659   4.545   7.868 -0.2410 -0.8617  2.3215
 9201SOL    HW239066   4.536   4.534   7.776 -0.7549  1.6213  0.4975
 9202SOL     OW39067   0.360   1.601   1.513 -0.4923 -0.4277 -0.5251
 9202SOL    HW139068   0.283   1.651   1.486  0.9054  0.7446 -2.3725
 9202SOL    HW239069   0.431   1.663   1.499 -0.6951 -0.4155 -1.5306
 9203SOL     OW39070   0.578   4.308   1.030 -0.2905  0.1728 -0.0470
 9203SOL    HW139071   0.503   4.262   0.991 -0.7743  0.4390  0.5710
 9203SOL    HW239072   0.638   4.316   0.957 -2.1003  1.9029 -1.3422
 9204SOL     OW39073   1.822   2.316   5.948  0.3360 -0.3508  0.0638
 9204SOL    HW139074   1.746   2.351   5.901 -1.4763 -1.9994  1.7388
 9204SOL    HW239075   1.840   2.382   6.016  0.0794  0.1880 -0.3911
 9205SOL     OW39076   0.225   0.854   7.137 -0.0841 -0.1747  0.2238
 9205SOL    HW139077   0.157   0.880   7.199  0.3185  0.6767  0.3131
 9205SOL    HW239078   0.191   0.772   7.103 -2.4997  1.2520 -0.8084
 9206SOL     OW39079   2.567   0.387   9.727  0.0318  0.4462  0.0372
 9206SOL    HW139080   2.600   0.303   9.695 -1.2113 -0.5219  1.3135
 9206SOL    HW239081   2.513   0.411   9.652 -0.4567 -1.8689 -0.3298
 9207SOL     OW39082   2.698   2.249  14.012  0.6475 -0.1851  0.2811
 9207SOL    HW139083   2.623   2.201  14.049  1.2030 -1.5904 -0.4378
 9207SOL    HW239084   2.736   2.297  14.085 -0.0508 -2.2016  1.9862
 9208SOL     OW39085   4.672   0.416   2.392 -0.1886  0.5815  0.2870
 9208SOL    HW139086   4.705   0.484   2.451 -2.0169  0.2916  1.6338
 9208SOL    HW239087   4.712   0.443   2.310  0.7247  1.3797  0.9962
 9209SOL     OW39088   0.892   1.319  17.615  0.4947  0.4682  0.1611
 9209SOL    HW139089   0.812   1.311  17.668  0.3652  3.5070  0.4392
 9209SOL    HW239090   0.958   1.306  17.684  0.3013 -1.9270 -0.1113
 9210SOL     OW39091   3.587   0.344   5.282  0.2952 -0.0267 -0.4420
 9210SOL    HW139092   3.628   0.414   5.332 -1.6204 -0.0002  1.0909
 9210SOL    HW239093   3.658   0.305   5.233 -1.3615 -1.3069 -1.8262
 9211SOL     OW39094   3.659   4.518   4.115 -0.1424 -0.3071 -0.9857
 9211SOL    HW139095   3.636   4.596   4.065  2.4290  0.5519 -0.8325
 9211SOL    HW239096   3.704   4.474   4.042 -0.2080  0.1088 -1.2773
 9212SOL     OW39097   0.995   2.369  15.746 -0.0753  0.5494  0.3610
 9212SOL    HW139098   1.025   2.383  15.656  1.6984 -2.8645  0.4245
 9212SOL    HW239099   1.063   2.307  15.773 -1.7896 -1.9760 -1.1638
 9213SOL     OW39100   2.400   1.338   3.078 -0.1467 -0.3677 -0.0121
 9213SOL    HW139101   2.418   1.256   3.033  0.0897  0.0973 -0.7699
 9213SOL    HW239102   2.354   1.308   3.156  2.0536  0.2737  1.5177
 9214SOL     OW39103   4.677   4.209   4.108  0.1074  0.5254 -0.2663
 9214SOL    HW139104   4.582   4.214   4.102 -0.1585 -1.6624  1.9816
 9214SOL    HW239105   4.691   4.148   4.181 -2.1242  0.5146  0.1485
 9215SOL     OW39106   3.829   0.823   6.790  0.6463  0.0884  0.3288
 9215SOL    HW139107   3.752   0.794   6.840 -0.4999  1.1729 -0.7895
 9215SOL    HW239108   3.796   0.877   6.718 -0.0873 -1.3690 -0.4281
 9216SOL     OW39109   1.023   3.787   7.374  0.2662 -0.1635  0.3027
 9216SOL    HW139110   1.024   3.786   7.469 -1.5745 -1.1490  0.3094
 9216SOL    HW239111   1.052   3.876   7.355  1.3654 -0.1653  2.0082
 9217SOL     OW39112   3.788   4.159   3.736  0.0824  0.0592 -0.0354
 9217SOL    HW139113   3.744   4.081   3.702  1.0714 -0.9984  1.1095
 9217SOL    HW239114   3.844   4.123   3.805  0.2694 -0.3699 -0.4100
 9218SOL     OW39115   0.960   4.149   7.204  0.2482  0.5277  0.0059
 9218SOL    HW139116   1.033   4.101   7.165  0.9133  0.3201  1.5063
 9218SOL    HW239117   0.993   4.237   7.187  0.3473  0.4467 -0.2202
 9219SOL     OW39118   4.041   1.699  13.701 -0.0577  0.1860 -0.3940
 9219SOL    HW139119   4.034   1.633  13.769  1.4116  1.4140  0.9414
 9219SOL    HW239120   4.053   1.782  13.747 -0.1478  0.5567 -1.0291
 9220SOL     OW39121   1.352   2.027  17.362  0.0825 -0.6712 -0.0232
 9220SOL    HW139122   1.413   1.964  17.324  0.8460  0.4709 -0.6905
 9220SOL    HW239123   1.303   1.980  17.430 -2.2348 -0.5990 -1.6352
 9221SOL     OW39124   2.415   3.081  14.401  0.2668 -0.0349 -0.6713
 9221SOL    HW139125   2.435   3.056  14.491  0.3059  0.0570 -0.6548
 9221SOL    HW239126   2.322   3.102  14.401 -0.1895 -2.0533  0.7212
 9222SOL     OW39127   0.980   4.557   6.566 -0.5221  0.0978 -0.5475
 9222SOL    HW139128   0.975   4.637   6.620  0.9912  0.7152 -1.3081
 9222SOL    HW239129   0.990   4.493   6.636  0.9615  1.6165  0.6403
 9223SOL     OW39130   4.265   1.893   5.179  0.3045 -0.1050 -0.8536
 9223SOL    HW139131   4.319   1.862   5.107  2.4176  0.5016  0.4749
 9223SOL    HW239132   4.200   1.932   5.120 -0.1864 -0.9070 -0.8465
 9224SOL     OW39133   1.386   4.346   4.158 -0.1789 -0.7435  0.1346
 9224SOL    HW139134   1.424   4.423   4.200  0.2475 -0.8075 -0.1300
 9224SOL    HW239135   1.313   4.386   4.110 -1.6203 -0.8992  2.2328
 9225SOL     OW39136   2.350   3.933   5.559  0.1767 -0.3105  0.1802
 9225SOL    HW139137   2.444   3.950   5.551 -0.0818  0.0296 -2.0514
 9225SOL    HW239138   2.323   3.951   5.469  1.6902 -1.4290 -0.5007
 9226SOL     OW39139   1.440   3.315  12.161  0.1968  0.1396  0.7198
 9226SOL    HW139140   1.413   3.300  12.252  1.0971  1.0163  1.1209
 9226SOL    HW239141   1.457   3.408  12.172  0.9859  0.1667 -0.7650
 9227SOL     OW39142   4.407   2.218   7.567 -0.2193 -0.0082  0.0111
 9227SOL    HW139143   4.489   2.169   7.564 -0.3497 -0.4381  2.9928
 9227SOL    HW239144   4.344   2.151   7.543  0.5950  0.2626 -2.8690
 9228SOL     OW39145   4.374   3.020   3.859 -1.2245  0.9326  0.4155
 9228SOL    HW139146   4.348   2.934   3.826  0.5294  1.1935 -1.7010
 9228SOL    HW239147   4.317   3.039   3.933 -1.3575  1.0122  0.2939
 9229SOL     OW39148   2.875   2.256  13.166  0.0683  0.7800 -0.2512
 9229SOL    HW139149   2.828   2.243  13.248 -0.8083  1.4758 -0.6505
 9229SOL    HW239150   2.965   2.281  13.188 -0.4088  1.6989  0.6075
 9230SOL     OW39151   1.432   2.060   1.107 -0.4575  0.1619  0.2815
 9230SOL    HW139152   1.385   2.067   1.025 -1.1611  0.1368  0.6866
 9230SOL    HW239153   1.366   2.032   1.170  0.5115 -0.5029  1.0135
 9231SOL     OW39154   2.060   1.499   3.181  0.2728  0.1499  0.0661
 9231SOL    HW139155   2.130   1.537   3.128 -1.2400  0.5081 -1.6996
 9231SOL    HW239156   2.111   1.452   3.247  1.6370 -0.6691 -1.5648
 9232SOL     OW39157   2.976   2.421   6.217 -0.8848 -0.1859 -0.2287
 9232SOL    HW139158   2.971   2.339   6.267  3.2924  0.6097  1.5311
 9232SOL    HW239159   2.980   2.373   6.134 -0.4960  2.5067 -1.7547
 9233SOL     OW39160   2.231   1.080   1.446 -0.1595  0.5349 -0.5240
 9233SOL    HW139161   2.295   1.009   1.451  1.0824  1.7428  0.7064
 9233SOL    HW239162   2.152   1.026   1.434 -0.1295  0.0633  1.4392
 9234SOL     OW39163   2.102   1.263   6.440 -0.1156 -0.5183  0.1959
 9234SOL    HW139164   2.093   1.279   6.346  1.9375  1.0288  0.2855
 9234SOL    HW239165   2.082   1.352   6.468  1.4814  0.2996 -1.3004
 9235SOL     OW39166   2.792   3.688   2.605  0.3682  0.3019 -0.2744
 9235SOL    HW139167   2.870   3.738   2.581  0.0313  0.4287 -1.1389
 9235SOL    HW239168   2.804   3.601   2.566 -0.9976 -0.2695  0.6015
 9236SOL     OW39169   1.534   0.309   9.533  0.3119 -0.0768 -0.2928
 9236SOL    HW139170   1.602   0.281   9.595 -0.5956 -0.5748  0.4797
 9236SOL    HW239171   1.486   0.226   9.539  1.9489 -1.0509 -0.8036
 9237SOL     OW39172   0.842   4.273  13.609 -0.1236  0.4926 -0.8708
 9237SOL    HW139173   0.888   4.354  13.633 -1.1621  0.2764  1.8356
 9237SOL    HW239174   0.750   4.298  13.618 -0.4178 -1.6027  1.9921
 9238SOL     OW39175   4.709   1.414   3.770  0.5750 -0.1378  0.1954
 9238SOL    HW139176   4.643   1.354   3.734 -0.0551  1.1889 -0.8848
 9238SOL    HW239177   4.698   1.396   3.863  1.5123 -2.9657 -0.2362
 9239SOL     OW39178   1.570   4.336   2.221 -0.0547  0.0055 -0.3452
 9239SOL    HW139179   1.647   4.282   2.241 -2.3686 -1.8581  3.5675
 9239SOL    HW239180   1.551   4.382   2.303 -1.5139  0.9112 -1.1942
 9240SOL     OW39181   0.551   3.668  14.465 -0.0350  0.5940 -0.3627
 9240SOL    HW139182   0.587   3.694  14.550 -1.7113  2.9400 -0.3498
 9240SOL    HW239183   0.624   3.617  14.430 -1.1985  0.0870 -2.0088
 9241SOL     OW39184   3.094   1.444   3.141  0.5597 -0.3962 -0.5974
 9241SOL    HW139185   3.100   1.506   3.214 -1.6055  0.2478 -0.9793
 9241SOL    HW239186   3.117   1.494   3.063  0.4315  0.5118 -0.0530
 9242SOL     OW39187   1.585   3.104   3.759  0.0858  0.0853  0.5835
 9242SOL    HW139188   1.638   3.180   3.782  0.6959  0.2855 -1.4594
 9242SOL    HW239189   1.504   3.146   3.733  0.2677  1.9053  2.9184
 9243SOL     OW39190   3.342   2.075  10.723  0.3788 -0.4800  0.0676
 9243SOL    HW139191   3.362   2.116  10.807  3.0852  0.9344 -1.2796
 9243SOL    HW239192   3.364   1.983  10.734  0.0829 -0.3779  1.6078
 9244SOL     OW39193   1.101   1.963   8.137  0.1584  0.4031  0.0098
 9244SOL    HW139194   1.140   1.989   8.053  1.1276  1.7030  0.8481
 9244SOL    HW239195   1.175   1.991   8.192 -1.6329 -0.3389  2.7699
 9245SOL     OW39196   3.473   2.253   6.112 -0.2501  0.6703  0.1166
 9245SOL    HW139197   3.388   2.253   6.069  0.5071  0.4399 -1.4053
 9245SOL    HW239198   3.454   2.236   6.204 -0.5555  0.7843  0.0723
 9246SOL     OW39199   1.763   1.318   6.555 -0.2393  0.2312  0.1306
 9246SOL    HW139200   1.820   1.373   6.502 -0.5551  1.0709  0.6699
 9246SOL    HW239201   1.692   1.300   6.493  0.7483 -1.2465 -0.5819
 9247SOL     OW39202   1.559   1.144  10.394  0.1576  0.3510  0.4532
 9247SOL    HW139203   1.582   1.161  10.485  0.6940 -0.1280  0.4132
 9247SOL    HW239204   1.478   1.194  10.390  1.6801  2.8315  1.0165
 9248SOL     OW39205   2.904   1.480   6.137 -0.1521 -0.7381 -0.0357
 9248SOL    HW139206   2.858   1.451   6.216 -0.0652  0.3902  0.4226
 9248SOL    HW239207   2.834   1.520   6.086  0.9288  0.4678 -0.5526
 9249SOL     OW39208   0.961   1.986  13.494  0.0015  0.0560  0.1024
 9249SOL    HW139209   0.918   1.908  13.460 -2.1946 -0.4283  3.9729
 9249SOL    HW239210   1.039   1.998  13.439  0.5892 -0.4649  0.8171
 9250SOL     OW39211   1.524   0.036   9.190  0.1455  0.4285 -0.2878
 9250SOL    HW139212   1.486   0.116   9.156  1.1684  1.0095 -0.0545
 9250SOL    HW239213   1.616   0.060   9.200 -0.2781  2.0064 -0.2080
 9251SOL     OW39214   2.655   3.487   6.015 -0.7075 -0.5283 -0.3733
 9251SOL    HW139215   2.709   3.560   6.046 -1.0331 -1.4926  2.4787
 9251SOL    HW239216   2.663   3.481   5.920  1.8490 -3.2117  0.0014
 9252SOL     OW39217   0.788   0.180   0.495  0.0837 -0.0552  0.3729
 9252SOL    HW139218   0.838   0.162   0.574 -1.1950 -0.3740  1.1170
 9252SOL    HW239219   0.852   0.138   0.438 -1.7222  0.5104 -2.0883
 9253SOL     OW39220   3.129   3.901   8.549  1.0529  0.3650 -0.1711
 9253SOL    HW139221   3.161   3.882   8.637  0.5862  0.6808  0.0694
 9253SOL    HW239222   3.209   3.930   8.505 -0.4248  2.0889 -1.7348
 9254SOL     OW39223   3.984   0.180   3.291  0.5059  0.0616 -0.6037
 9254SOL    HW139224   3.989   0.102   3.237 -0.6122 -0.9269  0.7321
 9254SOL    HW239225   3.890   0.200   3.295  0.4675 -0.4252  0.8086
 9255SOL     OW39226   1.746   1.089  13.979 -0.2311 -0.2807  0.7404
 9255SOL    HW139227   1.710   1.167  13.938  1.6802  0.4257  0.4054
 9255SOL    HW239228   1.675   1.049  14.029  0.4266 -2.3090  0.0933
 9256SOL     OW39229   3.448   2.739   6.747  0.0071  0.0356 -0.0933
 9256SOL    HW139230   3.475   2.657   6.706 -0.9070  0.2867 -1.1978
 9256SOL    HW239231   3.403   2.696   6.820  0.3240  1.7125  1.0919
 9257SOL     OW39232   3.871   4.704  13.274  0.1369 -0.4266  0.5756
 9257SOL    HW139233   3.838   0.029  13.202 -1.2225  0.2059  1.6612
 9257SOL    HW239234   3.794   4.666  13.316 -0.2748  0.2283  0.4086
 9258SOL     OW39235   3.852   4.408   1.686  0.2908 -0.6460 -0.2217
 9258SOL    HW139236   3.850   4.338   1.752 -3.6238 -1.4942 -1.2139
 9258SOL    HW239237   3.818   4.485   1.733  4.8112  1.2322 -0.0367
 9259SOL     OW39238   0.213   3.124   1.175  0.0434 -0.5973 -0.2956
 9259SOL    HW139239   0.214   3.217   1.194 -1.9448 -0.7976  0.8500
 9259SOL    HW239240   0.126   3.088   1.197 -0.2509 -1.3508 -2.6572
 9260SOL     OW39241   3.018   1.254   7.914 -0.0541  0.1648  0.4562
 9260SOL    HW139242   3.013   1.342   7.876  1.0970  0.8244  1.8306
 9260SOL    HW239243   2.923   1.242   7.921 -0.0375 -0.4300 -0.3046
 9261SOL     OW39244   0.033   4.188  12.267 -0.3703  0.3768 -0.3197
 9261SOL    HW139245   0.015   4.281  12.278  2.5533  1.0201 -0.9376
 9261SOL    HW239246   4.687   4.155  12.318 -0.4781  1.5136  0.2612
 9262SOL     OW39247   2.744   2.481  14.186  0.4111 -0.2830  0.2050
 9262SOL    HW139248   2.795   2.536  14.127 -1.7854  1.5800  0.0571
 9262SOL    HW239249   2.720   2.547  14.251 -0.4573 -0.6102  0.2174
 9263SOL     OW39250   3.647   2.439   1.655  0.2227  0.2048 -0.1628
 9263SOL    HW139251   3.671   2.354   1.620  0.8177 -0.9778  3.1578
 9263SOL    HW239252   3.661   2.491   1.575 -0.3903  2.9647  1.5088
 9264SOL     OW39253   1.870   3.137   1.703 -0.0547 -0.2012  0.3047
 9264SOL    HW139254   1.807   3.176   1.764  1.4257  1.3856  0.8039
 9264SOL    HW239255   1.939   3.116   1.766  1.6018  0.7305 -1.2124
 9265SOL     OW39256   0.153   3.741   9.658 -0.1289  0.1710 -0.4192
 9265SOL    HW139257   0.063   3.755   9.687  0.1276 -1.0925  1.0276
 9265SOL    HW239258   0.172   3.670   9.719 -0.3960  0.8100  0.4091
 9266SOL     OW39259   2.882   1.649  13.651 -0.0399  0.4484 -0.2376
 9266SOL    HW139260   2.897   1.693  13.568  1.2256  2.7845  1.2458
 9266SOL    HW239261   2.848   1.567  13.615  2.0339  0.0182 -1.1885
 9267SOL     OW39262   4.497   2.202  14.262  0.2200 -0.1081  0.0062
 9267SOL    HW139263   4.588   2.211  14.233 -0.7331  0.4001 -2.8571
 9267SOL    HW239264   4.502   2.215  14.356  0.1861 -0.3533  0.0418
 9268SOL     OW39265   3.554   0.690   5.469  0.1417 -0.3614  0.2113
 9268SOL    HW139266   3.508   0.774   5.477  0.0569 -0.4133  0.2629
 9268SOL    HW239267   3.587   0.679   5.558  0.4915  0.6058  0.2106
 9269SOL     OW39268   1.228   4.625  13.076 -0.7119 -0.0893  0.1342
 9269SOL    HW139269   1.146   4.649  13.120 -0.2427  1.1185  0.3662
 9269SOL    HW239270   1.204   4.574  12.999 -0.8887 -0.1916  0.2574
 9270SOL     OW39271   3.134   2.337  14.944 -0.0659  0.4777  0.4032
 9270SOL    HW139272   3.230   2.332  14.944 -0.1095 -0.3039 -1.3666
 9270SOL    HW239273   3.107   2.315  14.855  1.0951  0.0687  0.1499
 9271SOL     OW39274   3.858   2.227  14.563  1.0312  0.0009  0.0320
 9271SOL    HW139275   3.819   2.162  14.620  0.0789  0.8367  0.3335
 9271SOL    HW239276   3.876   2.184  14.479 -0.1271 -1.4944  0.5570
 9272SOL     OW39277   2.874   3.601   2.254 -0.3720 -0.2891 -0.5911
 9272SOL    HW139278   2.901   3.590   2.345  1.0749  2.2017 -0.7316
 9272SOL    HW239279   2.856   3.511   2.227  1.2193 -0.1870 -2.0087
 9273SOL     OW39280   1.810   0.016   7.504 -0.6454  0.6007  0.0505
 9273SOL    HW139281   1.787   0.091   7.448 -1.1286  1.3751  1.2888
 9273SOL    HW239282   1.905   0.025   7.498 -0.7812  1.2086 -1.3368
 9274SOL     OW39283   0.396   3.571   5.195  0.1241  0.1406 -0.5641
 9274SOL    HW139284   0.345   3.492   5.177 -1.0078  1.1964 -1.9382
 9274SOL    HW239285   0.326   3.618   5.240  1.6081  1.0076  0.8306
 9275SOL     OW39286   3.523   4.324   8.313  0.1251  0.1138  0.1292
 9275SOL    HW139287   3.428   4.309   8.312  0.2663 -0.6598 -1.2278
 9275SOL    HW239288   3.536   4.355   8.402 -2.2813  0.5562  0.3309
 9276SOL     OW39289   1.867   0.128   4.130  0.5876 -0.1117  0.2225
 9276SOL    HW139290   1.777   0.140   4.161  0.6423 -1.0345  0.7563
 9276SOL    HW239291   1.909   0.101   4.212  0.3845  1.0437  0.7110
 9277SOL     OW39292   2.012   2.533   1.191  0.3594  0.1368  0.3088
 9277SOL    HW139293   2.006   2.437   1.184  0.9829  0.3062 -2.3916
 9277SOL    HW239294   1.918   2.553   1.188  0.4554  0.4921 -0.2854
 9278SOL     OW39295   4.458   4.153   1.603 -0.7110  0.4155  0.0280
 9278SOL    HW139296   4.408   4.231   1.579 -2.7489  0.0919  3.2197
 9278SOL    HW239297   4.449   4.092   1.530  1.6464  0.6127 -0.4185
 9279SOL     OW39298   3.806   3.106   2.657  0.1113 -0.9314  0.4350
 9279SOL    HW139299   3.841   3.081   2.572 -0.4468 -1.4821  0.3697
 9279SOL    HW239300   3.874   3.169   2.682  0.1510 -0.9432  0.3582
 9280SOL     OW39301   1.137   1.271   5.745  0.2665  0.3229 -0.2057
 9280SOL    HW139302   1.155   1.362   5.770 -0.4027  0.4861 -0.3218
 9280SOL    HW239303   1.060   1.269   5.688  1.2865  0.8746 -1.6053
 9281SOL     OW39304   2.035   2.542   7.111 -0.6791 -0.1236  0.7499
 9281SOL    HW139305   1.957   2.542   7.055 -1.9568 -3.1366  2.5485
 9281SOL    HW239306   1.993   2.522   7.194 -0.1667 -2.7138  0.3782
 9282SOL     OW39307   3.863   0.735   0.509  0.0680  0.0926  0.1715
 9282SOL    HW139308   3.858   0.653   0.559 -2.7241 -0.9166 -1.7847
 9282SOL    HW239309   3.867   0.707   0.417  3.7753  0.8660  0.0870
 9283SOL     OW39310   2.965   3.595   7.707 -0.5911 -0.4172  0.3068
 9283SOL    HW139311   2.993   3.683   7.680  0.2623 -0.9921 -0.7055
 9283SOL    HW239312   3.045   3.543   7.702  0.4167  0.9882  1.6514
 9284SOL     OW39313   3.693   3.284   6.184 -0.6176 -0.1932 -0.0294
 9284SOL    HW139314   3.686   3.243   6.098 -1.1395  1.2429 -0.6754
 9284SOL    HW239315   3.753   3.225   6.229 -0.6489  0.5148  0.9284
 9285SOL     OW39316   3.455   3.849  12.685  0.8078  0.0715 -0.1807
 9285SOL    HW139317   3.362   3.870  12.693  0.7659 -0.3932  0.6165
 9285SOL    HW239318   3.476   3.887  12.600 -1.1210 -1.4355 -1.3295
 9286SOL     OW39319   1.591   0.085  13.343  0.4033 -0.4759  0.1339
 9286SOL    HW139320   1.535   0.013  13.315 -0.1995  0.7934 -1.8668
 9286SOL    HW239321   1.665   0.076  13.283  0.8704  1.2208  0.4430
 9287SOL     OW39322   4.110   4.181   7.153 -0.7564 -0.0323  0.2418
 9287SOL    HW139323   4.050   4.212   7.220 -0.3243 -0.1212  0.6707
 9287SOL    HW239324   4.191   4.219   7.185 -0.4811 -1.2288  0.9760
 9288SOL     OW39325   3.785   2.213   1.165  0.5847  0.2967 -0.5170
 9288SOL    HW139326   3.833   2.161   1.229  0.6288  0.9451 -0.0281
 9288SOL    HW239327   3.853   2.268   1.126 -0.0350  1.6710  0.3497
 9289SOL     OW39328   0.719   1.793   0.543 -0.0526 -0.0832 -0.1762
 9289SOL    HW139329   0.633   1.816   0.580  0.0425 -1.6964  1.0584
 9289SOL    HW239330   0.724   1.707   0.584  1.0073 -0.0606 -0.2730
 9290SOL     OW39331   2.459   1.148   2.611 -0.2273  0.2948  0.0053
 9290SOL    HW139332   2.469   1.235   2.571 -1.5642 -0.1446 -1.2458
 9290SOL    HW239333   2.550   1.147   2.641  0.0156  1.2158 -0.6712
 9291SOL     OW39334   2.246   3.760   2.393 -0.3845 -0.4717  0.0714
 9291SOL    HW139335   2.192   3.711   2.455  0.3364 -0.6929  0.5262
 9291SOL    HW239336   2.213   3.848   2.413  0.1465 -0.3603  0.4701
 9292SOL     OW39337   0.677   1.541   3.427 -0.6776 -0.1087  0.4662
 9292SOL    HW139338   0.658   1.533   3.520 -0.8731 -2.8353  0.1961
 9292SOL    HW239339   0.760   1.493   3.422 -0.5085  0.3149 -0.8490
 9293SOL     OW39340   1.861   4.609   8.780  0.3561 -0.1767 -0.0075
 9293SOL    HW139341   1.770   4.580   8.776  0.7195 -1.4959  1.2577
 9293SOL    HW239342   1.863   4.650   8.866  2.0042 -0.8676  0.2781
 9294SOL     OW39343   3.737   3.646   2.692 -0.4457 -0.6293  0.0807
 9294SOL    HW139344   3.762   3.676   2.605 -0.8634 -3.8459 -1.1456
 9294SOL    HW239345   3.718   3.554   2.674 -0.4872 -0.5942 -0.0583
 9295SOL     OW39346   4.545   0.051   8.480  0.1864 -0.0966 -0.5860
 9295SOL    HW139347   4.597   0.074   8.403 -1.8227 -0.1095 -1.9253
 9295SOL    HW239348   4.545   0.137   8.523  1.4467 -0.6414  0.5040
 9296SOL     OW39349   1.299   4.611   7.251  0.5959 -0.1879 -0.1059
 9296SOL    HW139350   1.308   4.580   7.161 -1.9368  0.2337 -0.5115
 9296SOL    HW239351   1.316   4.704   7.238 -2.1868  0.2885 -0.3928
 9297SOL     OW39352   2.624   2.533   2.191  0.1878 -0.2162  0.0323
 9297SOL    HW139353   2.650   2.478   2.118  0.0030 -0.6720  0.3051
 9297SOL    HW239354   2.671   2.613   2.170 -0.5134 -0.1016 -1.0900
 9298SOL     OW39355   4.142   3.809  17.510 -0.0577 -0.4392 -0.2418
 9298SOL    HW139356   4.152   3.776  17.599 -3.0702 -1.3266 -0.2228
 9298SOL    HW239357   4.231   3.810  17.476  0.3175  0.4133  0.7470
 9299SOL     OW39358   3.580   1.627   0.812  0.1315  0.2014 -0.3025
 9299SOL    HW139359   3.521   1.552   0.801  2.2304 -1.1355 -2.5471
 9299SOL    HW239360   3.604   1.619   0.904 -0.2874  0.7059 -0.1522
 9300SOL     OW39361   0.904   4.358   2.440 -0.2944 -0.2610  0.0114
 9300SOL    HW139362   0.876   4.358   2.348  0.8422 -0.0135 -0.3408
 9300SOL    HW239363   0.820   4.367   2.484 -0.5780  2.1152 -1.0077
 9301SOL     OW39364   3.346   2.807  10.333 -0.1353 -0.2318 -0.3150
 9301SOL    HW139365   3.298   2.879  10.372  0.5526 -0.5333  1.0721
 9301SOL    HW239366   3.407   2.862  10.284 -0.0053  0.1768  0.3065
 9302SOL     OW39367   3.672   1.932   5.441  0.2531 -0.1979 -0.6204
 9302SOL    HW139368   3.756   1.894   5.466 -0.5351 -2.3478 -1.3143
 9302SOL    HW239369   3.634   1.864   5.385 -0.2040 -0.7797  0.4079
 9303SOL     OW39370   0.320   3.592   8.986  0.0859 -0.2066  0.3312
 9303SOL    HW139371   0.381   3.610   8.914  0.9703 -2.1470  0.5738
 9303SOL    HW239372   0.348   3.513   9.032  0.7587  0.0855  0.4205
 9304SOL     OW39373   2.838   0.589   8.379  0.5112  0.3762 -0.5075
 9304SOL    HW139374   2.858   0.601   8.472 -0.4803  0.1839 -0.2716
 9304SOL    HW239375   2.845   0.682   8.358 -1.3484  0.3693 -1.1762
 9305SOL     OW39376   1.000   3.914   6.594 -0.4381  0.1274 -0.4375
 9305SOL    HW139377   0.933   3.873   6.540  0.3948 -0.5806 -0.9375
 9305SOL    HW239378   1.066   3.942   6.531 -1.8281  1.4545 -1.2807
 9306SOL     OW39379   2.294   2.215   2.166 -0.2410 -0.4719  0.0418
 9306SOL    HW139380   2.320   2.244   2.254  0.8104  1.1951 -0.8326
 9306SOL    HW239381   2.282   2.301   2.127  0.4451  0.6316  2.2952
 9307SOL     OW39382   4.665   1.915  11.857  0.1466  0.4064 -0.2203
 9307SOL    HW139383   4.651   1.896  11.949  1.4354  3.4499  0.5933
 9307SOL    HW239384   0.027   1.882  11.845 -0.4619 -1.3909  0.1894
 9308SOL     OW39385   2.692   3.881  13.969  0.2370 -0.0563  0.1122
 9308SOL    HW139386   2.780   3.852  13.990  0.1139 -0.1220  0.5298
 9308SOL    HW239387   2.688   3.853  13.877  0.7485 -2.0475  0.7078
 9309SOL     OW39388   1.482   4.504   9.289 -0.2715  0.2080  0.4097
 9309SOL    HW139389   1.572   4.486   9.315  0.7020  2.5030 -1.3477
 9309SOL    HW239390   1.497   4.595   9.262 -0.7179 -0.0135 -0.5970
 9310SOL     OW39391   3.833   3.334   4.447  0.0227  0.5859  0.0662
 9310SOL    HW139392   3.823   3.266   4.515  1.7444  0.1755 -0.0718
 9310SOL    HW239393   3.862   3.282   4.372 -0.0317  0.6275  0.0178
 9311SOL     OW39394   4.547   0.651   7.484 -0.6701  0.0041 -0.4429
 9311SOL    HW139395   4.582   0.622   7.569  1.9137  1.9798 -0.8233
 9311SOL    HW239396   4.631   0.643   7.438 -0.4650 -1.3479  0.1536
 9312SOL     OW39397   3.221   2.184   5.482 -0.0700 -0.1122 -0.2793
 9312SOL    HW139398   3.223   2.180   5.386  0.2953  1.1314 -0.3229
 9312SOL    HW239399   3.274   2.108   5.504 -0.2569 -0.6012 -1.5064
 9313SOL     OW39400   2.662   2.202   6.303 -0.0773 -0.1713  0.4552
 9313SOL    HW139401   2.686   2.113   6.330  1.0752 -0.1907 -0.6831
 9313SOL    HW239402   2.746   2.243   6.323  0.6808 -1.2793 -0.4886
 9314SOL     OW39403   4.286   4.656   9.381 -0.0933 -0.0138  0.1309
 9314SOL    HW139404   4.269   0.022   9.385 -1.9179 -0.3488  0.0289
 9314SOL    HW239405   4.205   4.620   9.345  0.2077  0.1781 -0.7275
 9315SOL     OW39406   0.810   0.392   4.885 -0.8496  0.6690 -0.1862
 9315SOL    HW139407   0.801   0.387   4.790  0.0940  0.4743 -0.2684
 9315SOL    HW239408   0.731   0.439   4.912  0.8120  2.2174  1.9203
 9316SOL     OW39409   1.532   4.364   8.342 -0.3431 -0.1918 -0.5090
 9316SOL    HW139410   1.556   4.367   8.250  3.2000  1.3175  0.4681
 9316SOL    HW239411   1.615   4.328   8.373  0.0000 -0.4074 -1.7079
 9317SOL     OW39412   0.911   2.858   1.336  0.1357  0.3070 -0.0179
 9317SOL    HW139413   0.912   2.835   1.429  1.9314 -0.8530 -0.3221
 9317SOL    HW239414   0.897   2.768   1.305 -0.1867  0.0270  0.9368
 9318SOL     OW39415   3.724   3.136   7.501 -0.7524 -0.0879  0.1532
 9318SOL    HW139416   3.759   3.063   7.552  1.3054 -1.6949 -3.5179
 9318SOL    HW239417   3.630   3.125   7.511 -0.7433 -0.0281  0.2955
 9319SOL     OW39418   2.094   0.039   2.351 -0.3752 -0.5879  0.3439
 9319SOL    HW139419   2.071   4.673   2.344 -0.8524 -0.3388 -1.3770
 9319SOL    HW239420   2.185   0.039   2.381 -0.0110  0.3885 -0.8086
 9320SOL     OW39421   3.022   4.298   6.706 -0.1285  0.1705 -0.0507
 9320SOL    HW139422   3.051   4.361   6.640  0.1922  1.0920  0.9732
 9320SOL    HW239423   3.090   4.231   6.703 -0.3429 -0.0278 -0.4287
 9321SOL     OW39424   0.223   3.314   4.860  0.5483 -0.2312 -0.4266
 9321SOL    HW139425   0.239   3.294   4.953 -0.1421  0.6119 -0.1301
 9321SOL    HW239426   0.153   3.254   4.832  0.1629 -1.0249  2.1529
 9322SOL     OW39427   4.351   4.008  13.390  0.2072  0.1343 -0.3090
 9322SOL    HW139428   4.272   4.000  13.444  1.8996 -0.8536  2.0256
 9322SOL    HW239429   4.311   4.020  13.304 -0.7946  2.4601  0.4848
 9323SOL     OW39430   0.513   3.949   4.639  0.3169 -0.0144 -0.0237
 9323SOL    HW139431   0.607   3.946   4.624  0.4697  4.5821  0.1213
 9323SOL    HW239432   0.493   4.026   4.587 -0.2684 -0.8096 -0.9652
 9324SOL     OW39433   0.371   1.974   7.131  0.2369 -0.2300  0.0317
 9324SOL    HW139434   0.396   2.064   7.110 -3.2414  1.0893  1.5612
 9324SOL    HW239435   0.454   1.949   7.170  0.3584 -0.6703 -0.5081
 9325SOL     OW39436   2.141   0.665   0.123 -0.6341 -0.0798  0.2271
 9325SOL    HW139437   2.230   0.628   0.120  0.3055  2.0935  0.9932
 9325SOL    HW239438   2.121   0.639   0.213 -0.6767  0.2387  0.3082
 9326SOL     OW39439   1.043   1.061  14.536 -0.2035 -0.0692  0.2123
 9326SOL    HW139440   1.085   1.107  14.463  1.8497  0.0475  1.4810
 9326SOL    HW239441   1.120   1.016  14.571 -1.6447 -1.9329  0.9385
 9327SOL     OW39442   3.559   1.844  13.241  0.1440 -0.3615  0.4986
 9327SOL    HW139443   3.646   1.850  13.280  0.2282  0.9897  0.0709
 9327SOL    HW239444   3.522   1.774  13.295  0.1913  0.1702  1.2168
 9328SOL     OW39445   4.314   2.897   9.899  0.4882 -0.4949 -1.0301
 9328SOL    HW139446   4.358   2.875   9.817  0.2820  0.4315 -1.4006
 9328SOL    HW239447   4.380   2.962   9.922 -0.6846  0.5195 -0.5378
 9329SOL     OW39448   0.467   0.378   3.774  0.0196 -0.1027  0.2850
 9329SOL    HW139449   0.530   0.402   3.706  0.4398  0.8557  1.0185
 9329SOL    HW239450   0.448   0.291   3.739  0.2500 -1.1751  2.8475
 9330SOL     OW39451   1.341   2.118   4.367  0.1753 -0.0840  0.2306
 9330SOL    HW139452   1.300   2.171   4.436 -1.3009  0.7389 -1.2747
 9330SOL    HW239453   1.368   2.049   4.428  0.3154 -0.3005 -0.0764
 9331SOL     OW39454   2.261   0.797   3.695 -0.0868  0.0277  0.6851
 9331SOL    HW139455   2.241   0.885   3.662  0.6819  0.0280  0.2456
 9331SOL    HW239456   2.194   0.741   3.656 -1.2431  1.2280  0.9051
 9332SOL     OW39457   4.089   1.559   5.819  0.2234 -0.1808 -0.6189
 9332SOL    HW139458   4.178   1.550   5.853 -0.8187  1.3991  2.4590
 9332SOL    HW239459   4.080   1.653   5.833 -0.4855 -0.2056 -0.8854
 9333SOL     OW39460   0.754   2.084  13.690 -0.4478  0.9381 -0.7495
 9333SOL    HW139461   0.825   2.035  13.651 -0.2275  0.7047 -0.0482
 9333SOL    HW239462   0.783   2.175  13.703  0.0480  0.7833 -0.7827
 9334SOL     OW39463   3.852   2.722   2.676  0.0742 -0.4120  0.4807
 9334SOL    HW139464   3.848   2.766   2.592  2.3690 -0.0003  0.5974
 9334SOL    HW239465   3.916   2.655   2.654 -1.2314 -2.1914  2.0719
 9335SOL     OW39466   3.258   1.080   7.397  0.1080 -0.4591  0.4568
 9335SOL    HW139467   3.281   1.146   7.332 -0.5534 -1.5996 -0.9347
 9335SOL    HW239468   3.196   1.134   7.447  0.0049  3.1901 -3.6024
 9336SOL     OW39469   1.209   3.838  11.693 -0.4840 -0.3794 -0.2606
 9336SOL    HW139470   1.270   3.829  11.766 -0.5841  1.1491  0.0137
 9336SOL    HW239471   1.204   3.757  11.642 -0.7439  1.8651 -3.8493
 9337SOL     OW39472   1.370   2.407   1.408  0.1418  0.0695  0.3466
 9337SOL    HW139473   1.408   2.381   1.492  1.0033 -2.1015 -0.7197
 9337SOL    HW239474   1.309   2.480   1.422 -1.0845 -1.4617  2.7971
 9338SOL     OW39475   3.263   4.423   6.131 -0.2751  0.6227  0.4901
 9338SOL    HW139476   3.315   4.413   6.051 -1.5496  0.4569 -0.3116
 9338SOL    HW239477   3.182   4.374   6.123 -1.2147  2.2597 -0.0360
 9339SOL     OW39478   1.872   1.272   5.137  0.0058 -0.0077 -0.0272
 9339SOL    HW139479   1.825   1.355   5.144 -0.4234 -0.3057  0.6268
 9339SOL    HW239480   1.880   1.246   5.229  1.3621 -1.1650 -0.4710
 9340SOL     OW39481   0.845   4.374  12.280  0.3917  0.6222  0.0741
 9340SOL    HW139482   0.888   4.411  12.357 -1.4944 -0.9251  1.8710
 9340SOL    HW239483   0.915   4.373  12.214  0.0690  1.0391 -0.2816
 9341SOL     OW39484   0.759   2.863   9.150  0.3945 -0.9763  0.0848
 9341SOL    HW139485   0.701   2.860   9.226  1.4810 -0.2473  0.9483
 9341SOL    HW239486   0.839   2.884   9.198  0.4385 -2.0844  0.4976
 9342SOL     OW39487   0.920   0.612  13.524  0.0163 -0.2784 -0.0086
 9342SOL    HW139488   0.986   0.560  13.478 -1.2108 -1.0267 -0.9255
 9342SOL    HW239489   0.921   0.573  13.611 -0.7307  1.3805  0.7373
 9343SOL     OW39490   3.927   1.143   6.250  0.0994 -0.5222 -0.3014
 9343SOL    HW139491   3.976   1.214   6.209 -1.3539  1.5232  1.4999
 9343SOL    HW239492   3.966   1.139   6.338  1.3099 -0.3826 -0.8364
 9344SOL     OW39493   0.206   1.654   5.187  0.1598 -0.2291 -0.5518
 9344SOL    HW139494   0.195   1.560   5.168 -0.1371  0.4271 -3.6770
 9344SOL    HW239495   0.213   1.657   5.282 -1.7683 -0.3940 -0.4170
 9345SOL     OW39496   4.597   1.378   7.874 -0.1660  0.2268 -0.4257
 9345SOL    HW139497   4.566   1.315   7.939  0.3763 -0.6518 -1.0229
 9345SOL    HW239498   4.665   1.325   7.832  0.5982  1.6597 -0.9938
 9346SOL     OW39499   1.387   3.067  12.028 -0.0320  0.0630  0.4367
 9346SOL    HW139500   1.396   3.147  12.078  0.5278 -0.0481  0.5135
 9346SOL    HW239501   1.460   3.017  12.063  1.4800  2.9400  1.3314
 9347SOL     OW39502   3.641   1.503   6.529 -0.4934 -0.2081  0.2468
 9347SOL    HW139503   3.600   1.554   6.460  2.4511  2.5135  0.5017
 9347SOL    HW239504   3.671   1.422   6.488 -2.2166 -1.8054  2.0925
 9348SOL     OW39505   4.610   1.297  15.725  0.3861  0.6081 -0.0621
 9348SOL    HW139506   4.670   1.228  15.695  1.6922  1.6807  0.0831
 9348SOL    HW239507   4.526   1.250  15.721  1.0485 -0.5865 -0.1034
 9349SOL     OW39508   2.367   4.356   2.374 -1.0991  0.1249  0.1967
 9349SOL    HW139509   2.316   4.415   2.319  3.1718 -0.4300 -4.3520
 9349SOL    HW239510   2.332   4.384   2.459  2.4415  3.8169  0.4654
 9350SOL     OW39511   3.810   0.623  10.363  0.2350 -0.3493 -0.6561
 9350SOL    HW139512   3.884   0.570  10.333  1.0077  1.2313 -1.5286
 9350SOL    HW239513   3.745   0.606  10.295 -1.2783  0.7148  0.5356
 9351SOL     OW39514   1.693   0.023   0.339  0.3064 -0.1939 -0.0674
 9351SOL    HW139515   1.751   0.037   0.414  0.3997  3.2542 -0.7988
 9351SOL    HW239516   1.619   0.080   0.359 -0.5234 -0.1731 -3.1477
 9352SOL     OW39517   2.805   1.392   1.708 -0.0948  0.2222 -0.4029
 9352SOL    HW139518   2.891   1.434   1.703 -0.4408  0.9665 -0.1743
 9352SOL    HW239519   2.824   1.301   1.688 -0.5971 -0.0163  0.2068
 9353SOL     OW39520   2.239   3.318  11.663 -0.5981  0.3915  0.3582
 9353SOL    HW139521   2.195   3.250  11.613 -0.8016  1.1595 -0.5088
 9353SOL    HW239522   2.235   3.283  11.752  1.4791  1.6939  0.9696
 9354SOL     OW39523   1.482   4.029   1.613 -0.2495  0.2800  0.1833
 9354SOL    HW139524   1.495   4.124   1.617  0.5570  0.1794 -0.1871
 9354SOL    HW239525   1.566   3.999   1.647 -0.3753 -1.1154 -0.7412
 9355SOL     OW39526   2.608   4.522   5.059  0.5200 -0.2400 -0.8684
 9355SOL    HW139527   2.692   4.499   5.099  0.8288  1.4722 -0.5079
 9355SOL    HW239528   2.618   4.479   4.974  0.2321  1.0018 -1.5264
 9356SOL     OW39529   3.412   0.618   5.824  0.0697  0.0752 -0.3556
 9356SOL    HW139530   3.369   0.700   5.850 -2.0429 -2.1454  3.2863
 9356SOL    HW239531   3.491   0.660   5.792 -1.1959  2.3502 -0.5442
 9357SOL     OW39532   4.090   1.919  13.342  0.2270 -0.0787 -0.6986
 9357SOL    HW139533   4.131   1.962  13.417 -3.2981 -0.5680  1.5250
 9357SOL    HW239534   4.162   1.859  13.322 -2.3542 -3.4528  0.2837
 9358SOL     OW39535   1.232   2.879  11.489 -0.6413  0.6454 -0.5745
 9358SOL    HW139536   1.193   2.963  11.516  2.0305  0.9618  2.2956
 9358SOL    HW239537   1.249   2.901  11.397  1.7251  0.4975 -0.1775
 9359SOL     OW39538   3.569   3.845   0.998  0.0509 -0.4051 -0.2642
 9359SOL    HW139539   3.615   3.864   0.917 -1.5954 -1.4901 -1.4429
 9359SOL    HW239540   3.534   3.933   1.014 -0.3197 -0.5878 -0.0534
 9360SOL     OW39541   4.223   3.420   6.612  0.3057  0.3088 -0.1487
 9360SOL    HW139542   4.253   3.393   6.525 -0.8173 -0.3065 -0.3401
 9360SOL    HW239543   4.228   3.342   6.667  1.6457  0.3304 -0.2435
 9361SOL     OW39544   2.889   1.390   6.640 -0.1971 -0.4198  0.1057
 9361SOL    HW139545   2.929   1.364   6.557 -1.0679  1.5167 -0.9066
 9361SOL    HW239546   2.950   1.345   6.699 -0.9242 -0.9935  0.4295
 9362SOL     OW39547   3.725   2.793   6.540  0.0143  0.6862 -0.3358
 9362SOL    HW139548   3.632   2.773   6.532 -0.2379  0.2100  3.7074
 9362SOL    HW239549   3.766   2.729   6.482  1.3721  1.2463  0.0137
 9363SOL     OW39550   1.461   3.108   1.981 -0.1014  0.2857  0.3230
 9363SOL    HW139551   1.385   3.156   2.011  1.3917  1.4604  2.1998
 9363SOL    HW239552   1.429   3.025   1.945  0.5656 -0.7188  2.0410
 9364SOL     OW39553   2.602   2.122  11.908 -0.3828 -0.5100  0.1271
 9364SOL    HW139554   2.511   2.118  11.879  0.2779  0.9829 -2.2173
 9364SOL    HW239555   2.658   2.114  11.830 -1.6757 -3.3536 -0.5289
 9365SOL     OW39556   2.652   3.953   3.042 -0.1137 -0.1726  0.0269
 9365SOL    HW139557   2.710   4.005   2.986  0.3373  2.4021  2.8704
 9365SOL    HW239558   2.592   4.024   3.066  1.5406  0.8519  1.1493
 9366SOL     OW39559   1.337   4.605   5.803  0.0570  0.0506 -0.3587
 9366SOL    HW139560   1.421   4.621   5.847 -0.8488 -1.2036  1.8185
 9366SOL    HW239561   1.373   4.552   5.732 -0.8058 -3.9170  2.1774
 9367SOL     OW39562   0.744   2.354   2.181  0.0382 -0.2280  0.3871
 9367SOL    HW139563   0.821   2.300   2.196  0.4508 -0.2317 -1.6617
 9367SOL    HW239564   0.687   2.338   2.256  1.2555  2.7545  1.9310
 9368SOL     OW39565   1.380   4.041   7.772 -0.5619 -0.0054 -0.4732
 9368SOL    HW139566   1.377   3.949   7.745  0.3068  0.0312 -0.6930
 9368SOL    HW239567   1.444   4.039   7.843  0.8490 -0.2773 -1.7408
 9369SOL     OW39568   4.369   3.050  16.469  0.4085 -0.2110 -0.0860
 9369SOL    HW139569   4.456   3.061  16.429  0.4017 -1.6041 -0.4550
 9369SOL    HW239570   4.353   2.956  16.462  0.5495 -0.2703  0.4149
 9370SOL     OW39571   3.556   0.941   8.468 -0.3050  0.0541 -0.6586
 9370SOL    HW139572   3.646   0.925   8.441  0.6018  0.5839  2.0311
 9370SOL    HW239573   3.578   1.012   8.529 -0.1595  1.6484 -2.5760
 9371SOL     OW39574   2.399   2.142   1.770  0.5331  0.4292  0.5968
 9371SOL    HW139575   2.312   2.162   1.803  0.5882  1.1891  0.2707
 9371SOL    HW239576   2.405   2.189   1.687  0.9972  1.1177  1.0215
 9372SOL     OW39577   0.878   0.425   8.827 -0.2535 -0.2286 -0.6466
 9372SOL    HW139578   0.956   0.480   8.815  0.5263 -1.6311 -2.1609
 9372SOL    HW239579   0.806   0.457   8.773  0.1232 -0.7869 -1.4876
 9373SOL     OW39580   1.802   4.040   1.982 -0.3590 -0.1151  0.3083
 9373SOL    HW139581   1.804   3.953   2.021 -1.3969 -1.1430 -1.9059
 9373SOL    HW239582   1.887   4.056   1.942  1.1663 -0.1952  3.5196
 9374SOL     OW39583   2.042   1.981  16.909 -0.4290 -0.4285 -0.6200
 9374SOL    HW139584   1.979   1.918  16.875 -0.5139  0.1397 -1.5109
 9374SOL    HW239585   2.065   2.026  16.827 -0.3049 -2.1110 -1.5090
 9375SOL     OW39586   0.595   0.005   2.803  0.2081  0.0420  0.2206
 9375SOL    HW139587   0.645   0.010   2.884  0.6728 -2.7079  0.0946
 9375SOL    HW239588   0.574   4.640   2.791 -2.0726  0.5045  0.5402
 9376SOL     OW39589   2.955   4.598   6.131 -0.5124 -0.2054  0.0595
 9376SOL    HW139590   2.951   4.510   6.094 -0.3150  0.0229 -0.5055
 9376SOL    HW239591   2.983   4.641   6.050  2.0417 -1.3523  0.3344
 9377SOL     OW39592   2.489   3.901   7.292 -0.2098 -0.0872  0.2744
 9377SOL    HW139593   2.404   3.870   7.322 -0.9001 -0.1865 -1.8006
 9377SOL    HW239594   2.503   3.859   7.207 -0.1230  2.0774 -0.7872
 9378SOL     OW39595   1.988   3.715   9.887  0.2301 -0.7479 -0.3174
 9378SOL    HW139596   2.033   3.714   9.803 -0.3176 -0.3185 -0.6099
 9378SOL    HW239597   1.904   3.752   9.861 -0.9120 -2.1744  1.2829
 9379SOL     OW39598   1.344   2.732   9.465 -0.2740 -0.0044 -0.2143
 9379SOL    HW139599   1.389   2.698   9.542 -0.7447  0.9405  0.4789
 9379SOL    HW239600   1.258   2.697   9.490 -0.8689  1.0121 -0.8537
 9380SOL     OW39601   1.881   0.743  14.696 -0.3273  0.1666  0.1187
 9380SOL    HW139602   1.934   0.669  14.665  0.0380  0.8310 -0.8139
 9380SOL    HW239603   1.904   0.742  14.789  0.4801 -0.2160 -0.0866
 9381SOL     OW39604   1.264   3.687   4.135  0.1273 -0.4970  0.1273
 9381SOL    HW139605   1.227   3.710   4.221  0.9253 -2.9217  1.1151
 9381SOL    HW239606   1.347   3.644   4.156  0.6905  1.1228  1.2189
 9382SOL     OW39607   2.600   3.448  13.289 -0.0975  0.3901  1.0337
 9382SOL    HW139608   2.517   3.402  13.277 -1.1318  2.2136  1.1450
 9382SOL    HW239609   2.666   3.379  13.279 -2.9152 -2.2513  0.6173
 9383SOL     OW39610   2.427   3.159   5.545  0.3032 -0.3306  0.8958
 9383SOL    HW139611   2.481   3.185   5.471 -2.1888  0.2184 -0.7109
 9383SOL    HW239612   2.336   3.170   5.517  0.7622  3.0588  0.7489
 9384SOL     OW39613   2.305   3.128   5.946  0.1422 -0.1222 -0.2077
 9384SOL    HW139614   2.228   3.074   5.929 -0.3042 -0.4563  2.8504
 9384SOL    HW239615   2.266   3.215   5.955 -0.7274 -0.4395 -0.9214
 9385SOL     OW39616   0.924   2.458   4.103  0.2367 -0.4837  0.1123
 9385SOL    HW139617   0.884   2.511   4.173 -0.0933  0.6966 -0.9663
 9385SOL    HW239618   0.866   2.383   4.090 -0.7595  0.3190 -0.1618
 9386SOL     OW39619   1.563   3.738  16.343 -0.0776  0.3316 -0.0021
 9386SOL    HW139620   1.565   3.720  16.248  0.7471 -0.0585  0.0888
 9386SOL    HW239621   1.467   3.743  16.350 -0.1497 -1.4632  0.4154
 9387SOL     OW39622   2.586   2.516  17.416  0.6512  0.5146 -0.1157
 9387SOL    HW139623   2.491   2.525  17.424  0.8983  1.9267  1.0875
 9387SOL    HW239624   2.616   2.595  17.460 -0.5451 -0.2013  1.9884
 9388SOL     OW39625   2.979   3.859   5.449  0.3796  0.4851  0.3597
 9388SOL    HW139626   3.064   3.860   5.493  1.2898 -0.1915 -1.3574
 9388SOL    HW239627   2.946   3.778   5.489  0.0916  0.9464  1.0551
 9389SOL     OW39628   3.545   3.311   7.146 -0.0716  0.2139 -0.1595
 9389SOL    HW139629   3.569   3.225   7.112  1.2192  0.4877  0.0401
 9389SOL    HW239630   3.451   3.308   7.127  0.0767  1.0205 -1.0595
 9390SOL     OW39631   4.560   1.392   2.930 -0.1512 -0.1675  0.2241
 9390SOL    HW139632   4.651   1.365   2.943 -0.2061 -0.3172  0.2868
 9390SOL    HW239633   4.560   1.420   2.838  0.4867  1.8286  0.8339
 9391SOL     OW39634   1.960   3.502   3.892 -0.6767 -0.0693  0.2953
 9391SOL    HW139635   2.013   3.582   3.897  1.4879 -1.5417  0.5382
 9391SOL    HW239636   2.018   3.445   3.842  0.4047  1.8344 -0.6355
 9392SOL     OW39637   0.058   1.861   1.103  0.5257  0.5028  0.3641
 9392SOL    HW139638   0.037   1.773   1.136 -0.3945  0.4076 -0.4906
 9392SOL    HW239639   4.698   1.899   1.104  0.8594  1.2930 -0.8202
 9393SOL     OW39640   1.482   3.877   4.608  0.3109 -0.0279  0.4088
 9393SOL    HW139641   1.516   3.928   4.534  0.3155 -1.1918 -0.3860
 9393SOL    HW239642   1.445   3.805   4.558  0.4469 -0.5115  1.0089
 9394SOL     OW39643   1.083   0.536  15.675  0.7923 -0.2846  0.2285
 9394SOL    HW139644   1.094   0.492  15.759 -1.5220 -0.2661  0.5393
 9394SOL    HW239645   1.134   0.474  15.622 -0.4206 -0.4097 -0.8051
 9395SOL     OW39646   4.556   2.444   5.341 -0.0186 -0.6563  0.2723
 9395SOL    HW139647   4.502   2.426   5.417 -0.9973  0.2428 -0.2258
 9395SOL    HW239648   4.559   2.351   5.316  0.2425 -1.1539  2.2069
 9396SOL     OW39649   0.799   2.382  14.566 -0.1413 -0.1014  0.3059
 9396SOL    HW139650   0.760   2.295  14.556  1.0352 -0.4930 -0.8804
 9396SOL    HW239651   0.890   2.359  14.580 -0.0837 -0.0788 -0.0351
 9397SOL     OW39652   2.881   3.432   4.252 -0.0624 -0.2316  0.1148
 9397SOL    HW139653   2.832   3.349   4.251 -0.9638  0.3023 -0.2200
 9397SOL    HW239654   2.964   3.394   4.224 -0.4549 -0.3886 -0.8123
 9398SOL     OW39655   2.922   4.210   7.722  0.2795  0.0822 -0.2732
 9398SOL    HW139656   2.944   4.146   7.789 -1.3661  0.8622  1.0345
 9398SOL    HW239657   2.968   4.170   7.649  0.7284 -2.7827  1.5944
 9399SOL     OW39658   2.155   1.045  12.279 -0.0307  0.3427  0.2419
 9399SOL    HW139659   2.108   1.008  12.354 -2.2711  1.6606 -0.5009
 9399SOL    HW239660   2.080   1.061  12.221  1.4648  0.2426 -1.6945
 9400SOL     OW39661   3.364   4.408  12.529  0.0051  0.5514 -0.2185
 9400SOL    HW139662   3.316   4.382  12.608 -0.5347  0.7581 -0.4768
 9400SOL    HW239663   3.293   4.412  12.465 -1.1688 -1.1702  0.9585
 9401SOL     OW39664   0.768   0.401   8.458  0.3100  0.2323 -0.0762
 9401SOL    HW139665   0.764   0.480   8.511 -0.4696  1.8674 -2.5384
 9401SOL    HW239666   0.675   0.398   8.438 -0.1840  0.6876  2.1549
 9402SOL     OW39667   1.819   1.943   3.570 -0.7610  0.7181  0.1465
 9402SOL    HW139668   1.789   1.887   3.498  1.9957 -0.1293 -0.3295
 9402SOL    HW239669   1.861   1.872   3.618 -2.6853  0.2952  1.1753
 9403SOL     OW39670   3.151   0.201   7.958 -0.3236  0.2360 -0.0221
 9403SOL    HW139671   3.165   0.288   7.995 -0.3136 -0.2692  1.1299
 9403SOL    HW239672   3.186   0.217   7.870 -1.9087  2.4830 -0.2538
 9404SOL     OW39673   1.245   4.292  16.045  0.6982  0.5868 -0.4799
 9404SOL    HW139674   1.280   4.350  15.977 -0.9019  3.0511  0.8160
 9404SOL    HW239675   1.304   4.217  16.037 -0.2228 -0.0942 -0.7928
 9405SOL     OW39676   1.262   1.600   7.102  0.0118 -0.1633  1.2001
 9405SOL    HW139677   1.351   1.566   7.098  0.1265  0.2646  0.2379
 9405SOL    HW239678   1.221   1.517   7.124  0.8608 -0.5430  1.3369
 9406SOL     OW39679   0.717   2.535  15.236  0.2500 -0.4923 -0.4630
 9406SOL    HW139680   0.790   2.475  15.252  1.9062  1.6083 -0.1401
 9406SOL    HW239681   0.692   2.512  15.147 -2.5821 -0.2849  0.2770
 9407SOL     OW39682   0.058   4.637  10.453 -0.3966  0.1004 -0.6223
 9407SOL    HW139683   0.073   4.713  10.397 -1.7583  2.2074  1.9078
 9407SOL    HW239684   0.129   4.647  10.517 -0.7912  0.7726 -0.2951
 9408SOL     OW39685   0.770   3.451   8.595 -0.1538 -0.4270 -0.2286
 9408SOL    HW139686   0.731   3.526   8.640  1.1204 -0.3146  0.6952
 9408SOL    HW239687   0.781   3.387   8.665 -2.1605  1.5358  1.8739
 9409SOL     OW39688   2.767   0.687   4.223  0.2375  0.2069  0.1872
 9409SOL    HW139689   2.727   0.721   4.303  0.3758 -0.9578  0.7577
 9409SOL    HW239690   2.844   0.639   4.256 -0.1655  0.0991  0.9583
 9410SOL     OW39691   2.229   2.747  15.167 -0.4944  0.3142  0.0248
 9410SOL    HW139692   2.210   2.839  15.185 -0.8087  0.4161 -0.8130
 9410SOL    HW239693   2.151   2.706  15.129 -0.2995 -2.2758  2.4194
 9411SOL     OW39694   4.369   0.379  15.870 -0.6071  0.2626 -0.4749
 9411SOL    HW139695   4.342   0.341  15.953  0.8071  0.6420  0.1428
 9411SOL    HW239696   4.382   0.308  15.808  0.7505 -1.7198  2.1333
 9412SOL     OW39697   1.453   4.232   4.544 -0.4585 -0.2669 -0.2086
 9412SOL    HW139698   1.494   4.304   4.495  0.2607  0.1092  0.9405
 9412SOL    HW239699   1.472   4.155   4.490  0.9623 -0.9870  1.3607
 9413SOL     OW39700   2.540   2.929   9.622  0.3252 -0.4744 -0.4073
 9413SOL    HW139701   2.596   2.950   9.548 -1.2513 -1.5026 -1.8697
 9413SOL    HW239702   2.585   2.852   9.657  0.6048  0.1764  0.6627
 9414SOL     OW39703   1.071   4.016  10.466  0.8454  0.1942 -0.1340
 9414SOL    HW139704   1.112   3.940  10.507  2.0014  1.0843  0.3493
 9414SOL    HW239705   1.143   4.078  10.460 -0.3169  1.9108  3.4119
 9415SOL     OW39706   3.902   4.323   5.165  0.9404 -0.1793  0.6353
 9415SOL    HW139707   3.852   4.296   5.241 -0.6193  1.5357  0.2119
 9415SOL    HW239708   3.843   4.392   5.134 -1.4202 -2.5924 -0.2373
 9416SOL     OW39709   1.747   1.249   8.904  0.1056 -0.1879  0.3087
 9416SOL    HW139710   1.828   1.235   8.856 -0.7962 -0.8572 -1.0399
 9416SOL    HW239711   1.679   1.248   8.837  1.2688  1.3880 -0.8766
 9417SOL     OW39712   2.494   3.495   2.235 -0.4409  0.3088  0.2438
 9417SOL    HW139713   2.571   3.482   2.179 -0.4016 -1.9735  0.8178
 9417SOL    HW239714   2.424   3.482   2.170 -0.7894 -1.3694  0.9508
 9418SOL     OW39715   2.612   1.929  12.668 -0.5855  0.4267 -0.1438
 9418SOL    HW139716   2.553   1.944  12.742 -0.5935  0.4399 -0.1526
 9418SOL    HW239717   2.634   2.017  12.637 -0.8803  0.3036 -0.7134
 9419SOL     OW39718   3.463   0.485   1.886 -0.6261  0.2959  0.3321
 9419SOL    HW139719   3.417   0.534   1.818 -1.9763 -1.4924 -0.0207
 9419SOL    HW239720   3.453   0.397   1.851 -0.1791  0.3962 -0.0499
 9420SOL     OW39721   3.944   1.635   6.793 -0.1470 -0.1171  0.5788
 9420SOL    HW139722   3.908   1.655   6.706 -0.6988  0.6039  0.9707
 9420SOL    HW239723   3.973   1.546   6.775 -0.5738 -0.5022  1.7807
 9421SOL     OW39724   1.333   2.715   0.933 -1.0851  0.2651  0.2986
 9421SOL    HW139725   1.381   2.676   1.006  2.2177  1.2101 -1.4072
 9421SOL    HW239726   1.265   2.650   0.914 -1.2833  0.6787 -0.3806
 9422SOL     OW39727   4.511   2.787  10.135 -0.3254 -0.6066 -0.1203
 9422SOL    HW139728   4.560   2.851  10.085  0.5539  0.0527  1.5743
 9422SOL    HW239729   4.481   2.728  10.065 -0.6760 -1.5380  0.8046
 9423SOL     OW39730   2.805   2.501  10.988 -0.1356  0.4970  0.1178
 9423SOL    HW139731   2.821   2.584  11.034  0.3123  0.0481  0.7852
 9423SOL    HW239732   2.806   2.437  11.060  2.0409  0.5231  0.1173
 9424SOL     OW39733   1.911   2.542  11.355 -0.1799 -0.3385 -0.0350
 9424SOL    HW139734   1.910   2.447  11.367 -1.6527 -0.4497 -1.0523
 9424SOL    HW239735   1.819   2.557  11.375 -0.4495  0.4375 -1.9283
 9425SOL     OW39736   2.283   1.563   7.625  0.1234  0.2424 -0.1080
 9425SOL    HW139737   2.316   1.581   7.537  1.5964  1.3762  0.6848
 9425SOL    HW239738   2.329   1.486   7.657 -1.1536 -0.2582  0.5156
 9426SOL     OW39739   0.613   0.601   5.355 -0.4268  0.5485  0.1205
 9426SOL    HW139740   0.570   0.525   5.393 -2.4873  2.1533  1.0261
 9426SOL    HW239741   0.660   0.565   5.280  0.5469  1.0405  0.5001
 9427SOL     OW39742   0.200   3.341   5.167 -0.2776 -0.3860 -0.3974
 9427SOL    HW139743   0.118   3.384   5.146  1.0384  1.9837 -0.7257
 9427SOL    HW239744   0.163   3.270   5.218  0.0595  0.6472  1.2858
 9428SOL     OW39745   2.892   1.924   3.022 -0.7571 -0.3509 -0.6246
 9428SOL    HW139746   2.932   1.859   2.964 -1.4553 -1.2994 -0.0362
 9428SOL    HW239747   2.896   1.999   2.963  1.5322 -0.1063 -0.1747
 9429SOL     OW39748   3.329   0.738  13.784 -0.0461  1.0837 -0.6599
 9429SOL    HW139749   3.394   0.715  13.851 -1.0716  0.1438  0.0134
 9429SOL    HW239750   3.313   0.830  13.806  1.6052  1.2893 -0.3103
 9430SOL     OW39751   0.335   2.979  14.875 -0.7623 -0.1448  0.0017
 9430SOL    HW139752   0.313   2.988  14.782 -0.2187  0.6481 -0.0511
 9430SOL    HW239753   0.413   3.033  14.880 -0.9204  0.2358 -1.7625
 9431SOL     OW39754   0.930   2.390  15.288 -0.2997  0.0259 -0.0624
 9431SOL    HW139755   0.956   2.392  15.380  1.6925  1.1130 -0.6536
 9431SOL    HW239756   1.013   2.399  15.240  1.0310 -0.1402  2.2230
 9432SOL     OW39757   2.530   3.727   7.079 -0.3859  0.8102  0.1498
 9432SOL    HW139758   2.541   3.641   7.120  0.7877  0.0784 -1.6865
 9432SOL    HW239759   2.517   3.700   6.988  1.6235  0.0813  0.0580
 9433SOL     OW39760   2.766   0.642   7.776  0.2917  0.7073  0.3248
 9433SOL    HW139761   2.810   0.705   7.718  2.0852  1.2198  2.2567
 9433SOL    HW239762   2.714   0.706   7.824 -2.0546 -0.2040 -1.0099
 9434SOL     OW39763   0.793   0.105  13.948 -0.4898  0.0596 -0.2478
 9434SOL    HW139764   0.828   0.086  14.035  1.8699  0.2682 -1.1516
 9434SOL    HW239765   0.738   0.183  13.957 -0.7183 -0.1481  0.1862
 9435SOL     OW39766   0.830   1.892   5.093 -0.1049  0.1750  0.1185
 9435SOL    HW139767   0.904   1.925   5.143 -0.0800 -0.7971  0.7237
 9435SOL    HW239768   0.833   1.800   5.119 -1.1457  0.2140  0.3420
 9436SOL     OW39769   2.461   2.730  17.660 -0.5499 -0.3635  0.3386
 9436SOL    HW139770   2.419   2.717  17.575 -2.4777  1.4997  1.0009
 9436SOL    HW239771   2.555   2.715  17.645 -0.8083 -2.3752  0.8281
 9437SOL     OW39772   3.176   2.232   0.238 -0.1232 -0.7257  0.4844
 9437SOL    HW139773   3.240   2.276   0.182 -0.7077 -2.3084 -1.4138
 9437SOL    HW239774   3.225   2.156   0.268  0.0165 -0.3036  1.3311
 9438SOL     OW39775   3.329   4.424   9.120 -0.4525  0.1741 -0.7629
 9438SOL    HW139776   3.323   4.344   9.172 -0.6649  1.4657  1.1565
 9438SOL    HW239777   3.315   4.397   9.029 -0.7507 -3.0519  0.2581
 9439SOL     OW39778   1.473   0.659   4.478 -0.1886  0.0053 -0.2203
 9439SOL    HW139779   1.394   0.636   4.527 -1.5169  1.2892 -1.7730
 9439SOL    HW239780   1.482   0.752   4.502  2.4819  0.1097 -1.6115
 9440SOL     OW39781   1.309   3.812   8.335  0.4407 -0.1222 -0.3922
 9440SOL    HW139782   1.383   3.856   8.378  0.3247 -0.3659  0.0491
 9440SOL    HW239783   1.252   3.883   8.307  1.6415  0.7068 -0.7567
 9441SOL     OW39784   2.429   1.335  13.476  0.8660 -0.1606  0.2007
 9441SOL    HW139785   2.517   1.352  13.444  0.8304  0.4740  0.4275
 9441SOL    HW239786   2.376   1.333  13.396  1.5227  0.8145 -0.2619
 9442SOL     OW39787   3.351   1.369   2.164 -0.6422  0.7405  0.1257
 9442SOL    HW139788   3.299   1.436   2.208 -1.3477  0.3098 -0.0494
 9442SOL    HW239789   3.428   1.355   2.219 -0.6542 -2.1517 -0.6284
 9443SOL     OW39790   0.839   4.625   2.120  0.0958  0.2476 -0.2710
 9443SOL    HW139791   0.795   4.540   2.111 -2.6817  1.8490 -1.8695
 9443SOL    HW239792   0.903   4.607   2.189 -2.2795 -2.1946  1.3205
 9444SOL     OW39793   4.112   3.258   0.707 -0.1059 -0.0164  0.0070
 9444SOL    HW139794   4.156   3.341   0.721 -1.1867  0.2814  1.6472
 9444SOL    HW239795   4.181   3.200   0.738 -0.1831  1.0766  2.2292
 9445SOL     OW39796   2.128   3.376   5.916  0.9942  0.4524  0.2314
 9445SOL    HW139797   2.072   3.383   5.994  1.8327 -4.6660  1.2501
 9445SOL    HW239798   2.062   3.367   5.848  0.6416  1.0417  0.4955
 9446SOL     OW39799   2.127   1.604   6.782 -0.7745 -0.0582  0.4456
 9446SOL    HW139800   2.062   1.654   6.830 -1.0491  0.0826 -0.0696
 9446SOL    HW239801   2.213   1.631   6.814 -0.2217 -0.9192 -0.3041
 9447SOL     OW39802   3.002   0.632   2.538  0.1509  0.5205  0.6637
 9447SOL    HW139803   3.015   0.652   2.445 -0.5716 -1.1521  0.2142
 9447SOL    HW239804   2.907   0.649   2.542 -0.3112 -1.7152 -0.9169
 9448SOL     OW39805   0.783   1.457   2.884  0.1264  0.4492 -0.2266
 9448SOL    HW139806   0.792   1.493   2.795 -0.9978 -1.0967 -0.9737
 9448SOL    HW239807   0.828   1.516   2.944 -1.0591  1.9658 -0.8104
 9449SOL     OW39808   1.202   1.175  14.360  0.6826  0.2788  0.4743
 9449SOL    HW139809   1.159   1.236  14.300  1.9831 -0.1611 -0.8914
 9449SOL    HW239810   1.277   1.139  14.313 -1.5213 -3.4669 -0.1756
 9450SOL     OW39811   0.586   2.233  17.476  0.1265  0.2726  0.1503
 9450SOL    HW139812   0.532   2.310  17.496 -0.7616 -0.7446  1.6520
 9450SOL    HW239813   0.675   2.265  17.493 -0.4599  1.5108  0.9136
 9451SOL     OW39814   1.478   1.415   7.165  0.6680  0.1495 -0.4611
 9451SOL    HW139815   1.427   1.334   7.152 -0.5482  0.8106  0.2130
 9451SOL    HW239816   1.563   1.373   7.175  1.1965  1.0539 -1.2476
 9452SOL     OW39817   3.124   3.195   7.461  0.5742  0.5546  0.5087
 9452SOL    HW139818   3.138   3.231   7.548  3.1465  4.0381 -1.3258
 9452SOL    HW239819   3.031   3.174   7.454  0.8743 -1.1258  1.6710
 9453SOL     OW39820   4.187   3.521  11.059  0.1855 -0.0369  0.2551
 9453SOL    HW139821   4.255   3.523  10.992  1.4267 -2.3137  1.4433
 9453SOL    HW239822   4.117   3.472  11.016 -1.2264  0.8489  1.5317
 9454SOL     OW39823   3.591   1.556   8.212 -0.3464  0.3447  0.4508
 9454SOL    HW139824   3.610   1.481   8.269 -1.3089  1.0889  1.7781
 9454SOL    HW239825   3.551   1.617   8.274 -1.7499  0.3690 -0.4735
 9455SOL     OW39826   0.870   2.057   2.889  0.2903  0.2966  0.5666
 9455SOL    HW139827   0.866   1.985   2.827 -0.5356  1.1271 -0.3429
 9455SOL    HW239828   0.779   2.072   2.914 -0.6188  0.0428 -2.6418
 9456SOL     OW39829   2.355   3.126   3.694 -0.3647  0.5184 -0.1101
 9456SOL    HW139830   2.261   3.129   3.715  0.0045 -3.6223  2.1263
 9456SOL    HW239831   2.401   3.155   3.773 -1.6263 -1.5115  1.3661
 9457SOL     OW39832   4.213   3.773  16.808  0.3423  0.1068 -0.2767
 9457SOL    HW139833   4.280   3.761  16.740  0.1279 -1.8875 -0.1377
 9457SOL    HW239834   4.193   3.862  16.780 -0.9108 -0.1203 -0.0917
 9458SOL     OW39835   4.307   2.016   5.958  0.1137 -0.6254  0.1402
 9458SOL    HW139836   4.393   1.985   5.987 -0.1322 -1.3727  0.0566
 9458SOL    HW239837   4.278   2.067   6.034  0.0223 -0.8743  0.2701
 9459SOL     OW39838   1.504   1.298   4.494 -0.3470 -0.2805  0.2056
 9459SOL    HW139839   1.587   1.287   4.446 -0.0686  1.0715  0.3912
 9459SOL    HW239840   1.534   1.249   4.571  0.1760  1.7946  1.3200
 9460SOL     OW39841   3.520   3.953  14.211  0.1591  0.1106 -0.0843
 9460SOL    HW139842   3.437   3.950  14.165 -0.0507 -1.9027  0.4381
 9460SOL    HW239843   3.495   3.929  14.300 -1.0133 -3.4190 -1.3785
 9461SOL     OW39844   1.530   0.534   0.139  0.1198 -0.2795  0.1221
 9461SOL    HW139845   1.464   0.477   0.177 -0.3266  0.3020  0.2208
 9461SOL    HW239846   1.597   0.467   0.125 -0.0509 -0.9450  2.3649
 9462SOL     OW39847   1.141   0.872   2.373 -0.1973 -0.4966  0.4343
 9462SOL    HW139848   1.122   0.800   2.433  2.0902 -0.6106  1.0164
 9462SOL    HW239849   1.081   0.841   2.306  0.8764 -1.8239  0.0716
 9463SOL     OW39850   4.340   2.388  15.477 -0.0639  0.6009 -0.5014
 9463SOL    HW139851   4.346   2.296  15.503  0.0620  0.3078 -1.5646
 9463SOL    HW239852   4.407   2.400  15.410  1.5715  0.6306  1.1264
 9464SOL     OW39853   1.487   0.481   1.712  0.4258 -0.1522  0.0260
 9464SOL    HW139854   1.466   0.430   1.790  2.5196 -0.9099  0.1120
 9464SOL    HW239855   1.489   0.562   1.763  1.4766 -1.5621  2.2595
 9465SOL     OW39856   3.822   4.558  14.283  0.5734  0.2022 -0.6210
 9465SOL    HW139857   3.907   4.517  14.298 -0.7804 -1.8449  1.4549
 9465SOL    HW239858   3.836   4.621  14.212 -0.9314  0.9525 -0.2546
 9466SOL     OW39859   1.423   2.682  12.619  0.2602  0.3721 -0.3571
 9466SOL    HW139860   1.414   2.660  12.526 -1.3096  0.6536 -0.2843
 9466SOL    HW239861   1.517   2.667  12.624  0.3474  0.5146 -1.5721
 9467SOL     OW39862   0.857   0.963   0.558 -0.5423  0.1463 -0.5764
 9467SOL    HW139863   0.950   0.945   0.550 -0.6430 -1.1136  1.2372
 9467SOL    HW239864   0.831   0.932   0.645 -2.0884 -1.8308 -1.7360
 9468SOL     OW39865   0.111   3.527   7.136  0.6364 -0.3695  0.0176
 9468SOL    HW139866   0.194   3.488   7.110  0.4742 -0.5146 -0.2740
 9468SOL    HW239867   0.060   3.517   7.056 -1.5590 -2.9223  1.7476
 9469SOL     OW39868   1.967   4.603   1.715 -0.0701 -0.0280  0.0070
 9469SOL    HW139869   2.043   4.554   1.748 -0.3648  0.3987  1.2726
 9469SOL    HW239870   1.987   4.682   1.764  1.6357  0.0193 -0.7499
 9470SOL     OW39871   2.143   2.532  16.531  0.1432  0.1623 -0.5307
 9470SOL    HW139872   2.087   2.564  16.461  0.0836  1.5482  0.1559
 9470SOL    HW239873   2.080   2.498  16.595  3.7416 -1.8553  1.9804
 9471SOL     OW39874   1.030   0.172   7.558 -0.0296  0.1247  0.1764
 9471SOL    HW139875   1.079   0.194   7.638  0.0612  2.3846 -0.5173
 9471SOL    HW239876   1.061   0.085   7.533  0.3686  0.3335 -0.0454
 9472SOL     OW39877   4.688   3.470   5.156  0.1266 -0.1510 -0.1031
 9472SOL    HW139878   4.652   3.474   5.245 -0.1616 -0.4866 -0.2061
 9472SOL    HW239879   4.694   3.565   5.148  0.6308 -0.2050 -0.3953
 9473SOL     OW39880   0.343   1.127   7.198 -0.6418  0.4993 -0.1626
 9473SOL    HW139881   0.343   1.119   7.102  0.9788  1.7934 -0.2702
 9473SOL    HW239882   0.250   1.138   7.219 -0.2029  0.7775  1.5981
 9474SOL     OW39883   0.193   1.238   6.357  0.4258 -0.3086 -0.2284
 9474SOL    HW139884   0.236   1.189   6.288  1.5954  1.2836 -0.6394
 9474SOL    HW239885   0.267   1.243   6.417 -1.9348  2.5307  2.4798
 9475SOL     OW39886   4.118   0.440   3.603  0.3752  0.2299 -0.0721
 9475SOL    HW139887   4.188   0.502   3.583  0.2034  0.6532  0.6252
 9475SOL    HW239888   4.046   0.464   3.545 -0.2304  1.9299  1.3879
 9476SOL     OW39889   2.144   4.304   7.521  0.3255  0.0791  0.1478
 9476SOL    HW139890   2.139   4.208   7.515  0.5209  0.0604  0.2831
 9476SOL    HW239891   2.233   4.325   7.548  0.8845 -0.3634 -1.3933
 9477SOL     OW39892   4.680   0.051   2.490  0.3720  0.3784 -0.3840
 9477SOL    HW139893   4.644   4.693   2.466 -0.8175  0.5234  0.8745
 9477SOL    HW239894   0.032   0.024   2.536  1.3327  1.2993 -1.5113
 9478SOL     OW39895   2.850   0.818  17.588 -0.1889 -0.1963  0.5341
 9478SOL    HW139896   2.814   0.754  17.650  1.4922 -0.7989  0.8910
 9478SOL    HW239897   2.892   0.773  17.515  2.0716 -0.0123  1.6948
 9479SOL     OW39898   3.078   0.437  12.746  0.7569 -0.0200 -0.1515
 9479SOL    HW139899   3.087   0.470  12.836  1.5825  0.8698 -0.5507
 9479SOL    HW239900   3.155   0.482  12.710  0.1737  1.1652  0.0500
 9480SOL     OW39901   4.493   1.631   7.109  0.5262  0.0268  0.7785
 9480SOL    HW139902   4.486   1.727   7.104 -0.1428 -0.1235 -1.5097
 9480SOL    HW239903   4.527   1.622   7.198 -0.9618  0.1754  1.3651
 9481SOL     OW39904   4.347   2.537   3.923  0.0145 -0.2054  0.0286
 9481SOL    HW139905   4.362   2.443   3.935  1.2658 -0.0638 -0.4987
 9481SOL    HW239906   4.256   2.529   3.953 -0.2896  0.3388 -0.7600
 9482SOL     OW39907   1.252   1.910   4.706 -0.2821 -0.0848  0.5714
 9482SOL    HW139908   1.275   1.846   4.640  1.7807 -0.5162  1.7101
 9482SOL    HW239909   1.211   1.859   4.776  0.2056 -0.9990  0.1852
 9483SOL     OW39910   1.235   1.552   0.861 -0.0020 -0.3145  0.1656
 9483SOL    HW139911   1.202   1.471   0.900 -1.7299  0.6388  0.6778
 9483SOL    HW239912   1.236   1.615   0.933  1.8148 -0.2848  0.1047
 9484SOL     OW39913   4.078   1.173   3.079  0.7525  0.4273  0.0797
 9484SOL    HW139914   4.069   1.154   3.172 -1.7416 -3.0371 -0.8540
 9484SOL    HW239915   4.161   1.221   3.074  1.2987 -0.4947  0.1498
 9485SOL     OW39916   2.807   4.587   0.681  0.1290 -0.7337 -0.6488
 9485SOL    HW139917   2.894   4.568   0.716  0.1249  0.5736  0.0788
 9485SOL    HW239918   2.757   4.596   0.762 -0.2571 -0.8198 -0.8789
 9486SOL     OW39919   3.319   0.344   3.768 -0.0433 -0.1427  0.0071
 9486SOL    HW139920   3.318   0.432   3.805 -2.8190  0.1111 -0.6450
 9486SOL    HW239921   3.281   0.288   3.835  1.5770  1.3809  2.2107
 9487SOL     OW39922   2.346   0.755   9.854  0.4502 -0.0994  0.2624
 9487SOL    HW139923   2.287   0.681   9.841  1.6372 -0.9857 -0.0825
 9487SOL    HW239924   2.312   0.786   9.938  0.5044  0.1408  0.1952
 9488SOL     OW39925   1.409   0.806   2.386 -0.3798 -0.3433  0.0910
 9488SOL    HW139926   1.323   0.845   2.400 -0.5478 -0.5308 -0.4184
 9488SOL    HW239927   1.443   0.833   2.472 -0.2917 -1.7190  0.4920
 9489SOL     OW39928   0.809   4.009  10.480  0.4204  1.1680 -0.2744
 9489SOL    HW139929   0.783   3.995  10.389  2.0200  2.2847 -0.9139
 9489SOL    HW239930   0.904   4.016  10.470  0.3787  1.4649 -0.4271
 9490SOL     OW39931   3.835   1.103   5.716  0.2157  0.0949 -0.4432
 9490SOL    HW139932   3.747   1.066   5.703  0.7620 -0.8702 -1.3585
 9490SOL    HW239933   3.887   1.035   5.759 -0.5013  0.0998  0.4483
 9491SOL     OW39934   4.071   1.319   6.141 -0.0646  0.0778 -0.3719
 9491SOL    HW139935   4.143   1.264   6.170  1.3376  1.5570 -1.0384
 9491SOL    HW239936   4.125   1.397   6.127 -2.0887  1.2851 -1.4135
 9492SOL     OW39937   0.550   4.616  14.605 -0.3885  0.5287 -0.2435
 9492SOL    HW139938   0.595   4.701  14.603  0.5070  0.0815  0.6257
 9492SOL    HW239939   0.524   4.603  14.514  0.0034  1.4030 -0.4884
 9493SOL     OW39940   0.122   1.243   6.903  0.0400  0.1248  0.1992
 9493SOL    HW139941   0.177   1.313   6.938  0.0103  0.4312 -0.3629
 9493SOL    HW239942   0.175   1.168   6.929  0.1281 -0.4040 -1.5411
 9494SOL     OW39943   1.192   3.422  11.335 -0.0931 -0.2297  0.3104
 9494SOL    HW139944   1.125   3.354  11.326  0.7323 -1.2662  2.0089
 9494SOL    HW239945   1.227   3.415  11.246 -0.2745  3.3838 -0.0468
 9495SOL     OW39946   0.814   3.768   6.499 -0.3289 -0.1686  0.1819
 9495SOL    HW139947   0.728   3.810   6.504 -1.1033 -1.5396 -1.4596
 9495SOL    HW239948   0.821   3.752   6.405  0.6911  1.6662 -0.0500
 9496SOL     OW39949   3.182   1.415   0.550 -0.1988  0.3270  0.6560
 9496SOL    HW139950   3.185   1.444   0.641  1.1276 -0.7505  0.9589
 9496SOL    HW239951   3.237   1.337   0.563 -1.8162 -0.8407  0.5199
 9497SOL     OW39952   0.085   3.662   4.396  0.8342  0.4010  0.5638
 9497SOL    HW139953   0.035   3.698   4.323  2.2362  0.0370 -0.5689
 9497SOL    HW239954   0.169   3.637   4.358  0.5839  0.0124  0.2608
 9498SOL     OW39955   2.057   3.407   5.238 -0.6383  0.7140 -0.0960
 9498SOL    HW139956   2.033   3.315   5.225  0.9713  0.2953 -0.0234
 9498SOL    HW239957   2.134   3.401   5.294  0.7543  0.6900 -2.0334
 9499SOL     OW39958   1.153   2.969   9.960  0.0989  0.0760 -0.4677
 9499SOL    HW139959   1.199   2.886   9.947 -1.7069 -1.4112  2.5803
 9499SOL    HW239960   1.127   2.973  10.052  1.1384 -0.2439 -0.1637
 9500SOL     OW39961   0.104   0.773  14.261 -0.1297  0.2219 -0.4957
 9500SOL    HW139962   0.047   0.804  14.190 -2.5011 -0.6837  1.0268
 9500SOL    HW239963   0.102   0.849  14.319  0.3194 -0.6180  0.6250
 9501SOL     OW39964   0.855   1.844   0.128 -0.7012  0.0799  0.2611
 9501SOL    HW139965   0.894   1.828   0.214  0.3835  1.4562  0.0331
 9501SOL    HW239966   0.798   1.768   0.118  1.1857 -1.2144 -0.5794
 9502SOL     OW39967   0.750   3.136   8.701  0.2728 -0.3387 -0.3119
 9502SOL    HW139968   0.726   3.132   8.609  1.6671 -2.0313 -0.5898
 9502SOL    HW239969   0.824   3.077   8.711  0.5039 -0.0797 -0.4866
 9503SOL     OW39970   3.518   1.542  15.070 -0.0250  0.4790  0.0332
 9503SOL    HW139971   3.589   1.579  15.018  1.8031 -0.5603  1.7428
 9503SOL    HW239972   3.509   1.456  15.028 -1.3238  1.1484 -1.0557
 9504SOL     OW39973   4.330   2.261  13.682  0.3414  0.0691  0.4223
 9504SOL    HW139974   4.424   2.248  13.698  0.0674 -1.4533  0.8026
 9504SOL    HW239975   4.333   2.356  13.675 -0.5220  0.0207 -0.5671
 9505SOL     OW39976   3.217   1.817  13.720 -0.7046 -0.6187  0.0364
 9505SOL    HW139977   3.307   1.846  13.711 -0.9352  0.3588  0.8462
 9505SOL    HW239978   3.195   1.813  13.813 -3.0890  0.2777 -0.4845
 9506SOL     OW39979   0.740   1.271   4.414  0.2223  0.9525  0.4215
 9506SOL    HW139980   0.829   1.291   4.385 -1.2033  3.7622 -2.0303
 9506SOL    HW239981   0.754   1.304   4.502 -1.0281  0.8966  0.6431
 9507SOL     OW39982   2.925   4.111   7.320 -0.1979 -0.2718  0.1346
 9507SOL    HW139983   2.849   4.073   7.364 -0.8368  0.4754 -0.3185
 9507SOL    HW239984   2.979   4.033   7.303  0.0918 -0.0208 -0.0888
 9508SOL     OW39985   2.435   3.287  17.406  0.5074  0.9022 -0.3557
 9508SOL    HW139986   2.445   3.261  17.497 -1.6849  1.3094  0.0116
 9508SOL    HW239987   2.529   3.286  17.387  0.7621  0.2053  0.9802
 9509SOL     OW39988   2.238   0.436   7.094 -0.0542 -0.2178 -0.0423
 9509SOL    HW139989   2.178   0.361   7.098 -0.6646  0.1989 -1.3189
 9509SOL    HW239990   2.210   0.485   7.017  1.3325  3.5138  1.7935
 9510SOL     OW39991   1.154   3.610   6.395  0.3324 -0.4344  0.2091
 9510SOL    HW139992   1.161   3.582   6.486  1.3594 -2.1335 -0.4037
 9510SOL    HW239993   1.062   3.635   6.387  0.5439  1.0757  2.6579
 9511SOL     OW39994   2.538   2.848   5.544  0.0010  0.1740  0.2507
 9511SOL    HW139995   2.540   2.940   5.570 -1.1806 -0.4227  2.4100
 9511SOL    HW239996   2.464   2.826   5.600 -1.9417  0.2830 -2.2428
 9512SOL     OW39997   3.611   0.519  16.399 -0.3362  0.2729  0.1814
 9512SOL    HW139998   3.538   0.528  16.462 -1.3178 -2.2763 -0.6027
 9512SOL    HW239999   3.687   0.479  16.441 -0.6461  2.3817  2.7598
 9513SOL     OW40000   2.791   2.727  14.900  0.3121  0.2344  0.1848
 9513SOL    HW140001   2.877   2.763  14.921 -0.1285  0.8260  0.9670
 9513SOL    HW240002   2.764   2.697  14.986  0.1774 -0.6676 -0.1748
 9514SOL     OW40003   4.507   0.621  12.016  0.1062 -0.2015 -0.5659
 9514SOL    HW140004   4.417   0.653  12.021  0.9072  2.1571 -1.6795
 9514SOL    HW240005   4.540   0.690  11.958 -0.5753 -2.5308 -3.7493
 9515SOL     OW40006   3.670   1.149   3.209 -0.4766 -0.3589 -0.2304
 9515SOL    HW140007   3.669   1.136   3.304  0.3455 -0.7202 -0.2654
 9515SOL    HW240008   3.594   1.206   3.205 -1.2424 -1.4587 -1.2935
 9516SOL     OW40009   3.118   2.672   6.034 -0.0683 -0.2679  0.6876
 9516SOL    HW140010   3.169   2.622   6.098 -0.2666  0.4533  1.4047
 9516SOL    HW240011   3.172   2.640   5.962 -0.0363  1.0020  0.1443
 9517SOL     OW40012   1.708   4.711   1.784 -0.2046  0.0923 -0.4106
 9517SOL    HW140013   1.658   4.722   1.703 -0.5698  2.3705  0.1326
 9517SOL    HW240014   1.801   4.694   1.772 -0.3521 -0.7240 -0.4323
 9518SOL     OW40015   3.291   4.546   1.672 -0.1447  0.6349  0.2234
 9518SOL    HW140016   3.236   4.543   1.750  0.0555 -0.6461  0.3260
 9518SOL    HW240017   3.226   4.509   1.612  1.2202  0.9672 -1.4833
 9519SOL     OW40018   4.689   1.162  16.339  0.3612 -0.4291  0.6508
 9519SOL    HW140019   4.617   1.107  16.370 -0.6868  1.7226  2.0266
 9519SOL    HW240020   4.649   1.242  16.307 -0.7170 -1.3508 -0.3105
 9520SOL     OW40021   2.773   1.724  10.791  0.4984  0.4480  0.0617
 9520SOL    HW140022   2.762   1.785  10.864  1.1835  0.3771  0.2257
 9520SOL    HW240023   2.854   1.681  10.819 -0.3889  0.3471  2.4845
 9521SOL     OW40024   3.134   3.885  16.365 -0.1333  0.6865  0.4855
 9521SOL    HW140025   3.060   3.860  16.422 -0.4347 -0.0531 -0.2308
 9521SOL    HW240026   3.140   3.979  16.382  0.8768  0.5476  0.8859
 9522SOL     OW40027   0.313   3.771   5.429 -0.2370 -0.8236 -0.6091
 9522SOL    HW140028   0.368   3.842   5.397 -2.5726  2.2608  2.1960
 9522SOL    HW240029   0.383   3.706   5.424  1.5362  1.0820 -0.4519
 9523SOL     OW40030   1.087   3.564   4.708  0.2910  0.1333  0.5017
 9523SOL    HW140031   1.104   3.658   4.700 -0.6594  0.5415  3.1587
 9523SOL    HW240032   1.075   3.547   4.801  2.1670 -2.0558  0.3464
 9524SOL     OW40033   4.066   0.544   6.001  0.0066 -0.4499 -0.2485
 9524SOL    HW140034   3.974   0.566   5.985 -0.1026  0.2410  1.3573
 9524SOL    HW240035   4.059   0.497   6.084 -2.0807 -0.6816 -0.5543
 9525SOL     OW40036   2.799   3.040   2.865 -0.2802  0.8494  0.4114
 9525SOL    HW140037   2.867   3.011   2.927 -3.3625 -4.2393  1.4384
 9525SOL    HW240038   2.725   3.050   2.925 -1.0651 -0.9934 -0.2633
 9526SOL     OW40039   2.765   0.287   7.204  0.5238 -0.2049  0.4184
 9526SOL    HW140040   2.762   0.217   7.139 -0.2059  0.9699 -0.7861
 9526SOL    HW240041   2.671   0.305   7.208  1.1977  3.4211 -0.3642
 9527SOL     OW40042   0.910   2.230   4.333 -0.2594 -0.0633 -0.1730
 9527SOL    HW140043   0.997   2.194   4.320 -0.5551 -0.7318 -0.2897
 9527SOL    HW240044   0.879   2.242   4.244  0.5704 -0.6409 -0.5355
 9528SOL     OW40045   4.681   1.612   1.185 -0.5646 -0.3350  0.6921
 9528SOL    HW140046   4.612   1.577   1.243 -1.6761  0.5493 -0.0957
 9528SOL    HW240047   4.638   1.596   1.101  2.0079  0.8363 -0.8379
 9529SOL     OW40048   1.718   0.306   7.389 -0.1721 -0.0825  0.4231
 9529SOL    HW140049   1.786   0.355   7.436  0.3646  0.1914 -0.6526
 9529SOL    HW240050   1.639   0.358   7.406  0.6137  1.1459  0.2980
 9530SOL     OW40051   0.005   4.528   2.971  0.0612  0.1546  0.2717
 9530SOL    HW140052   4.727   4.503   2.879  0.0195  0.1777  0.2678
 9530SOL    HW240053   0.074   4.464   2.990 -0.1405 -0.3749 -0.7913
 9531SOL     OW40054   3.348   0.931   5.564  0.1920 -0.5151 -0.5478
 9531SOL    HW140055   3.351   1.017   5.521 -0.5205 -0.8976 -1.3538
 9531SOL    HW240056   3.254   0.918   5.567  0.1703  0.2809  2.2581
 9532SOL     OW40057   0.273   0.397   0.104  0.1878 -0.2928  0.3503
 9532SOL    HW140058   0.242   0.364   0.019  0.7243  0.1372 -0.0104
 9532SOL    HW240059   0.209   0.465   0.125  1.5429  1.3879 -1.0460
 9533SOL     OW40060   4.357   2.947   8.483 -0.5720 -0.3088  0.3953
 9533SOL    HW140061   4.437   2.902   8.510 -0.5853 -0.0647  0.8491
 9533SOL    HW240062   4.303   2.939   8.561 -0.6560  1.7202  0.5465
 9534SOL     OW40063   2.905   0.977  17.291 -0.4217 -0.3133  0.2901
 9534SOL    HW140064   2.938   0.902  17.242  1.6419  0.6603  0.1870
 9534SOL    HW240065   2.850   0.931  17.354 -0.6020  0.9086  1.0193
 9535SOL     OW40066   2.634   1.547   3.842 -0.5104  0.5704  0.7700
 9535SOL    HW140067   2.577   1.506   3.777  0.7585 -1.1721  0.7586
 9535SOL    HW240068   2.717   1.500   3.854  0.8770  2.6613 -0.5013
 9536SOL     OW40069   1.440   3.055   9.056 -0.2698  0.2589  0.2117
 9536SOL    HW140070   1.378   3.021   9.121 -0.8629  0.7555 -0.0898
 9536SOL    HW240071   1.395   3.128   9.014  0.4087  1.0373  0.8024
 9537SOL     OW40072   1.875   4.570   5.960  0.2860 -0.6039  0.1743
 9537SOL    HW140073   1.928   4.493   5.983  0.2592 -0.8209 -0.4972
 9537SOL    HW240074   1.823   4.578   6.040  0.9392  0.0052  0.5436
 9538SOL     OW40075   0.000   3.360   1.735 -0.7249 -0.1124 -0.6491
 9538SOL    HW140076   4.686   3.297   1.794  0.1926  1.2934  1.5296
 9538SOL    HW240077   0.032   3.313   1.658 -1.1241  0.1179 -0.9551
 9539SOL     OW40078   1.507   0.949   9.481 -0.7310 -0.6206  0.2474
 9539SOL    HW140079   1.527   0.874   9.536 -1.1822  0.2699  1.6206
 9539SOL    HW240080   1.473   0.926   9.394 -0.4953  0.7887 -0.2103
 9540SOL     OW40081   2.525   1.994   3.203  0.5696  0.2579  0.4879
 9540SOL    HW140082   2.572   1.997   3.287  0.7108  2.7721  0.3221
 9540SOL    HW240083   2.497   1.903   3.203  1.3045  0.0312  0.0238
 9541SOL     OW40084   3.182   2.800   6.334 -0.3195 -0.1040 -0.1299
 9541SOL    HW140085   3.091   2.773   6.323 -0.1199 -0.2241 -1.4069
 9541SOL    HW240086   3.206   2.773   6.423 -0.5455 -0.6156 -0.2292
 9542SOL     OW40087   4.664   2.190   6.516 -0.4680 -0.2173 -0.2778
 9542SOL    HW140088   4.703   2.133   6.582 -1.2143 -0.4999 -0.0790
 9542SOL    HW240089   4.602   2.240   6.570 -0.2376 -0.2756  0.0366
 9543SOL     OW40090   4.666   1.265  12.927  0.0929  0.1024 -0.2769
 9543SOL    HW140091   4.684   1.252  12.834  1.0001 -1.6551  0.1393
 9543SOL    HW240092   4.695   1.178  12.955  0.0033  0.5744  1.2626
 9544SOL     OW40093   4.643   0.818   8.955  0.4000  0.4481  0.0058
 9544SOL    HW140094   0.010   0.806   8.960  0.3040  0.5960  2.3655
 9544SOL    HW240095   4.637   0.910   8.932  0.9643  0.3423 -0.5600
 9545SOL     OW40096   2.394   0.622   6.128  0.0902 -0.1459 -0.4090
 9545SOL    HW140097   2.427   0.706   6.159  1.4025 -0.6407 -0.4183
 9545SOL    HW240098   2.463   0.601   6.064  1.2388  0.8459  0.5227
 9546SOL     OW40099   2.788   0.114   0.535  0.3411  0.1731  0.1943
 9546SOL    HW140100   2.784   0.037   0.591  3.0390 -0.4703 -0.4917
 9546SOL    HW240101   2.794   0.075   0.448 -1.6512  0.8027 -0.2337
 9547SOL     OW40102   3.162   4.506   2.785 -0.1274  0.4917  0.6627
 9547SOL    HW140103   3.078   4.488   2.743  0.3921 -0.8935  0.2222
 9547SOL    HW240104   3.150   4.584   2.839 -0.5029 -0.4172  1.8899
 9548SOL     OW40105   3.552   4.204   2.033  0.3959  0.0777 -1.0166
 9548SOL    HW140106   3.629   4.213   1.977  0.8250 -0.8359 -0.5755
 9548SOL    HW240107   3.515   4.292   2.026 -0.1610  0.0732  1.6222
 9549SOL     OW40108   4.653   4.439   8.643 -0.0990  0.1158 -0.2818
 9549SOL    HW140109   0.013   4.464   8.611  0.4097 -0.2570  0.8326
 9549SOL    HW240110   4.628   4.369   8.583 -0.1662  0.3777 -0.5600
 9550SOL     OW40111   1.533   2.067   0.833 -0.5401  0.7074  0.7653
 9550SOL    HW140112   1.595   2.078   0.760  0.0966 -0.0860  1.1815
 9550SOL    HW240113   1.569   1.992   0.881  0.1301 -1.0082 -2.3975
 9551SOL     OW40114   0.660   0.825   6.477  0.1216  0.6982  0.0154
 9551SOL    HW140115   0.710   0.762   6.528  1.1753  0.1295 -1.6984
 9551SOL    HW240116   0.733   0.872   6.437  0.1621 -0.6637 -1.5345
 9552SOL     OW40117   1.109   1.640   2.274 -0.1635 -0.2350 -0.1127
 9552SOL    HW140118   1.101   1.546   2.258  1.3233 -0.4628  0.5049
 9552SOL    HW240119   1.052   1.683   2.211 -0.2059 -2.4326 -1.5570
 9553SOL     OW40120   0.206   3.433   6.479 -0.1568 -0.2534  0.2906
 9553SOL    HW140121   0.195   3.355   6.533  0.8804 -0.1485  0.6515
 9553SOL    HW240122   0.282   3.405   6.428  0.0787 -1.5323  1.3543
 9554SOL     OW40123   4.164   1.635   9.118 -0.3504 -0.2369  0.6386
 9554SOL    HW140124   4.081   1.627   9.071 -0.3082 -0.2337  0.5641
 9554SOL    HW240125   4.144   1.571   9.187 -1.9098  2.3917  2.6285
 9555SOL     OW40126   1.062   2.633  10.093 -0.2673  0.1020  0.0946
 9555SOL    HW140127   1.071   2.661  10.184  0.5321 -1.9900  0.6706
 9555SOL    HW240128   0.992   2.569  10.105 -1.1967  0.9225 -1.0723
 9556SOL     OW40129   3.228   3.657  10.721  0.1894  0.0436 -0.1694
 9556SOL    HW140130   3.322   3.661  10.703 -0.2554  0.5909 -2.4530
 9556SOL    HW240131   3.189   3.735  10.682  0.3238 -0.6657 -1.7532
 9557SOL     OW40132   4.620   3.725   3.620 -0.2660  0.1375 -0.1010
 9557SOL    HW140133   4.545   3.667   3.633 -1.5102  2.3871  2.8141
 9557SOL    HW240134   4.587   3.794   3.563  2.0909  0.5277 -0.9954
 9558SOL     OW40135   3.246   4.720   6.590 -0.3087  0.4557 -0.2543
 9558SOL    HW140136   3.301   4.642   6.579  0.5005  0.5884  2.6571
 9558SOL    HW240137   3.311   0.062   6.602  0.3852 -0.3473  0.6731
 9559SOL     OW40138   2.700   4.617   3.742  0.1831  0.1934  0.0024
 9559SOL    HW140139   2.629   4.677   3.718  1.5725  1.2982 -1.3575
 9559SOL    HW240140   2.661   4.534   3.768  1.0773 -0.5092 -0.8774
 9560SOL     OW40141   1.301   4.656   2.392  0.6716 -0.0692 -0.4716
 9560SOL    HW140142   1.344   0.012   2.413  0.6111  0.0529 -0.8378
 9560SOL    HW240143   1.239   4.688   2.326 -0.5101 -1.1935  0.0914
 9561SOL     OW40144   3.028   0.497   4.832 -0.3550 -0.0757  0.3988
 9561SOL    HW140145   3.110   0.536   4.861 -0.7520  0.0869  1.3235
 9561SOL    HW240146   3.039   0.402   4.833  0.8621  0.0731  0.7660
 9562SOL     OW40147   4.586   4.082  10.066  0.3782 -0.0950 -0.9950
 9562SOL    HW140148   4.568   4.059   9.975 -0.0567  0.5754 -1.0820
 9562SOL    HW240149   4.550   4.171  10.072 -0.5807 -0.5231 -0.3612
 9563SOL     OW40150   4.292   1.012   3.257 -0.6366  0.1152 -0.3839
 9563SOL    HW140151   4.316   1.069   3.184 -0.0510 -0.9157 -0.9906
 9563SOL    HW240152   4.219   1.062   3.293 -0.5398  0.3188 -0.4690
 9564SOL     OW40153   3.567   0.703   2.779 -0.1350  0.4149  0.1830
 9564SOL    HW140154   3.601   0.765   2.844 -2.3943  2.3571 -0.4777
 9564SOL    HW240155   3.640   0.642   2.778 -1.4101 -1.0971 -0.3023
 9565SOL     OW40156   1.635   1.229   2.677  0.1074 -0.4865  0.2194
 9565SOL    HW140157   1.578   1.163   2.638 -0.0892  0.2025 -0.6390
 9565SOL    HW240158   1.625   1.203   2.769 -0.9677  2.7853  1.0551
 9566SOL     OW40159   2.553   4.655  15.156  0.4916 -0.1856 -0.4585
 9566SOL    HW140160   2.591   4.598  15.223  1.0093  0.7011 -0.0009
 9566SOL    HW240161   2.513   0.000  15.203 -0.1242  1.0521 -2.9159
 9567SOL     OW40162   1.995   1.372   5.744  0.1852  0.2205 -0.9050
 9567SOL    HW140163   1.935   1.298   5.735  1.1560 -0.6580 -0.1274
 9567SOL    HW240164   1.927   1.433   5.774 -0.7273 -0.5147 -1.4627
 9568SOL     OW40165   3.254   1.069   4.371  0.0666  0.0313  0.7005
 9568SOL    HW140166   3.172   1.070   4.419 -0.9226  0.3137 -0.9764
 9568SOL    HW240167   3.263   0.975   4.354  0.8073  0.6011 -2.1091
   4.72761   4.72761  17.71118
