Membrane in water
40167
    1TCq1    O1    1   1.316   1.350  10.908  0.2939 -0.6337 -0.3589
    1TCq1    C1    2   1.191   1.318  10.955 -0.6006  0.0105  0.5842
    1TCq1    O2    3   1.137   1.211  10.937  0.2580  0.1699 -0.9066
    1TCq1    C2    4   1.185   1.388  11.086  0.1387  0.5878 -0.1641
    1TCq1    C3    5   1.236   1.515  11.101  0.1492 -0.2547 -0.0720
    1TCq1    C4    6   1.272   1.552  11.229 -0.2122  0.1761 -0.0153
    1TCq1    C5    7   1.256   1.470  11.333  0.2632  0.3960 -0.0995
    1TCq1    C6    8   1.200   1.349  11.311 -0.2385  0.3247 -0.4216
    1TCq1    C7    9   1.159   1.307  11.192 -0.2820  0.0466  0.5773
    1TCq1    C8   10   1.211   1.259  11.419  0.0605  1.8160 -0.3698
    1TCq1    O4   11   1.264   1.299  11.522 -0.2209  0.0928  0.2151
    1TCq1    C9   12   1.312   1.688  11.249 -0.3420  0.3094  0.0971
    1TCq1    O5   13   1.269   1.774  11.169  0.1310 -0.2649 -0.6507
    1TCq1    O6   14   1.333   1.711  11.367 -0.1625  0.3036 -0.4369
    1TCq1    H1   15   1.357   1.428  10.949 -1.5239 -0.4311  1.0739
    1TCq1    H2   16   1.251   1.588  11.021  0.8548  1.0485  1.2424
    1TCq1    H3   17   1.301   1.498  11.428 -1.5703  0.1766  0.8372
    1TCq1    H4   18   1.113   1.209  11.187  1.2156 -0.6142 -0.2652
    2MPD2     C   19   1.194   0.809  11.645  0.0737 -0.5117 -0.4795
    2MPD2    C1   20   1.230   0.933  11.693  0.5038  0.9160  0.3990
    2MPD2    C2   21   1.238   1.034  11.605  0.3022 -0.0630 -0.2822
    2MPD2    C3   22   1.190   1.022  11.475  0.7250 -0.6774 -0.1169
    2MPD2    C4   23   1.147   0.899  11.434 -0.0664  0.7237 -0.2983
    2MPD2    C5   24   1.140   0.796  11.524 -0.0161 -0.7531 -0.5030
    2MPD2     H   25   1.261   1.131  11.648 -0.1550  1.0143 -2.4818
    2MPD2    H1   26   1.102   0.888  11.336  0.7538 -0.9661 -0.4940
    2MPD2    H2   27   1.176   0.729  11.716  1.9456  0.3085  0.9185
    2MPD2    H3   28   1.097   0.699  11.499 -0.0971 -0.5687 -1.0727
    2MPD2     N   29   1.184   1.127  11.386 -0.3592 -0.5139 -0.3425
    2MPD2    H5   30   1.146   1.106  11.294  1.6096  0.9228 -1.5016
    2MPD2    N1   31   1.287   0.952  11.826  0.0513  0.2823  0.3981
    2MPD2    H7   32   1.318   1.047  11.841  0.2835  0.1979  0.4442
    3TCq1    O1   33   0.856   2.904  10.511 -0.0408 -0.4402  0.3005
    3TCq1    C1   34   0.877   2.963  10.627  0.8393 -0.2094 -0.3470
    3TCq1    O2   35   0.811   3.052  10.678  0.5576  0.1413 -0.1194
    3TCq1    C2   36   1.028   2.955  10.652  0.6062  0.5951  0.0149
    3TCq1    C3   37   1.113   2.894  10.568  0.2838  0.2504  0.1780
    3TCq1    C4   38   1.249   2.919  10.582  0.3068  0.6439 -0.5219
    3TCq1    C5   39   1.300   3.001  10.679  0.3133  0.2392  0.1228
    3TCq1    C6   40   1.212   3.064  10.766  0.2439  0.0800 -0.2966
    3TCq1    C7   41   1.077   3.036  10.758 -0.1069 -0.2524  0.2861
    3TCq1    C8   42   1.267   3.151  10.870 -0.9141  0.4155 -0.3474
    3TCq1    O4   43   1.374   3.208  10.848 -0.2517  1.2275 -0.1662
    3TCq1    C9   44   1.340   2.866  10.488 -0.1581 -0.0983  0.1516
    3TCq1    O5   45   1.460   2.898  10.495 -0.5662 -0.2542 -0.1176
    3TCq1    O6   46   1.284   2.792  10.403  0.3125 -0.1845 -0.5995
    3TCq1    H1   47   0.902   2.818  10.503  0.1555 -0.1370 -1.8078
    3TCq1    H2   48   1.076   2.847  10.478 -1.8032  2.3394 -0.0751
    3TCq1    H3   49   1.406   3.023  10.684  0.6679 -1.6362  0.7095
    3TCq1    H4   50   1.002   3.084  10.819 -0.0916  0.5506 -0.3382
    4MPD2     C   51   1.246   3.332  11.350 -0.3575  0.2139 -0.1170
    4MPD2    C1   52   1.136   3.248  11.329  0.9241 -0.3161  0.4946
    4MPD2    C2   53   1.120   3.190  11.206 -0.1889 -0.5931 -0.5069
    4MPD2    C3   54   1.210   3.214  11.106 -1.2973 -0.7684 -0.2183
    4MPD2    C4   55   1.315   3.305  11.124  0.1171  0.0349  0.0202
    4MPD2    C5   56   1.332   3.358  11.253  0.1359  0.1606 -0.2032
    4MPD2     H   57   1.032   3.126  11.197  0.8355 -1.8150 -1.8641
    4MPD2    H1   58   1.383   3.325  11.042 -1.0044  0.9300 -0.6880
    4MPD2    H2   59   1.261   3.367  11.452 -0.0222  0.7353 -0.3419
    4MPD2    H3   60   1.415   3.422  11.280 -0.0091  0.2080  0.1349
    4MPD2     N   61   1.193   3.143  10.986 -0.0088  0.0824  0.5430
    4MPD2    H5   62   1.109   3.086  10.977  0.2893 -0.5043  1.4427
    4MPD2    N1   63   1.050   3.210  11.437  0.5306 -0.2209  0.0546
    4MPD2    H7   64   0.963   3.167  11.408 -0.6142  1.3693  1.1022
    5TCq1    O1   65   2.043   4.445  10.308 -0.3210 -0.3225 -0.7032
    5TCq1    C1   66   2.118   4.413  10.415  0.2818  0.1541  0.0903
    5TCq1    O2   67   2.214   4.336  10.408  0.1779 -0.5325 -1.0148
    5TCq1    C2   68   2.023   4.407  10.530 -0.4048 -0.5100  0.1824
    5TCq1    C3   69   1.930   4.504  10.535  0.7063 -0.0236  0.3392
    5TCq1    C4   70   1.822   4.492  10.609  0.0903 -0.3409  0.4641
    5TCq1    C5   71   1.802   4.384  10.686  0.4316 -0.5201  0.2438
    5TCq1    C6   72   1.891   4.278  10.681  0.1700  0.2667  0.8283
    5TCq1    C7   73   2.004   4.292  10.602  0.0052 -0.1835  0.0160
    5TCq1    C8   74   1.876   4.151  10.755  0.4201  0.5127 -0.6484
    5TCq1    O4   75   1.932   4.051  10.710  0.2451  0.6453  0.1206
    5TCq1    C9   76   1.716   4.593  10.605  0.7706 -0.2459  0.6085
    5TCq1    O5   77   1.714   4.674  10.508 -0.0005  0.3389  0.2234
    5TCq1    O6   78   1.646   4.602  10.711  0.0602  0.0187  0.1259
    5TCq1    H1   79   1.958   4.491  10.322 -1.1824 -2.2334  0.3373
    5TCq1    H2   80   1.948   4.596  10.481 -2.1601  0.2929 -0.0587
    5TCq1    H3   81   1.714   4.368  10.747  0.1761 -1.7662 -0.4603
    5TCq1    H4   82   2.065   4.203  10.590  1.9321  1.2672 -0.8729
    6MPD2     C   83   1.635   4.110  11.026  0.3922  0.1426 -0.1078
    6MPD2    C1   84   1.726   4.069  10.939 -0.3455 -0.0853 -0.3125
    6MPD2    C2   85   1.758   3.937  10.938  0.3191  0.1006  0.0662
    6MPD2    C3   86   1.702   3.840  11.023  0.4027 -0.5711 -0.3279
    6MPD2    C4   87   1.610   3.887  11.116 -0.3608  0.6468 -0.4564
    6MPD2    C5   88   1.589   4.021  11.121 -0.1453  0.4316 -0.3760
    6MPD2     H   89   1.815   3.897  10.856 -0.2584  0.0633 -0.3151
    6MPD2    H1   90   1.568   3.824  11.194  2.4796  1.5369  1.7768
    6MPD2    H2   91   1.594   4.210  11.021 -1.9724 -0.8816 -1.0630
    6MPD2    H3   92   1.521   4.059  11.196 -1.2045 -1.4260 -0.4190
    6MPD2     N   93   1.753   3.709  11.012 -0.2651 -0.1688  0.1223
    6MPD2    H5   94   1.819   3.683  10.941  2.3539 -2.2355  3.3135
    6MPD2    N1   95   1.781   4.168  10.849 -0.1679 -0.9548  0.4552
    6MPD2    H7   96   1.747   4.263  10.855 -2.9655 -1.6946 -3.9276
    7TCq1    O1   97   4.303   4.143  13.301 -0.1394 -0.2113  0.5930
    7TCq1    C1   98   4.287   4.138  13.165  0.6151  0.2778  0.2784
    7TCq1    O2   99   4.315   4.223  13.082  0.0720 -0.4544 -0.6143
    7TCq1    C2  100   4.213   4.017  13.133 -0.0271  0.2070  0.1657
    7TCq1    C3  101   4.140   4.018  13.014 -0.3247 -0.1922 -0.7872
    7TCq1    C4  102   4.061   3.905  12.991 -0.2324  0.1594 -0.2047
    7TCq1    C5  103   4.066   3.792  13.067  0.0558  0.4809 -0.0118
    7TCq1    C6  104   4.151   3.796  13.175 -0.1652 -0.0088  0.6634
    7TCq1    C7  105   4.224   3.903  13.215  0.1000 -0.3514  0.2133
    7TCq1    C8  106   4.163   3.669  13.245  0.5329  0.7603  0.2513
    7TCq1    O4  107   4.101   3.574  13.193 -0.3240  0.2093  0.4614
    7TCq1    C9  108   3.969   3.902  12.879  0.3570  0.1122  0.5384
    7TCq1    O5  109   3.911   3.792  12.853  0.3752  0.6524  0.3863
    7TCq1    O6  110   3.959   3.999  12.802  0.4437  0.3423  0.4732
    7TCq1    H1  111   4.245   4.081  13.350 -0.4990 -1.0054 -0.8306
    7TCq1    H2  112   4.121   4.098  12.944  0.9126  1.1936  0.4519
    7TCq1    H3  113   4.004   3.708  13.039 -1.1691  0.7367  1.8940
    7TCq1    H4  114   4.278   3.909  13.308 -3.1237 -0.2319  2.1028
    8MPD2     C  115   4.329   3.344  13.603  0.4284  0.2866 -0.1662
    8MPD2    C1  116   4.284   3.323  13.481  0.1984 -0.2498  0.4035
    8MPD2    C2  117   4.252   3.425  13.397  0.8695  0.4762  0.2820
    8MPD2    C3  118   4.283   3.558  13.431 -0.8472 -0.2139  0.0520
    8MPD2    C4  119   4.342   3.579  13.554 -0.0625 -0.1592 -0.9572
    8MPD2    C5  120   4.352   3.478  13.643  0.1826 -0.4287  0.3548
    8MPD2     H  121   4.205   3.406  13.301  2.8491 -0.5787 -0.4654
    8MPD2    H1  122   4.388   3.672  13.586 -0.5417 -0.8641  1.7687
    8MPD2    H2  123   4.376   3.270  13.667  1.3346 -0.9398 -2.2622
    8MPD2    H3  124   4.393   3.492  13.742  0.7760  0.4236 -0.0068
    8MPD2     N  125   4.249   3.673  13.352  0.4008 -0.0690 -0.6172
    8MPD2    H5  126   4.300   3.756  13.379 -0.8366  0.4164  0.2498
    8MPD2    N1  127   4.265   3.183  13.454  0.7460 -0.0503 -0.0474
    8MPD2    H7  128   4.273   3.124  13.535 -2.6602  0.1441  0.4250
    9TCq1    O1  129   1.719   2.193  10.832 -0.2938  0.1568  0.0521
    9TCq1    C1  130   1.739   2.081  10.901  0.5481  0.5012 -0.2268
    9TCq1    O2  131   1.816   2.063  10.993  0.1333  0.1034  0.0883
    9TCq1    C2  132   1.655   1.971  10.849  0.2789 -0.0021 -0.3794
    9TCq1    C3  133   1.672   1.958  10.713  0.1030 -0.6748 -0.1683
    9TCq1    C4  134   1.635   1.835  10.656  0.1715  0.1358 -0.1186
    9TCq1    C5  135   1.587   1.738  10.741  0.6221 -0.0312  0.2438
    9TCq1    C6  136   1.595   1.755  10.882  0.5811 -0.4382  0.8547
    9TCq1    C7  137   1.626   1.873  10.938  0.3122 -1.4138  0.2373
    9TCq1    C8  138   1.588   1.635  10.965  1.0068  0.0075 -0.3468
    9TCq1    O4  139   1.516   1.542  10.928 -0.1020  0.1362 -0.1438
    9TCq1    C9  140   1.627   1.828  10.518  0.0980 -0.0775  0.0662
    9TCq1    O5  141   1.696   1.909  10.451 -0.1933  0.0864  0.0682
    9TCq1    O6  142   1.580   1.725  10.462  0.5231 -0.0515 -0.5593
    9TCq1    H1  143   1.641   2.188  10.772 -0.7463  3.7575  0.3107
    9TCq1    H2  144   1.720   2.035  10.655  0.1081 -1.4787 -1.2381
    9TCq1    H3  145   1.566   1.639  10.704  1.5530 -0.4936  0.9400
    9TCq1    H4  146   1.622   1.890  11.045  0.4529 -1.5398  0.2632
   10MPD2     C  147   1.597   1.476  11.219  0.2320 -0.4775  0.1415
   10MPD2    C1  148   1.668   1.590  11.189 -0.2121  0.1436  0.1969
   10MPD2    C2  149   1.754   1.639  11.289  0.0906  0.3116 -0.4864
   10MPD2    C3  150   1.756   1.583  11.414 -0.9430 -1.2678 -0.0760
   10MPD2    C4  151   1.665   1.479  11.441 -1.0277 -0.1493  0.3779
   10MPD2    C5  152   1.590   1.421  11.343  0.4495  0.1717 -0.0338
   10MPD2     H  153   1.829   1.712  11.261 -0.2632  0.4866 -0.9730
   10MPD2    H1  154   1.661   1.452  11.545  1.6218  3.0513  1.3110
   10MPD2    H2  155   1.526   1.426  11.154 -0.9256 -1.1825  1.9639
   10MPD2    H3  156   1.537   1.328  11.361  0.9458 -0.2837 -0.8934
   10MPD2     N  157   1.837   1.632  11.515 -0.1638  0.7322 -0.3700
   10MPD2    H5  158   1.824   1.586  11.604 -0.9072  1.2888 -0.1941
   10MPD2    N1  159   1.666   1.659  11.070  0.1293  0.3668 -0.1590
   10MPD2    H7  160   1.714   1.749  11.074  2.7477 -0.9591 -1.9119
   11TCq1    O1  161   3.083   2.245  14.081  0.1716 -0.0693 -0.4478
   11TCq1    C1  162   3.095   2.133  14.159  1.2595 -1.1323  0.0978
   11TCq1    O2  163   3.036   2.034  14.126  0.4234  0.5183 -0.8059
   11TCq1    C2  164   3.082   2.184  14.296  0.2884 -0.1307  0.2754
   11TCq1    C3  165   3.170   2.274  14.352 -0.3349  0.3035 -0.2067
   11TCq1    C4  166   3.140   2.329  14.468  0.5399 -0.2192  0.2827
   11TCq1    C5  167   3.032   2.282  14.538 -0.0618 -0.5004  0.0248
   11TCq1    C6  168   2.957   2.181  14.487 -0.0176  0.3105 -0.4855
   11TCq1    C7  169   2.975   2.146  14.363 -0.5517 -0.1968 -0.3564
   11TCq1    C8  170   2.823   2.153  14.547 -0.5484 -0.0265 -0.2027
   11TCq1    O4  171   2.777   2.221  14.637 -0.0862 -0.1471 -0.2642
   11TCq1    C9  172   3.229   2.432  14.514  0.1674 -0.1911 -0.1204
   11TCq1    O5  173   3.300   2.495  14.430 -0.1477  0.1178  0.2250
   11TCq1    O6  174   3.241   2.447  14.638  0.4691  0.3246 -0.0962
   11TCq1    H1  175   3.123   2.326  14.120 -0.8126 -0.1134  0.6674
   11TCq1    H2  176   3.255   2.315  14.299  1.3517 -1.2426  1.2885
   11TCq1    H3  177   3.012   2.309  14.641  0.2238  0.4957 -0.1768
   11TCq1    H4  178   2.914   2.072  14.314 -1.3480 -0.5033  1.0852
   12MPD2     C  179   2.534   2.038  14.561 -0.1198 -0.6882  1.1304
   12MPD2    C1  180   2.645   1.983  14.498  0.6076  0.0964 -0.9801
   12MPD2    C2  181   2.625   1.872  14.417 -0.3045  0.7513 -0.1024
   12MPD2    C3  182   2.493   1.814  14.405  0.4988 -0.0560 -0.5096
   12MPD2    C4  183   2.389   1.868  14.477  0.7481  0.3271 -0.2017
   12MPD2    C5  184   2.408   1.978  14.549  0.6558 -0.7052 -0.2631
   12MPD2     H  185   2.703   1.842  14.349  0.4139 -0.3697  1.2203
   12MPD2    H1  186   2.292   1.822  14.462  0.0380  1.4103  1.0699
   12MPD2    H2  187   2.542   2.122  14.629  1.0060 -0.6114  0.9121
   12MPD2    H3  188   2.323   2.014  14.606  2.1713 -0.5698  1.9597
   12MPD2     N  189   2.474   1.710  14.316  0.4408  0.4133 -0.4414
   12MPD2    H5  190   2.550   1.654  14.280  0.9549  0.1500  1.0254
   12MPD2    N1  191   2.776   2.028  14.499 -0.5348  0.2662  0.5762
   12MPD2    H7  192   2.846   1.970  14.455 -2.4191 -1.1727 -0.5614
   13TCq1    O1  193   1.466   1.606  10.269 -0.1004 -0.2623  0.1705
   13TCq1    C1  194   1.381   1.688  10.208  0.0191 -0.4249 -0.2210
   13TCq1    O2  195   1.327   1.669  10.102  0.5774  0.1152  0.0870
   13TCq1    C2  196   1.328   1.774  10.316 -0.1648  0.1896 -0.2537
   13TCq1    C3  197   1.337   1.905  10.290  0.3144  0.0380 -0.0259
   13TCq1    C4  198   1.320   1.991  10.399 -0.1653  0.1872 -0.1625
   13TCq1    C5  199   1.286   1.946  10.520 -0.2120  0.2629  0.2122
   13TCq1    C6  200   1.271   1.808  10.539 -0.0220 -0.2605  0.0789
   13TCq1    C7  201   1.287   1.723  10.434 -0.2724  0.2954 -0.0861
   13TCq1    C8  202   1.196   1.766  10.658  0.1696 -0.3475 -0.0625
   13TCq1    O4  203   1.193   1.847  10.747 -0.0746 -0.3270 -0.5181
   13TCq1    C9  204   1.346   2.130  10.380 -0.2628 -0.0348  0.1582
   13TCq1    O5  205   1.402   2.171  10.276  0.8108  0.2859  0.4577
   13TCq1    O6  206   1.340   2.205  10.485  0.0187 -0.3366 -0.0917
   13TCq1    H1  207   1.506   1.646  10.349  0.5338  0.1423 -0.3509
   13TCq1    H2  208   1.361   1.941  10.191  0.1638 -0.5447 -0.2786
   13TCq1    H3  209   1.270   2.015  10.602  0.5627  0.7020 -0.0043
   13TCq1    H4  210   1.280   1.615  10.445  0.5789  0.2243 -0.2313
   14MPD2     C  211   0.946   1.504  10.682  0.4341  0.0152  0.1694
   14MPD2    C1  212   1.028   1.603  10.724 -0.5777 -0.6897 -0.1319
   14MPD2    C2  213   1.024   1.638  10.860 -0.0329 -0.2388  0.2781
   14MPD2    C3  214   0.936   1.584  10.950  0.2023 -0.1134 -0.1984
   14MPD2    C4  215   0.840   1.493  10.901 -0.2393  0.7505 -0.1275
   14MPD2    C5  216   0.857   1.445  10.773  0.1370 -0.1922  0.4505
   14MPD2     H  217   1.083   1.713  10.910 -0.1396 -0.9190  1.4156
   14MPD2    H1  218   0.769   1.446  10.968 -1.0123  2.7294  0.4628
   14MPD2    H2  219   0.955   1.463  10.582 -0.9089  5.0140 -1.9876
   14MPD2    H3  220   0.796   1.362  10.739 -0.9399  0.4579  0.7719
   14MPD2     N  221   0.937   1.628  11.090 -0.1453 -0.4889 -0.1380
   14MPD2    H5  222   1.003   1.698  11.123 -0.7091 -0.9356  1.8848
   14MPD2    N1  223   1.128   1.654  10.636  0.4790 -0.2275  0.5701
   14MPD2    H7  224   1.136   1.602  10.549 -0.5141 -1.1253  1.0009
   15TCq1    O1  225   2.980   1.496   1.765 -0.0594  0.0972  0.1370
   15TCq1    C1  226   3.041   1.398   1.704 -0.2290  0.3641  0.1345
   15TCq1    O2  227   3.022   1.361   1.588 -0.5600 -0.1786 -0.3431
   15TCq1    C2  228   3.164   1.358   1.770  0.6942 -0.4197  0.2400
   15TCq1    C3  229   3.156   1.357   1.906  0.0901  0.3391  0.1510
   15TCq1    C4  230   3.278   1.357   1.967 -0.5815  0.2502  0.3426
   15TCq1    C5  231   3.401   1.364   1.898  0.1320 -0.1201 -0.0770
   15TCq1    C6  232   3.398   1.365   1.764  0.2094 -0.4952 -0.3311
   15TCq1    C7  233   3.276   1.365   1.691  0.3803 -0.0648  0.0710
   15TCq1    C8  234   3.520   1.337   1.688 -1.0374  0.4825  0.1000
   15TCq1    O4  235   3.613   1.336   1.769  0.1402  0.4727 -0.8902
   15TCq1    C9  236   3.279   1.364   2.109  0.1405 -0.7414  0.1509
   15TCq1    O5  237   3.170   1.354   2.168 -0.2243 -0.2678 -0.0967
   15TCq1    O6  238   3.391   1.352   2.161 -0.3331  0.5704  0.2818
   15TCq1    H1  239   3.016   1.508   1.856 -1.2790  0.5051  0.5612
   15TCq1    H2  240   3.065   1.360   1.964  0.8034  2.5308  1.1676
   15TCq1    H3  241   3.495   1.371   1.951 -0.9161  0.6498  1.7012
   15TCq1    H4  242   3.269   1.383   1.585 -0.5811 -1.1711 -0.0431
   16MPD2     C  243   3.581   1.316   1.327 -0.2572  0.4231 -1.0994
   16MPD2    C1  244   3.616   1.300   1.461  0.4569 -0.4457 -0.1955
   16MPD2    C2  245   3.744   1.258   1.502  0.5685  0.7360  0.1965
   16MPD2    C3  246   3.842   1.232   1.411  0.4330  0.2403  0.4594
   16MPD2    C4  247   3.802   1.244   1.281  0.5517  0.2380  0.2216
   16MPD2    C5  248   3.674   1.281   1.239 -0.2396  0.0517 -0.6150
   16MPD2     H  249   3.768   1.254   1.608 -0.8011 -1.4367  0.4363
   16MPD2    H1  250   3.879   1.236   1.205 -0.2774  0.4618 -0.6585
   16MPD2    H2  251   3.482   1.345   1.293 -1.3211  0.2182  1.7980
   16MPD2    H3  252   3.653   1.294   1.133 -0.5555 -0.8701 -0.6600
   16MPD2     N  253   3.971   1.183   1.447  0.4315  0.2611  0.3014
   16MPD2    H5  254   3.973   1.166   1.547 -2.3140  0.1148  0.3218
   16MPD2    N1  255   3.512   1.328   1.557  0.0140 -0.2451 -0.6340
   16MPD2    H7  256   3.418   1.349   1.524 -0.4144  0.1669  0.8473
   17TCq1    O1  257   4.451   0.599   9.938  0.2547  0.0523 -0.3153
   17TCq1    C1  258   4.525   0.588  10.051  1.0867 -0.0675 -1.0938
   17TCq1    O2  259   4.505   0.528  10.159 -0.2629 -0.6197 -0.4669
   17TCq1    C2  260   4.635   0.679  10.008 -0.1608 -0.4760 -0.5351
   17TCq1    C3  261   4.624   0.774   9.908 -0.1812  0.0403  0.0536
   17TCq1    C4  262   0.028   0.840   9.876  0.1653  0.2365  0.3174
   17TCq1    C5  263   0.148   0.823   9.950  0.1011  0.6435  0.1113
   17TCq1    C6  264   0.143   0.725  10.051  0.0830  0.3303  0.4615
   17TCq1    C7  265   0.034   0.652  10.075 -0.0722  0.2287  0.0312
   17TCq1    C8  266   0.248   0.725  10.148  0.1817 -0.3935  0.0987
   17TCq1    O4  267   0.232   0.650  10.243  0.3585  0.1406  0.3762
   17TCq1    C9  268   0.032   0.915   9.757 -0.1425  0.3504  0.9385
   17TCq1    O5  269   4.642   0.927   9.699  0.0017 -0.3229  0.6043
   17TCq1    O6  270   0.147   0.936   9.708 -0.3756 -0.0704  0.5245
   17TCq1    H1  271   4.507   0.609   9.858 -0.9035 -0.3058 -1.1570
   17TCq1    H2  272   4.535   0.795   9.851  0.9779  3.2133 -0.6199
   17TCq1    H3  273   0.226   0.894   9.927  1.5328 -0.3460  1.9051
   17TCq1    H4  274   0.037   0.572  10.148  2.3519  0.2775 -0.0207
   18MPD2     C  275   0.465   0.806  10.348 -0.1118 -0.4900  0.5559
   18MPD2    C1  276   0.452   0.858  10.222 -0.2294 -0.2138 -0.3493
   18MPD2    C2  277   0.549   0.948  10.184  0.1482  0.5862 -0.0871
   18MPD2    C3  278   0.656   0.976  10.270 -0.2416 -0.8374 -0.3312
   18MPD2    C4  279   0.657   0.930  10.397  0.0068  0.1711 -0.3712
   18MPD2    C5  280   0.558   0.846  10.433  0.1669  0.2990 -0.8150
   18MPD2     H  281   0.544   0.993  10.085  0.6677 -2.3157 -1.4226
   18MPD2    H1  282   0.732   0.964  10.468  0.5756  1.6911 -1.7166
   18MPD2    H2  283   0.395   0.733  10.387 -0.4132 -1.1292 -1.2072
   18MPD2    H3  284   0.553   0.812  10.536 -1.3252  0.6243 -0.7823
   18MPD2     N  285   0.766   1.058  10.232  0.0657 -0.2296 -0.1640
   18MPD2    H5  286   0.824   1.089  10.309  1.4893  3.5940 -2.8279
   18MPD2    N1  287   0.344   0.821  10.130 -0.1865  0.0803  0.3956
   18MPD2    H7  288   0.337   0.885  10.052  0.7511 -1.0364 -0.6039
   19TMC2    C1  289   3.542   1.683  14.235  0.1714  0.0170  0.2898
   19TMC2    C2  290   3.449   1.731  14.148 -0.1442  0.4757  0.9214
   19TMC2    C3  291   3.321   1.681  14.158 -0.1510  0.3105  0.2521
   19TMC2    C4  292   3.515   1.592  14.335  0.4338  0.5152 -0.3340
   19TMC2    C5  293   3.381   1.553  14.344 -0.0236 -0.8557 -0.3921
   19TMC2    C6  294   3.295   1.580  14.241 -0.1886  0.6262 -0.2712
   19TMC2     C  295   3.676   1.741  14.230  0.1040  0.4437  0.4115
   19TMC2     O  296   3.693   1.847  14.171  0.0282 -0.3748  0.0352
   19TMC2     H  297   3.475   1.800  14.068  1.5014 -2.4540 -1.0802
   19TMC2    H1  298   3.587   1.557  14.408  0.7617  0.1090 -0.8561
   19TMC2    H2  299   3.199   1.532  14.231  0.9371 -2.2342  2.6508
   19TMC2    C7  300   3.356   1.424  14.413 -0.5704 -0.0190  0.2217
   19TMC2    C8  301   3.224   1.696  14.059  0.3870 -0.4215 -0.0671
   19TMC2    O1  302   3.240   1.380  14.402 -0.3645  0.0621 -0.1652
   19TMC2    O2  303   3.128   1.621  14.044  0.3248  0.3482  0.0816
   19TMC2    O5  304   3.206   1.824  14.042  0.1410 -0.4833 -0.0887
   19TMC2    H5  305   3.276   1.884  14.076 -0.0230  1.5589 -3.2909
   20MPD2     C  306   3.975   1.780  14.240  0.4775  0.6655  0.6125
   20MPD2    C1  307   3.908   1.661  14.271 -0.0736 -0.5536 -0.2217
   20MPD2    C2  308   3.983   1.551  14.292  0.4745  0.1984  0.2786
   20MPD2    C3  309   4.121   1.556  14.292  0.0049 -0.7535 -0.4497
   20MPD2    C4  310   4.180   1.674  14.259 -0.7414  0.1229 -0.1376
   20MPD2    C5  311   4.110   1.789  14.233  0.0435  0.4434  1.4561
   20MPD2     H  312   3.937   1.453  14.285 -0.5708  0.7268 -0.2005
   20MPD2    H1  313   4.286   1.663  14.240 -0.2302  1.4757  1.9498
   20MPD2    H2  314   3.917   1.862  14.200 -1.1026 -0.8421 -0.2035
   20MPD2    H3  315   4.164   1.874  14.194 -2.2021  0.4123 -1.7842
   20MPD2     N  316   4.209   1.447  14.311 -0.0678 -0.8510 -0.0095
   20MPD2    H5  317   4.300   1.440  14.266  0.5206  1.8393  0.7801
   20MPD2    N1  318   3.768   1.649  14.270  0.4049  0.3400 -0.1452
   20MPD2    H7  319   3.732   1.565  14.312 -0.6393  0.7558 -0.2032
   21MPD2     C  320   1.966   1.959  14.472 -0.3145  0.3466 -0.2882
   21MPD2    C1  321   1.886   2.013  14.568 -0.2342 -0.1525 -0.2291
   21MPD2    C2  322   1.759   1.966  14.595  0.2062  0.2622 -0.4492
   21MPD2    C3  323   1.718   1.853  14.519 -0.5953 -0.2789 -1.1142
   21MPD2    C4  324   1.799   1.794  14.421  1.0835 -0.8706 -0.5327
   21MPD2    C5  325   1.924   1.842  14.403 -0.5195  0.3640 -0.6843
   21MPD2     H  326   1.690   2.004  14.671  0.3846 -0.9305  0.3073
   21MPD2    H1  327   1.753   1.722  14.355 -3.3027  1.1381  0.3240
   21MPD2    H2  328   2.066   1.998  14.459 -0.7906  1.4604 -0.5679
   21MPD2    H3  329   1.990   1.807  14.324 -2.0562  0.5886 -2.0668
   21MPD2     N  330   1.590   1.791  14.538 -0.0830  0.0497 -0.1336
   21MPD2    H5  331   1.580   1.697  14.501  3.1524 -0.8271  1.1416
   21MPD2    N1  332   1.925   2.114  14.661 -0.3266  0.3777  0.2165
   21MPD2    H7  333   1.858   2.143  14.731 -1.0477  1.0653 -0.7663
   22TCq2    C1  334   1.495   1.849  14.618 -0.2406 -0.5970 -0.4246
   22TCq2    O2  335   1.482   1.968  14.644 -0.0634  0.6881 -0.0246
   22TCq2    C2  336   1.403   1.751  14.680  0.1531 -0.0251 -0.2625
   22TCq2    C3  337   1.469   1.651  14.751 -0.1046  0.4796 -0.0087
   22TCq2    C4  338   1.406   1.605  14.865  0.2073 -0.5133  0.0062
   22TCq2    C5  339   1.283   1.652  14.903 -0.4500  0.0123 -0.4569
   22TCq2    C6  340   1.226   1.752  14.833 -0.2136  0.5244  0.4608
   22TCq2    C7  341   1.286   1.808  14.723 -0.0681  0.0769  0.5776
   22TCq2    C8  342   1.110   1.826  14.893 -0.5658 -0.1973 -0.2120
   22TCq2    O4  343   1.052   1.772  14.986  0.1645 -0.5951  0.5536
   22TCq2    C9  344   1.493   1.517  14.947  0.6231 -0.2856 -0.7739
   22TCq2    O5  345   1.611   1.491  14.905 -0.6760 -0.0556 -0.2743
   22TCq2    O6  346   1.446   1.486  15.059 -0.3787 -0.7637 -0.4225
   22TCq2    H2  347   1.570   1.623  14.725 -0.8117 -2.1079  0.0041
   22TCq2    H3  348   1.248   1.613  14.998  1.2434 -2.5369 -0.8756
   22TCq2    H4  349   1.242   1.898  14.684 -1.0825 -1.7742 -2.5936
   23MPD2     C  350   3.295   3.117  14.685  0.0953 -0.3052 -0.4704
   23MPD2    C1  351   3.199   3.149  14.783  0.3550 -0.4739 -0.3546
   23MPD2    C2  352   3.125   3.266  14.764 -0.6413 -0.6944 -0.6039
   23MPD2    C3  353   3.139   3.344  14.652  1.0275  0.1170  0.3861
   23MPD2    C4  354   3.241   3.308  14.560 -0.0849 -0.8920  0.5269
   23MPD2    C5  355   3.319   3.195  14.576  0.0553 -0.6077 -1.3493
   23MPD2     H  356   3.052   3.299  14.838  1.7992  3.3124  0.0033
   23MPD2    H1  357   3.266   3.354  14.465 -0.3653 -2.0227 -0.1005
   23MPD2    H2  358   3.352   3.026  14.676  0.8756  0.0158  1.2124
   23MPD2    H3  359   3.383   3.161  14.496  0.8809 -1.6952 -0.2213
   23MPD2     N  360   3.064   3.460  14.631 -0.2814 -0.1849  0.8177
   23MPD2    H5  361   3.073   3.514  14.546 -1.8309 -0.1445  0.6814
   23MPD2    N1  362   3.178   3.064  14.898  0.0271  0.2363 -0.0659
   23MPD2    H7  363   3.115   3.105  14.965  1.0853 -1.0796  1.7209
   24TCq2    C1  364   2.948   3.488  14.694  0.6996  0.4122  0.2564
   24TCq2    O2  365   2.881   3.420  14.767  0.2259 -0.2363 -0.7842
   24TCq2    C2  366   2.892   3.595  14.628 -0.2008  0.0573  0.0763
   24TCq2    C3  367   2.977   3.690  14.578  0.2901 -0.1880  0.2556
   24TCq2    C4  368   2.913   3.784  14.494  0.0158 -0.1933  0.0128
   24TCq2    C5  369   2.784   3.778  14.460 -0.3358  0.3500  0.9595
   24TCq2    C6  370   2.699   3.687  14.529  0.0907  0.2474 -0.1216
   24TCq2    C7  371   2.758   3.596  14.622 -0.2033 -0.6268 -0.0589
   24TCq2    C8  372   2.559   3.685  14.493 -0.2504  0.1511  0.0970
   24TCq2    O4  373   2.530   3.753  14.397  0.0466 -0.2667 -0.1787
   24TCq2    C9  374   2.992   3.875  14.424  0.7139  1.0590  0.5540
   24TCq2    O5  375   3.116   3.855  14.417 -0.1474 -0.7720  0.0339
   24TCq2    O6  376   2.944   3.980  14.386 -0.1043 -0.6094 -0.1308
   24TCq2    H2  377   3.085   3.681  14.585  0.4016  0.6703 -0.3429
   24TCq2    H3  378   2.754   3.853  14.389  0.4539 -1.2683 -1.1036
   24TCq2    H4  379   2.701   3.509  14.652 -1.6617  0.3539  0.0097
   25TMC2    C1  380   0.784   1.011  11.475 -0.8726  0.0214 -0.7943
   25TMC2    C2  381   0.668   0.933  11.480  0.3879 -0.2511  0.3183
   25TMC2    C3  382   0.625   0.899  11.608  0.1976 -0.7963  0.5370
   25TMC2    C4  383   0.852   1.063  11.586 -0.0180  0.5449  0.1292
   25TMC2    C5  384   0.805   1.029  11.708  0.7036 -0.7846  0.1607
   25TMC2    C6  385   0.691   0.940  11.720 -0.5149  0.4389 -0.7717
   25TMC2     C  386   0.828   1.042  11.348  0.9166  0.4187  0.4831
   25TMC2     O  387   0.854   1.157  11.318  0.7195  0.0597  0.4603
   25TMC2     H  388   0.600   0.906  11.399 -0.3049  0.0672  0.7928
   25TMC2    H1  389   0.943   1.120  11.574 -0.4295  1.2120  0.2086
   25TMC2    H2  390   0.667   0.879  11.806  0.4128  2.3250  0.8176
   25TMC2    C7  391   0.890   1.035  11.823  0.3752 -0.6202 -0.4248
   25TMC2    C8  392   0.537   0.794  11.629 -0.8416 -0.0366  0.7256
   25TMC2    O1  393   0.873   0.944  11.900 -0.3573  0.1855 -0.0071
   25TMC2    O2  394   0.460   0.782  11.728  0.0638  0.2075 -0.3023
   25TMC2    O5  395   0.604   0.693  11.570 -0.0962  0.5857  0.2206
   25TMC2    H5  396   0.686   0.725  11.526  0.3002  0.5103  0.9179
   26MPD2     C  397   0.884   0.876  10.869 -0.2890 -0.1853 -0.1312
   26MPD2    C1  398   0.873   0.772  10.957  0.4924  0.1086 -0.0220
   26MPD2    C2  399   0.857   0.796  11.094  0.1503  0.3912  0.2727
   26MPD2    C3  400   0.840   0.923  11.133  0.2256  0.1244 -0.1944
   26MPD2    C4  401   0.864   1.031  11.048 -0.4799  1.0396  0.1439
   26MPD2    C5  402   0.883   1.006  10.915  0.4214  0.0621 -0.4973
   26MPD2     H  403   0.839   0.721  11.169  1.2394 -2.4291 -2.3121
   26MPD2    H1  404   0.873   1.135  11.079  0.6415  0.8808  0.3563
   26MPD2    H2  405   0.907   0.862  10.764 -2.1342  2.9818 -0.9748
   26MPD2    H3  406   0.904   1.086  10.845  2.1887  0.8160  0.8923
   26MPD2     N  407   0.825   0.933  11.272 -0.2236  0.5591  0.7563
   26MPD2    H5  408   0.812   0.845  11.321 -0.6709  0.6827  0.8575
   26MPD2    N1  409   0.872   0.643  10.916  0.4227  0.1091  0.1546
   26MPD2    H7  410   0.861   0.630  10.816 -1.6963 -2.2668  0.6916
   27TMC2    C1  411   0.272   2.358  12.180 -0.3169 -0.4208 -0.1957
   27TMC2    C2  412   0.187   2.396  12.084 -1.1594  0.2413 -0.2108
   27TMC2    C3  413   0.187   2.526  12.056  1.1257  0.6036  0.1355
   27TMC2    C4  414   0.363   2.447  12.234 -0.9242 -0.3587  0.6410
   27TMC2    C5  415   0.355   2.578  12.196 -0.7142  0.1508  0.3684
   27TMC2    C6  416   0.272   2.617  12.103 -0.0809  0.0956 -0.1128
   27TMC2     C  417   0.219   2.262  12.272  0.2954 -0.1940 -0.3893
   27TMC2     O  418   0.161   2.161  12.232  0.0289  0.3387 -0.2538
   27TMC2     H  419   0.111   2.324  12.056  0.3500 -0.9921 -1.1136
   27TMC2    H1  420   0.441   2.417  12.302  2.2969  1.0199 -2.4296
   27TMC2    H2  421   0.264   2.721  12.073  1.5551  0.3922  0.4873
   27TMC2    C7  422   0.362   2.652  12.316  0.2257 -0.3185 -0.0925
   27TMC2    C8  423   0.088   2.570  11.958 -0.6847 -0.4579  0.3700
   27TMC2    O1  424   0.368   2.589  12.418 -0.0215  0.0705 -0.3849
   27TMC2    O2  425   0.127   2.637  11.863 -0.2235 -0.1187  0.3109
   27TMC2    O5  426   4.688   2.526  11.994 -0.4867 -0.3351  0.5462
   27TMC2    H5  427   4.697   2.495  12.087  0.4288 -4.7110 -1.0210
   28MPD2     C  428   4.709   2.248  12.750 -0.5281 -0.1635  0.1775
   28MPD2    C1  429   0.046   2.373  12.725 -0.0926  0.1270  0.0271
   28MPD2    C2  430   0.122   2.394  12.614  0.2711 -0.0332  0.6004
   28MPD2    C3  431   0.128   2.296  12.512  0.2474  0.7977  0.0468
   28MPD2    C4  432   0.058   2.179  12.527  0.5159 -0.0426  0.2247
   28MPD2    C5  433   4.717   2.154  12.648  0.1133  0.2613  0.6729
   28MPD2     H  434   0.192   2.477  12.609 -1.1123  1.0382 -1.0872
   28MPD2    H1  435   0.067   2.095  12.459  0.0571  0.3732 -0.3339
   28MPD2    H2  436   4.653   2.224  12.839 -1.1607  3.2463  0.6782
   28MPD2    H3  437   4.667   2.058  12.660 -0.1897  0.3063 -0.2754
   28MPD2     N  438   0.204   2.329  12.398  0.1818  0.0911  0.1497
   28MPD2    H5  439   0.240   2.424  12.400 -3.6157  1.5839 -2.2222
   28MPD2    N1  440   0.013   2.475  12.817 -0.4357 -0.3688  0.3339
   28MPD2    H7  441   4.675   2.449  12.896 -2.4112 -1.5476 -1.5082
   29MPD2     C  442   0.542   4.626  13.688 -0.6773 -0.0244 -0.1968
   29MPD2    C1  443   0.495   4.601  13.817  0.1688 -0.2629 -0.0075
   29MPD2    C2  444   0.493   4.709  13.901  0.3309  0.3994 -0.5543
   29MPD2    C3  445   0.531   0.115  13.856 -0.3449 -0.0844 -0.2248
   29MPD2    C4  446   0.573   0.138  13.729  0.0317 -0.4806 -0.1856
   29MPD2    C5  447   0.574   0.035  13.642 -0.3486  0.5294 -0.0963
   29MPD2     H  448   0.454   4.698  14.002  1.5041 -0.9735 -0.2328
   29MPD2    H1  449   0.613   0.233  13.695 -0.0427 -0.1677  0.6060
   29MPD2    H2  450   0.562   4.548  13.615  0.4524 -0.8180  0.9749
   29MPD2    H3  451   0.617   0.055  13.544 -0.4293  2.0200  0.1878
   29MPD2     N  452   0.525   0.232  13.934 -0.8180 -0.4116 -0.3534
   29MPD2    H5  453   0.566   0.316  13.894  0.7699  0.0771  2.3266
   29MPD2    N1  454   0.452   4.480  13.869 -0.2170  0.0954 -0.9931
   29MPD2    H7  455   0.418   4.483  13.964  1.6182 -1.2591 -0.2914
   30TCq2    C1  456   0.484   0.237  14.062 -0.3544 -0.1252 -0.1328
   30TCq2    O2  457   0.448   0.149  14.138  0.0674  0.1470  0.6195
   30TCq2    C2  458   0.455   0.373  14.093 -0.6268  0.8664 -0.3218
   30TCq2    C3  459   0.398   0.392  14.215  0.2118 -0.2450  0.2623
   30TCq2    C4  460   0.364   0.516  14.258  0.3306 -0.8574 -0.6382
   30TCq2    C5  461   0.399   0.624  14.180 -0.6917  0.2564  0.5206
   30TCq2    C6  462   0.463   0.608  14.059  0.1518  0.6589  0.0786
   30TCq2    C7  463   0.486   0.478  14.011 -0.5332  0.0017  0.2320
   30TCq2    C8  464   0.553   0.718  14.003 -0.4270 -0.0725 -0.3083
   30TCq2    O4  465   0.606   0.705  13.893  0.0870  0.0283  0.0854
   30TCq2    C9  466   0.295   0.538  14.386 -0.2840 -0.3975 -0.2645
   30TCq2    O5  467   0.316   0.649  14.442 -0.3757 -0.0832  0.0404
   30TCq2    O6  468   0.265   0.438  14.455  0.4339 -0.4493 -0.0500
   30TCq2    H2  469   0.368   0.314  14.283 -0.7099  1.5775  1.9537
   30TCq2    H3  470   0.381   0.720  14.226 -4.1315 -0.4839  0.6668
   30TCq2    H4  471   0.506   0.479  13.905  0.8371 -0.5015  0.4859
   31MPD2     C  472   3.174   3.579  15.161 -0.5642 -0.0089 -0.2513
   31MPD2    C1  473   3.047   3.587  15.100  0.3381 -0.3491  0.2807
   31MPD2    C2  474   2.954   3.483  15.122 -0.2339  1.1799  1.1698
   31MPD2    C3  475   2.979   3.371  15.197 -0.2617  0.1857  0.5293
   31MPD2    C4  476   3.111   3.363  15.234  0.4393  0.1080  0.6903
   31MPD2    C5  477   3.198   3.463  15.225  0.0131  0.1192 -0.2393
   31MPD2     H  478   2.857   3.484  15.073  0.8247 -1.7854 -0.9599
   31MPD2    H1  479   3.144   3.278  15.292  1.4082 -0.2123 -0.3267
   31MPD2    H2  480   3.250   3.654  15.138  1.8139 -2.3172  0.0921
   31MPD2    H3  481   3.302   3.445  15.249 -0.3689  0.9771  2.0343
   31MPD2     N  482   2.878   3.275  15.234  0.5353  0.0124  0.0620
   31MPD2    H5  483   2.911   3.195  15.287 -0.6388 -0.1422  0.5739
   31MPD2    N1  484   3.023   3.698  15.019 -0.3644 -0.0934  0.2330
   31MPD2    H7  485   3.104   3.757  15.002  0.1937 -0.8708  0.1667
   32TCq2    C1  486   2.748   3.285  15.200 -0.0919  0.3918 -0.4997
   32TCq2    O2  487   2.700   3.340  15.103  0.3281  0.0755  0.3905
   32TCq2    C2  488   2.659   3.247  15.305  0.4286 -0.1725 -0.3186
   32TCq2    C3  489   2.544   3.321  15.301  0.2949 -0.1300  0.2161
   32TCq2    C4  490   2.474   3.351  15.421 -0.3374  0.0787  1.0385
   32TCq2    C5  491   2.531   3.317  15.543 -0.1914 -0.2852 -0.0502
   32TCq2    C6  492   2.657   3.264  15.546  0.2594 -0.0761 -0.5886
   32TCq2    C7  493   2.715   3.222  15.430  0.5403  0.0345  0.7978
   32TCq2    C8  494   2.720   3.230  15.672  0.8981 -0.2444  0.3212
   32TCq2    O4  495   2.803   3.138  15.673  0.0010  0.3224  0.6408
   32TCq2    C9  496   2.351   3.429  15.424  0.1873 -0.3174 -1.0687
   32TCq2    O5  497   2.306   3.480  15.531  0.5395  0.4796 -0.2670
   32TCq2    O6  498   2.310   3.468  15.313  0.3223  0.2786 -0.6763
   32TCq2    H2  499   2.501   3.363  15.211 -0.6403 -2.2910 -0.3530
   32TCq2    H3  500   2.480   3.343  15.635  3.1264 -0.0393  1.6931
   32TCq2    H4  501   2.801   3.157  15.435  1.2524  0.9688  0.7088
   33MPD2     C  502   0.967   1.300   9.523  0.1000 -0.1775 -0.4336
   33MPD2    C1  503   1.018   1.390   9.612 -0.2140  0.5286 -0.0361
   33MPD2    C2  504   1.060   1.517   9.576 -0.3213 -0.0238  0.5704
   33MPD2    C3  505   1.040   1.557   9.446  0.4069  0.0069 -0.3455
   33MPD2    C4  506   0.984   1.472   9.352 -0.0819 -0.2050 -0.1858
   33MPD2    C5  507   0.940   1.347   9.396 -0.1544  0.2935 -0.3192
   33MPD2     H  508   1.088   1.585   9.656  0.6130 -0.2445  0.4296
   33MPD2    H1  509   0.977   1.503   9.248  1.0492  0.7507  0.0187
   33MPD2    H2  510   0.926   1.207   9.561  1.7472 -0.4635  0.6613
   33MPD2    H3  511   0.907   1.279   9.318  1.1295 -0.1321 -0.4929
   33MPD2     N  512   1.085   1.674   9.399  0.4625  0.0973  0.1608
   33MPD2    H5  513   1.063   1.690   9.301 -2.5907 -1.5404  0.5694
   33MPD2    N1  514   1.027   1.336   9.743 -0.1323 -0.2975  0.1737
   33MPD2    H7  515   1.002   1.239   9.756 -1.8238  0.0143 -0.8143
   34TCq2    C1  516   1.160   1.767   9.466  0.5184 -0.1026 -0.0216
   34TCq2    O2  517   1.221   1.757   9.572 -0.1014 -0.2428 -0.1877
   34TCq2    C2  518   1.176   1.892   9.384 -0.4628  0.6737  0.0938
   34TCq2    C3  519   1.106   1.906   9.264  0.4486  0.0543 -0.3323
   34TCq2    C4  520   1.142   2.015   9.191  0.2060  0.5147  0.5940
   34TCq2    C5  521   1.223   2.115   9.239 -0.0111  0.0590 -0.1268
   34TCq2    C6  522   1.274   2.103   9.363  0.4776  0.6508 -0.7527
   34TCq2    C7  523   1.257   1.991   9.435  0.1873  0.0251 -0.5231
   34TCq2    C8  524   1.368   2.200   9.418  0.2667  0.3538 -0.7022
   34TCq2    O4  525   1.442   2.166   9.508 -0.2796 -0.1756  0.5515
   34TCq2    C9  526   1.101   2.025   9.051 -0.3362 -0.2622  0.0084
   34TCq2    O5  527   1.043   1.923   9.009 -0.7456  0.0264 -0.3162
   34TCq2    O6  528   1.150   2.115   8.983 -0.3137  0.1850  0.1477
   34TCq2    H2  529   1.020   1.843   9.242  1.0177  0.0525 -2.4899
   34TCq2    H3  530   1.266   2.187   9.171 -0.6896  0.6893  0.1173
   34TCq2    H4  531   1.297   1.986   9.535 -0.1090 -0.3477 -0.4214
   35MPD2     C  532   4.050   3.294  11.912 -0.0938  0.3542 -0.4391
   35MPD2    C1  533   4.042   3.156  11.961 -0.6833 -0.9338 -0.3890
   35MPD2    C2  534   4.054   3.060  11.864 -0.1479 -0.0570 -0.1755
   35MPD2    C3  535   4.041   3.096  11.732 -0.0967  0.8226 -0.8883
   35MPD2    C4  536   4.019   3.223  11.688 -0.0935  0.3605  0.0067
   35MPD2    C5  537   4.021   3.322  11.778  0.3069  0.4363  0.5854
   35MPD2     H  538   4.063   2.955  11.891 -0.7485  0.0216  0.3409
   35MPD2    H1  539   4.004   3.262  11.588  2.1790  1.1391 -0.0211
   35MPD2    H2  540   4.058   3.386  11.968  0.5242 -0.3450  0.6266
   35MPD2    H3  541   4.020   3.428  11.757 -0.5604  0.5293  1.0874
   35MPD2     N  542   4.046   2.990  11.640 -0.2380  1.3676  0.0939
   35MPD2    H5  543   4.045   2.894  11.674  3.7484  0.7540 -1.5398
   35MPD2    N1  544   4.056   3.132  12.101 -0.0522 -0.6255  0.1900
   35MPD2    H7  545   4.050   3.214  12.161  3.5763 -1.3073  1.5030
   36TCq2    C1  546   4.024   3.009  11.506  0.0882 -0.7009  0.0712
   36TCq2    O2  547   4.082   3.087  11.430 -0.5561 -0.2138  0.3215
   36TCq2    C2  548   3.954   2.892  11.449 -0.1261 -0.0763  0.2593
   36TCq2    C3  549   3.959   2.876  11.315 -0.3301  0.1617 -0.0459
   36TCq2    C4  550   3.876   2.789  11.247  0.7362  0.1267 -0.0992
   36TCq2    C5  551   3.791   2.715  11.327  0.2204  0.2464  0.5136
   36TCq2    C6  552   3.779   2.741  11.461  0.2052  0.0447 -0.4666
   36TCq2    C7  553   3.863   2.825  11.525  0.3293 -0.1313  0.1155
   36TCq2    C8  554   3.707   2.642  11.536  0.0055  0.5069 -0.4702
   36TCq2    O4  555   3.645   2.561  11.468  0.6054 -0.2542  0.0174
   36TCq2    C9  556   3.873   2.781  11.102 -0.1027 -0.4295 -0.1951
   36TCq2    O5  557   3.806   2.693  11.040  0.1347  0.2789  0.3058
   36TCq2    O6  558   3.949   2.862  11.042  0.4435  0.6711  0.2172
   36TCq2    H2  559   4.025   2.937  11.255 -0.0633  1.1645  1.2759
   36TCq2    H3  560   3.738   2.633  11.278  0.7760  1.7407 -2.6135
   36TCq2    H4  561   3.851   2.862  11.626  0.4884  1.5576 -0.4824
   37TMC2    C1  562   0.861   4.149  11.222  0.1148 -0.3856  0.1859
   37TMC2    C2  563   0.864   4.191  11.091  0.1882  0.6120  0.6239
   37TMC2    C3  564   0.946   4.285  11.053  0.5432  0.1738 -0.4607
   37TMC2    C4  565   0.930   4.217  11.315  0.5487 -0.1426  0.1342
   37TMC2    C5  566   1.005   4.323  11.277 -0.5114  0.1435  0.3585
   37TMC2    C6  567   1.010   4.367  11.141 -0.4737  0.0153 -0.4274
   37TMC2     C  568   0.817   4.013  11.245 -0.0004  0.2197 -0.0618
   37TMC2     O  569   0.750   3.952  11.161 -0.5568  0.6234 -0.5572
   37TMC2     H  570   0.801   4.138  11.020  1.3431  1.4848 -1.0523
   37TMC2    H1  571   0.924   4.198  11.421  0.0864  1.2743  0.3632
   37TMC2    H2  572   1.043   4.461  11.098 -0.3745  0.0263 -0.3264
   37TMC2    C7  573   1.123   4.345  11.365  0.0989 -0.4206 -0.3801
   37TMC2    C8  574   0.928   4.327  10.918  0.7789  0.1850  0.3658
   37TMC2    O1  575   1.143   4.262  11.451  0.0417  1.2764 -0.0060
   37TMC2    O2  576   0.830   4.298  10.849 -0.1691 -0.3201  0.1751
   37TMC2    O5  577   1.056   4.358  10.876 -0.3093  0.4927 -0.0454
   37TMC2    H5  578   1.128   4.344  10.941 -0.6302 -0.3852  0.1240
   38MPD2     C  579   0.733   3.630  11.589  0.2945  0.1622  0.0761
   38MPD2    C1  580   0.856   3.684  11.615  0.2282  0.6256 -0.5781
   38MPD2    C2  581   0.900   3.794  11.543 -0.1397  0.8071 -0.3022
   38MPD2    C3  582   0.831   3.841  11.431  0.2324 -0.4364  0.5834
   38MPD2    C4  583   0.721   3.771  11.394  0.0088 -0.3265 -0.0764
   38MPD2    C5  584   0.672   3.672  11.479 -0.2513 -0.0680  0.5881
   38MPD2     H  585   0.994   3.841  11.569  1.2516 -2.6487  0.8853
   38MPD2    H1  586   0.649   3.816  11.327  0.3653 -0.1016 -0.3014
   38MPD2    H2  587   0.682   3.550  11.641 -2.1000  0.8749 -1.1676
   38MPD2    H3  588   0.580   3.622  11.450 -0.8911  0.1160  2.2895
   38MPD2     N  589   0.868   3.962  11.360 -0.0488 -0.6457 -0.5347
   38MPD2    H5  590   0.947   4.010  11.401 -0.9953  1.0845 -0.7298
   38MPD2    N1  591   0.941   3.633  11.713  0.0212 -0.1234 -0.4476
   38MPD2    H7  592   1.040   3.656  11.713 -0.5892  2.4922 -0.7710
   39MPD2     C  593   4.325   0.947   1.956  0.6419 -0.0013 -0.1272
   39MPD2    C1  594   4.195   0.991   1.961 -0.4206 -0.3991 -0.2124
   39MPD2    C2  595   4.101   0.925   1.878  0.6261  0.2752 -0.5712
   39MPD2    C3  596   4.140   0.833   1.785  0.4484  0.8867 -0.0773
   39MPD2    C4  597   4.266   0.783   1.788 -0.0215  0.1353 -0.6065
   39MPD2    C5  598   4.358   0.843   1.870 -0.3334  0.1665 -0.0629
   39MPD2     H  599   3.998   0.958   1.881  0.6283  0.1800  0.6048
   39MPD2    H1  600   4.315   0.726   1.709 -0.1086 -1.1733  0.2691
   39MPD2    H2  601   4.408   0.984   2.016 -0.1651  1.9289 -0.2405
   39MPD2    H3  602   4.458   0.805   1.853  0.8096  1.8090  2.9958
   39MPD2     N  603   4.046   0.792   1.687  0.2984  0.2693  0.2691
   39MPD2    H5  604   4.058   0.706   1.636  2.2209  0.5602  0.2314
   39MPD2    N1  605   4.169   1.102   2.047 -0.2244  0.4130  0.1630
   39MPD2    H7  606   4.248   1.135   2.101 -0.6942  0.9168  0.5451
   40TCq2    C1  607   4.051   1.168   2.062  0.2150  0.5030  0.6409
   40TCq2    O2  608   3.941   1.124   2.046 -0.1055  0.3718 -0.5246
   40TCq2    C2  609   4.061   1.276   2.166 -0.0402  0.0600  0.0759
   40TCq2    C3  610   3.943   1.293   2.239  0.2638 -0.1607 -0.1030
   40TCq2    C4  611   3.951   1.376   2.349  0.1926  0.2199  0.5670
   40TCq2    C5  612   4.070   1.427   2.384  0.4522  0.3705  0.4779
   40TCq2    C6  613   4.183   1.402   2.311 -0.3211  0.7064  0.4162
   40TCq2    C7  614   4.184   1.319   2.203  0.2393  0.1098  0.0478
   40TCq2    C8  615   4.310   1.423   2.378  0.6600 -0.2396  0.0139
   40TCq2    O4  616   4.304   1.423   2.501 -0.5154  0.0812 -0.2657
   40TCq2    C9  617   3.829   1.399   2.425  0.0530  0.2978 -0.7188
   40TCq2    O5  618   3.713   1.381   2.367  0.6244 -0.3140  0.1447
   40TCq2    O6  619   3.839   1.440   2.542 -0.6667 -0.2935  0.1642
   40TCq2    H2  620   3.849   1.262   2.193  0.5462 -2.2200  0.7263
   40TCq2    H3  621   4.075   1.495   2.468 -1.2739  1.5400 -0.3725
   40TCq2    H4  622   4.279   1.315   2.151 -0.5963  0.1679 -1.4795
   41TMC2    C1  623   3.738   3.403  13.790 -0.5017 -0.7614 -0.5528
   41TMC2    C2  624   3.731   3.501  13.879 -0.3504  0.5038 -0.4956
   41TMC2    C3  625   3.661   3.611  13.844  0.1209 -0.8296 -0.1911
   41TMC2    C4  626   3.675   3.401  13.672 -0.3513  0.4203  0.5755
   41TMC2    C5  627   3.597   3.507  13.642 -0.3764  0.0889  0.7329
   41TMC2    C6  628   3.582   3.606  13.732  0.1537  0.7794 -0.1330
   41TMC2     C  629   3.809   3.280  13.829 -0.7617 -0.1472 -0.4515
   41TMC2     O  630   3.848   3.207  13.737 -0.2515  0.2879  0.3862
   41TMC2     H  631   3.789   3.500  13.970  2.3640 -0.1130 -2.2363
   41TMC2    H1  632   3.685   3.314  13.609 -1.4812  1.5735 -1.1976
   41TMC2    H2  633   3.501   3.678  13.725 -0.4114 -0.0014 -1.6977
   41TMC2    C7  634   3.490   3.477  13.548  0.4822  0.4244 -0.2793
   41TMC2    C8  635   3.595   3.693  13.940  0.2679 -0.0856 -0.9287
   41TMC2    O1  636   3.388   3.536  13.568  0.2980  0.7947 -0.4497
   41TMC2    O2  637   3.572   3.810  13.914  0.0565  0.5086 -0.5968
   41TMC2    O5  638   3.519   3.611  14.008 -0.5579 -0.3525  0.5015
   41TMC2    H5  639   3.535   3.515  14.005  0.3272 -0.2010  0.4635
   42MPD2     C  640   3.939   3.067  13.985  0.2151  0.3507  0.1308
   42MPD2    C1  641   3.844   3.147  14.037 -0.3482 -0.1732 -0.0272
   42MPD2    C2  642   3.795   3.125  14.165 -0.1874 -0.0024  0.4925
   42MPD2    C3  643   3.834   3.018  14.241  0.1415 -0.1474  1.2032
   42MPD2    C4  644   3.934   2.935  14.193 -0.3109 -0.5026  0.1513
   42MPD2    C5  645   3.989   2.967  14.069  0.2438  0.0031 -0.3734
   42MPD2     H  646   3.738   3.203  14.214  0.1864  1.4071 -1.2946
   42MPD2    H1  647   3.980   2.853  14.246  2.5509 -0.2528 -1.9335
   42MPD2    H2  648   3.989   3.083  13.889  1.0340 -0.8910  0.3488
   42MPD2    H3  649   4.063   2.898  14.030  0.7390 -0.4884  1.4162
   42MPD2     N  650   3.792   3.001  14.378  0.3891 -0.3762 -0.1101
   42MPD2    H5  651   3.842   2.928  14.428 -2.4234 -1.3427  1.2481
   42MPD2    N1  652   3.792   3.256  13.966 -0.0342 -0.2456  0.0148
   42MPD2    H7  653   3.714   3.306  14.006 -0.3085 -1.1223  0.5710
   43MPD2     C  654   4.599   1.290   0.808 -1.0777 -0.1704  0.0207
   43MPD2    C1  655   0.007   1.306   0.866  0.2308 -0.2630  0.7829
   43MPD2    C2  656   0.016   1.394   0.971  0.1377 -0.3399  0.0643
   43MPD2    C3  657   4.623   1.458   1.012 -0.3607 -0.8427  0.2471
   43MPD2    C4  658   4.502   1.434   0.955  0.4746 -0.5119  0.0790
   43MPD2    C5  659   4.491   1.345   0.855  0.4221  0.2655  0.4668
   43MPD2     H  660   0.115   1.416   1.009  0.9197  0.8929 -2.7122
   43MPD2    H1  661   4.410   1.475   0.996  1.2938  2.3046 -0.9177
   43MPD2    H2  662   4.587   1.218   0.727  0.6474 -0.8745  0.3856
   43MPD2    H3  663   4.394   1.317   0.816 -0.6812  2.1151  1.8734
   43MPD2     N  664   4.631   1.551   1.119 -0.8971 -0.2831  0.0928
   43MPD2    H5  665   4.541   1.592   1.145 -1.6708 -1.8509 -0.1075
   43MPD2    N1  666   0.125   1.244   0.818 -0.7415  0.0951  0.5350
   43MPD2    H7  667   0.205   1.240   0.881 -1.5240 -0.8874  1.4589
   44TCq2    C1  668   0.131   1.798   1.602 -0.2131 -0.0621  0.0684
   44TCq2    O2  669   0.248   1.823   1.573 -0.1602 -0.0248 -0.1292
   44TCq2    C2  670   0.032   1.762   1.503  0.5504 -0.3354  0.1814
   44TCq2    C3  671   4.618   1.785   1.524 -0.2686  0.1281 -0.6736
   44TCq2    C4  672   4.535   1.775   1.425  0.0131  0.3555  0.3105
   44TCq2    C5  673   4.573   1.731   1.302  0.2160  0.2537 -0.1369
   44TCq2    C6  674   4.705   1.685   1.294 -0.3273 -0.5710 -0.5203
   44TCq2    C7  675   0.080   1.720   1.384  0.0548  0.9698  0.0428
   44TCq2    C8  676   0.022   1.599   1.185 -0.6955  0.3689 -0.5387
   44TCq2    O4  677   0.144   1.605   1.150  0.3696 -0.3658 -0.2092
   44TCq2    C9  678   4.402   1.814   1.445  0.5272  0.3975 -0.2550
   44TCq2    O5  679   4.339   1.864   1.347 -0.1317  0.5497 -0.0827
   44TCq2    O6  680   4.356   1.792   1.557  0.0889  0.0980 -0.5203
   44TCq2    H2  681   4.591   1.839   1.614  0.7309  1.1209 -0.9617
   44TCq2    H3  682   4.497   1.717   1.225 -1.8074  0.2278  1.8807
   44TCq2    H4  683   0.182   1.684   1.366  0.1944  0.0640  2.6282
   45TMC2    C1  684   0.644   3.295   9.353 -0.2885 -0.2296  0.3739
   45TMC2    C2  685   0.599   3.322   9.226  0.1013 -0.1705 -0.6431
   45TMC2    C3  686   0.627   3.445   9.174 -0.3651 -0.7702  0.5205
   45TMC2    C4  687   0.721   3.379   9.428 -0.5907 -0.0066  0.0379
   45TMC2    C5  688   0.737   3.509   9.375 -0.2691  0.3516 -0.0654
   45TMC2    C6  689   0.692   3.540   9.250 -0.2529 -0.6290 -0.1767
   45TMC2     C  690   0.665   3.153   9.377  0.7301  0.2920 -0.5167
   45TMC2     O  691   0.774   3.129   9.433  0.1470 -0.3580 -0.1566
   45TMC2     H  692   0.544   3.247   9.171 -0.3214 -1.2740  1.2862
   45TMC2    H1  693   0.753   3.357   9.529  1.0563 -0.2175 -0.5286
   45TMC2    H2  694   0.699   3.637   9.202 -3.7620 -0.0067  0.5195
   45TMC2    C7  695   0.816   3.599   9.454  0.1458 -0.1111 -0.6933
   45TMC2    C8  696   0.543   3.501   9.076 -0.0565  0.3277 -0.3238
   45TMC2    O1  697   0.834   3.577   9.572  0.9415  0.4233  0.0541
   45TMC2    O2  698   0.492   3.612   9.092  0.2634 -0.1281  0.1653
   45TMC2    O5  699   0.542   3.427   8.960  0.1053  0.7049  0.4350
   45TMC2    H5  700   0.586   3.339   8.967 -0.3550  0.5644  1.6343
   46MPD2     C  701   0.675   2.847   9.406  0.2046  0.6047  1.0565
   46MPD2    C1  702   0.564   2.927   9.386 -0.2936  0.6110 -0.4906
   46MPD2    C2  703   0.445   2.864   9.374  0.2942  0.3060  0.1892
   46MPD2    C3  704   0.439   2.726   9.368  0.8360  0.0825  1.0010
   46MPD2    C4  705   0.545   2.643   9.386  0.9162  0.2079  0.8512
   46MPD2    C5  706   0.668   2.713   9.411  1.0193 -0.1020  0.0888
   46MPD2     H  707   0.364   2.933   9.353 -1.7194 -2.4171 -0.9209
   46MPD2    H1  708   0.538   2.535   9.388 -0.2272  0.2865  1.1041
   46MPD2    H2  709   0.774   2.891   9.401  0.7431 -0.8783 -1.0952
   46MPD2    H3  710   0.757   2.657   9.434  1.5671  1.3649  1.5531
   46MPD2     N  711   0.311   2.673   9.345  0.8784 -0.0545 -0.0856
   46MPD2    H5  712   0.238   2.740   9.325  0.1491  0.4567  4.3488
   46MPD2    N1  713   0.562   3.070   9.368  0.3462 -0.1638  0.1222
   46MPD2    H7  714   0.470   3.107   9.344 -0.1706 -0.6107  1.4380
   47TMC2    C1  715   3.250   3.728   8.879  0.0149  0.3614 -0.2072
   47TMC2    C2  716   3.243   3.742   8.744  0.4682 -0.3780 -0.0204
   47TMC2    C3  717   3.126   3.800   8.691  0.7335 -1.0237  0.3780
   47TMC2    C4  718   3.142   3.739   8.966 -0.6525  0.1915  0.3400
   47TMC2    C5  719   3.026   3.780   8.902  0.0374 -0.0471  0.0435
   47TMC2    C6  720   3.017   3.817   8.770 -0.8391 -0.5595  0.2849
   47TMC2     C  721   3.360   3.643   8.916  0.1835 -0.1255 -0.0297
   47TMC2     O  722   3.473   3.664   8.879  0.3901  0.3114 -0.4930
   47TMC2     H  723   3.329   3.748   8.678  0.2294 -0.0870 -0.3054
   47TMC2    H1  724   3.147   3.720   9.073  0.5136  0.2994  0.3037
   47TMC2    H2  725   2.921   3.838   8.725 -1.2122 -3.6885 -0.3535
   47TMC2    C7  726   2.907   3.793   8.984 -0.0545  0.3413 -0.1081
   47TMC2    C8  727   3.118   3.825   8.546  0.0237 -0.1471 -0.0917
   47TMC2    O1  728   2.885   3.719   9.076  0.3955  0.3286  0.5566
   47TMC2    O2  729   3.046   3.915   8.500 -0.7921  0.1574 -0.1249
   47TMC2    O5  730   3.147   3.713   8.473  0.1379  0.3875 -0.2471
   47TMC2    H5  731   3.194   3.646   8.526 -1.9134 -0.9678 -0.1628
   48MPD2     C  732   3.518   3.436   9.056 -0.8719  0.1178 -0.6612
   48MPD2    C1  733   3.385   3.427   9.030 -0.3059  1.0759  0.8771
   48MPD2    C2  734   3.321   3.315   9.071 -0.0449 -0.2421 -0.1729
   48MPD2    C3  735   3.383   3.221   9.150 -0.1874  0.2698  0.6838
   48MPD2    C4  736   3.526   3.231   9.166  0.1277  0.5599  0.0883
   48MPD2    C5  737   3.593   3.337   9.116  0.2065  0.4652 -0.2315
   48MPD2     H  738   3.213   3.315   9.064  0.0158  4.1563 -0.6496
   48MPD2    H1  739   3.582   3.157   9.222 -0.3364  0.7489  0.7986
   48MPD2    H2  740   3.573   3.523   9.023  0.3962 -0.6738 -0.6397
   48MPD2    H3  741   3.700   3.337   9.134  0.3273 -0.3591 -0.9223
   48MPD2     N  742   3.291   3.129   9.213  0.2948 -0.3070 -0.0469
   48MPD2    H5  743   3.197   3.132   9.173 -0.5256 -3.3029  1.7319
   48MPD2    N1  744   3.309   3.531   8.979  0.3504 -0.1603 -0.0049
   48MPD2    H7  745   3.209   3.522   8.967  0.6552 -2.9147 -0.4304
   49MPD2     C  746   0.392   0.205  10.400  0.0649  0.0575 -1.2172
   49MPD2    C1  747   0.435   0.340  10.393  1.2853  0.6459 -0.5426
   49MPD2    C2  748   0.450   0.407  10.511  0.6105  0.0288 -0.8510
   49MPD2    C3  749   0.439   0.350  10.637  0.7206  0.0464  0.3573
   49MPD2    C4  750   0.414   0.207  10.636 -0.9655  0.4158 -0.1435
   49MPD2    C5  751   0.389   0.141  10.520 -0.6444 -0.1789  0.2478
   49MPD2     H  752   0.473   0.513  10.504  3.8417 -0.5777  0.8577
   49MPD2    H1  753   0.418   0.147  10.726  0.4880 -0.4920 -0.8289
   49MPD2    H2  754   0.366   0.148  10.311 -2.4709  0.1181 -0.5033
   49MPD2    H3  755   0.386   0.033  10.510  0.0155 -0.3532  1.9857
   49MPD2     N  756   0.460   0.413  10.760  0.7035  0.5238 -0.4904
   49MPD2    H5  757   0.440   0.369  10.850 -1.8132 -3.0275 -2.7867
   49MPD2    N1  758   0.473   0.400  10.270 -0.2191 -0.1937 -0.4089
   49MPD2    H7  759   0.526   0.486  10.282 -0.0882 -0.3546  0.1408
   50TCq2    C1  760   0.415   0.363  10.154 -0.0652  0.0988 -0.0818
   50TCq2    O2  761   0.337   0.271  10.126  0.4468  0.0018 -0.1637
   50TCq2    C2  762   0.465   0.437  10.041  0.1909 -0.2368 -0.0222
   50TCq2    C3  763   0.380   0.450   9.936  0.0663 -0.3075  0.5952
   50TCq2    C4  764   0.412   0.542   9.841  0.3605  0.7500  0.8515
   50TCq2    C5  765   0.526   0.619   9.852 -0.5679  0.8479 -0.3499
   50TCq2    C6  766   0.614   0.585   9.950 -0.6968  0.2973 -0.2979
   50TCq2    C7  767   0.585   0.499  10.051 -1.0217  0.1421  0.2561
   50TCq2    C8  768   0.744   0.647   9.939  0.3637 -0.2813 -0.2568
   50TCq2    O4  769   0.816   0.646  10.036 -1.2061  0.2030 -0.4275
   50TCq2    C9  770   0.325   0.570   9.736  0.6365 -0.0114  0.8219
   50TCq2    O5  771   0.245   0.479   9.703 -0.4387  0.4221  0.2949
   50TCq2    O6  772   0.356   0.659   9.651  0.0941 -0.5761  0.7390
   50TCq2    H2  773   0.286   0.396   9.932  0.9237 -1.7689  0.1511
   50TCq2    H3  774   0.548   0.702   9.786 -0.0511 -0.4489 -1.8043
   50TCq2    H4  775   0.654   0.471  10.130 -1.6006  1.3170  1.1737
   51MPD2     C  776   1.363   4.003   2.315 -0.5230  0.6878  0.4754
   51MPD2    C1  777   1.461   4.043   2.228  0.6654 -0.5096 -0.0604
   51MPD2    C2  778   1.504   4.176   2.226 -0.4720  0.6314 -0.0956
   51MPD2    C3  779   1.453   4.267   2.321  0.1848 -0.2158 -1.0624
   51MPD2    C4  780   1.370   4.220   2.422 -0.0539  0.1558  0.1081
   51MPD2    C5  781   1.332   4.087   2.415  0.4442 -0.0477  0.2667
   51MPD2     H  782   1.596   4.203   2.176  0.0296 -0.9531 -0.0262
   51MPD2    H1  783   1.326   4.282   2.499 -0.8518 -0.8062  0.4301
   51MPD2    H2  784   1.352   3.896   2.331  2.3416  0.4886  1.0517
   51MPD2    H3  785   1.274   4.057   2.502  0.0700 -3.2475 -1.1021
   51MPD2     N  786   1.487   4.404   2.331 -0.1970 -0.5898 -0.4223
   51MPD2    H5  787   1.463   4.451   2.418 -1.0512 -0.3930 -0.7697
   51MPD2    N1  788   1.521   3.942   2.150 -0.2406  0.3533 -0.0817
   51MPD2    H7  789   1.508   3.845   2.175 -1.2262  0.6745  0.6697
   52TCq2    C1  790   1.565   4.476   2.241  0.0971  0.2077  0.3332
   52TCq2    O2  791   1.626   4.446   2.138  0.7848 -0.2627  0.5331
   52TCq2    C2  792   1.597   4.604   2.297  0.3586 -0.1355  0.5363
   52TCq2    C3  793   1.599   4.620   2.437 -0.3249 -0.3940  0.3093
   52TCq2    C4  794   1.615   0.031   2.484 -0.2446 -0.7837 -0.0398
   52TCq2    C5  795   1.624   0.141   2.406 -0.0999 -0.9138  0.2615
   52TCq2    C6  796   1.635   0.111   2.275  0.1230  0.9647 -0.3924
   52TCq2    C7  797   1.618   4.711   2.214  0.2985  0.3005  0.1679
   52TCq2    C8  798   1.616   0.219   2.185 -0.3956  0.3401  0.5909
   52TCq2    O4  799   1.677   0.222   2.079 -0.1752 -0.1091 -0.1707
   52TCq2    C9  800   1.611   0.054   2.632 -0.4960  0.3895  0.4816
   52TCq2    O5  801   1.595   4.666   2.699 -1.1511 -0.0374  0.1706
   52TCq2    O6  802   1.571   0.165   2.665  0.4212 -0.1940  0.1290
   52TCq2    H2  803   1.585   4.537   2.505  0.9472  0.7959  2.0624
   52TCq2    H3  804   1.639   0.244   2.436 -1.5391 -1.1055  1.6194
   52TCq2    H4  805   1.631   4.693   2.108 -1.0176  0.0460  0.0481
   53TMC2    C1  806   1.805   4.126  11.412  0.0412 -0.7018 -0.1898
   53TMC2    C2  807   1.890   4.058  11.320 -0.4995 -0.2136  0.0218
   53TMC2    C3  808   1.937   3.937  11.366 -0.0483  0.3115  0.4043
   53TMC2    C4  809   1.774   4.080  11.536 -0.1832 -0.6875 -0.2482
   53TMC2    C5  810   1.832   3.964  11.576  0.1420  0.2489  0.4326
   53TMC2    C6  811   1.904   3.891  11.489 -0.3255  0.7136 -0.0605
   53TMC2     C  812   1.747   4.248  11.363  0.6395  0.0874  0.3454
   53TMC2     O  813   1.811   4.318  11.289 -0.0169  0.5021  0.2101
   53TMC2     H  814   1.899   4.095  11.219 -1.9357 -1.1066 -0.4366
   53TMC2    H1  815   1.718   4.145  11.602 -0.7424 -2.4023  0.9705
   53TMC2    H2  816   1.951   3.796  11.513  0.6206  1.0755 -0.4532
   53TMC2    C7  817   1.771   3.912  11.699  0.2685 -0.4993 -1.0565
   53TMC2    C8  818   1.978   3.835  11.271  0.4640 -0.1148  0.5166
   53TMC2    O1  819   1.685   3.983  11.752 -0.3486 -0.4246 -0.4964
   53TMC2    O2  820   1.988   3.721  11.299 -0.4428 -0.5011 -0.0541
   53TMC2    O5  821   2.060   3.897  11.182  0.3171 -0.3713 -0.2296
   53TMC2    H5  822   2.073   3.991  11.205 -1.4170 -0.0190 -0.6962
   54MPD2     C  823   1.604   4.506  11.346  0.2868  0.2533  0.3523
   54MPD2    C1  824   1.551   4.378  11.386 -0.5174  0.2692 -0.3878
   54MPD2    C2  825   1.409   4.371  11.387  0.9334  0.1921  0.4008
   54MPD2    C3  826   1.330   4.475  11.347  0.2365  0.4904 -0.0064
   54MPD2    C4  827   1.384   4.590  11.310  0.3756  0.7611  0.3099
   54MPD2    C5  828   1.521   4.605  11.318  0.0673 -0.3131 -0.3507
   54MPD2     H  829   1.366   4.271  11.390 -0.1875  0.7586  2.8279
   54MPD2    H1  830   1.327   4.667  11.260 -0.4459  0.6083  1.0225
   54MPD2    H2  831   1.710   4.528  11.349  0.8091 -2.1935  0.5947
   54MPD2    H3  832   1.559   4.702  11.286 -1.1671  0.6103  0.9972
   54MPD2     N  833   1.192   4.453  11.322 -0.3447 -0.0139  0.4470
   54MPD2    H5  834   1.145   4.533  11.280  0.2058  0.0971  0.0347
   54MPD2    N1  835   1.624   4.265  11.412  0.2866 -0.3010  0.4782
   54MPD2    H7  836   1.576   4.192  11.465 -0.5341 -1.3292 -1.6960
   55MPD2     C  837   3.274   0.590  17.168 -0.1990 -0.2819  0.2472
   55MPD2    C1  838   3.235   0.571  17.298 -0.0840 -0.0597 -0.3306
   55MPD2    C2  839   3.182   0.679  17.362  0.2519  0.1285  0.3330
   55MPD2    C3  840   3.175   0.805  17.307  0.0198 -0.3402 -0.4093
   55MPD2    C4  841   3.231   0.828  17.183 -0.0950  0.3650 -0.0627
   55MPD2    C5  842   3.271   0.720  17.117 -0.3447 -0.3598  0.0361
   55MPD2     H  843   3.128   0.662  17.454 -0.6598 -0.5385 -0.3183
   55MPD2    H1  844   3.247   0.920  17.128  1.4423 -0.0106 -0.2369
   55MPD2    H2  845   3.316   0.511  17.107  0.9676 -0.5914  1.4527
   55MPD2    H3  846   3.308   0.736  17.017 -1.0767  0.4691 -0.0995
   55MPD2     N  847   3.137   0.910  17.389 -0.2882  0.3670  0.0551
   55MPD2    H5  848   3.109   0.896  17.486 -0.6684 -2.8914 -0.5561
   55MPD2    N1  849   3.269   0.444  17.355  0.8492  0.0827  0.2996
   55MPD2    H7  850   3.349   0.391  17.320  1.3856 -0.7069  2.7614
   56TCq2    C1  851   3.229   0.407  17.484 -0.2334 -0.6309  0.4921
   56TCq2    O2  852   3.138   0.453  17.556  0.1922 -0.1837  0.0985
   56TCq2    C2  853   3.317   0.298  17.531 -1.2160  0.9515  0.4814
   56TCq2    C3  854   3.331   0.181  17.466  1.0200  0.1233  0.0316
   56TCq2    C4  855   3.373   0.064  17.528  0.0130 -0.3103  0.1341
   56TCq2    C5  856   3.402   0.069  17.662 -0.5418 -0.1155 -0.3236
   56TCq2    C6  857   3.375   0.178   0.045 -0.4618 -0.2888  0.1081
   56TCq2    C7  858   3.333   0.294  17.670 -0.5778 -0.4060  0.1630
   56TCq2    C8  859   3.371   0.170   0.190  0.4991  0.4995  0.1350
   56TCq2    O4  860   3.421   0.064   0.231  0.0089 -0.0079 -0.2965
   56TCq2    C9  861   3.397   4.669  17.446  0.4412  0.3543 -0.4372
   56TCq2    O5  862   3.464   4.579  17.500  0.6905  0.4812  0.0644
   56TCq2    O6  863   3.337   4.657  17.341 -0.1346 -0.3306  0.0127
   56TCq2    H2  864   3.317   0.176  17.359 -1.5394  0.0327  0.3676
   56TCq2    H3  865   3.432   4.699   0.034 -0.1622  0.5763  0.6350
   56TCq2    H4  866   3.315   0.380   0.052 -2.9553  0.3338 -1.5209
   57TMC2    C1  867   2.257   2.002  13.851 -0.5232  0.0727 -0.5711
   57TMC2    C2  868   2.360   1.961  13.934 -0.0296 -0.0307  0.6723
   57TMC2    C3  869   2.473   1.913  13.880 -0.2898  0.2534 -0.2355
   57TMC2    C4  870   2.274   2.008  13.718  0.2965 -0.3684  0.0899
   57TMC2    C5  871   2.387   1.955  13.665  0.7551 -0.0216  0.3935
   57TMC2    C6  872   2.489   1.903  13.744  0.1884  0.3016 -0.1863
   57TMC2     C  873   2.129   1.997  13.904  0.7068 -0.2429  0.2434
   57TMC2     O  874   2.117   1.998  14.028  0.1517 -0.3740  0.5673
   57TMC2     H  875   2.338   1.937  14.037  0.0518  0.9344  0.9114
   57TMC2    H1  876   2.204   2.043  13.643  0.7930 -1.1021 -0.7192
   57TMC2    H2  877   2.586   1.873  13.706 -1.1109 -0.0886 -3.2067
   57TMC2    C7  878   2.382   1.917  13.522  0.1037  0.4971  0.1459
   57TMC2    C8  879   2.578   1.844  13.961 -0.3749  0.3533 -0.3048
   57TMC2    O1  880   2.308   1.981  13.441 -0.7499  0.3610 -0.0761
   57TMC2    O2  881   2.661   1.776  13.905  0.4845  0.7185  0.0437
   57TMC2    O5  882   2.608   1.939  14.058  0.0782  0.1124 -0.1027
   57TMC2    H5  883   2.533   1.987  14.100  0.3258  0.5258 -0.1270
   58MPD2     C  884   1.626   1.898  13.845 -0.1172  1.1845  0.0129
   58MPD2    C1  885   1.698   1.926  13.962 -0.0650  0.0015 -0.0011
   58MPD2    C2  886   1.833   1.955  13.949  0.2788 -0.8102 -0.4999
   58MPD2    C3  887   1.898   1.941  13.827 -0.0887 -0.7132 -0.9950
   58MPD2    C4  888   1.833   1.906  13.720  0.4647  0.9009 -0.3723
   58MPD2    C5  889   1.698   1.887  13.728  0.6858  0.0503 -0.4811
   58MPD2     H  890   1.879   1.988  14.041 -1.3877  0.4265 -0.1067
   58MPD2    H1  891   1.884   1.905  13.624 -0.8588  2.1008 -1.0834
   58MPD2    H2  892   1.519   1.885  13.832 -0.2945  0.2142  2.5357
   58MPD2    H3  893   1.646   1.864  13.636  0.9023 -0.6038 -0.4400
   58MPD2     N  894   2.034   1.965  13.808 -0.4895 -0.3598 -1.0014
   58MPD2    H5  895   2.068   1.947  13.714  0.8924  2.1266 -0.9898
   58MPD2    N1  896   1.635   1.926  14.083  0.0218  0.2387 -0.3282
   58MPD2    H7  897   1.690   1.941  14.166  1.8624  1.2906 -1.7459
   59MPD2     C  898   4.468   2.129  13.677 -0.0808  0.6877  0.3312
   59MPD2    C1  899   4.507   2.163  13.545  0.4047  0.5245 -0.2484
   59MPD2    C2  900   4.647   2.164  13.515  0.3859 -1.0654 -0.1209
   59MPD2    C3  901   0.017   2.134  13.615  0.2388 -0.5123  0.0282
   59MPD2    C4  902   4.693   2.082  13.734  0.1876  0.2590  0.6715
   59MPD2    C5  903   4.558   2.085  13.763 -0.0732 -0.2883  0.1226
   59MPD2     H  904   4.686   2.213  13.426 -0.7900  1.2364  0.6242
   59MPD2    H1  905   0.040   2.061  13.817  1.1263 -0.6714 -0.3370
   59MPD2    H2  906   4.366   2.108  13.708  0.4925 -1.6933  0.6407
   59MPD2    H3  907   4.533   2.056  13.865  0.4723  2.2602  0.9857
   59MPD2     N  908   0.156   2.144  13.588  0.6977  0.3759  0.1095
   59MPD2    H5  909   0.217   2.143  13.669 -2.5833  0.7573  2.6138
   59MPD2    N1  910   4.415   2.200  13.448 -0.6880 -0.0791  0.6009
   59MPD2    H7  911   4.452   2.217  13.355  0.5148  0.9733  1.2708
   60TCq2    C1  912   4.281   2.215  13.469  0.5836  0.4149  0.5882
   60TCq2    O2  913   4.220   2.172  13.566 -0.0163  0.2318 -0.2598
   60TCq2    C2  914   4.207   2.271  13.356 -0.1269  0.0948  0.0013
   60TCq2    C3  915   4.073   2.304  13.375 -0.6384  0.5316  0.3819
   60TCq2    C4  916   4.010   2.367  13.270 -0.1495 -0.3357 -0.2472
   60TCq2    C5  917   4.073   2.399  13.150  0.1330  0.4359  0.1316
   60TCq2    C6  918   4.210   2.370  13.142 -0.9199 -0.2405 -0.6072
   60TCq2    C7  919   4.278   2.300  13.241  0.0620 -0.4628  0.1274
   60TCq2    C8  920   4.277   2.366  13.016  0.5390 -0.3720 -0.1632
   60TCq2    O4  921   4.400   2.337  13.024 -0.3842  0.2104 -0.0860
   60TCq2    C9  922   3.868   2.395  13.291 -0.3739  0.0132 -0.2693
   60TCq2    O5  923   3.822   2.367  13.408  0.4139 -0.0283 -0.5972
   60TCq2    O6  924   3.799   2.403  13.180 -0.0720 -0.2864  0.4042
   60TCq2    H2  925   4.022   2.276  13.467 -0.6496  1.3150  0.6109
   60TCq2    H3  926   4.016   2.443  13.069 -1.2849 -0.7247  0.5153
   60TCq2    H4  927   4.385   2.286  13.233  0.5335  3.0292  0.6492
   61MPD2     C  928   4.317   3.286  14.773 -0.3411  0.5200  0.2920
   61MPD2    C1  929   4.248   3.397  14.823  0.1061  0.0737 -0.8198
   61MPD2    C2  930   4.247   3.517  14.760 -0.1432  0.2206 -0.5223
   61MPD2    C3  931   4.323   3.539  14.648  0.6211 -0.6128  0.5649
   61MPD2    C4  932   4.396   3.427  14.602  0.3679  0.5440  0.5004
   61MPD2    C5  933   4.395   3.304  14.661  0.0093  0.3238 -0.4814
   61MPD2     H  934   4.190   3.598  14.804  0.8074  0.0134  1.0978
   61MPD2    H1  935   4.465   3.444  14.520 -2.8200 -1.4835 -2.5879
   61MPD2    H2  936   4.292   3.189  14.812  0.6547  0.2842  0.3357
   61MPD2    H3  937   4.438   3.216  14.613 -1.7560 -1.3588  1.0134
   61MPD2     N  938   4.313   3.659  14.578  0.1748  0.0642  0.3981
   61MPD2    H5  939   4.260   3.735  14.619  1.0863  1.5456 -1.1628
   61MPD2    N1  940   4.167   3.393  14.942  0.4615 -0.4116 -0.1671
   61MPD2    H7  941   4.132   3.483  14.976  1.0407  0.0718 -0.8530
   62TCq2    C1  942   4.164   3.282  15.026  0.1769 -0.4400  0.0053
   62TCq2    O2  943   4.236   3.183  15.030  0.1415  0.4738  0.0325
   62TCq2    C2  944   4.086   3.321  15.146  0.0753 -0.4871 -0.3599
   62TCq2    C3  945   4.112   3.257  15.266 -0.3381 -0.7646  0.0639
   62TCq2    C4  946   4.048   3.298  15.377  0.2239  0.8178 -0.4283
   62TCq2    C5  947   3.970   3.408  15.380  0.4356  0.4471 -0.1096
   62TCq2    C6  948   3.959   3.474  15.260  0.4788 -0.6917 -0.5790
   62TCq2    C7  949   4.012   3.434  15.138 -0.0494 -0.0918  1.0601
   62TCq2    C8  950   3.871   3.587  15.258  0.0234 -0.3807 -0.3746
   62TCq2    O4  951   3.766   3.578  15.325  0.1474 -0.3789  0.3019
   62TCq2    C9  952   4.074   3.235  15.500  0.2484 -0.3971 -0.6508
   62TCq2    O5  953   4.171   3.156  15.509  0.2947 -0.2653  0.4606
   62TCq2    O6  954   4.007   3.267  15.597  0.0908  0.4771 -0.2022
   62TCq2    H2  955   4.191   3.184  15.279  1.9273  1.1859 -2.6216
   62TCq2    H3  956   3.924   3.445  15.471  0.1273  1.5607 -0.7307
   62TCq2    H4  957   3.975   3.477  15.045  1.5692  2.8655  1.7889
   63TMC2    C1  958   3.272   3.396  10.879 -0.0942  1.2740 -0.0652
   63TMC2    C2  959   3.380   3.408  10.963  0.0088 -0.3482  0.9343
   63TMC2    C3  960   3.500   3.439  10.900  0.7930 -0.0926  1.0768
   63TMC2    C4  961   3.273   3.403  10.742 -0.9228 -0.7728  0.7774
   63TMC2    C5  962   3.392   3.436  10.686  0.3068  0.0036 -0.2889
   63TMC2    C6  963   3.505   3.461  10.765 -0.2215 -0.3327 -0.1298
   63TMC2     C  964   3.149   3.359  10.942 -0.2866  0.1449 -0.5015
   63TMC2     O  965   3.127   3.397  11.054 -0.0670  0.3239 -0.9194
   63TMC2     H  966   3.361   3.395  11.068 -0.9138  1.0750  0.9493
   63TMC2    H1  967   3.180   3.410  10.686 -0.7247 -3.2135  0.1226
   63TMC2    H2  968   3.605   3.475  10.725 -0.6038  0.3972 -0.8206
   63TMC2    C7  969   3.392   3.446  10.540 -0.5951 -0.8968 -0.1885
   63TMC2    C8  970   3.624   3.411  10.978 -0.3126 -0.7083 -0.1882
   63TMC2    O1  971   3.287   3.410  10.488 -0.1954 -0.1049  0.2794
   63TMC2    O2  972   3.725   3.362  10.922 -0.4650 -0.5914  0.4720
   63TMC2    O5  973   3.605   3.440  11.108  0.6276  0.1742 -0.3835
   63TMC2    H5  974   3.535   3.506  11.125  0.3880 -0.6803  1.9090
   64MPD2     C  975   2.762   3.029  10.988  0.4878 -0.5710 -0.2432
   64MPD2    C1  976   2.836   2.991  10.880  0.4311  0.5328 -0.0247
   64MPD2    C2  977   2.933   3.080  10.831  0.0386 -0.6087 -0.0752
   64MPD2    C3  978   2.973   3.191  10.913  0.0633 -0.8425  0.4117
   64MPD2    C4  979   2.900   3.222  11.021  0.8567  0.6732  0.9864
   64MPD2    C5  980   2.792   3.140  11.054 -0.2625  0.3321 -0.5749
   64MPD2     H  981   2.977   3.062  10.733 -2.1370 -0.5519 -1.0772
   64MPD2    H1  982   2.924   3.308  11.083 -0.6118  2.5320 -1.0255
   64MPD2    H2  983   2.679   2.967  11.019 -1.0123  0.8928 -1.3356
   64MPD2    H3  984   2.725   3.166  11.135 -0.7529 -0.5558 -0.7034
   64MPD2     N  985   3.084   3.269  10.863  0.3217  0.1322  0.4202
   64MPD2    H5  986   3.116   3.255  10.767  1.8286 -0.7936  1.0467
   64MPD2    N1  987   2.827   2.870  10.813 -0.0545  0.0064 -0.2781
   64MPD2    H7  988   2.881   2.860  10.728 -1.2778 -3.7279 -0.6098
   65MPD2     C  989   4.712   2.725  15.765 -0.1550  0.5508  1.0748
   65MPD2    C1  990   0.010   2.703  15.633  0.1019  0.0603 -0.2351
   65MPD2    C2  991   4.682   2.589  15.574 -0.7811 -0.0645  0.0068
   65MPD2    C3  992   4.642   2.480  15.649  0.6210  0.0764 -0.0556
   65MPD2    C4  993   4.638   2.491  15.782 -0.5692 -0.2116 -0.3230
   65MPD2    C5  994   4.670   2.613  15.839 -0.1631  0.6769  0.6592
   65MPD2     H  995   4.675   2.588  15.466 -1.0582 -0.2644  0.0269
   65MPD2    H1  996   4.605   2.410  15.845 -0.7517 -0.9167 -1.3382
   65MPD2    H2  997   0.007   2.819  15.816 -0.7522  0.5277  1.2923
   65MPD2    H3  998   4.671   2.618  15.947  1.1914 -0.4225  0.7017
   65MPD2     N  999   4.587   2.363  15.590 -0.6592  0.2321  0.2778
   65MPD2    H5 1000   4.549   2.289  15.649  0.6117 -0.2760  0.4562
   65MPD2    N1 1001   0.050   2.807  15.543  0.8264  0.1196  0.3152
   65MPD2    H7 1002   0.061   2.770  15.449  0.0651 -0.2930  0.3902
   66TCq2    C1 1003   0.087   2.939  15.582  0.0897 -1.1341  0.4449
   66TCq2    O2 1004   0.098   2.981  15.697 -0.1251 -0.3188  0.7233
   66TCq2    C2 1005   0.120   3.023  15.474 -0.2708  0.5839 -0.0245
   66TCq2    C3 1006   0.135   2.976  15.345 -0.5427 -0.1083  0.0214
   66TCq2    C4 1007   0.167   3.073  15.251  0.1291  0.1157  0.3242
   66TCq2    C5 1008   0.185   3.204  15.283  0.0578  0.0128  0.0024
   66TCq2    C6 1009   0.151   3.246  15.410 -0.3746 -0.3472 -0.3048
   66TCq2    C7 1010   0.130   3.155  15.511 -0.0687 -0.2761 -0.1614
   66TCq2    C8 1011   0.157   3.391  15.436 -0.2966  0.0859 -0.4399
   66TCq2    O4 1012   0.222   3.465  15.363 -0.5265 -0.4805 -0.4388
   66TCq2    C9 1013   0.171   3.038  15.112 -0.0023 -0.4136  0.0542
   66TCq2    O5 1014   0.177   3.132  15.032 -0.0479  0.3051  0.8955
   66TCq2    O6 1015   0.171   2.916  15.084 -0.0710  0.2849 -0.2796
   66TCq2    H2 1016   0.131   2.877  15.302  4.8935 -0.0852 -0.5871
   66TCq2    H3 1017   0.218   3.277  15.210 -1.8565 -0.2412 -1.0952
   66TCq2    H4 1018   0.123   3.191  15.613 -1.2043  0.8488 -0.6370
   67MPD2     C 1019   4.257   2.295  13.992  0.8287  0.2335 -0.6349
   67MPD2    C1 1020   4.255   2.393  14.084  0.4148  0.0218  0.0787
   67MPD2    C2 1021   4.150   2.478  14.083 -0.0186 -0.0730 -0.2981
   67MPD2    C3 1022   4.048   2.469  13.988  0.0217  0.0522  0.0468
   67MPD2    C4 1023   4.071   2.395  13.884  1.2750 -0.5675  0.1570
   67MPD2    C5 1024   4.167   2.291  13.891 -0.6256 -0.0331 -0.1631
   67MPD2     H 1025   4.143   2.548  14.165  2.2526  0.8314 -0.8685
   67MPD2    H1 1026   3.990   2.384  13.812  0.3498 -2.3056  1.4648
   67MPD2    H2 1027   4.321   2.207  14.001 -0.2282 -0.3680  1.1326
   67MPD2    H3 1028   4.159   2.212  13.818  0.4394 -0.5341  0.2654
   67MPD2     N 1029   3.933   2.550  13.994 -0.3181 -0.4965  0.1939
   67MPD2    H5 1030   3.873   2.553  13.912  0.2440 -0.3030 -0.2090
   67MPD2    N1 1031   4.359   2.413  14.180 -0.2920  0.1063  0.4323
   67MPD2    H7 1032   4.336   2.473  14.258 -1.1875 -1.0220  1.0253
   68TCq2    C1 1033   4.477   2.344  14.202 -0.3353  0.5175  0.2338
   68TCq2    O2 1034   4.514   2.238  14.151  0.3114 -0.2970  0.2461
   68TCq2    C2 1035   4.573   2.423  14.271 -0.8922 -0.1124 -0.4072
   68TCq2    C3 1036   4.535   2.556  14.287 -0.2834  0.5003  0.0725
   68TCq2    C4 1037   4.603   2.634  14.384 -0.1778  0.2263  0.2939
   68TCq2    C5 1038   4.706   2.582  14.461 -0.0014 -0.0361  0.1058
   68TCq2    C6 1039   0.022   2.446  14.430 -0.3659  0.2944 -1.0611
   68TCq2    C7 1040   4.673   2.369  14.339 -0.1002 -0.5212  0.5532
   68TCq2    C8 1041   0.124   2.376  14.508 -0.5235 -0.0627  0.0299
   68TCq2    O4 1042   0.161   2.268  14.463  0.5070 -0.3091  0.1265
   68TCq2    C9 1043   4.577   2.771  14.397 -0.6657 -0.7158 -0.5247
   68TCq2    O5 1044   4.513   2.832  14.308 -0.4078  0.2135 -0.2689
   68TCq2    O6 1045   4.628   2.824  14.496  0.5308 -0.0465 -0.0820
   68TCq2    H2 1046   4.472   2.610  14.217  0.0942 -0.0983 -0.7319
   68TCq2    H3 1047   0.053   2.637  14.526 -0.3513  1.0557 -0.4693
   68TCq2    H4 1048   4.701   2.268  14.313 -1.0259 -0.8098  0.6842
   69TMC2    C1 1049   1.662   3.960  12.304 -0.0550  0.0393 -0.1477
   69TMC2    C2 1050   1.526   3.988  12.299 -0.1194 -0.3908  0.2230
   69TMC2    C3 1051   1.488   4.094  12.219  0.3014  0.5922  0.6649
   69TMC2    C4 1052   1.748   4.036  12.234  0.0076 -0.6378 -0.2084
   69TMC2    C5 1053   1.704   4.136  12.156  0.2191 -0.3624 -0.2136
   69TMC2    C6 1054   1.578   4.168  12.143 -0.0866  0.7074  0.5004
   69TMC2     C 1055   1.705   3.835  12.364  0.1913 -1.0198 -0.5311
   69TMC2     O 1056   1.610   3.758  12.386 -0.4668  0.3942 -0.7790
   69TMC2     H 1057   1.455   3.937  12.363  0.7105 -0.4994  1.0453
   69TMC2    H1 1058   1.852   4.007  12.224 -0.0267  0.0759 -2.6195
   69TMC2    H2 1059   1.542   4.258  12.093  3.3240  2.0330  0.4215
   69TMC2    C7 1060   1.807   4.190  12.070 -0.1296 -0.7131  0.5129
   69TMC2    C8 1061   1.345   4.133  12.215  0.5086 -0.7183 -0.5914
   69TMC2    O1 1062   1.925   4.165  12.099 -0.3303  0.1444  0.3076
   69TMC2    O2 1063   1.273   4.101  12.306  0.0683  0.1746 -0.0716
   69TMC2    O5 1064   1.300   4.158  12.088 -0.1631  0.0577 -0.0821
   69TMC2    H5 1065   1.372   4.150  12.022  0.1660  3.9520 -0.2251
   70MPD2     C 1066   2.030   3.786  12.534 -0.6262 -0.1191  0.0500
   70MPD2    C1 1067   1.912   3.744  12.477  0.2975 -0.4114 -0.7707
   70MPD2    C2 1068   1.866   3.613  12.496  0.1516  0.4572  0.3810
   70MPD2    C3 1069   1.949   3.522  12.564  0.1443  0.4827 -0.0358
   70MPD2    C4 1070   2.070   3.564  12.616 -0.1581 -0.1254  0.4185
   70MPD2    C5 1071   2.100   3.696  12.610 -0.8884  0.1825  0.2405
   70MPD2     H 1072   1.775   3.578  12.448  0.3173  1.6508 -0.8025
   70MPD2    H1 1073   2.143   3.503  12.669 -0.2255 -1.2597 -0.7878
   70MPD2    H2 1074   2.064   3.887  12.514  0.0965 -0.3616  0.0654
   70MPD2    H3 1075   2.193   3.727  12.657 -0.5725  0.4231 -0.5409
   70MPD2     N 1076   1.910   3.385  12.586  0.0555  0.2336 -0.5200
   70MPD2    H5 1077   1.971   3.308  12.613 -0.4627 -0.6464 -1.8892
   70MPD2    N1 1078   1.831   3.847  12.418  0.6821  0.1121 -0.7891
   70MPD2    H7 1079   1.867   3.941  12.412 -0.5202  0.5919 -0.6119
   71TMC2    C1 1080   3.968   3.820   0.971 -1.1193 -0.0927  0.0400
   71TMC2    C2 1081   3.997   3.738   0.864 -0.0638  0.3266 -0.2054
   71TMC2    C3 1082   3.928   3.622   0.851  0.1450  0.0266  0.3572
   71TMC2    C4 1083   3.872   3.783   1.066  0.4085  0.4329 -0.1193
   71TMC2    C5 1084   3.794   3.674   1.040  0.2028  0.1563  0.3288
   71TMC2    C6 1085   3.823   3.593   0.930 -0.1391 -0.5310 -0.2612
   71TMC2     C 1086   4.064   3.929   1.009  0.1745  0.0415  0.0150
   71TMC2     O 1087   4.061   3.962   1.126  0.0230  0.2373 -0.5081
   71TMC2     H 1088   4.087   3.752   0.805  0.0432 -2.0793 -0.5786
   71TMC2    H1 1089   3.849   3.847   1.151  1.1036 -0.9070  1.0682
   71TMC2    H2 1090   3.771   3.498   0.924  0.4270 -0.6620 -2.7476
   71TMC2    C7 1091   3.679   3.638   1.127 -0.4723 -0.4508  0.1704
   71TMC2    C8 1092   3.987   3.516   0.769 -0.5023  0.3811 -0.1678
   71TMC2    O1 1093   3.602   3.554   1.084  0.1897  0.5246 -0.1024
   71TMC2    O2 1094   4.108   3.498   0.744 -0.2642 -0.6597 -0.0452
   71TMC2    O5 1095   3.884   3.470   0.698  0.2388  0.2437 -0.2306
   71TMC2    H5 1096   3.801   3.519   0.718  0.2644 -0.2196  1.0289
   72MPD2     C 1097   4.381   4.326   0.923 -0.1430  0.3317  0.7166
   72MPD2    C1 1098   4.279   4.317   1.016 -0.1358  0.1413 -0.0237
   72MPD2    C2 1099   4.189   4.206   1.017 -0.0763 -0.0114  0.3519
   72MPD2    C3 1100   4.198   4.117   0.916  0.1939 -0.7141 -0.1548
   72MPD2    C4 1101   4.297   4.132   0.824  0.2875 -0.3070 -0.1482
   72MPD2    C5 1102   4.393   4.232   0.826 -0.2490 -0.2768 -0.1580
   72MPD2     H 1103   4.118   4.186   1.096  0.9541  0.2806  1.3487
   72MPD2    H1 1104   4.317   4.049   0.758 -3.3300  0.0311 -1.6365
   72MPD2    H2 1105   4.458   4.402   0.925 -1.8201  2.0293  0.7511
   72MPD2    H3 1106   4.477   4.236   0.757  0.2872 -2.5334  0.3827
   72MPD2     N 1107   4.121   3.996   0.904  0.5288  0.2781  0.9333
   72MPD2    H5 1108   4.111   3.969   0.806  0.6306  1.3477  0.6189
   72MPD2    N1 1109   4.272   4.396   1.133 -0.2604  0.7486  0.4933
   72MPD2    H7 1110   4.225   4.362   1.216 -0.7282 -0.6792 -0.3752
   73TMC2    C1 1111   3.548   1.124  14.204 -0.1417  0.2331  0.8927
   73TMC2    C2 1112   3.471   1.029  14.154  0.9881 -0.4681 -0.4713
   73TMC2    C3 1113   3.531   0.919  14.116 -0.1873 -0.8099  0.5723
   73TMC2    C4 1114   3.672   1.094  14.259 -0.2316  0.8263  0.0742
   73TMC2    C5 1115   3.731   0.976  14.231 -0.4077  0.0412 -0.5265
   73TMC2    C6 1116   3.661   0.883  14.155  0.1216 -0.5311 -0.0953
   73TMC2     C 1117   3.545   1.257  14.153  0.8821 -0.1013 -0.2606
   73TMC2     O 1118   3.648   1.317  14.171  0.0601  0.1085 -0.3483
   73TMC2     H 1119   3.375   1.042  14.107  0.6213 -1.8482 -0.0976
   73TMC2    H1 1120   3.728   1.169  14.313 -0.8730  0.2371  1.5406
   73TMC2    H2 1121   3.705   0.786  14.134  0.5948 -0.4874  0.6845
   73TMC2    C7 1122   3.864   0.995  14.182 -0.2255  0.4141 -0.4369
   73TMC2    C8 1123   3.447   0.805  14.068 -0.4641 -0.3534  0.2809
   73TMC2    O1 1124   3.947   0.911  14.214 -0.2558  0.0725  0.8922
   73TMC2    O2 1125   3.337   0.774  14.110  0.2188  0.1678  0.0793
   73TMC2    O5 1126   3.512   0.744  13.965  0.4836  0.0791 -0.4258
   73TMC2    H5 1127   3.576   0.801  13.917  3.4237 -2.6374  0.2955
   74MPD2     C 1128   3.385   1.581  13.793  0.5492  0.1502 -0.1397
   74MPD2    C1 1129   3.512   1.570  13.848 -0.2435  0.9288  0.5591
   74MPD2    C2 1130   3.527   1.477  13.947  0.1219  0.0995 -0.2623
   74MPD2    C3 1131   3.426   1.383  13.977 -0.0121  0.8211 -0.4968
   74MPD2    C4 1132   3.309   1.386  13.904  0.5546  0.4409  0.1518
   74MPD2    C5 1133   3.291   1.481  13.810  0.0320  0.0087  0.2994
   74MPD2     H 1134   3.617   1.476  14.009  1.0994 -0.5976 -1.6987
   74MPD2    H1 1135   3.225   1.319  13.922  0.9167  0.3126  1.3156
   74MPD2    H2 1136   3.362   1.654  13.716  1.2062  0.3770 -0.1194
   74MPD2    H3 1137   3.191   1.490  13.767 -0.3506 -0.6167  1.0521
   74MPD2     N 1138   3.447   1.274  14.064 -0.4843  0.4906  0.0388
   74MPD2    H5 1139   3.367   1.211  14.072  0.6062 -1.0497 -1.0042
   74MPD2    N1 1140   3.619   1.657  13.810  0.1478 -0.5845  0.2397
   74MPD2    H7 1141   3.603   1.721  13.733  0.5657  2.4823  2.6812
   75TCq2    C1 1142   3.874   2.596  14.109  0.4231  0.5919 -0.3774
   75TCq2    O2 1143   3.907   2.577  14.226 -0.1469 -0.1879 -0.1932
   75TCq2    C2 1144   3.752   2.667  14.078  0.0320 -0.7237 -0.5598
   75TCq2    C3 1145   3.675   2.696  14.182  0.0396  0.2473  0.0160
   75TCq2    C4 1146   3.575   2.792  14.173 -0.0517 -0.0163  0.3090
   75TCq2    C5 1147   3.574   2.872  14.064  0.2596 -0.3717  0.1075
   75TCq2    C6 1148   3.648   2.840  13.957 -0.7266  0.2134  0.1431
   75TCq2    C7 1149   3.742   2.736  13.957  0.0557  0.7927  0.9889
   75TCq2    C8 1150   3.620   2.898  13.827  0.0491  0.4287 -0.3482
   75TCq2    O4 1151   3.657   2.834  13.728  0.0685  0.5402  0.3481
   75TCq2    C9 1152   3.472   2.809  14.276 -0.0695 -0.2104 -0.5567
   75TCq2    O5 1153   3.387   2.900  14.264 -0.3177 -0.4019  0.2766
   75TCq2    O6 1154   3.461   2.707  14.352  0.0187  0.1725  0.4325
   75TCq2    H2 1155   3.676   2.636  14.272 -0.0834 -0.4572 -0.4505
   75TCq2    H3 1156   3.489   2.939  14.059 -1.9213 -3.0493  1.4610
   75TCq2    H4 1157   3.789   2.708  13.863 -0.3231 -0.7492  1.2665
   76MPD2     C 1158   2.856   3.907  12.020 -0.0561 -0.5558 -0.3617
   76MPD2    C1 1159   2.824   3.846  11.902 -0.1973  0.0762 -0.2776
   76MPD2    C2 1160   2.892   3.733  11.866 -0.1180 -0.3995 -0.8219
   76MPD2    C3 1161   2.975   3.661  11.945 -0.1726  0.5070  0.0841
   76MPD2    C4 1162   3.007   3.722  12.067  0.6834 -0.4234  0.6389
   76MPD2    C5 1163   2.941   3.840  12.108  0.0780 -0.6201 -0.0263
   76MPD2     H 1164   2.863   3.702  11.766 -0.6923 -1.2528 -0.3852
   76MPD2    H1 1165   3.070   3.668  12.136  0.0586 -1.3234  0.5182
   76MPD2    H2 1166   2.828   4.006  12.052  1.8923 -0.3435  0.6999
   76MPD2    H3 1167   2.970   3.882  12.203  0.4696 -0.1065 -0.3763
   76MPD2     N 1168   3.026   3.535  11.909  0.0641 -0.0150  0.0787
   76MPD2    H5 1169   3.086   3.485  11.974  0.5734  0.0923 -0.3078
   76MPD2    N1 1170   2.730   3.901  11.810  0.2708  0.0655 -0.0467
   76MPD2    H7 1171   2.698   3.842  11.734  0.3479 -2.9540  2.2561
   77TCq2    C1 1172   2.980   3.457  11.804  0.0398  0.5497  0.2661
   77TCq2    O2 1173   2.876   3.479  11.741  0.0670  0.1572  0.4612
   77TCq2    C2 1174   3.028   3.324  11.801  0.4377  0.7295 -0.0487
   77TCq2    C3 1175   3.002   3.247  11.689  0.9780  0.0909 -0.1618
   77TCq2    C4 1176   3.044   3.117  11.684 -0.6200 -0.0005  0.4692
   77TCq2    C5 1177   3.112   3.061  11.784 -0.2450 -0.5891 -0.6258
   77TCq2    C6 1178   3.148   3.136  11.889 -0.3831 -0.4892 -0.4711
   77TCq2    C7 1179   3.097   3.265  11.906 -0.5155  0.1502  0.3753
   77TCq2    C8 1180   3.195   3.069  12.005 -0.3058 -0.0996 -0.6172
   77TCq2    O4 1181   3.161   2.950  12.012  0.2590 -0.1487  0.0462
   77TCq2    C9 1182   2.999   3.043  11.571  0.0611 -0.3095 -0.2483
   77TCq2    O5 1183   2.892   3.090  11.522  0.4616  0.4752 -0.0963
   77TCq2    O6 1184   3.064   2.945  11.533  0.3269  0.0733  0.1835
   77TCq2    H2 1185   2.941   3.284  11.607  1.0595 -2.4540 -1.3673
   77TCq2    H3 1186   3.146   2.958  11.782  0.9474 -0.1637 -2.4885
   77TCq2    H4 1187   3.106   3.316  12.001 -0.7850  0.8777  0.0056
   78MPD1     C 1188   0.589   2.854   3.669 -0.1760 -0.3072 -0.4452
   78MPD1    C1 1189   0.519   2.758   3.606 -0.9919 -0.3926 -0.3636
   78MPD1    C2 1190   0.528   2.738   3.468 -0.5281  0.0238 -0.0910
   78MPD1    C3 1191   0.620   2.808   3.398  0.5008 -0.3011  0.9960
   78MPD1    C4 1192   0.689   2.911   3.465 -0.6513 -0.8982  0.3231
   78MPD1    C5 1193   0.672   2.926   3.595 -0.2190  0.3530 -0.4634
   78MPD1     H 1194   0.457   2.668   3.426 -2.1581  1.5287  0.1496
   78MPD1    H1 1195   0.758   2.972   3.408  0.4818 -1.0039  1.5867
   78MPD1    H2 1196   0.574   2.875   3.774 -1.0318  0.7068 -0.7604
   78MPD1    H3 1197   0.728   3.009   3.636 -2.4704  1.1441  0.9983
   78MPD1     N 1198   0.636   2.792   3.255  0.0429 -0.2942  0.4316
   78MPD1    H5 1199   0.688   2.864   3.206 -0.8584  0.4044  0.4906
   78MPD1    N1 1200   0.424   2.688   3.676 -0.2048 -0.2273  0.3852
   78MPD1    H6 1201   0.437   2.699   3.776  0.6446  0.5572  0.1829
   78MPD1    H7 1202   0.411   2.591   3.650  0.5917 -0.5407  1.1805
   79TCq2    C1 1203   0.573   2.705   3.176  0.2002 -0.2278  0.4242
   79TCq2    O2 1204   0.489   2.623   3.205  0.4643 -0.1590 -0.1114
   79TCq2    C2 1205   0.596   2.728   3.038  1.0558 -0.4983  0.1517
   79TCq2    C3 1206   0.503   2.672   2.953  0.5712 -0.3311 -0.0130
   79TCq2    C4 1207   0.528   2.674   2.819  0.9077 -0.0075 -0.7603
   79TCq2    C5 1208   0.637   2.750   2.775 -0.6326  0.3486  0.1788
   79TCq2    C6 1209   0.727   2.810   2.866 -0.4094 -0.2569 -0.4208
   79TCq2    C7 1210   0.712   2.787   3.002 -0.7117 -0.2795  0.2600
   79TCq2    C8 1211   0.834   2.893   2.815  0.0119  0.5379  0.0429
   79TCq2    O4 1212   0.880   2.852   2.708 -0.1741  0.6636  0.4658
   79TCq2    C9 1213   0.432   2.617   2.722  0.0005 -0.7086 -0.3916
   79TCq2    O5 1214   0.470   2.625   2.600  0.4880  0.5290 -0.4128
   79TCq2    O6 1215   0.314   2.604   2.767  0.6656  0.3644 -0.2339
   79TCq2    H2 1216   0.414   2.634   3.001  0.7185 -2.3090 -1.2901
   79TCq2    H3 1217   0.655   2.750   2.668  0.3591  2.0324  0.3450
   79TCq2    H4 1218   0.788   2.820   3.072  0.1614  3.6325 -2.5563
   80MPD2     C 1219   1.735   3.449  11.516 -0.5697  0.0933  0.7396
   80MPD2    C1 1220   1.725   3.360  11.624  0.0892  0.2542 -0.5857
   80MPD2    C2 1221   1.609   3.358  11.697 -0.1572 -0.4105 -0.1975
   80MPD2    C3 1222   1.512   3.457  11.678 -0.0735  0.0343 -0.2561
   80MPD2    C4 1223   1.518   3.543  11.573  0.0552 -0.0622 -0.0178
   80MPD2    C5 1224   1.639   3.543  11.500  0.2786  0.9654 -1.0039
   80MPD2     H 1225   1.603   3.291  11.783 -0.1692 -2.8586 -2.1275
   80MPD2    H1 1226   1.437   3.614  11.555 -0.3585 -0.4739  0.2310
   80MPD2    H2 1227   1.817   3.464  11.446 -0.4236  1.7685  1.2607
   80MPD2    H3 1228   1.645   3.621  11.425 -3.1722 -0.2489 -2.5386
   80MPD2     N 1229   1.388   3.460  11.750 -0.0764 -0.2830 -0.0156
   80MPD2    H5 1230   1.317   3.521  11.710  1.3899  0.3558 -1.6443
   80MPD2    N1 1231   1.834   3.276  11.664  0.3205  0.0858 -0.5891
   80MPD2    H7 1232   1.823   3.221  11.748  1.9589  0.1169 -0.3562
   81TCq2    C1 1233   1.958   3.265  11.598  0.2762  0.0842  0.2117
   81TCq2    O2 1234   2.000   3.336  11.508 -0.2190 -0.0754  0.7520
   81TCq2    C2 1235   2.047   3.169  11.655  0.0487  0.3434  0.5100
   81TCq2    C3 1236   2.171   3.189  11.600 -0.1028  0.0452  0.6757
   81TCq2    C4 1237   2.247   3.077  11.583  0.3685 -0.0300  0.2918
   81TCq2    C5 1238   2.204   2.952  11.612 -0.1253 -0.1763  0.3443
   81TCq2    C6 1239   2.075   2.931  11.664 -0.7781 -0.0397 -0.4440
   81TCq2    C7 1240   2.000   3.042  11.684  0.3908  0.1832 -0.3925
   81TCq2    C8 1241   2.048   2.804  11.736 -0.0974  0.9304  0.1618
   81TCq2    O4 1242   2.125   2.710  11.713  0.2934 -0.1787 -0.5197
   81TCq2    C9 1243   2.384   3.095  11.539 -0.3958  0.0659  0.4469
   81TCq2    O5 1244   2.435   3.205  11.523 -0.2500  0.0719 -0.1959
   81TCq2    O6 1245   2.462   2.998  11.563  0.1761  0.4980 -0.0790
   81TCq2    H2 1246   2.211   3.284  11.565 -0.1819 -0.0891  0.2315
   81TCq2    H3 1247   2.266   2.864  11.600 -1.1099 -0.7596 -0.5474
   81TCq2    H4 1248   1.902   3.011  11.719 -0.9046  0.5412 -3.6931
   82MPD2     C 1249   0.064   1.936  10.250  0.6180  0.3240  0.6371
   82MPD2    C1 1250   4.667   1.906  10.309  0.1881 -0.9300 -0.3204
   82MPD2    C2 1251   4.674   1.862  10.442  0.1267 -0.2922 -0.3890
   82MPD2    C3 1252   0.070   1.834  10.508 -1.3661 -0.6451  0.6312
   82MPD2    C4 1253   0.189   1.844  10.434  0.0677  0.1716  0.8426
   82MPD2    C5 1254   0.181   1.897  10.310  0.4825 -0.5290  0.0521
   82MPD2     H 1255   4.579   1.858  10.495  0.5686 -0.9718  0.3631
   82MPD2    H1 1256   0.289   1.823  10.471 -0.4185 -1.9402  0.9694
   82MPD2    H2 1257   0.063   1.990  10.156 -0.1258 -1.0638 -0.1402
   82MPD2    H3 1258   0.273   1.913  10.255  0.1852  0.1395 -0.2545
   82MPD2     N 1259   0.075   1.804  10.641  0.2927  0.4596 -0.3007
   82MPD2    H5 1260   0.166   1.795  10.686  0.5524  1.4892 -0.6401
   82MPD2    N1 1261   4.546   1.943  10.244  0.0725 -0.0448 -0.4241
   82MPD2    H7 1262   4.558   1.966  10.146  0.8193  0.1179 -0.2917
   83TCq2    C1 1263   4.685   1.772  10.723 -0.4202 -0.2404 -0.1229
   83TCq2    O2 1264   4.569   1.757  10.701  0.0027 -0.5826 -0.2573
   83TCq2    C2 1265   0.008   1.744  10.861  0.3037  0.9583 -0.7974
   83TCq2    C3 1266   0.094   1.828  10.929 -0.8467  0.2934  0.2417
   83TCq2    C4 1267   0.081   1.831  11.061  0.4796  0.2952  0.1662
   83TCq2    C5 1268   4.706   1.761  11.124  0.3140 -0.5833  0.3163
   83TCq2    C6 1269   4.612   1.683  11.056 -0.2968 -0.3258  0.2490
   83TCq2    C7 1270   4.628   1.671  10.924  0.0622 -0.2296  0.2830
   83TCq2    C8 1271   4.495   1.638  11.128 -0.6227 -0.0491 -0.6595
   83TCq2    O4 1272   4.505   1.635  11.248 -0.3426  0.1659  0.1941
   83TCq2    C9 1273   0.167   1.909  11.147  0.5610 -0.5022 -0.3003
   83TCq2    O5 1274   0.261   1.965  11.086  0.0435  0.7969  0.1087
   83TCq2    O6 1275   0.144   1.907  11.273 -0.8102 -0.3792  0.6572
   83TCq2    H2 1276   0.158   1.896  10.874 -1.1247 -1.5153 -2.3582
   83TCq2    H3 1277   4.693   1.776  11.230 -0.3643 -0.3311  0.1963
   83TCq2    H4 1278   4.567   1.613  10.856 -0.2706  0.4706 -0.0137
   84TCq2    C1 1279   0.478   0.551  10.777 -0.5660  0.1685  0.2722
   84TCq2    O2 1280   0.476   0.637  10.692 -0.8203 -0.1857  0.3115
   84TCq2    C2 1281   0.488   0.591  10.912 -0.7888  0.4210 -0.2627
   84TCq2    C3 1282   0.538   0.508  11.011  0.0774  0.3344 -0.7728
   84TCq2    C4 1283   0.559   0.553  11.137 -0.2543  0.1611  0.4127
   84TCq2    C5 1284   0.543   0.693  11.151 -0.0546  0.5438  0.2108
   84TCq2    C6 1285   0.490   0.770  11.050  0.1045 -0.5558  1.0299
   84TCq2    C7 1286   0.454   0.720  10.929  0.3582  0.2492 -0.1292
   84TCq2    C8 1287   0.498   0.914  11.046 -0.2516  0.2854  0.0638
   84TCq2    O4 1288   0.480   0.977  11.148  0.3430 -0.5855  0.1244
   84TCq2    C9 1289   0.615   0.462  11.242 -0.0434  1.2723 -0.0085
   84TCq2    O5 1290   0.638   0.514  11.352 -0.0676  0.1303  0.5835
   84TCq2    O6 1291   0.606   0.337  11.216  0.4327  0.5804  0.6231
   84TCq2    H2 1292   0.572   0.408  10.990 -0.4331  0.1066 -0.5110
   84TCq2    H3 1293   0.574   0.738  11.245  0.8863  0.5857 -0.1192
   84TCq2    H4 1294   0.395   0.764  10.849  2.1025  0.3811 -1.3296
   85MPD2     C 1295   2.310   3.478  16.889 -0.2400  0.2395 -0.2656
   85MPD2    C1 1296   2.224   3.484  16.787 -0.2566 -0.4145  0.0537
   85MPD2    C2 1297   2.226   3.596  16.706 -0.2910  0.2393  0.3336
   85MPD2    C3 1298   2.286   3.714  16.749  0.1087  0.0996 -0.1236
   85MPD2    C4 1299   2.371   3.708  16.856 -0.1504 -0.3762 -0.0304
   85MPD2    C5 1300   2.380   3.588  16.925 -0.1872  0.5041  0.2401
   85MPD2     H 1301   2.148   3.601  16.631 -0.7514  0.9408  0.8533
   85MPD2    H1 1302   2.432   3.790  16.893  1.0771  0.4132 -3.7442
   85MPD2    H2 1303   2.319   3.386  16.946 -3.6666  0.2396  0.2391
   85MPD2    H3 1304   2.441   3.588  17.015  0.6006  0.8696 -0.2926
   85MPD2     N 1305   2.274   3.841  16.680  0.0926 -0.0334  0.1265
   85MPD2    H5 1306   2.231   3.828  16.589 -0.2520  0.5075  0.2157
   85MPD2    N1 1307   2.137   3.379  16.752  0.2434 -0.0938  0.8474
   85MPD2    H7 1308   2.085   3.384  16.665  0.2645 -1.4326  0.7621
   86TCq2    C1 1309   2.309   3.964  16.716  0.0684 -0.3126  0.4393
   86TCq2    O2 1310   2.325   4.010  16.830 -0.1761  0.8819 -0.5321
   86TCq2    C2 1311   2.314   4.066  16.618 -0.1004 -0.4090 -0.2963
   86TCq2    C3 1312   2.339   4.193  16.660 -0.1302  0.6017  0.6003
   86TCq2    C4 1313   2.383   4.284  16.576  0.4923  0.5330  0.5939
   86TCq2    C5 1314   2.405   4.248  16.447 -0.8715  0.3154 -0.1652
   86TCq2    C6 1315   2.371   4.122  16.402  0.4041 -1.1363 -0.2168
   86TCq2    C7 1316   2.331   4.026  16.490 -0.2224  0.6554  0.0031
   86TCq2    C8 1317   2.393   4.076  16.267 -0.1952  0.6235 -0.1618
   86TCq2    O4 1318   2.328   3.981  16.231 -0.3002  0.0754  0.5866
   86TCq2    C9 1319   2.387   4.422  16.624  0.6357 -0.2576 -0.2566
   86TCq2    O5 1320   2.346   4.442  16.740 -0.2464 -0.7673 -0.4669
   86TCq2    O6 1321   2.404   4.516  16.542 -0.3464  0.0555  0.1085
   86TCq2    H2 1322   2.302   4.226  16.757  0.7110  0.1770  1.0611
   86TCq2    H3 1323   2.428   4.318  16.367 -0.6291 -1.6680 -1.8460
   86TCq2    H4 1324   2.328   3.923  16.459 -1.8948  0.5154  0.6256
   87MPD2     C 1325   3.919   2.276   1.219  0.0013  0.2067 -0.9737
   87MPD2    C1 1326   3.955   2.370   1.314  0.5949  0.0882  0.0301
   87MPD2    C2 1327   3.926   2.501   1.282  0.4691 -1.1198  0.0222
   87MPD2    C3 1328   3.854   2.537   1.167  0.3258  0.4023  0.2964
   87MPD2    C4 1329   3.825   2.433   1.084  0.4055  0.2727  0.3568
   87MPD2    C5 1330   3.846   2.306   1.108  0.2775 -0.2029 -0.4097
   87MPD2     H 1331   3.955   2.580   1.350 -0.5886 -0.8345  0.1434
   87MPD2    H1 1332   3.781   2.454   0.988 -0.2744 -2.2185  0.1352
   87MPD2    H2 1333   3.973   2.182   1.221 -0.4125 -0.0065  0.0518
   87MPD2    H3 1334   3.821   2.227   1.038  3.3937 -0.9576 -0.6796
   87MPD2     N 1335   3.796   2.667   1.141 -0.0152 -0.1389  0.4209
   87MPD2    H5 1336   3.728   2.665   1.066  0.0163 -2.4566  0.4275
   87MPD2    N1 1337   4.059   2.338   1.409 -0.0706 -0.5976  0.4215
   87MPD2    H7 1338   4.117   2.255   1.399  1.6058  0.4849  1.2710
   88TCq2    C1 1339   4.095   2.420   1.522 -0.7809  0.9046 -0.4024
   88TCq2    O2 1340   4.032   2.503   1.576  0.1103  0.4825 -0.1500
   88TCq2    C2 1341   4.228   2.391   1.575  0.1019  0.1414 -0.8030
   88TCq2    C3 1342   4.253   2.442   1.699 -0.2931 -0.7070 -0.4162
   88TCq2    C4 1343   4.384   2.443   1.739  1.0322 -0.0508  0.3717
   88TCq2    C5 1344   4.486   2.401   1.656  0.1206 -0.2204  0.6625
   88TCq2    C6 1345   4.448   2.348   1.532  0.3316 -0.2067 -0.1927
   88TCq2    C7 1346   4.322   2.341   1.491  1.0377 -0.2258  0.0186
   88TCq2    C8 1347   4.550   2.335   1.427  0.0567 -0.7051 -0.7480
   88TCq2    O4 1348   4.519   2.269   1.330 -0.3133  0.2164  0.5306
   88TCq2    C9 1349   4.417   2.484   1.873 -0.0645  0.2444 -0.1221
   88TCq2    O5 1350   4.542   2.497   1.912  0.7672 -0.1976  0.2680
   88TCq2    O6 1351   4.320   2.529   1.942 -0.7277 -0.3094 -0.5270
   88TCq2    H2 1352   4.173   2.474   1.765 -1.7322  0.0975 -2.5782
   88TCq2    H3 1353   4.590   2.399   1.684  0.0651 -0.5266  0.8447
   88TCq2    H4 1354   4.302   2.304   1.391  1.2059 -0.0612 -0.0755
   89MPD2     C 1355   4.590   1.431   2.457  0.4958  0.2529 -0.1785
   89MPD2    C1 1356   4.549   1.445   2.326  0.3122 -0.5145 -0.0564
   89MPD2    C2 1357   4.643   1.470   2.227 -0.3386  0.0174  0.2092
   89MPD2    C3 1358   0.059   1.494   2.252 -1.3055 -0.4919 -0.3664
   89MPD2    C4 1359   0.095   1.489   2.384 -0.4507  0.1550  0.2172
   89MPD2    C5 1360   0.004   1.449   2.479  0.1100  0.0181 -0.5773
   89MPD2     H 1361   4.603   1.483   2.127 -0.2966  2.0847  0.4639
   89MPD2    H1 1362   0.199   1.503   2.411 -0.7529  1.2262  0.8155
   89MPD2    H2 1363   4.527   1.405   2.542  0.1090 -2.5425 -1.3095
   89MPD2    H3 1364   0.038   1.451   2.582 -0.1605  2.2779 -0.5183
   89MPD2     N 1365   0.151   1.524   2.149  0.0878 -0.0807 -0.2397
   89MPD2    H5 1366   0.111   1.520   2.055  0.4859  0.6906 -0.4465
   89MPD2    N1 1367   4.413   1.429   2.291 -0.2379 -0.0134 -0.1880
   89MPD2    H7 1368   4.393   1.428   2.191 -0.6367  1.3390 -0.1139
   90TCq2    C1 1369   0.287   1.552   2.160 -0.8191  0.9565  0.1899
   90TCq2    O2 1370   0.353   1.554   2.259  0.1801 -0.6515 -0.4643
   90TCq2    C2 1371   0.352   1.561   2.032 -0.7573  0.4063  0.0882
   90TCq2    C3 1372   0.493   1.562   2.038 -0.0154 -0.3232  0.0744
   90TCq2    C4 1373   0.561   1.543   1.916 -0.0895 -0.3538  0.1399
   90TCq2    C5 1374   0.504   1.537   1.795 -0.3246  0.4144 -0.3006
   90TCq2    C6 1375   0.360   1.541   1.796 -0.6629 -0.4258 -0.0640
   90TCq2    C7 1376   0.286   1.558   1.911  0.4226 -0.4591  0.1104
   90TCq2    C8 1377   0.282   1.503   1.680 -0.2351 -0.5547 -0.3573
   90TCq2    O4 1378   0.165   1.483   1.699  0.3000 -0.5005 -0.3632
   90TCq2    C9 1379   0.696   1.498   1.934 -0.2047 -0.3705 -0.2618
   90TCq2    O5 1380   0.741   1.506   2.053 -0.0972  0.0186 -0.3947
   90TCq2    O6 1381   0.769   1.480   1.830  0.2060 -0.2645  0.4861
   90TCq2    H2 1382   0.542   1.555   2.135 -4.3724 -0.2774  2.2756
   90TCq2    H3 1383   0.566   1.514   1.709 -0.0427 -0.0853  0.0356
   90TCq2    H4 1384   0.178   1.549   1.914  0.4282 -0.1738  1.3090
   91TMC2    C1 1385   2.210   0.104  17.314 -1.0504  0.4822  0.1381
   91TMC2    C2 1386   2.226   0.234  17.290  0.0673  0.9035  0.0309
   91TMC2    C3 1387   2.119   0.325  17.304  0.1114 -0.4181 -0.0526
   91TMC2    C4 1388   2.089   0.056  17.346 -0.3260  0.3937 -0.1146
   91TMC2    C5 1389   1.986   0.150  17.351 -0.4378 -0.0937  0.1141
   91TMC2    C6 1390   1.994   0.284  17.336 -0.0596  0.4552 -0.1757
   91TMC2     C 1391   2.320   0.021  17.352 -1.0994  0.0347 -0.1484
   91TMC2     O 1392   2.296   4.657  17.436 -0.6638 -0.0894 -0.5637
   91TMC2     H 1393   2.322   0.279  17.268  0.1189 -0.5828 -2.7491
   91TMC2    H1 1394   2.067   4.670  17.362  2.4231 -0.3481 -1.1830
   91TMC2    H2 1395   1.905   0.345  17.345 -0.3849 -0.0964  0.3213
   91TMC2    C7 1396   1.856   0.097  17.353 -0.4332  0.1815 -0.2503
   91TMC2    C8 1397   2.134   0.468  17.279 -0.6726 -0.1193 -0.9857
   91TMC2    O1 1398   1.777   0.142  17.436 -0.6064  0.0391 -0.1945
   91TMC2    O2 1399   2.245   0.498  17.235 -0.0157  0.0164 -0.5502
   91TMC2    O5 1400   2.038   0.545  17.329 -0.2126 -0.1552 -0.4074
   91TMC2    H5 1401   1.989   0.499  17.401  0.1578 -0.4797 -0.3669
   92MPD2     C 1402   2.599   4.613  17.360 -0.6903  0.6688 -0.1037
   92MPD2    C1 1403   2.554   4.688  17.259 -0.3546  0.1367 -0.6179
   92MPD2    C2 1404   2.634   4.705  17.147 -0.6936  0.7710  0.2643
   92MPD2    C3 1405   2.759   4.647  17.144  0.1107 -1.4823 -0.5505
   92MPD2    C4 1406   2.813   4.588  17.262  0.1488 -0.3813  0.1637
   92MPD2    C5 1407   2.728   4.573  17.369 -0.4305 -0.5068  0.4071
   92MPD2     H 1408   2.595   0.041  17.063  1.6855 -1.0307 -2.0195
   92MPD2    H1 1409   2.914   4.549  17.265  1.4164  2.9209  0.1333
   92MPD2    H2 1410   2.544   4.593  17.451  1.4501  0.9124  1.2473
   92MPD2    H3 1411   2.769   4.521  17.454 -0.2461  0.2600  0.7891
   92MPD2     N 1412   2.836   4.662  17.031  0.8153 -0.0348 -0.0826
   92MPD2    H5 1413   2.808   0.014  16.964 -0.2521  0.6334  1.0756
   92MPD2    N1 1414   2.423   0.028  17.257 -0.7063  0.7020 -0.3761
   92MPD2    H7 1415   2.406   0.090  17.178 -0.9948 -1.2814 -1.8835
   93MPD2     C 1416   3.265   0.077  14.139 -0.2495 -0.4405  0.1340
   93MPD2    C1 1417   3.216   0.167  14.046  0.2631  0.1543 -0.1074
   93MPD2    C2 1418   3.082   0.191  14.032 -0.0199  0.0470 -0.4362
   93MPD2    C3 1419   2.993   0.139  14.131 -0.0571  0.4637  0.3219
   93MPD2    C4 1420   3.042   0.067  14.238  0.0492  0.6543  0.1414
   93MPD2    C5 1421   3.177   0.024  14.233 -1.0669 -0.3794  0.0187
   93MPD2     H 1422   3.050   0.253  13.949  0.5555  1.8955  0.7389
   93MPD2    H1 1423   2.974   0.017  14.306 -0.8670 -0.0775 -1.3438
   93MPD2    H2 1424   3.361   0.032  14.115  0.4229  0.3991  1.2680
   93MPD2    H3 1425   3.205   4.672  14.309 -0.4414 -0.3557 -0.1889
   93MPD2     N 1426   2.850   0.160  14.127  0.0194  0.4851 -0.5722
   93MPD2    H5 1427   2.798   0.129  14.208 -0.2055 -0.8501 -1.2202
   93MPD2    N1 1428   3.300   0.231  13.951  0.0729 -1.0384 -0.5952
   93MPD2    H7 1429   3.258   0.269  13.867 -2.7057 -2.1287  0.2943
   94TCq2    C1 1430   3.434   0.236  13.947 -0.1638  0.2446  0.6203
   94TCq2    O2 1431   3.519   0.206  14.035 -0.2168  0.2858  0.2630
   94TCq2    C2 1432   3.490   0.294  13.822  1.0284 -0.4494 -0.2797
   94TCq2    C3 1433   3.404   0.328  13.724 -0.0712 -0.0978 -0.5814
   94TCq2    C4 1434   3.466   0.387  13.617  0.7035 -0.3082 -0.2620
   94TCq2    C5 1435   3.598   0.425  13.620 -0.1996  0.1872 -0.2468
   94TCq2    C6 1436   3.678   0.369  13.717  0.2683  0.3632  0.1548
   94TCq2    C7 1437   3.627   0.297  13.813  0.3921  0.1059  0.4573
   94TCq2    C8 1438   3.813   0.335  13.675 -0.4336 -0.2808  0.0470
   94TCq2    O4 1439   3.895   0.305  13.763  0.1837  0.2952  0.2738
   94TCq2    C9 1440   3.392   0.420  13.495 -0.2928 -0.3186  0.6445
   94TCq2    O5 1441   3.453   0.482  13.407 -0.5717  0.2464  0.0967
   94TCq2    O6 1442   3.266   0.398  13.501 -0.0921  0.1445 -0.9939
   94TCq2    H2 1443   3.299   0.303  13.722 -0.0034 -0.3456 -1.0869
   94TCq2    H3 1444   3.631   0.500  13.548  1.8775  1.0605  1.6038
   94TCq2    H4 1445   3.693   0.242  13.879 -0.1606 -1.1103 -0.0058
   95TMC2    C1 1446   3.875   1.770  16.112 -0.3745 -0.0334  0.9230
   95TMC2    C2 1447   3.920   1.643  16.099  0.4252 -0.2481 -0.1731
   95TMC2    C3 1448   3.874   1.555  16.197  0.5578 -0.3208  0.0734
   95TMC2    C4 1449   3.798   1.818  16.213  1.1179 -0.0738 -0.3164
   95TMC2    C5 1450   3.769   1.730  16.319  0.3113 -0.1436 -0.6182
   95TMC2    C6 1451   3.814   1.598  16.312  0.5018  0.0241 -0.5335
   95TMC2     C 1452   3.917   1.863  16.009  0.3063 -0.5559 -0.2182
   95TMC2     O 1453   4.012   1.831  15.940  0.3737  0.2881 -0.0509
   95TMC2     H 1454   3.974   1.612  16.010  1.0895  2.7345 -0.7824
   95TMC2    H1 1455   3.780   1.924  16.224  2.3714  0.0612  0.4969
   95TMC2    H2 1456   3.778   1.524  16.383 -0.8095  1.1078 -0.0698
   95TMC2    C7 1457   3.713   1.781  16.443 -0.3901 -0.3430  0.1981
   95TMC2    C8 1458   3.905   1.414  16.194  0.9883 -0.2855 -0.4851
   95TMC2    O1 1459   3.710   1.708  16.543  0.4861  0.2400  0.3283
   95TMC2    O2 1460   3.886   1.339  16.290  0.3968 -0.2654  0.2752
   95TMC2    O5 1461   3.914   1.371  16.065  0.1727  0.6505  0.6384
   95TMC2    H5 1462   3.906   1.448  16.005 -0.4614 -0.9292 -1.3048
   96MPD2     C 1463   3.865   2.255  15.686 -0.0223  0.5735 -0.0546
   96MPD2    C1 1464   3.970   2.169  15.697 -0.9818 -0.2542 -0.3480
   96MPD2    C2 1465   3.968   2.073  15.798 -0.2952 -0.3057  0.4417
   96MPD2    C3 1466   3.853   2.069  15.882 -0.0237  0.9618  0.0590
   96MPD2    C4 1467   3.750   2.154  15.862 -0.6468  0.8992 -0.3343
   96MPD2    C5 1468   3.758   2.251  15.765  0.0520  0.0374 -0.4753
   96MPD2     H 1469   4.046   1.999  15.804  0.8704  0.8715 -0.1951
   96MPD2    H1 1470   3.659   2.166  15.920 -1.5236  1.6508 -1.8443
   96MPD2    H2 1471   3.867   2.335  15.612  0.1299  2.2874  1.8000
   96MPD2    H3 1472   3.670   2.314  15.755 -0.1813 -0.2216 -0.0216
   96MPD2     N 1473   3.834   1.968  15.984  0.4077 -0.9565  0.3912
   96MPD2    H5 1474   3.759   1.989  16.049  0.3590 -0.9526  0.3329
   96MPD2    N1 1475   4.074   2.183  15.605  0.0837  0.5647  0.4857
   96MPD2    H7 1476   4.061   2.244  15.525 -0.9133  1.1032  1.0542
   97MPD2     C 1477   1.269   0.680   1.182 -0.0218 -0.2223  0.4717
   97MPD2    C1 1478   1.341   0.568   1.226  0.2955  0.0721  0.2542
   97MPD2    C2 1479   1.384   0.474   1.135  0.5008  0.7251 -0.1674
   97MPD2    C3 1480   1.363   0.493   1.000  0.0103 -0.2676  0.1646
   97MPD2    C4 1481   1.283   0.597   0.956  0.0586 -0.8953  0.1927
   97MPD2    C5 1482   1.234   0.686   1.054  0.1045 -0.6456 -0.0379
   97MPD2     H 1483   1.433   0.381   1.163  0.0131  1.4476  3.1000
   97MPD2    H1 1484   1.243   0.602   0.856 -0.6427 -0.5041  0.4948
   97MPD2    H2 1485   1.214   0.748   1.246 -1.8331  0.1637 -1.4973
   97MPD2    H3 1486   1.160   0.761   1.028  0.9730 -0.1941 -1.1780
   97MPD2     N 1487   1.418   0.400   0.912 -0.3848  0.2900  0.4763
   97MPD2    H5 1488   1.432   0.310   0.955 -0.3189 -0.6933 -1.6223
   97MPD2    N1 1489   1.364   0.556   1.367 -0.3239  0.0759  0.3166
   97MPD2    H7 1490   1.326   0.630   1.426  2.2298  2.0814 -0.5470
   98TCq2    C1 1491   1.425   0.416   0.774 -0.0656  0.3150  0.1298
   98TCq2    O2 1492   1.417   0.517   0.705  0.3401 -0.3546  0.0354
   98TCq2    C2 1493   1.483   0.298   0.711 -0.0998  0.1552 -0.0261
   98TCq2    C3 1494   1.478   0.187   0.794 -0.6635  0.7547 -0.1157
   98TCq2    C4 1495   1.571   0.091   0.778 -0.5602  0.1737 -0.5260
   98TCq2    C5 1496   1.682   0.113   0.703 -0.1689 -0.1914  0.1697
   98TCq2    C6 1497   1.694   0.232   0.638  0.8136  0.7285  0.2394
   98TCq2    C7 1498   1.596   0.322   0.636 -0.3583 -0.5053 -0.0674
   98TCq2    C8 1499   1.826   0.270   0.585 -0.7487 -0.1853 -0.1928
   98TCq2    O4 1500   1.844   0.383   0.541  0.2657 -0.6536  0.2894
   98TCq2    C9 1501   1.557   4.693   0.859 -0.6741 -0.3802 -0.1267
   98TCq2    O5 1502   1.664   4.631   0.867  0.9470  0.3486  0.4743
   98TCq2    O6 1503   1.442   4.664   0.908 -0.0550  0.2756  0.2662
   98TCq2    H2 1504   1.393   0.164   0.857 -1.6493  4.3294 -0.1300
   98TCq2    H3 1505   1.761   0.040   0.714  0.3771  0.3682 -0.0006
   98TCq2    H4 1506   1.620   0.418   0.593 -0.1258 -1.1799 -1.4261
   99MPD2     C 1507   0.229   1.915   2.101  0.1685  0.0983  0.0404
   99MPD2    C1 1508   0.100   1.868   2.085 -0.2308  0.2113  0.3309
   99MPD2    C2 1509   0.052   1.830   1.961  0.6201  0.0526 -0.0413
   99MPD2    C3 1510   0.136   1.823   1.855 -0.2171 -0.4713  0.4650
   99MPD2    C4 1511   0.263   1.871   1.869 -0.7569  0.2321 -0.3091
   99MPD2    C5 1512   0.312   1.903   1.995  0.5954 -0.0573 -0.3834
   99MPD2     H 1513   4.667   1.805   1.952  1.3368 -2.9034 -0.1338
   99MPD2    H1 1514   0.329   1.871   1.783  0.0051 -0.5794  0.2835
   99MPD2    H2 1515   0.272   1.950   2.194  4.2793  2.3188 -2.6955
   99MPD2    H3 1516   0.413   1.940   2.011  0.2570  1.2118 -1.2207
   99MPD2     N 1517   0.072   1.797   1.729 -0.4307  0.3386 -0.4451
   99MPD2    H5 1518   4.693   1.773   1.738 -0.5683  0.6689 -1.0982
   99MPD2    N1 1519   0.009   1.848   2.200  0.5296  0.1859 -0.5553
   99MPD2    H7 1520   4.635   1.819   2.172  0.3798  1.2074 -1.1031
  100TCq2    C1 1521   0.052   1.851   2.333 -0.1988 -0.0312  0.3222
  100TCq2    O2 1522   0.159   1.882   2.379 -0.3529 -0.3542  0.8194
  100TCq2    C2 1523   4.669   1.817   2.434 -0.9189 -0.3282 -0.0881
  100TCq2    C3 1524   4.713   1.787   2.559  0.9373  0.6024  0.0861
  100TCq2    C4 1525   4.620   1.741   2.649 -0.4260 -0.1556 -0.6907
  100TCq2    C5 1526   4.481   1.720   2.624 -0.4979 -0.1656  1.3688
  100TCq2    C6 1527   4.440   1.758   2.496  0.5077 -0.3976 -0.4279
  100TCq2    C7 1528   4.535   1.803   2.399  0.7730  0.2570  0.0885
  100TCq2    C8 1529   4.300   1.763   2.472  0.3202 -0.4034 -0.3884
  100TCq2    O4 1530   4.235   1.786   2.576  0.2889 -0.3201 -0.2534
  100TCq2    C9 1531   4.662   1.707   2.787 -0.0174 -0.0744  0.7026
  100TCq2    O5 1532   4.570   1.668   2.871 -0.2423  0.2785  0.3543
  100TCq2    O6 1533   0.053   1.755   2.823 -0.5364  0.2436  0.4975
  100TCq2    H2 1534   0.095   1.800   2.593  1.4942 -1.2541 -0.8820
  100TCq2    H3 1535   4.410   1.686   2.698 -1.3442  0.0433  0.6404
  100TCq2    H4 1536   4.494   1.846   2.308  0.0640 -0.5977 -0.0006
  101MPD2     C 1537   0.645   2.735  12.892  0.7538 -0.8878  0.0728
  101MPD2    C1 1538   0.585   2.795  13.000 -0.9740  0.1264  0.2328
  101MPD2    C2 1539   0.567   2.727  13.117  0.0381 -0.4342  0.6757
  101MPD2    C3 1540   0.593   2.588  13.123 -0.2667  0.2293  0.1640
  101MPD2    C4 1541   0.659   2.529  13.019  0.0416 -0.5261  0.0904
  101MPD2    C5 1542   0.679   2.601  12.904 -0.8176 -0.6147 -0.0376
  101MPD2     H 1543   0.519   2.771  13.203  1.3894 -0.4260  1.4287
  101MPD2    H1 1544   0.698   2.428  13.023 -0.1080 -0.5705  0.3927
  101MPD2    H2 1545   0.650   2.786  12.796  1.1872 -2.7142 -0.8672
  101MPD2    H3 1546   0.735   2.559  12.822 -0.7148 -0.1537 -0.2083
  101MPD2     N 1547   0.563   2.525  13.243  0.9307  0.2408 -0.2831
  101MPD2    H5 1548   0.517   2.574  13.318  1.6742  1.1433 -0.4120
  101MPD2    N1 1549   0.577   2.937  12.999 -0.0422  0.4176 -0.9639
  101MPD2    H7 1550   0.597   2.968  12.904  0.1526  1.7213 -0.4957
  102TCq2    C1 1551   0.794   3.402  12.904 -1.4627 -0.3927  0.1249
  102TCq2    O2 1552   0.787   3.520  12.870 -0.0292  0.1568  0.3984
  102TCq2    C2 1553   0.661   3.347  12.956 -0.3268  0.2802 -0.5865
  102TCq2    C3 1554   0.571   3.444  13.001  0.6004  0.1834 -0.6489
  102TCq2    C4 1555   0.481   3.390  13.083  0.5481 -0.3751 -0.4470
  102TCq2    C5 1556   0.469   3.257  13.115 -0.1138  0.0448 -0.5521
  102TCq2    C6 1557   0.551   3.171  13.055 -1.0163  0.0418 -0.2476
  102TCq2    C7 1558   0.653   3.210  12.971 -0.4428 -0.3336 -0.5109
  102TCq2    C8 1559   0.551   3.032  13.099 -0.4627 -0.0419  0.2264
  102TCq2    O4 1560   0.519   3.001  13.217 -0.1115  0.3875  0.7412
  102TCq2    C9 1561   0.386   3.477  13.135  0.1183  0.8719  0.9735
  102TCq2    O5 1562   0.283   3.427  13.187 -0.3953  0.1216 -0.3451
  102TCq2    O6 1563   0.394   3.595  13.085  0.1045  0.0963  0.3743
  102TCq2    H2 1564   0.566   3.546  12.966  1.2053 -0.2202 -1.9186
  102TCq2    H3 1565   0.391   3.225  13.184  0.6430  1.3886  0.9176
  102TCq2    H4 1566   0.733   3.142  12.945 -0.3682  0.8984 -3.5456
  103TMC2    C1 1567   3.660   3.432  12.548 -0.8014  0.5315  0.6673
  103TMC2    C2 1568   3.767   3.508  12.515  0.0093  0.6231 -0.3030
  103TMC2    C3 1569   3.849   3.554  12.616 -0.8229 -0.1640 -0.6942
  103TMC2    C4 1570   3.633   3.413  12.678 -0.0486  0.1299  0.7695
  103TMC2    C5 1571   3.713   3.456  12.782  0.1407  0.4322 -0.0118
  103TMC2    C6 1572   3.827   3.526  12.749 -0.1199 -0.5631  0.0829
  103TMC2     C 1573   3.580   3.366  12.442 -0.3328 -0.7369 -0.5163
  103TMC2     O 1574   3.577   3.425  12.332  0.5329 -0.1741 -0.1797
  103TMC2     H 1575   3.806   3.506  12.414 -2.3562  1.1119 -1.2310
  103TMC2    H1 1576   3.550   3.349  12.706 -0.2773  0.5258  1.0059
  103TMC2    H2 1577   3.896   3.556  12.827 -0.5501 -1.9584  1.0013
  103TMC2    C7 1578   3.674   3.453  12.926 -0.5921  0.0653  0.1277
  103TMC2    C8 1579   3.992   3.555  12.594 -0.2013  0.0611 -0.4014
  103TMC2    O1 1580   3.763   3.471  13.008  0.2075  0.2967 -0.6276
  103TMC2    O2 1581   4.044   3.478  12.514 -0.7125 -0.1515  0.0130
  103TMC2    O5 1582   4.046   3.649  12.669 -0.0006  0.2128  0.2612
  103TMC2    H5 1583   3.972   3.692  12.717 -0.7490 -1.2352  0.4124
  104MPD2     C 1584   3.450   3.016  12.443 -0.1306 -0.1228 -0.3140
  104MPD2    C1 1585   3.483   3.141  12.395  0.1966 -0.6228 -0.1806
  104MPD2    C2 1586   3.424   3.174  12.272  0.3308  0.2479 -0.1972
  104MPD2    C3 1587   3.337   3.091  12.207 -0.1362 -0.5585  0.8795
  104MPD2    C4 1588   3.308   2.967  12.260 -0.6996 -1.1193  0.0408
  104MPD2    C5 1589   3.355   2.930  12.383  0.7596  0.5465  0.2128
  104MPD2     H 1590   3.451   3.263  12.215  1.2262  1.3746  1.9854
  104MPD2    H1 1591   3.236   2.902  12.212 -0.4268 -1.6708  0.3855
  104MPD2    H2 1592   3.488   2.978  12.537 -1.9798 -0.9904  0.0864
  104MPD2    H3 1593   3.321   2.837  12.426 -0.9267 -0.1138 -2.6279
  104MPD2     N 1594   3.280   3.137  12.087 -0.3880 -0.0389  0.0101
  104MPD2    H5 1595   3.302   3.232  12.061  0.9193 -0.6154 -0.9335
  104MPD2    N1 1596   3.551   3.236  12.472  0.2197 -0.7276  0.3306
  104MPD2    H7 1597   3.581   3.197  12.561  1.9154 -1.4384 -0.5498
  105MPD2     C 1598   0.813   1.967   0.243 -0.1394  0.4229 -0.1389
  105MPD2    C1 1599   0.678   1.973   0.211 -0.6810  0.4733 -0.3873
  105MPD2    C2 1600   0.589   1.972   0.318 -0.2785 -0.1973  0.2274
  105MPD2    C3 1601   0.631   1.958   0.450  0.1981  0.1921 -0.5211
  105MPD2    C4 1602   0.766   1.952   0.484  0.7226  0.4816 -0.4592
  105MPD2    C5 1603   0.858   1.969   0.381  0.1446 -0.4089  0.4754
  105MPD2     H 1604   0.482   1.982   0.306 -0.3027  1.8810  2.0847
  105MPD2    H1 1605   0.799   1.933   0.585 -0.9528 -4.0421 -0.7697
  105MPD2    H2 1606   0.887   1.969   0.164 -0.1619  0.4998 -0.1587
  105MPD2    H3 1607   0.964   1.953   0.398  0.8450  1.6940 -1.9071
  105MPD2     N 1608   0.527   1.969   0.547  0.0462  0.9204 -0.0543
  105MPD2    H5 1609   0.431   1.955   0.518  0.5044 -2.6834  0.1116
  105MPD2    N1 1610   0.628   1.997   0.076 -0.0880  0.3571  0.6779
  105MPD2    H7 1611   0.533   2.035   0.076 -0.2691 -0.0882  1.9888
  106TCq2    C1 1612   0.548   2.018   0.673 -0.4775 -0.0051 -0.0428
  106TCq2    O2 1613   0.652   2.055   0.721 -0.3542 -0.0932 -0.0173
  106TCq2    C2 1614   0.415   2.019   0.740  0.1203 -0.5760 -0.5451
  106TCq2    C3 1615   0.304   1.971   0.681 -0.2861 -0.7604 -0.2855
  106TCq2    C4 1616   0.185   2.021   0.730 -0.3716 -0.3348 -0.2717
  106TCq2    C5 1617   0.178   2.110   0.836 -0.1242  0.3615  0.1389
  106TCq2    C6 1618   0.295   2.139   0.900  0.1788  0.6052 -0.3985
  106TCq2    C7 1619   0.409   2.105   0.846  0.5164  0.0763 -0.2284
  106TCq2    C8 1620   0.308   2.250   0.986  0.5887 -0.1943 -0.8941
  106TCq2    O4 1621   0.400   2.328   0.962 -0.0105  0.1763 -0.1458
  106TCq2    C9 1622   0.060   1.982   0.672  0.2457  0.5219 -0.0264
  106TCq2    O5 1623   0.066   1.898   0.577 -0.4883 -0.2736 -0.3981
  106TCq2    O6 1624   4.673   2.048   0.708 -0.3931  0.3886  0.0465
  106TCq2    H2 1625   0.308   1.900   0.599 -1.5324 -3.5535  2.0833
  106TCq2    H3 1626   0.081   2.140   0.874 -0.0405 -0.4037  0.9810
  106TCq2    H4 1627   0.501   2.150   0.885  0.1527 -0.4828  1.2720
  107TMC2    C1 1628   0.517   1.643  11.337 -0.0073 -0.5471 -0.7333
  107TMC2    C2 1629   0.593   1.755  11.328 -0.3623 -0.6079  0.3902
  107TMC2    C3 1630   0.633   1.807  11.207  0.2506 -1.3669  0.2245
  107TMC2    C4 1631   0.468   1.586  11.232  0.2296  0.1729 -0.2751
  107TMC2    C5 1632   0.507   1.632  11.109 -0.0171 -0.3343  0.1926
  107TMC2    C6 1633   0.590   1.741  11.093 -0.1528 -0.6806 -0.3811
  107TMC2     C 1634   0.455   1.617  11.470  0.5640 -0.3805  0.1421
  107TMC2     O 1635   0.434   1.711  11.546  0.1178  0.2845  0.6959
  107TMC2     H 1636   0.590   1.814  11.419  1.2383  1.0515 -0.6292
  107TMC2    H1 1637   0.402   1.502  11.249 -1.3675  1.4212 -0.3500
  107TMC2    H2 1638   0.626   1.771  10.995  0.1086  0.3448  0.0361
  107TMC2    C7 1639   0.480   1.563  10.989 -0.7573 -0.5512  0.1876
  107TMC2    C8 1640   0.707   1.933  11.200 -0.5317  0.4189  0.2934
  107TMC2    O1 1641   0.499   1.621  10.885  0.0527  0.0105 -0.1516
  107TMC2    O2 1642   0.783   1.964  11.292 -0.3603  0.3008 -0.0098
  107TMC2    O5 1643   0.702   1.981  11.078  0.4958  0.5035 -0.0920
  107TMC2    H5 1644   0.612   1.958  11.046  0.8540  2.5508 -2.6222
  108MPD2     C 1645   0.451   1.287  11.619  0.0336  0.9958 -0.1306
  108MPD2    C1 1646   0.420   1.418  11.615 -0.2742 -0.2505  0.0364
  108MPD2    C2 1647   0.377   1.484  11.730 -0.1176 -0.2313 -0.7584
  108MPD2    C3 1648   0.364   1.419  11.851 -0.0366  0.2355  0.3525
  108MPD2    C4 1649   0.395   1.289  11.854  0.2185 -0.1463  0.0536
  108MPD2    C5 1650   0.427   1.221  11.738  0.5689  0.0673 -0.3085
  108MPD2     H 1651   0.354   1.589  11.721 -0.0217 -0.2702 -1.4731
  108MPD2    H1 1652   0.393   1.223  11.940  0.4501  0.0259  0.1906
  108MPD2    H2 1653   0.508   1.240  11.540  0.5620  0.7706  0.3812
  108MPD2    H3 1654   0.446   1.115  11.744 -0.1294 -0.1272 -1.6881
  108MPD2     N 1655   0.306   1.482  11.970 -0.3449 -0.3484  0.5046
  108MPD2    H5 1656   0.294   1.421  12.050  0.1839  0.6474  1.3433
  108MPD2    N1 1657   0.449   1.485  11.494  0.2175  0.2072 -0.2611
  108MPD2    H7 1658   0.489   1.425  11.422 -1.8229 -0.6242 -0.6795
  109MPD2     C 1659   1.478   3.443   1.839 -0.1040 -0.0177 -0.2867
  109MPD2    C1 1660   1.426   3.471   1.962  0.5737 -0.2063 -0.3813
  109MPD2    C2 1661   1.359   3.592   1.978 -0.1323  0.0670  0.1446
  109MPD2    C3 1662   1.342   3.679   1.876 -0.1201 -0.9156 -0.1672
  109MPD2    C4 1663   1.369   3.637   1.752 -0.3138  0.5055 -0.0196
  109MPD2    C5 1664   1.443   3.521   1.734  0.2421  0.5415 -0.3492
  109MPD2     H 1665   1.334   3.623   2.079  1.8752  1.6218  0.1659
  109MPD2    H1 1666   1.358   3.702   1.666  1.3481  1.2757  0.3458
  109MPD2    H2 1667   1.536   3.354   1.819  1.1858  0.9951 -1.0768
  109MPD2    H3 1668   1.468   3.495   1.631  0.9353 -0.4384  0.0614
  109MPD2     N 1669   1.299   3.807   1.902  0.1413 -0.0162 -0.4640
  109MPD2    H5 1670   1.267   3.832   1.995  1.6571  0.6553 -0.1235
  109MPD2    N1 1671   1.434   3.370   2.065  0.1739 -0.4600 -0.0588
  109MPD2    H7 1672   1.480   3.282   2.043 -1.3487 -1.1652 -0.4832
  110TCq2    C1 1673   1.304   3.913   1.820  0.6074  0.7745 -0.0398
  110TCq2    O2 1674   1.372   3.931   1.726  0.3886  0.7218  0.9848
  110TCq2    C2 1675   1.244   4.027   1.880 -0.4512  0.5452 -0.5102
  110TCq2    C3 1676   1.155   4.000   1.978  0.0749  0.7421 -0.1845
  110TCq2    C4 1677   1.123   4.093   2.070  0.3917  0.6704  0.2008
  110TCq2    C5 1678   1.188   4.206   2.065 -0.1213 -0.0192 -0.1483
  110TCq2    C6 1679   1.275   4.240   1.965 -0.4595  0.4480  0.5969
  110TCq2    C7 1680   1.313   4.142   1.872  0.7514 -0.4406  0.7938
  110TCq2    C8 1681   1.337   4.374   1.951  0.4889  0.6005 -0.3287
  110TCq2    O4 1682   1.284   4.464   2.010 -0.7726 -0.6704 -0.0271
  110TCq2    C9 1683   1.030   4.076   2.174 -0.3368 -0.1326 -0.7113
  110TCq2    O5 1684   0.975   3.966   2.179  0.0029 -0.1555  0.1303
  110TCq2    O6 1685   0.992   4.179   2.234 -0.7669  0.6544  0.2030
  110TCq2    H2 1686   1.089   3.914   1.972  1.4862 -0.5306  2.3482
  110TCq2    H3 1687   1.157   4.290   2.127  0.3333  0.2914 -0.3398
  110TCq2    H4 1688   1.381   4.166   1.791  1.5628 -1.4626  1.1672
  111TMC2    C1 1689   0.306   3.903  11.585  0.1984  0.7122  0.1019
  111TMC2    C2 1690   0.194   3.881  11.657 -0.4732  0.3979  0.2158
  111TMC2    C3 1691   0.202   3.904  11.788  0.0521 -0.2641  0.8867
  111TMC2    C4 1692   0.426   3.952  11.631  0.5282  0.6863 -0.8869
  111TMC2    C5 1693   0.427   3.959  11.773 -0.3066  0.2489  0.0533
  111TMC2    C6 1694   0.317   3.945  11.853  0.3624 -0.4376 -0.3541
  111TMC2     C 1695   0.323   3.843  11.459  0.6607  0.1358  0.0900
  111TMC2     O 1696   0.422   3.872  11.394 -0.7888  0.4902 -0.4524
  111TMC2     H 1697   0.099   3.851  11.614 -1.2459  0.0162  2.2004
  111TMC2    H1 1698   0.516   3.941  11.572  1.0011  1.9010 -0.3912
  111TMC2    H2 1699   0.324   3.964  11.959  0.9558 -0.0696 -0.4581
  111TMC2    C7 1700   0.560   3.948  11.837  0.6599  0.0058 -0.1959
  111TMC2    C8 1701   0.074   3.923  11.852 -0.0084  0.6095  0.7387
  111TMC2    O1 1702   0.571   3.878  11.937  0.1196 -0.2322 -0.3099
  111TMC2    O2 1703   4.691   3.865  11.828 -0.3483 -0.3242 -0.5448
  111TMC2    O5 1704   0.095   4.019  11.945  0.5473  0.4001  0.2100
  111TMC2    H5 1705   0.169   4.078  11.920 -0.1439  0.1022 -2.5568
  112MPD2     C 1706   0.234   3.426  11.168 -0.1627  0.0573  0.5310
  112MPD2    C1 1707   0.322   3.527  11.146  0.6251 -0.3869  1.0345
  112MPD2    C2 1708   0.330   3.632  11.240 -0.5752  0.3479  0.6370
  112MPD2    C3 1709   0.239   3.635  11.346  0.5414 -0.2348  0.7329
  112MPD2    C4 1710   0.152   3.527  11.366 -0.2959 -0.2370 -0.0328
  112MPD2    C5 1711   0.155   3.423  11.280  0.0162  0.0497 -0.3332
  112MPD2     H 1712   0.404   3.709  11.226  0.0159 -0.1035  1.2636
  112MPD2    H1 1713   0.088   3.531  11.454  0.8698  2.1091  0.7211
  112MPD2    H2 1714   0.213   3.344  11.101 -1.9563  1.0754 -0.1759
  112MPD2    H3 1715   0.085   3.341  11.292  3.7866 -3.1603 -0.3842
  112MPD2     N 1716   0.235   3.738  11.444  0.1194 -0.9726  0.1893
  112MPD2    H5 1717   0.185   3.726  11.531 -2.2116  0.3639 -0.9712
  112MPD2    N1 1718   0.407   3.532  11.034 -0.2040  0.2299 -1.0896
  112MPD2    H7 1719   0.473   3.610  11.036 -2.4699  2.1222 -0.1421
  113MPD2     C 1720   3.943   1.685   0.972 -0.2137  0.2059  0.0037
  113MPD2    C1 1721   3.840   1.682   1.070  0.8262  0.1893  0.0449
  113MPD2    C2 1722   3.720   1.615   1.035 -0.1714  0.0884  0.3294
  113MPD2    C3 1723   3.709   1.560   0.904 -0.1865 -0.0475 -0.3962
  113MPD2    C4 1724   3.813   1.564   0.817  0.4465 -1.2179 -0.3961
  113MPD2    C5 1725   3.928   1.623   0.849 -0.1742 -0.0987  0.6266
  113MPD2     H 1726   3.630   1.620   1.096  0.3687 -1.6586  1.2804
  113MPD2    H1 1727   3.796   1.516   0.721  1.3939 -0.1520 -1.0953
  113MPD2    H2 1728   4.038   1.738   0.980  2.3078 -4.2876 -0.2326
  113MPD2    H3 1729   4.008   1.619   0.775 -0.4824  0.4301  0.2637
  113MPD2     N 1730   3.586   1.501   0.862 -0.4743  0.0477 -0.3196
  113MPD2    H5 1731   3.590   1.455   0.771  0.1126  2.3394 -1.4709
  113MPD2    N1 1732   3.849   1.735   1.200  0.3422 -0.6054 -0.0971
  113MPD2    H7 1733   3.766   1.731   1.258 -0.3727 -2.6379 -1.2837
  114TCq2    C1 1734   3.484   1.463   0.946 -0.0064  0.6514  0.9114
  114TCq2    O2 1735   3.472   1.479   1.063 -0.2205  0.7384 -0.4011
  114TCq2    C2 1736   3.390   1.378   0.876  0.5581  0.1493  0.7686
  114TCq2    C3 1737   3.361   1.406   0.744 -0.6137 -0.2266  0.2944
  114TCq2    C4 1738   3.326   1.298   0.667  0.6487  0.3871 -0.1224
  114TCq2    C5 1739   3.297   1.176   0.724 -0.1902 -0.0212  0.0713
  114TCq2    C6 1740   3.316   1.163   0.863 -0.1144 -0.1597  0.6978
  114TCq2    C7 1741   3.357   1.265   0.941 -0.2483  0.1496 -0.0885
  114TCq2    C8 1742   3.272   1.041   0.929 -0.4539 -0.4512 -0.0035
  114TCq2    O4 1743   3.252   1.047   1.046  0.0428  0.2403  0.2788
  114TCq2    C9 1744   3.288   1.314   0.523  0.6949  0.5421  0.2124
  114TCq2    O5 1745   3.337   1.228   0.445  0.1884 -0.6090 -0.1927
  114TCq2    O6 1746   3.276   1.432   0.488  0.3596  0.4485  0.1513
  114TCq2    H2 1747   3.383   1.503   0.702 -0.3052  0.5435  2.2648
  114TCq2    H3 1748   3.246   1.105   0.661 -0.8852  1.7391 -1.3366
  114TCq2    H4 1749   3.368   1.256   1.048 -0.8554 -2.9997 -0.2878
  115TMC2    C1 1750   4.326   4.373   0.159 -0.6938 -0.2666 -0.4664
  115TMC2    C2 1751   4.344   4.348   0.292 -0.1796 -0.1296 -0.2935
  115TMC2    C3 1752   4.406   4.450   0.358 -0.1191 -0.4457 -1.0316
  115TMC2    C4 1753   4.359   4.485   0.088 -0.0257 -0.0933 -0.1772
  115TMC2    C5 1754   4.426   4.579   0.156  0.4162 -0.3698 -0.2923
  115TMC2    C6 1755   4.451   4.562   0.291 -0.4559  0.5706  0.1451
  115TMC2     C 1756   4.259   4.279   0.082 -0.3373 -0.2508  0.9695
  115TMC2     O 1757   4.266   4.282  17.641  0.3847  0.3216  0.0774
  115TMC2     H 1758   4.346   4.248   0.334  2.1622 -0.8096 -2.0599
  115TMC2    H1 1759   4.320   4.501  17.669  0.8427 -1.5771 -0.7588
  115TMC2    H2 1760   4.502   4.640   0.347  1.6329 -0.5878 -0.1094
  115TMC2    C7 1761   4.424   0.001   0.113 -0.0826 -0.4453 -0.2358
  115TMC2    C8 1762   4.437   4.439   0.496  0.9722 -0.0014 -0.6785
  115TMC2    O1 1763   4.444   0.082   0.204 -0.3634 -0.2559  0.3837
  115TMC2    O2 1764   4.510   4.518   0.553  0.4167  0.0510  0.2032
  115TMC2    O5 1765   4.331   4.384   0.556 -0.2352 -0.1230 -0.1982
  115TMC2    H5 1766   4.279   4.326   0.496 -0.2780 -1.9996  1.6629
  116MPD2     C 1767   4.032   3.831   0.004  0.0254 -0.3620  0.0979
  116MPD2    C1 1768   4.144   3.881  17.617  0.0855  0.3115  0.3362
  116MPD2    C2 1769   4.194   3.998  17.670  0.3319 -0.0116  0.7755
  116MPD2    C3 1770   4.145   4.062   0.105  0.0200  0.0219  0.0278
  116MPD2    C4 1771   4.043   3.999   0.170  0.4287 -0.1299 -0.1433
  116MPD2    C5 1772   3.985   3.890   0.119 -0.1535 -0.1223  0.8111
  116MPD2     H 1773   4.283   4.034  17.620  1.6873 -2.8229  1.1710
  116MPD2    H1 1774   4.016   4.046   0.263 -1.7538 -1.8311  0.1004
  116MPD2    H2 1775   3.985   3.743  17.642 -1.0369  1.0464 -1.6354
  116MPD2    H3 1776   3.895   3.839   0.153 -0.9123 -0.5546 -1.8309
  116MPD2     N 1777   4.184   4.191   0.152  0.0509 -0.3060  0.5232
  116MPD2    H5 1778   4.157   4.214   0.248  2.1229  0.5284  0.8983
  116MPD2    N1 1779   4.188   3.817  17.497 -0.2253 -0.8180  0.0163
  116MPD2    H7 1780   4.154   3.724  17.474  2.4659 -1.5695 -0.9176
  117TMC2    C1 1781   2.946   0.669  14.330 -0.4672 -0.1935 -0.0138
  117TMC2    C2 1782   3.018   0.557  14.309  0.0842  0.8912  0.3031
  117TMC2    C3 1783   3.154   0.555  14.341 -0.2956  0.3664 -0.2844
  117TMC2    C4 1784   2.998   0.787  14.383 -0.1376 -0.3112 -0.5209
  117TMC2    C5 1785   3.130   0.778  14.414 -0.2100 -0.6199  0.0275
  117TMC2    C6 1786   3.206   0.668  14.393  0.0285 -0.7604 -0.1687
  117TMC2     C 1787   2.814   0.665  14.269  0.0226 -0.6104 -0.0366
  117TMC2     O 1788   2.762   0.565  14.223  0.1679 -0.0839  0.5199
  117TMC2     H 1789   2.983   0.472  14.251 -2.9072  2.4926 -0.1808
  117TMC2    H1 1790   2.933   0.872  14.398 -1.2423 -1.1643 -0.4804
  117TMC2    H2 1791   3.312   0.691  14.390  0.4743 -2.7851  0.1712
  117TMC2    C7 1792   3.189   0.909  14.458 -0.4362 -0.1538 -0.2689
  117TMC2    C8 1793   3.237   0.481  14.256  0.2930  0.2713  0.4335
  117TMC2    O1 1794   3.123   1.010  14.454 -0.2059 -0.1497 -0.0387
  117TMC2    O2 1795   3.360   0.485  14.280  0.1988 -0.2418 -0.3926
  117TMC2    O5 1796   3.168   0.475  14.135  0.4105 -1.1781  0.1161
  117TMC2    H5 1797   3.218   0.495  14.053  1.4526 -0.9784  0.7993
  118MPD2     C 1798   3.537   0.977  14.569  0.1297 -0.9005  0.2681
  118MPD2    C1 1799   3.416   1.007  14.513  0.0873 -0.4307  0.7211
  118MPD2    C2 1800   3.392   1.136  14.475  0.3078 -0.2772 -0.5140
  118MPD2    C3 1801   3.485   1.236  14.502  0.5276 -0.7416 -0.4250
  118MPD2    C4 1802   3.603   1.200  14.564 -0.3918  0.1161 -0.5019
  118MPD2    C5 1803   3.625   1.071  14.607 -0.4924 -0.0722 -0.1679
  118MPD2     H 1804   3.311   1.150  14.404 -0.3887  1.6560  0.6602
  118MPD2    H1 1805   3.677   1.278  14.573  1.4606 -1.6174 -0.8683
  118MPD2    H2 1806   3.548   0.877  14.611  1.4024 -0.9385 -0.1352
  118MPD2    H3 1807   3.718   1.035  14.650 -0.4269  0.5150  0.1786
  118MPD2     N 1808   3.467   1.371  14.474  0.2661  0.5307 -0.1389
  118MPD2    H5 1809   3.538   1.433  14.511  0.9611  0.7267 -1.7851
  118MPD2    N1 1810   3.330   0.898  14.488 -0.1051  0.4203  0.0044
  118MPD2    H7 1811   3.384   0.813  14.499  2.3104  2.1842  1.6894
  119MPD2     C 1812   1.883   2.267  14.219  0.7907 -0.5083  0.4009
  119MPD2    C1 1813   1.749   2.289  14.247 -0.2360  0.4293 -0.5466
  119MPD2    C2 1814   1.661   2.335  14.146 -0.1038  0.0328 -0.7247
  119MPD2    C3 1815   1.712   2.361  14.020  0.2768  0.1983 -0.2510
  119MPD2    C4 1816   1.845   2.346  13.990  0.2961 -0.0250  0.1066
  119MPD2    C5 1817   1.928   2.289  14.091  0.2179  0.3471 -0.5561
  119MPD2     H 1818   1.561   2.370  14.170 -1.7901 -2.2261 -4.3545
  119MPD2    H1 1819   1.890   2.354  13.892 -0.4786  0.4287 -0.2119
  119MPD2    H2 1820   1.958   2.241  14.293  4.5707 -0.9161 -3.5067
  119MPD2    H3 1821   2.031   2.262  14.070  0.1483 -1.6373  1.7485
  119MPD2     N 1822   1.620   2.400  13.922  0.2299  0.1575  1.0943
  119MPD2    H5 1823   1.655   2.404  13.827 -0.3231  1.7321  0.9599
  119MPD2    N1 1824   1.709   2.275  14.379 -0.3910 -0.3684  0.1381
  119MPD2    H7 1825   1.777   2.278  14.455  0.6755 -0.5873 -0.8084
  120TCq2    C1 1826   1.481   2.386  13.934  0.4212 -0.8159 -0.2093
  120TCq2    O2 1827   1.404   2.341  14.018 -0.2128 -0.3283 -0.5441
  120TCq2    C2 1828   1.422   2.413  13.803 -0.2124  0.0796 -0.0909
  120TCq2    C3 1829   1.498   2.483  13.707 -0.4339 -0.4109  0.5732
  120TCq2    C4 1830   1.450   2.492  13.579 -0.2723 -0.1654  0.7953
  120TCq2    C5 1831   1.331   2.431  13.549 -0.1229  0.2308 -0.1834
  120TCq2    C6 1832   1.258   2.372  13.645 -0.6107 -0.3108 -0.1275
  120TCq2    C7 1833   1.300   2.352  13.776 -0.5191 -0.0303  0.4677
  120TCq2    C8 1834   1.141   2.284  13.604  0.2109  0.1878  0.3520
  120TCq2    O4 1835   1.086   2.302  13.496  0.0781 -0.1885  0.1510
  120TCq2    C9 1836   1.521   2.567  13.476  0.1514  0.0042  0.1289
  120TCq2    O5 1837   1.645   2.572  13.488 -0.1642  0.5049  0.2905
  120TCq2    O6 1838   1.457   2.589  13.365 -0.3066  0.2383 -0.0820
  120TCq2    H2 1839   1.586   2.543  13.725 -0.4459 -0.1558 -0.2580
  120TCq2    H3 1840   1.294   2.442  13.447  0.9422 -0.5989 -0.6610
  120TCq2    H4 1841   1.238   2.312  13.856 -0.2430 -0.2956  0.5491
  121TMC2    C1 1842   3.619   4.237  14.075  0.3108  0.4452  0.1278
  121TMC2    C2 1843   3.624   4.167  14.194 -0.1297  0.2244 -0.3322
  121TMC2    C3 1844   3.512   4.163  14.267 -0.0972 -0.5652 -0.2488
  121TMC2    C4 1845   3.501   4.288  14.029 -0.2963  0.0358 -0.4580
  121TMC2    C5 1846   3.391   4.288  14.108 -0.6502 -0.6336 -0.2721
  121TMC2    C6 1847   3.390   4.219  14.228 -0.0019 -0.4461  0.4612
  121TMC2     C 1848   3.748   4.254  14.014 -0.0864 -0.3717  1.1082
  121TMC2     O 1849   3.847   4.261  14.081 -0.5929  0.1167  0.2915
  121TMC2     H 1850   3.716   4.120  14.226 -0.3048 -1.1694 -1.9122
  121TMC2    H1 1851   3.514   4.355  13.944  0.0104  1.8308  1.0098
  121TMC2    H2 1852   3.293   4.209  14.277 -0.6824 -1.7974 -1.1472
  121TMC2    C7 1853   3.274   4.354  14.058  0.1093  1.0740 -0.7007
  121TMC2    C8 1854   3.496   4.066  14.375 -0.2012 -0.1854  0.0249
  121TMC2    O1 1855   3.309   4.426  13.962 -0.6031 -0.1687  0.2301
  121TMC2    O2 1856   3.389   4.015  14.390  0.7056  0.3678  0.2872
  121TMC2    O5 1857   3.614   4.013  14.408  0.1196  0.1745  0.2773
  121TMC2    H5 1858   3.688   4.076  14.397 -1.2262  1.7294  0.1294
  122MPD2     C 1859   3.957   4.304  13.815  0.6962 -0.0907  0.2359
  122MPD2    C1 1860   3.828   4.285  13.781 -0.1859 -0.8894 -0.1717
  122MPD2    C2 1861   3.789   4.282  13.649 -0.6672 -0.2106  0.3921
  122MPD2    C3 1862   3.883   4.296  13.552 -0.3739  0.2883  0.1426
  122MPD2    C4 1863   4.015   4.317  13.593  0.3024  0.1314  0.1918
  122MPD2    C5 1864   4.055   4.312  13.723  0.0137 -0.2605 -0.3758
  122MPD2     H 1865   3.683   4.281  13.629 -0.5495  1.0681 -0.3368
  122MPD2    H1 1866   4.097   4.320  13.522  0.1595 -0.8546 -0.0171
  122MPD2    H2 1867   3.997   4.309  13.916  4.0885  2.2058 -1.2054
  122MPD2    H3 1868   4.160   4.316  13.750  0.4827  0.9967 -2.4349
  122MPD2     N 1869   3.847   4.301  13.412 -0.3759  0.1199 -0.3924
  122MPD2    H5 1870   3.747   4.297  13.395 -0.5725  1.4745  0.4806
  122MPD2    N1 1871   3.727   4.257  13.876  0.4093  0.4490  0.7488
  122MPD2    H7 1872   3.633   4.237  13.843  0.7819 -2.1600  1.2689
  123MPD2     C 1873   0.192   2.332   8.984 -0.4232 -0.3562  0.0569
  123MPD2    C1 1874   0.308   2.298   9.051  0.1960 -0.0891 -0.1850
  123MPD2    C2 1875   0.411   2.386   9.075  0.3099 -0.1652 -0.7149
  123MPD2    C3 1876   0.399   2.519   9.026 -0.2970  0.2381  0.8316
  123MPD2    C4 1877   0.285   2.552   8.963  0.0493 -0.2496 -0.2038
  123MPD2    C5 1878   0.191   2.461   8.935  0.0062  0.4191 -0.1723
  123MPD2     H 1879   0.502   2.367   9.131  0.6938 -0.8465 -1.5660
  123MPD2    H1 1880   0.262   2.649   8.921  1.3570 -0.6141 -1.7734
  123MPD2    H2 1881   0.112   2.262   8.965 -1.0016  0.1777  0.5798
  123MPD2    H3 1882   0.104   2.496   8.880 -0.8571 -0.3627  0.6860
  123MPD2     N 1883   0.505   2.613   9.040 -0.7653  0.0980 -0.6981
  123MPD2    H5 1884   0.587   2.583   9.092 -1.0811 -0.2047 -0.3664
  123MPD2    N1 1885   0.299   2.181   9.130  0.5180 -0.1822  0.0070
  123MPD2    H7 1886   0.203   2.152   9.147  0.2181  1.3874  1.0425
  124TCq2    C1 1887   0.503   2.749   8.997 -0.1114  0.5946 -0.0401
  124TCq2    O2 1888   0.400   2.814   8.961  0.1738  0.0535  0.6069
  124TCq2    C2 1889   0.636   2.814   9.001  0.0155 -0.6754  0.4268
  124TCq2    C3 1890   0.629   2.951   8.986  0.2716 -0.3209  0.0279
  124TCq2    C4 1891   0.745   3.015   8.996  0.4196 -0.0033  0.1642
  124TCq2    C5 1892   0.861   2.952   9.034  0.2123  0.6537 -0.3327
  124TCq2    C6 1893   0.860   2.819   9.059  0.5219 -0.5181  0.4525
  124TCq2    C7 1894   0.749   2.746   9.048  0.1312 -0.1410 -0.4125
  124TCq2    C8 1895   0.961   2.769   9.147 -0.0223 -0.1813 -0.2480
  124TCq2    O4 1896   0.966   2.645   9.161 -0.2377  0.1582  0.3105
  124TCq2    C9 1897   0.753   3.152   8.979  0.2919  0.7171  0.2908
  124TCq2    O5 1898   0.856   3.212   9.008  0.7041 -0.3262 -0.1126
  124TCq2    O6 1899   0.639   3.199   8.953  0.3135 -0.0996 -0.3055
  124TCq2    H2 1900   0.537   3.000   8.956  1.9871  1.3891 -2.4354
  124TCq2    H3 1901   0.948   3.017   9.037 -1.1784  2.4518  1.1984
  124TCq2    H4 1902   0.757   2.640   9.069  2.4948  0.1278  0.0270
  125TMC2    C1 1903   2.181   3.833   9.653  0.6012  0.1321 -0.5032
  125TMC2    C2 1904   2.238   3.718   9.692  0.5462 -0.2035 -0.4008
  125TMC2    C3 1905   2.330   3.653   9.611 -0.0943 -0.2018 -0.9384
  125TMC2    C4 1906   2.219   3.889   9.533 -0.1331  0.3727 -0.1209
  125TMC2    C5 1907   2.305   3.824   9.455 -0.2375 -0.5811 -0.0092
  125TMC2    C6 1908   2.366   3.709   9.496 -0.4068  0.0106 -0.8140
  125TMC2     C 1909   2.069   3.887   9.733 -0.0062 -0.4632  0.1035
  125TMC2     O 1910   2.006   3.977   9.677 -0.8124 -0.0031 -0.0668
  125TMC2     H 1911   2.207   3.665   9.781  0.0072 -2.8820 -2.2009
  125TMC2    H1 1912   2.184   3.986   9.499  1.5915 -0.0856 -3.2480
  125TMC2    H2 1913   2.437   3.653   9.436  0.0498 -1.2848  0.9181
  125TMC2    C7 1914   2.340   3.893   9.329 -0.1270  0.2464  0.1216
  125TMC2    C8 1915   2.405   3.547   9.679 -0.7184  0.2221 -0.3192
  125TMC2    O1 1916   2.257   3.969   9.277 -0.0387 -0.3160  0.1464
  125TMC2    O2 1917   2.370   3.475   9.768  0.7467  0.2367 -0.0322
  125TMC2    O5 1918   2.535   3.558   9.637  0.1411 -0.4920  0.1627
  125TMC2    H5 1919   2.561   3.635   9.582 -0.5553 -0.5905 -0.3013
  126MPD1     C 1920   1.700   3.905  10.078 -0.2765  0.9470 -0.4460
  126MPD1    C1 1921   1.785   3.801  10.112  0.4006 -0.4355  0.2301
  126MPD1    C2 1922   1.888   3.777  10.029  0.6560 -1.0610 -0.0989
  126MPD1    C3 1923   1.932   3.867   9.929 -0.3620 -0.3500  0.0091
  126MPD1    C4 1924   1.840   3.974   9.906 -1.2302  0.2470 -0.0941
  126MPD1    C5 1925   1.732   3.990   9.981  0.1657 -0.6118 -0.5996
  126MPD1     H 1926   1.941   3.685  10.052  2.5608  0.8979  3.2288
  126MPD1    H1 1927   1.859   4.053   9.835  0.7219  1.7875  2.1404
  126MPD1    H2 1928   1.596   3.914  10.111  0.4036  1.9704  1.4681
  126MPD1    H3 1929   1.672   4.076   9.954 -2.0931 -1.4711  1.6967
  126MPD1     N 1930   2.040   3.823   9.849  0.3904  0.0410  0.3423
  126MPD1    H5 1931   2.098   3.752   9.893  0.3087  0.5439  1.2708
  126MPD1    N1 1932   1.743   3.707  10.203 -0.0786 -0.0740  0.2682
  126MPD1    H6 1933   1.696   3.741  10.286  2.2936  1.7620  0.8630
  126MPD1    H7 1934   1.826   3.653  10.230 -1.3716 -2.1589  0.0731
  127MPD2     C 1935   2.363   2.972   9.360 -0.5047  0.2077 -0.4145
  127MPD2    C1 1936   2.403   2.892   9.464 -0.8533  0.0638 -1.0650
  127MPD2    C2 1937   2.542   2.869   9.476 -0.2824 -0.0966 -0.1196
  127MPD2    C3 1938   2.636   2.929   9.393 -0.4481  0.3765 -0.0309
  127MPD2    C4 1939   2.583   3.010   9.295 -0.1164  0.3716 -0.1963
  127MPD2    C5 1940   2.449   3.026   9.276  0.8028 -0.2833 -0.0733
  127MPD2     H 1941   2.568   2.812   9.565 -0.6619  0.1943  0.1760
  127MPD2    H1 1942   2.645   3.057   9.220 -0.6163  0.0828 -0.7945
  127MPD2    H2 1943   2.258   2.980   9.336 -0.4275 -1.6290 -1.4230
  127MPD2    H3 1944   2.420   3.091   9.194 -0.3212 -1.6103 -0.7321
  127MPD2     N 1945   2.767   2.905   9.425 -0.1424  0.2366 -0.1050
  127MPD2    H5 1946   2.781   2.834   9.496  1.5603 -0.8779 -1.5914
  127MPD2    N1 1947   2.298   2.817   9.522  0.3585 -0.4184  0.6407
  127MPD2    H7 1948   2.209   2.851   9.489 -0.0372 -2.2242 -0.1457
  128TCq2    C1 1949   2.307   2.717   9.612  0.0563 -0.1171 -0.0814
  128TCq2    O2 1950   2.409   2.666   9.660 -0.4334  0.2728  0.2669
  128TCq2    C2 1951   2.180   2.654   9.647  0.1955  0.3084 -0.0502
  128TCq2    C3 1952   2.171   2.575   9.759 -0.4852  0.4803  0.2552
  128TCq2    C4 1953   2.059   2.507   9.780  0.2063  0.4555 -0.3491
  128TCq2    C5 1954   1.946   2.533   9.706  0.3136 -0.6782  0.7013
  128TCq2    C6 1955   1.959   2.606   9.593 -0.4891 -0.4362 -0.4475
  128TCq2    C7 1956   2.076   2.670   9.564 -0.8005 -0.3982 -0.2753
  128TCq2    C8 1957   1.844   2.639   9.520  0.4034  1.0473  0.2462
  128TCq2    O4 1958   1.835   2.743   9.451 -0.6021 -0.0424  0.0090
  128TCq2    C9 1959   2.042   2.423   9.896  0.4556 -0.2381 -0.1432
  128TCq2    O5 1960   2.136   2.416   9.983 -0.7686 -0.1300 -0.1102
  128TCq2    O6 1961   1.934   2.357   9.895  0.2175  0.0463  0.1081
  128TCq2    H2 1962   2.262   2.545   9.811 -0.0477  1.4808  0.0842
  128TCq2    H3 1963   1.849   2.504   9.745 -0.1091  0.4101  0.4603
  128TCq2    H4 1964   2.085   2.708   9.463 -0.3605 -0.1467 -0.1389
  129MPD2     C 1965   1.812   3.248   2.530 -0.0802  0.6409  0.4216
  129MPD2    C1 1966   1.696   3.325   2.538 -0.9542  0.1828  0.3038
  129MPD2    C2 1967   1.671   3.415   2.434  0.3969  0.2187  0.1463
  129MPD2    C3 1968   1.740   3.417   2.316  0.0766 -0.1937 -0.0732
  129MPD2    C4 1969   1.826   3.310   2.297  1.1528  0.2365  0.5077
  129MPD2    C5 1970   1.866   3.237   2.402 -0.3141  0.3083  0.0937
  129MPD2     H 1971   1.589   3.485   2.445  0.2248  0.6624 -3.9428
  129MPD2    H1 1972   1.875   3.280   2.206  1.1866 -1.7752  1.1955
  129MPD2    H2 1973   1.853   3.175   2.599 -1.0943  0.5211  0.8995
  129MPD2    H3 1974   1.943   3.162   2.392  2.1790  3.1016 -1.7444
  129MPD2     N 1975   1.716   3.517   2.222  0.0254 -0.2548  0.3395
  129MPD2    H5 1976   1.640   3.580   2.248  0.6003  1.3736 -1.9584
  129MPD2    N1 1977   1.604   3.322   2.645  0.2111  0.3516 -0.0651
  129MPD2    H7 1978   1.529   3.391   2.645  0.7212  0.9102  0.4775
  130TCq2    C1 1979   1.599   3.223   2.744  0.4769 -0.2375 -0.4811
  130TCq2    O2 1980   1.658   3.115   2.744  0.2881 -0.3272 -0.5340
  130TCq2    C2 1981   1.498   3.233   2.837  0.2255 -0.3321  0.5308
  130TCq2    C3 1982   1.459   3.349   2.900  0.0181  0.0705 -0.5024
  130TCq2    C4 1983   1.379   3.328   3.011  0.1653  0.5204 -0.0044
  130TCq2    C5 1984   1.324   3.211   3.048 -0.5766  0.3364 -0.0430
  130TCq2    C6 1985   1.359   3.099   2.975 -0.6493 -0.8029  0.1814
  130TCq2    C7 1986   1.448   3.107   2.872  0.1484 -0.4402  0.4802
  130TCq2    C8 1987   1.299   2.971   2.997  0.0880  0.0720 -0.2338
  130TCq2    O4 1988   1.328   2.880   2.920 -0.1660  0.3165  0.0182
  130TCq2    C9 1989   1.345   3.443   3.088 -0.0422  0.0127 -0.4483
  130TCq2    O5 1990   1.254   3.438   3.171  0.1329 -0.4378  0.1854
  130TCq2    O6 1991   1.391   3.549   3.045 -0.1558  0.3857 -0.6044
  130TCq2    H2 1992   1.518   3.438   2.884  1.3117 -0.6897 -0.0249
  130TCq2    H3 1993   1.253   3.199   3.129 -1.3701  0.2489 -0.7465
  130TCq2    H4 1994   1.467   3.018   2.813  0.9856  1.2745 -1.8498
  131MPD2     C 1995   0.664   2.021  10.032 -1.3171  0.6011  0.4679
  131MPD2    C1 1996   0.675   2.120   9.938  0.1625 -0.4791 -0.6419
  131MPD2    C2 1997   0.633   2.088   9.814  0.2379  0.2545 -0.0176
  131MPD2    C3 1998   0.579   1.962   9.777 -0.3677  0.3956 -0.4107
  131MPD2    C4 1999   0.577   1.867   9.872  0.0451  0.1839 -0.2675
  131MPD2    C5 2000   0.612   1.901  10.002 -1.1949 -0.1622  0.5710
  131MPD2     H 2001   0.649   2.152   9.727 -0.8530  1.2805  0.5398
  131MPD2    H1 2002   0.515   1.781   9.850  1.3518 -1.0854  1.0791
  131MPD2    H2 2003   0.698   2.036  10.134 -0.6346 -1.2340  0.5021
  131MPD2    H3 2004   0.594   1.839  10.089 -1.7093  1.0004  1.2832
  131MPD2     N 2005   0.522   1.948   9.647 -0.2494  0.5669 -0.3849
  131MPD2    H5 2006   0.517   2.036   9.596 -1.4572  0.0258 -1.2187
  131MPD2    N1 2007   0.738   2.240   9.974  0.3835  0.5616 -0.0994
  131MPD2    H7 2008   0.783   2.249  10.064 -0.2445  0.5328  0.2212
  132TCq2    C1 2009   0.965   2.768   9.802  0.0075 -1.2466  0.7748
  132TCq2    O2 2010   0.909   2.775   9.693  0.3032  0.3655 -0.2913
  132TCq2    C2 2011   0.961   2.640   9.877 -0.5601  0.0217 -0.9842
  132TCq2    C3 2012   1.054   2.620   9.984 -0.6325  0.2457  0.5172
  132TCq2    C4 2013   1.034   2.510  10.061  0.7749  0.3872  0.4746
  132TCq2    C5 2014   0.935   2.416  10.032 -0.2470  0.4189  0.2043
  132TCq2    C6 2015   0.848   2.443   9.927  0.2028  0.2447  0.4686
  132TCq2    C7 2016   0.858   2.553   9.842 -0.7411 -0.4601 -0.1990
  132TCq2    C8 2017   0.760   2.337   9.879  0.2073  0.3757  0.2197
  132TCq2    O4 2018   0.722   2.351   9.764 -0.0646  1.0302 -0.5043
  132TCq2    C9 2019   1.135   2.474  10.158  0.0236 -0.3175  0.0577
  132TCq2    O5 2020   1.164   2.352  10.164 -0.0808 -0.5561 -0.4318
  132TCq2    O6 2021   1.210   2.562  10.208 -0.9055  0.2067 -0.2965
  132TCq2    H2 2022   1.132   2.689  10.017  2.0277 -2.7605  0.5132
  132TCq2    H3 2023   0.931   2.329  10.096 -0.5633  0.5748  0.3981
  132TCq2    H4 2024   0.794   2.583   9.760 -0.1619 -1.4162 -0.9888
  133MPD2     C 2025   4.297   1.922   9.056  0.1234  0.0858  0.0244
  133MPD2    C1 2026   4.428   1.904   9.084  0.3699  0.2755  1.4804
  133MPD2    C2 2027   4.499   2.012   9.135  0.6064 -0.2638 -0.0224
  133MPD2    C3 2028   4.447   2.133   9.165  0.2372 -0.3588  0.4689
  133MPD2    C4 2029   4.309   2.147   9.138 -0.6463 -0.2071  0.0544
  133MPD2    C5 2030   4.243   2.048   9.082 -0.2707 -0.2175  0.1744
  133MPD2     H 2031   4.600   1.983   9.164  0.0532 -1.1637  0.9872
  133MPD2    H1 2032   4.254   2.235   9.171  0.4175  0.1817  0.7933
  133MPD2    H2 2033   4.239   1.843   9.009  1.5186 -0.9214  0.0095
  133MPD2    H3 2034   4.139   2.065   9.054  0.2309  1.4790 -0.6611
  133MPD2     N 2035   4.510   2.248   9.211 -0.4200 -0.4986 -0.2843
  133MPD2    H5 2036   4.446   2.321   9.240 -1.4762 -0.7001 -2.1260
  133MPD2    N1 2037   4.495   1.783   9.066 -0.0599  0.7631  0.3501
  133MPD2    H7 2038   4.584   1.779   9.114 -0.8729 -1.8105  1.6546
  134TCq2    C1 2039   4.452   1.670   8.999  0.2421  0.4281  0.4525
  134TCq2    O2 2040   4.353   1.638   8.936  0.6081 -0.1303  0.5600
  134TCq2    C2 2041   4.567   1.589   8.966  0.6575 -0.5897 -0.2096
  134TCq2    C3 2042   4.556   1.458   8.939  0.5413  0.4164 -0.6176
  134TCq2    C4 2043   4.662   1.389   8.906 -0.0064 -0.2488 -0.6219
  134TCq2    C5 2044   0.057   1.443   8.881 -0.4759 -0.2212 -0.3128
  134TCq2    C6 2045   0.077   1.578   8.914  0.3372  0.3488 -0.7102
  134TCq2    C7 2046   4.693   1.653   8.954  0.3170  0.1771 -0.1189
  134TCq2    C8 2047   0.204   1.634   8.870 -0.2772  0.6267 -0.2371
  134TCq2    O4 2048   0.305   1.566   8.875 -0.0607 -0.2460 -0.0502
  134TCq2    C9 2049   4.644   1.248   8.879  0.0391  0.4637  0.0878
  134TCq2    O5 2050   0.022   1.175   8.911  0.2076  0.7251 -0.3824
  134TCq2    O6 2051   4.529   1.202   8.864 -0.3181  0.0283  0.1259
  134TCq2    H2 2052   4.466   1.408   8.973  1.5046 -1.2028 -0.4521
  134TCq2    H3 2053   0.140   1.383   8.844 -1.2440 -1.5003  0.0576
  134TCq2    H4 2054   4.711   1.759   8.966 -2.2344  0.6808 -0.6105
  135MPD2     C 2055   2.462   3.959   9.867  0.3830 -0.1917  0.7064
  135MPD2    C1 2056   2.411   4.081   9.813 -0.4334  0.4645 -0.1739
  135MPD2    C2 2057   2.466   4.119   9.693 -0.1651  0.1291 -0.1830
  135MPD2    C3 2058   2.569   4.046   9.628  0.8618 -0.3416 -0.1137
  135MPD2    C4 2059   2.610   3.929   9.680 -0.6381  0.0387 -0.3488
  135MPD2    C5 2060   2.557   3.883   9.796  0.4636 -0.4703  0.1711
  135MPD2     H 2061   2.442   4.214   9.645 -2.9705 -0.7859 -0.6084
  135MPD2    H1 2062   2.693   3.878   9.633 -1.6033 -3.6133  1.9624
  135MPD2    H2 2063   2.414   3.909   9.950  2.7385 -0.3595  1.9634
  135MPD2    H3 2064   2.589   3.783   9.824  1.1738 -0.0393  0.8887
  135MPD2     N 2065   2.634   4.093   9.514  0.5177 -0.4150 -0.2126
  135MPD2    H5 2066   2.708   4.031   9.483  0.4793 -0.0930 -0.9393
  135MPD2    N1 2067   2.305   4.155   9.873  0.6214  0.2446  0.2854
  135MPD2    H7 2068   2.273   4.240   9.827 -0.2974  0.3255  1.0814
  136TCq2    C1 2069   2.253   4.136   9.995 -0.2891 -0.3977  0.1715
  136TCq2    O2 2070   2.292   4.056  10.082  0.1588 -0.3158  0.3134
  136TCq2    C2 2071   2.140   4.214  10.030  0.2284  0.3624 -0.2369
  136TCq2    C3 2072   2.078   4.279   9.926 -0.5135  0.3321 -0.0506
  136TCq2    C4 2073   1.946   4.312   9.936 -0.1880 -0.0357  0.3355
  136TCq2    C5 2074   1.867   4.272  10.039 -0.3640 -0.5001  0.2990
  136TCq2    C6 2075   1.927   4.203  10.140  0.1958 -0.1545  0.2200
  136TCq2    C7 2076   2.062   4.173  10.136 -0.1370 -0.6309  0.0402
  136TCq2    C8 2077   1.856   4.176  10.255 -0.1044 -0.1497 -0.4630
  136TCq2    O4 2078   1.899   4.092  10.334  0.1704  0.0376 -0.5310
  136TCq2    C9 2079   1.882   4.404   9.845 -0.0559  0.5483 -0.4801
  136TCq2    O5 2080   1.777   4.463   9.889 -0.0388  0.3573 -0.3358
  136TCq2    O6 2081   1.947   4.424   9.742 -0.2017  0.0711  0.4595
  136TCq2    H2 2082   2.129   4.311   9.836  1.4183 -0.3146  0.8291
  136TCq2    H3 2083   1.760   4.293  10.035  0.1853  1.3587 -4.2779
  136TCq2    H4 2084   2.108   4.123  10.221  2.0953  1.3493  0.0231
  137MPD2     C 2085   1.899   3.790   9.316  0.7599 -0.3782  0.0312
  137MPD2    C1 2086   1.823   3.824   9.423  0.3229 -0.0242  0.7383
  137MPD2    C2 2087   1.826   3.737   9.535  1.0317 -0.1906  0.7516
  137MPD2    C3 2088   1.913   3.629   9.549  0.5459 -0.0203 -0.2264
  137MPD2    C4 2089   2.001   3.623   9.448 -0.2152 -0.0206 -0.2939
  137MPD2    C5 2090   1.991   3.693   9.334  0.6568  0.1840  0.3120
  137MPD2     H 2091   1.747   3.751   9.607  0.3440  0.7215 -0.1809
  137MPD2    H1 2092   2.084   3.558   9.473 -1.4682 -1.3846  0.3497
  137MPD2    H2 2093   1.897   3.843   9.222  1.1629 -0.9595 -0.3075
  137MPD2    H3 2094   2.070   3.677   9.262  1.2478  0.9411  0.8006
  137MPD2     N 2095   1.909   3.559   9.672  0.3049 -0.2354  0.4845
  137MPD2    H5 2096   1.842   3.590   9.741  0.7766 -1.6064  1.5463
  137MPD2    N1 2097   1.742   3.934   9.408  0.5028 -0.5580  0.2030
  137MPD2    H7 2098   1.753   3.992   9.325 -0.3401 -3.2027 -1.7464
  138TCq2    C1 2099   1.656   3.976   9.501 -0.4716  0.4564 -0.2854
  138TCq2    O2 2100   1.610   3.923   9.597 -0.4583  0.0789  0.5186
  138TCq2    C2 2101   1.624   4.112   9.483 -0.0285  0.2216  0.0891
  138TCq2    C3 2102   1.718   4.201   9.450 -0.3801 -0.1555 -0.5063
  138TCq2    C4 2103   1.692   4.330   9.471 -0.8685  1.0532  0.3168
  138TCq2    C5 2104   1.569   4.376   9.526 -0.1508  0.4845  0.1424
  138TCq2    C6 2105   1.482   4.281   9.575 -0.7725 -0.9902  1.1314
  138TCq2    C7 2106   1.508   4.148   9.551 -0.8226 -0.0087  0.8368
  138TCq2    C8 2107   1.432   4.311   9.704 -0.8589  0.1740 -0.0979
  138TCq2    O4 2108   1.448   4.425   9.746 -1.1573 -0.2917 -0.4162
  138TCq2    C9 2109   1.787   4.429   9.441 -0.0431  0.0120 -0.2838
  138TCq2    O5 2110   1.891   4.401   9.378  0.3125  0.5738  0.5089
  138TCq2    O6 2111   1.762   4.538   9.493  0.2240 -0.5258 -0.3112
  138TCq2    H2 2112   1.809   4.178   9.396  0.4441  1.0284  0.3886
  138TCq2    H3 2113   1.546   4.479   9.548 -2.3510  0.5779 -2.6506
  138TCq2    H4 2114   1.439   4.068   9.574 -1.1090  0.8553  2.9446
  139TMC2    C1 2115   2.715   2.052  13.494 -0.2894  1.0941  0.0596
  139TMC2    C2 2116   2.647   2.097  13.384  0.4698 -0.1385 -0.7351
  139TMC2    C3 2117   2.561   2.203  13.397  0.0742 -1.0602  0.7302
  139TMC2    C4 2118   2.702   2.116  13.617  0.2855  0.3368 -0.4400
  139TMC2    C5 2119   2.609   2.219  13.619 -0.1859  0.5690  0.0140
  139TMC2    C6 2120   2.538   2.263  13.514  0.1813  0.0182  0.0748
  139TMC2     C 2121   2.776   1.922  13.498 -0.5861 -0.0502  0.3937
  139TMC2     O 2122   2.814   1.886  13.607 -0.5961  0.0333  0.1132
  139TMC2     H 2123   2.639   2.032  13.297  1.7530 -0.8389 -0.3290
  139TMC2    H1 2124   2.736   2.072  13.710  0.2534  0.4359 -0.3810
  139TMC2    H2 2125   2.463   2.341  13.521 -0.3015 -0.5173  0.8662
  139TMC2    C7 2126   2.564   2.278  13.746 -0.1098 -0.0240  0.2323
  139TMC2    C8 2127   2.461   2.242  13.292 -0.6239  0.0401  0.4607
  139TMC2    O1 2128   2.446   2.306  13.748  0.2383  0.2303  0.1006
  139TMC2    O2 2129   2.348   2.287  13.317  0.5757  0.0619 -0.3103
  139TMC2    O5 2130   2.493   2.169  13.186  0.7041 -0.4852  0.4066
  139TMC2    H5 2131   2.585   2.185  13.154  0.1409  0.5789 -0.6911
  140MPD2     C 2132   2.893   1.681  13.257 -0.0247  0.2531 -0.8177
  140MPD2    C1 2133   2.836   1.722  13.380  1.2102  0.0972 -0.4902
  140MPD2    C2 2134   2.845   1.640  13.487 -0.1768 -0.0601 -0.3452
  140MPD2    C3 2135   2.919   1.525  13.477 -0.0369 -0.2749  0.3405
  140MPD2    C4 2136   2.966   1.478  13.360 -0.9310 -0.2136 -0.2957
  140MPD2    C5 2137   2.952   1.558  13.248  0.8134 -0.5785 -0.8286
  140MPD2     H 2138   2.790   1.655  13.579  2.0711  0.4025  0.9326
  140MPD2    H1 2139   3.025   1.388  13.348  0.5531  1.2372 -3.7751
  140MPD2    H2 2140   2.900   1.740  13.167  0.6775 -2.1768 -2.3450
  140MPD2    H3 2141   2.981   1.518  13.151  0.4375 -3.0185  0.0573
  140MPD2     N 2142   2.913   1.442  13.592 -1.0760 -0.1988 -0.1884
  140MPD2    H5 2143   2.850   1.477  13.664 -0.1972 -0.7347  0.8409
  140MPD2    N1 2144   2.782   1.852  13.382  0.8470  0.0811  0.2687
  140MPD2    H7 2145   2.766   1.889  13.289  1.8362  0.6822  0.3353
  141TCq2    C1 2146   3.699   3.081  14.443 -1.2905 -0.2058 -0.4383
  141TCq2    O2 2147   3.618   3.162  14.400 -0.4109 -0.0490  0.2781
  141TCq2    C2 2148   3.690   3.081  14.589  0.2499 -0.2198  0.2407
  141TCq2    C3 2149   3.719   2.970  14.665  0.3371 -1.5121  0.0451
  141TCq2    C4 2150   3.735   2.992  14.798 -0.2968  0.3756  0.0757
  141TCq2    C5 2151   3.738   3.114  14.852 -0.4302  0.3637 -0.0526
  141TCq2    C6 2152   3.723   3.225  14.771 -0.6537  0.0084 -0.3919
  141TCq2    C7 2153   3.683   3.201  14.645 -0.2391 -0.6512 -0.0922
  141TCq2    C8 2154   3.735   3.356  14.820  0.8630 -1.0394 -0.7438
  141TCq2    O4 2155   3.697   3.384  14.933 -0.3474 -1.0302  0.0019
  141TCq2    C9 2156   3.731   2.880  14.889 -0.2123 -0.6395  0.4028
  141TCq2    O5 2157   3.767   2.772  14.840  0.4391  0.5613 -0.3292
  141TCq2    O6 2158   3.720   2.901  15.011 -0.5800 -0.3146 -0.0085
  141TCq2    H2 2159   3.718   2.869  14.626 -0.4064 -1.6285  0.3604
  141TCq2    H3 2160   3.767   3.129  14.955  2.4127  3.0689 -1.2312
  141TCq2    H4 2161   3.667   3.287  14.581 -0.3530  0.3735  1.2978
  142MPD2     C 2162   0.920   1.813  10.250 -0.1307 -0.0605 -0.0068
  142MPD2    C1 2163   0.940   1.794  10.115  0.2888 -0.1511 -0.2425
  142MPD2    C2 2164   1.008   1.889  10.040  0.6132 -0.2732 -0.5219
  142MPD2    C3 2165   1.039   2.008  10.096 -0.4721 -0.5774  0.0494
  142MPD2    C4 2166   1.032   2.028  10.237 -0.0637  0.7132  0.1532
  142MPD2    C5 2167   0.967   1.931  10.307  0.1878  0.1169 -0.2726
  142MPD2     H 2168   1.025   1.866   9.935  2.4673  1.0544 -0.5078
  142MPD2    H1 2169   1.055   2.125  10.281 -2.1288  0.2692  2.2230
  142MPD2    H2 2170   0.867   1.747  10.318 -2.4716  2.1787  0.3640
  142MPD2    H3 2171   0.961   1.953  10.413  1.9478  1.2127 -0.4028
  142MPD2     N 2172   1.088   2.122  10.025  0.3241  0.4676 -0.5921
  142MPD2    H5 2173   1.119   2.202  10.079 -0.2656  1.0060 -1.0537
  142MPD2    N1 2174   0.878   1.676  10.061  0.4207 -0.5025 -0.6510
  142MPD2    H7 2175   0.858   1.596  10.121  1.8951 -0.9613 -0.7516
  143TCq2    C1 2176   1.091   2.127   9.888  0.0935 -0.8415  0.1843
  143TCq2    O2 2177   1.028   2.075   9.798  0.1856  0.1339 -0.1136
  143TCq2    C2 2178   1.162   2.250   9.844  0.5387  0.0994 -0.1525
  143TCq2    C3 2179   1.284   2.271   9.902  0.3313  0.6178 -0.8929
  143TCq2    C4 2180   1.373   2.363   9.856 -0.5429 -0.8872  0.4208
  143TCq2    C5 2181   1.338   2.432   9.745 -1.4656  0.1263 -0.3630
  143TCq2    C6 2182   1.217   2.412   9.681 -0.3614 -0.0557 -0.1929
  143TCq2    C7 2183   1.121   2.327   9.734  0.1547 -1.2196 -0.2612
  143TCq2    C8 2184   1.168   2.500   9.578  0.6345  0.4131  0.4845
  143TCq2    O4 2185   1.069   2.472   9.509  0.1050  0.0642  0.5046
  143TCq2    C9 2186   1.504   2.351   9.914 -0.0893 -0.0478 -0.6762
  143TCq2    O5 2187   1.508   2.322  10.037  0.3560  0.0640 -0.4443
  143TCq2    O6 2188   1.595   2.416   9.855 -0.5495 -0.3287  1.1233
  143TCq2    H2 2189   1.322   2.215   9.986 -0.3435  1.3159 -0.1225
  143TCq2    H3 2190   1.417   2.500   9.714  0.3630 -0.7710  2.3419
  143TCq2    H4 2191   1.018   2.320   9.701 -1.0112  3.1110  2.4377
  144MPD2     C 2192   3.665   1.043   0.831 -0.0515 -0.2286 -0.3006
  144MPD2    C1 2193   3.721   0.918   0.802 -0.1840 -0.5256 -0.0267
  144MPD2    C2 2194   3.838   0.884   0.869  0.6926 -0.4594 -0.4281
  144MPD2    C3 2195   3.913   0.976   0.936 -0.2729 -0.9020 -0.6873
  144MPD2    C4 2196   3.856   1.099   0.950  0.6540  0.3290 -0.4757
  144MPD2    C5 2197   3.738   1.137   0.907  0.9057 -0.1666  0.3769
  144MPD2     H 2198   3.894   0.795   0.842 -1.0827 -2.1060  1.2802
  144MPD2    H1 2199   3.903   1.170   1.017 -0.0266  0.6124 -0.3003
  144MPD2    H2 2200   3.588   1.092   0.772  1.4089  2.8423  0.3378
  144MPD2    H3 2201   3.710   1.241   0.899  1.2667 -0.2137 -1.3233
  144MPD2     N 2202   4.050   0.955   0.968 -0.6679  0.0097 -0.4694
  144MPD2    H5 2203   4.098   1.043   0.985 -2.0751  0.4379  1.2944
  144MPD2    N1 2204   3.667   0.831   0.706 -0.3953  0.4944  0.0838
  144MPD2    H7 2205   3.724   0.748   0.694 -1.1208 -0.6070  4.0477
  145TCq2    C1 2206   4.123   0.835   0.953 -0.8244 -1.0306 -0.5907
  145TCq2    O2 2207   4.091   0.724   0.918 -0.6718 -0.2580 -0.4023
  145TCq2    C2 2208   4.269   0.868   0.966  0.0119  0.5357  0.1680
  145TCq2    C3 2209   4.353   0.791   0.887  0.3190  0.5359  0.2333
  145TCq2    C4 2210   4.489   0.816   0.886  1.0254 -0.1185  0.2825
  145TCq2    C5 2211   4.540   0.917   0.965 -0.3353 -0.3474  0.2654
  145TCq2    C6 2212   4.449   1.002   1.022  0.2930 -0.1685  0.0093
  145TCq2    C7 2213   4.317   0.977   1.024  0.4553  0.2766  0.6212
  145TCq2    C8 2214   4.508   1.094   1.124  0.4896 -0.0207 -0.3949
  145TCq2    O4 2215   4.621   1.073   1.157 -0.1294 -0.2186 -0.1271
  145TCq2    C9 2216   4.582   0.721   0.835  0.2417  0.7665 -0.2674
  145TCq2    O5 2217   4.538   0.626   0.761 -0.3057 -0.3344 -0.7412
  145TCq2    O6 2218   4.699   0.727   0.880 -0.2557 -0.1590  0.0929
  145TCq2    H2 2219   4.324   0.701   0.834 -0.0492 -0.6965  2.5268
  145TCq2    H3 2220   4.646   0.933   0.985 -0.3790 -0.5691  0.6693
  145TCq2    H4 2221   4.245   1.028   1.088 -1.5043 -0.0469 -1.2878
  146TMC2    C1 2222   0.232   4.290  12.575 -0.3119 -0.7121  0.0951
  146TMC2    C2 2223   0.121   4.335  12.508  0.0256 -0.1035  0.2834
  146TMC2    C3 2224   0.123   4.305  12.374 -0.1737 -0.0843 -0.0702
  146TMC2    C4 2225   0.338   4.235  12.505 -0.3027  0.0555 -0.1384
  146TMC2    C5 2226   0.339   4.228  12.371  0.3061 -0.5643  0.7511
  146TMC2    C6 2227   0.234   4.276  12.298  1.0480 -0.2494 -0.2422
  146TMC2     C 2228   0.241   4.337  12.715  0.4716 -0.8659  0.1978
  146TMC2     O 2229   0.160   4.418  12.757 -0.0971  0.3619 -0.5687
  146TMC2     H 2230   0.039   4.380  12.562 -1.5277 -0.6723 -1.5929
  146TMC2    H1 2231   0.423   4.204  12.566 -0.2331  2.2947  0.9001
  146TMC2    H2 2232   0.217   4.252  12.194 -3.5878  0.7068  0.2973
  146TMC2    C7 2233   0.465   4.204  12.304 -0.2609  0.5046  0.0774
  146TMC2    C8 2234   0.005   4.344  12.301 -0.0071 -0.4315 -0.2075
  146TMC2    O1 2235   0.461   4.225  12.186  0.6808  0.3566 -0.2996
  146TMC2    O2 2236   0.004   4.398  12.191 -0.6800 -0.8875  0.3189
  146TMC2    O5 2237   4.613   4.274  12.352 -0.2692  0.4958 -0.1583
  146TMC2    H5 2238   4.612   4.230  12.440 -0.6235 -0.9058 -0.8725
  147MPD2     C 2239   0.968   4.123  12.255  0.1237 -0.0855 -0.1872
  147MPD2    C1 2240   0.934   4.091  12.383 -0.1685 -0.4085 -0.7075
  147MPD2    C2 2241   0.805   4.119  12.431  0.6241 -0.0403  0.1388
  147MPD2    C3 2242   0.704   4.149  12.338 -0.2215 -0.1712  1.1426
  147MPD2    C4 2243   0.739   4.158  12.204  0.0876 -0.6868  0.3769
  147MPD2    C5 2244   0.868   4.152  12.166  0.7200  0.1147 -0.5273
  147MPD2     H 2245   0.779   4.098  12.535  1.4323  0.2366  0.3930
  147MPD2    H1 2246   0.674   4.179  12.119 -1.0137  0.7018  1.5748
  147MPD2    H2 2247   1.062   4.095  12.210 -0.3398  1.1352 -1.9018
  147MPD2    H3 2248   0.899   4.161  12.063  0.0068 -0.1687 -0.7622
  147MPD2     N 2249   0.575   4.159  12.386 -0.5048  0.6315 -0.7853
  147MPD2    H5 2250   0.554   4.148  12.485 -0.0196 -0.5743 -0.8173
  147MPD2    N1 2251   1.037   4.062  12.468  0.4563 -0.0681  0.3402
  147MPD2    H7 2252   1.121   4.057  12.411  0.1362  2.2801 -0.3540
  148MPD2     C 2253   0.183   2.743  10.295 -0.5276 -0.2523 -0.3835
  148MPD2    C1 2254   0.236   2.620  10.256  0.9853 -0.3125 -0.0521
  148MPD2    C2 2255   0.159   2.550  10.163 -0.2255 -0.2645 -0.4428
  148MPD2    C3 2256   0.037   2.592  10.109 -0.1686 -0.7985  0.0197
  148MPD2    C4 2257   4.713   2.714  10.145 -0.5590  0.4245 -0.3082
  148MPD2    C5 2258   0.065   2.791  10.237  0.1193  0.1371  0.0573
  148MPD2     H 2259   0.209   2.459  10.132  0.0741  0.6562 -2.6492
  148MPD2    H1 2260   4.619   2.750  10.107 -1.2282 -1.8665 -0.8484
  148MPD2    H2 2261   0.241   2.807  10.361 -1.4210 -0.9129  1.0363
  148MPD2    H3 2262   0.026   2.883  10.279 -1.8751 -0.4120 -0.5899
  148MPD2     N 2263   4.682   2.519  10.014  0.0135  0.0375  0.8750
  148MPD2    H5 2264   4.601   2.562   9.969  0.4555 -0.5050 -0.4277
  148MPD2    N1 2265   0.359   2.566  10.308 -0.3828  0.0077 -0.0901
  148MPD2    H7 2266   0.388   2.475  10.274 -0.4093  0.7440 -2.0884
  149TCq2    C1 2267   0.456   2.619  10.390 -0.1228  0.1798  0.1884
  149TCq2    O2 2268   0.464   2.734  10.438 -0.2856 -0.0958 -0.4690
  149TCq2    C2 2269   0.555   2.521  10.436  0.0777  0.3762  0.1347
  149TCq2    C3 2270   0.678   2.575  10.476 -0.1658 -0.4448 -0.4236
  149TCq2    C4 2271   0.787   2.491  10.476 -0.0703 -0.1051 -0.1096
  149TCq2    C5 2272   0.772   2.359  10.434  0.2118 -0.0509 -0.1038
  149TCq2    C6 2273   0.648   2.312  10.422  0.4305  0.5354  0.3426
  149TCq2    C7 2274   0.540   2.389  10.396  0.1228  0.1616 -0.2032
  149TCq2    C8 2275   0.626   2.174  10.386 -0.3816  0.2500  0.3045
  149TCq2    O4 2276   0.544   2.147  10.301 -0.1755 -0.4290 -0.5963
  149TCq2    C9 2277   0.920   2.546  10.481 -0.5111 -0.3642 -0.2111
  149TCq2    O5 2278   0.927   2.671  10.510  0.2685 -0.2300 -0.0200
  149TCq2    O6 2279   1.025   2.482  10.451 -0.2652 -0.1941  0.0620
  149TCq2    H2 2280   0.694   2.675  10.516 -1.8988  0.3211 -1.6442
  149TCq2    H3 2281   0.859   2.295  10.437  0.6465  0.5595  0.5119
  149TCq2    H4 2282   0.446   2.345  10.366  1.1963 -0.3470 -2.8186
  150MPD2     C 2283   2.136   2.253  12.042  0.2996 -0.0748  0.1277
  150MPD2    C1 2284   2.197   2.218  11.928 -0.9228  0.2395  0.1927
  150MPD2    C2 2285   2.312   2.280  11.884  0.5097  0.0787 -0.1552
  150MPD2    C3 2286   2.378   2.369  11.970  0.3295  0.2312 -0.1384
  150MPD2    C4 2287   2.314   2.407  12.088 -0.5948 -0.1965  0.2056
  150MPD2    C5 2288   2.188   2.359  12.114  0.2823 -0.0324 -0.7081
  150MPD2     H 2289   2.356   2.261  11.786  1.5238 -2.1923  0.7518
  150MPD2    H1 2290   2.364   2.479  12.152 -1.6699  1.0071 -0.3029
  150MPD2    H2 2291   2.041   2.212  12.077 -0.7725  1.1214 -1.3744
  150MPD2    H3 2292   2.142   2.393  12.206  1.0525 -0.5218 -0.1346
  150MPD2     N 2293   2.500   2.428  11.931 -0.2854  0.1782 -0.3304
  150MPD2    H5 2294   2.521   2.405  11.834 -0.4211 -2.2239  0.1875
  150MPD2    N1 2295   2.150   2.099  11.872 -0.5107  0.7098 -0.5598
  150MPD2    H7 2296   2.083   2.043  11.924 -0.6938  1.6439  0.2166
  151TCq2    C1 2297   2.580   2.518  11.990  0.5356  0.6923 -0.4471
  151TCq2    O2 2298   2.588   2.546  12.110  0.3196 -0.3871  0.3531
  151TCq2    C2 2299   2.690   2.567  11.910 -0.6216  0.1774 -0.0856
  151TCq2    C3 2300   2.685   2.556  11.774 -0.4983 -0.7329  0.8668
  151TCq2    C4 2301   2.798   2.597  11.706  0.4202  0.5444 -0.2673
  151TCq2    C5 2302   2.909   2.637  11.768 -0.4130  0.3260 -0.1203
  151TCq2    C6 2303   2.909   2.635  11.909 -0.3448 -0.6132 -0.1382
  151TCq2    C7 2304   2.801   2.604  11.979 -0.1154 -0.1054  0.0873
  151TCq2    C8 2305   3.033   2.652  11.967  0.2028 -0.0251 -0.3249
  151TCq2    O4 2306   3.129   2.680  11.905 -0.3685  0.2475 -0.3043
  151TCq2    C9 2307   2.791   2.587  11.565  0.3726 -0.0205 -0.6647
  151TCq2    O5 2308   2.699   2.521  11.512  0.2824 -0.3786 -0.2202
  151TCq2    O6 2309   2.886   2.630  11.495  0.3110 -0.1165  0.1060
  151TCq2    H2 2310   2.591   2.558  11.719  0.9232  0.8485 -1.4863
  151TCq2    H3 2311   3.003   2.659  11.720 -0.9623 -0.4830 -1.5492
  151TCq2    H4 2312   2.791   2.606  12.087  1.4393  1.2443  0.2064
  152MPD2     C 2313   2.095   2.287  12.986 -0.2844  0.6014  0.5977
  152MPD2    C1 2314   2.153   2.371  12.901 -0.4132 -0.4661  0.4389
  152MPD2    C2 2315   2.070   2.446  12.823 -0.1766 -0.3541 -0.2022
  152MPD2    C3 2316   1.936   2.448  12.837  0.0794 -0.3777  0.6523
  152MPD2    C4 2317   1.879   2.362  12.930  0.5311 -0.3752 -0.1527
  152MPD2    C5 2318   1.962   2.273  12.998 -0.2101  0.1198 -0.6102
  152MPD2     H 2319   2.107   2.511  12.745  1.0354 -0.1688  0.5154
  152MPD2    H1 2320   1.771   2.348  12.938  0.4502 -0.7619 -1.8938
  152MPD2    H2 2321   2.157   2.215  13.039 -0.5989 -0.4367 -0.4454
  152MPD2    H3 2322   1.931   2.209  13.080 -0.3350 -0.9040 -1.4609
  152MPD2     N 2323   1.858   2.524  12.745 -0.1872  0.0476  0.7539
  152MPD2    H5 2324   1.916   2.574  12.677  0.9162 -0.6656  1.1722
  152MPD2    N1 2325   2.291   2.365  12.886 -0.0290 -0.1906  0.2056
  152MPD2    H7 2326   2.330   2.284  12.932 -2.9569 -2.3750 -1.1671
  153TCq2    C1 2327   2.365   2.444  12.797  0.0398 -0.7060 -0.7356
  153TCq2    O2 2328   2.331   2.555  12.755  0.2693  0.0626 -0.2419
  153TCq2    C2 2329   2.510   2.418  12.795 -0.3790  0.5040 -0.4366
  153TCq2    C3 2330   2.573   2.359  12.904  0.3457 -0.0631  0.0187
  153TCq2    C4 2331   2.709   2.365  12.904  0.5783 -0.7923  0.1702
  153TCq2    C5 2332   2.784   2.433  12.805  0.2794 -0.6407  0.6152
  153TCq2    C6 2333   2.708   2.497  12.707 -0.0541 -0.1895 -0.1734
  153TCq2    C7 2334   2.577   2.485  12.697 -0.0800  0.6068 -0.0642
  153TCq2    C8 2335   2.761   2.610  12.636  0.3608  0.1890  0.1406
  153TCq2    O4 2336   2.695   2.658  12.544  0.4344 -0.1769  0.3712
  153TCq2    C9 2337   2.786   2.298  13.010  0.4218 -0.4522  0.4097
  153TCq2    O5 2338   2.906   2.334  13.023  0.0469 -0.2218 -0.3895
  153TCq2    O6 2339   2.713   2.229  13.093  0.2579  0.6317 -0.1707
  153TCq2    H2 2340   2.511   2.316  12.982  2.5357  1.8350  2.7950
  153TCq2    H3 2341   2.892   2.430  12.807  0.2965 -0.0073  0.7078
  153TCq2    H4 2342   2.526   2.537  12.617  1.4632  3.0453  0.5281
  154MPD2     C 2343   3.582   1.925   0.147 -0.7125 -0.2301 -0.1079
  154MPD2    C1 2344   3.642   1.953   0.265  0.4674 -0.4826 -0.3650
  154MPD2    C2 2345   3.573   2.012   0.366  0.6743  0.2079 -0.9951
  154MPD2    C3 2346   3.439   2.034   0.349 -0.1170 -0.9295  0.1398
  154MPD2    C4 2347   3.376   1.999   0.230  0.6613 -0.2018 -0.1651
  154MPD2    C5 2348   3.448   1.940   0.134 -0.1790  0.3780  0.0212
  154MPD2     H 2349   3.627   2.049   0.452 -1.5215  3.3527 -0.9655
  154MPD2    H1 2350   3.270   2.018   0.215  1.3814  4.1129  0.1861
  154MPD2    H2 2351   3.635   1.888   0.060  2.4668  2.4953  0.6418
  154MPD2    H3 2352   3.402   1.922   0.038 -0.1398  0.1500  0.0460
  154MPD2     N 2353   3.371   2.091   0.457 -0.2306  0.1906 -0.7726
  154MPD2    H5 2354   3.425   2.099   0.542 -1.0356  1.3682 -0.3729
  154MPD2    N1 2355   3.775   1.921   0.278  0.5737  0.4375  0.4468
  154MPD2    H7 2356   3.828   1.900   0.194  1.2803  1.6118  0.5944
  155TCq2    C1 2357   3.849   1.921   0.394  0.0489  0.2378  0.3114
  155TCq2    O2 2358   3.810   1.924   0.509 -0.3457  0.2681 -0.2298
  155TCq2    C2 2359   3.988   1.897   0.371  1.1129  0.0338  0.0073
  155TCq2    C3 2360   4.079   1.917   0.471 -0.5922 -0.6783  0.3254
  155TCq2    C4 2361   4.207   1.914   0.442 -0.0758 -0.4821  0.0569
  155TCq2    C5 2362   4.260   1.918   0.319 -0.1519 -0.0244 -0.3200
  155TCq2    C6 2363   4.174   1.894   0.214  0.2202 -0.8446  0.1847
  155TCq2    C7 2364   4.040   1.877   0.238  0.2859  0.4167  0.6706
  155TCq2    C8 2365   4.224   1.917   0.078 -0.0904  0.2102 -0.1514
  155TCq2    O4 2366   4.155   1.866  17.673  0.1233  0.1526  0.0594
  155TCq2    C9 2367   4.297   1.946   0.554  0.0563  0.3398  0.7320
  155TCq2    O5 2368   4.253   1.941   0.663  0.4044  0.0099  0.4972
  155TCq2    O6 2369   4.414   1.982   0.536 -0.2866 -0.0597  0.6823
  155TCq2    H2 2370   4.057   1.927   0.576  2.2897 -0.7324  0.9291
  155TCq2    H3 2371   4.364   1.947   0.305  0.1671 -0.6877  0.7431
  155TCq2    H4 2372   3.976   1.866   0.151  0.2266 -0.5079  0.8402
  156MPD2     C 2373   2.989   4.222  11.892 -0.0878  0.7879  0.1163
  156MPD2    C1 2374   2.906   4.269  11.790 -0.0104 -0.0190  0.3701
  156MPD2    C2 2375   2.845   4.391  11.823 -0.2711  0.9430  0.0117
  156MPD2    C3 2376   2.872   4.458  11.939  0.0426  0.2843 -0.0891
  156MPD2    C4 2377   2.963   4.406  12.029 -0.2858 -0.4815 -0.5123
  156MPD2    C5 2378   3.018   4.284  12.008  0.0071 -0.4771  0.2847
  156MPD2     H 2379   2.780   4.446  11.756 -0.5797  3.0772  2.0585
  156MPD2    H1 2380   2.993   4.458  12.119  2.0745  0.4448 -1.8343
  156MPD2    H2 2381   3.051   4.135  11.873  1.9710  2.2454  0.1088
  156MPD2    H3 2382   3.094   4.253  12.079  1.0512 -0.1768 -0.7069
  156MPD2     N 2383   2.803   4.583  11.959 -0.1001  0.5160 -0.1645
  156MPD2    H5 2384   2.747   4.615  11.880 -1.2972 -1.2311 -0.0278
  156MPD2    N1 2385   2.890   4.185  11.674 -0.1080  0.1374 -0.1487
  156MPD2    H7 2386   2.933   4.093  11.675 -2.1872 -0.8396 -0.6055
  157TCq2    C1 2387   2.805   4.210  11.572  0.2048  0.1953 -0.2517
  157TCq2    O2 2388   2.732   4.309  11.560 -0.0559 -0.2848 -0.7023
  157TCq2    C2 2389   2.809   4.104  11.465 -0.0308  0.0512 -0.3775
  157TCq2    C3 2390   2.879   3.986  11.483  0.0527  0.3990  0.0959
  157TCq2    C4 2391   2.870   3.894  11.378  0.4789  0.3246  0.3110
  157TCq2    C5 2392   2.800   3.928  11.263 -0.3524 -0.2735 -0.3281
  157TCq2    C6 2393   2.742   4.050  11.252 -0.2923  0.9449 -0.3124
  157TCq2    C7 2394   2.756   4.146  11.347  0.0564  0.7518  0.1046
  157TCq2    C8 2395   2.682   4.094  11.126 -0.2813  0.3723  0.1759
  157TCq2    O4 2396   2.704   4.024  11.026 -0.1636 -0.1666  0.5759
  157TCq2    C9 2397   2.964   3.781  11.381 -0.4544  0.1279 -0.1614
  157TCq2    O5 2398   3.064   3.792  11.456  0.3042 -0.4650 -0.2656
  157TCq2    O6 2399   2.937   3.689  11.300 -0.1472 -0.0063  0.6421
  157TCq2    H2 2400   2.946   3.976  11.567 -0.5968 -1.1415  0.4361
  157TCq2    H3 2401   2.795   3.876  11.168  0.1077 -0.4166 -0.2740
  157TCq2    H4 2402   2.721   4.248  11.336  0.3752  0.6485 -1.8890
  158TMC2    C1 2403   2.904   2.978  13.429 -0.5786 -0.1378  0.3380
  158TMC2    C2 2404   2.955   3.034  13.321 -0.5120 -0.4703  0.1708
  158TMC2    C3 2405   2.864   3.058  13.225 -0.0887 -0.6990 -0.2672
  158TMC2    C4 2406   2.776   2.939  13.454 -0.7488  0.5261 -0.4881
  158TMC2    C5 2407   2.684   2.974  13.358  0.4511  0.5687  0.8000
  158TMC2    C6 2408   2.726   3.040  13.240 -0.1609 -0.3728  0.2948
  158TMC2     C 2409   3.014   2.919  13.513  0.5689 -0.0191  0.2505
  158TMC2     O 2410   3.100   2.857  13.455  0.3242  0.0380 -0.0684
  158TMC2     H 2411   3.061   3.048  13.301 -0.5101  0.4385  0.8376
  158TMC2    H1 2412   2.752   2.871  13.535  1.8776 -0.4198 -0.5191
  158TMC2    H2 2413   2.657   3.081  13.167 -1.8415 -1.5103  1.2403
  158TMC2    C7 2414   2.541   2.973  13.375  0.5463  0.5137  0.0199
  158TMC2    C8 2415   2.913   3.133  13.115 -0.2401  0.3629  0.1413
  158TMC2    O1 2416   2.476   3.013  13.283  0.0303  0.1030 -0.5431
  158TMC2    O2 2417   3.013   3.202  13.122 -0.0838 -0.0214 -0.4379
  158TMC2    O5 2418   2.851   3.101  13.005  0.2459  0.2095 -0.6563
  158TMC2    H5 2419   2.792   3.023  13.010 -0.8982  1.1130  0.0647
  159MPD2     C 2420   3.237   2.821  13.961 -0.3435 -0.3088  0.1627
  159MPD2    C1 2421   3.153   2.933  13.972  0.6991  0.0240  1.5403
  159MPD2    C2 2422   3.073   2.979  13.874  0.0109  0.1923 -0.1315
  159MPD2    C3 2423   3.081   2.908  13.752 -0.4503  0.0331 -0.4824
  159MPD2    C4 2424   3.165   2.800  13.738  0.4717  0.5026  0.1370
  159MPD2    C5 2425   3.234   2.752  13.843 -0.2356 -0.3935 -0.5917
  159MPD2     H 2426   2.995   3.054  13.882  2.4699  2.5003  2.0041
  159MPD2    H1 2427   3.154   2.743  13.647 -1.7959 -0.0374  0.7389
  159MPD2    H2 2428   3.297   2.789  14.045  0.0165  1.9741  0.7752
  159MPD2    H3 2429   3.273   2.651  13.831 -0.0227 -0.0948 -2.3357
  159MPD2     N 2430   2.995   2.947  13.648  0.1967 -0.2445 -0.5779
  159MPD2    H5 2431   2.917   3.010  13.662  0.2950 -0.3779  0.5307
  159MPD2    N1 2432   3.148   2.992  14.107  0.8516 -0.2643  0.5944
  159MPD2    H7 2433   3.189   2.943  14.185  0.3955  0.0195  1.0190
  160TMC2    C1 2434   2.504   0.784   1.214  0.1721 -0.6868  0.1148
  160TMC2    C2 2435   2.501   0.850   1.334  0.0047  0.0901  0.0545
  160TMC2    C3 2436   2.548   0.982   1.337  0.2454  0.5907  0.0264
  160TMC2    C4 2437   2.581   0.842   1.113  0.0929  0.0292  0.5427
  160TMC2    C5 2438   2.650   0.955   1.130 -0.5044  0.2336 -0.4915
  160TMC2    C6 2439   2.625   1.034   1.242 -0.3556  0.5377 -0.3042
  160TMC2     C 2440   2.369   0.740   1.179  0.3013 -0.2210  0.6262
  160TMC2     O 2441   2.317   0.671   1.266  0.0087 -0.2088  0.4421
  160TMC2     H 2442   2.425   0.817   1.403  1.0542 -0.8020  0.7824
  160TMC2    H1 2443   2.595   0.796   1.016  2.1693  0.9060  0.4365
  160TMC2    H2 2444   2.669   1.130   1.266 -1.3561 -0.2133  4.4377
  160TMC2    C7 2445   2.737   1.003   1.022  0.5896  0.0993 -0.3376
  160TMC2    C8 2446   2.543   1.051   1.464  0.4909  0.1266 -0.1676
  160TMC2    O1 2447   2.695   0.982   0.910 -0.3442 -0.3709  0.0033
  160TMC2    O2 2448   2.644   1.099   1.510 -0.1922  0.0929  0.0903
  160TMC2    O5 2449   2.431   1.013   1.527 -0.3864  0.0461  0.6187
  160TMC2    H5 2450   2.358   1.005   1.462  0.4261 -1.8669 -0.0782
  161MPD2     C 2451   2.078   0.789   1.139 -0.0085  0.8991 -0.3813
  161MPD2    C1 2452   2.169   0.814   1.037  0.9848 -0.4682 -0.1146
  161MPD2    C2 2453   2.127   0.860   0.913 -0.0527 -0.5177  0.5073
  161MPD2    C3 2454   1.997   0.893   0.892 -0.3149 -0.2418  1.1067
  161MPD2    C4 2455   1.908   0.883   0.996 -0.3693 -0.5744  0.4380
  161MPD2    C5 2456   1.946   0.826   1.115  1.1604 -0.0133 -0.0052
  161MPD2     H 2457   2.205   0.873   0.838 -1.5444  2.4576 -0.5122
  161MPD2    H1 2458   1.810   0.928   1.000  1.4485  3.3417  0.9209
  161MPD2    H2 2459   2.101   0.762   1.241 -0.4277 -2.2892 -1.1338
  161MPD2    H3 2460   1.870   0.811   1.191  2.4464 -0.6496  1.1614
  161MPD2     N 2461   1.939   0.944   0.772  0.1905 -0.6172 -0.5448
  161MPD2    H5 2462   1.856   1.000   0.787  0.0709 -1.0164  0.2342
  161MPD2    N1 2463   2.311   0.795   1.059 -0.4544 -0.4047  0.5191
  161MPD2    H7 2464   2.367   0.853   0.997  0.6962  0.7709  2.6605
  162TMC2    C1 2465   1.140   3.203   1.794 -0.7822 -0.6356  0.2208
  162TMC2    C2 2466   1.112   3.312   1.868 -0.3916 -0.6300  0.2031
  162TMC2    C3 2467   1.097   3.294   2.005  0.0574  0.2657  0.1184
  162TMC2    C4 2468   1.170   3.083   1.856  0.0068  0.3794 -0.6104
  162TMC2    C5 2469   1.171   3.076   1.995  0.4121  0.1065 -0.0931
  162TMC2    C6 2470   1.131   3.182   2.071  0.0104 -0.9412  0.5268
  162TMC2     C 2471   1.139   3.201   1.650 -0.3943 -0.2561 -0.2412
  162TMC2     O 2472   1.127   3.096   1.596  0.2283 -0.0872  0.1954
  162TMC2     H 2473   1.060   3.399   1.829  1.9794  0.3016 -0.8787
  162TMC2    H1 2474   1.189   2.993   1.799 -1.3207 -0.4418  0.2506
  162TMC2    H2 2475   1.133   3.186   2.180 -2.1637  0.5810  0.5257
  162TMC2    C7 2476   1.248   2.969   2.047  0.4543  0.4980 -0.0861
  162TMC2    C8 2477   1.036   3.408   2.068 -0.8509  0.5108 -0.4344
  162TMC2    O1 2478   1.363   2.952   2.022  0.1689 -0.4999 -0.5183
  162TMC2    O2 2479   1.026   3.517   2.011 -0.3916  0.7311  0.1910
  162TMC2    O5 2480   0.940   3.364   2.159  0.2345  0.0582  0.4688
  162TMC2    H5 2481   0.925   3.267   2.153  0.7946  0.0183 -0.2386
  163MPD2     C 2482   1.207   3.381   1.172  0.3590  0.7883 -0.2528
  163MPD2    C1 2483   1.236   3.262   1.227 -0.4971 -0.2913 -0.8968
  163MPD2    C2 2484   1.222   3.247   1.366  0.2775 -0.1137 -0.0865
  163MPD2    C3 2485   1.178   3.349   1.450 -0.1537  0.7465 -0.4293
  163MPD2    C4 2486   1.159   3.470   1.387  0.1537 -0.3764 -0.2350
  163MPD2    C5 2487   1.179   3.484   1.253  0.1617 -0.7796 -0.0036
  163MPD2     H 2488   1.240   3.148   1.407  1.2724 -0.1159 -0.5146
  163MPD2    H1 2489   1.128   3.561   1.438  0.3590  0.0981 -0.9594
  163MPD2    H2 2490   1.213   3.403   1.066 -0.3478  1.5893 -0.1327
  163MPD2    H3 2491   1.156   3.580   1.208  0.3031 -0.5713  0.3659
  163MPD2     N 2492   1.154   3.328   1.590 -0.3482 -0.9587  0.3369
  163MPD2    H5 2493   1.139   3.411   1.647  0.4619  1.0552 -2.3811
  163MPD2    N1 2494   1.252   3.148   1.140  0.1878 -0.3302  0.7177
  163MPD2    H7 2495   1.252   3.170   1.040 -1.0859  1.3605  1.0849
  164TCq2    C1 2496   1.068   3.242  11.569 -0.3784  0.0508 -0.5552
  164TCq2    O2 2497   1.179   3.257  11.621  0.2916  0.1068 -0.3857
  164TCq2    C2 2498   0.952   3.207  11.655 -1.0139 -0.3385 -0.2640
  164TCq2    C3 2499   0.983   3.166  11.780 -0.7405  0.4974 -0.0317
  164TCq2    C4 2500   0.875   3.150  11.859  0.0567  0.9149  0.6673
  164TCq2    C5 2501   0.748   3.177  11.817  0.0603  0.0166 -0.9483
  164TCq2    C6 2502   0.722   3.219  11.686 -0.1161  0.1020 -0.6031
  164TCq2    C7 2503   0.830   3.230  11.604 -0.1280 -0.3151  0.1560
  164TCq2    C8 2504   0.585   3.218  11.635 -0.4722  0.7913 -0.4322
  164TCq2    O4 2505   0.562   3.181  11.520  0.1108  0.0839 -0.3661
  164TCq2    C9 2506   0.885   3.091  11.986 -0.2569  0.4125  0.3549
  164TCq2    O5 2507   0.781   3.074  12.053  0.2539  0.1736  0.3311
  164TCq2    O6 2508   0.990   3.033  12.014 -0.5712 -0.0799  0.1642
  164TCq2    H2 2509   1.087   3.149  11.807 -0.8154 -0.5492 -0.3847
  164TCq2    H3 2510   0.662   3.155  11.880  2.1067 -2.0378  1.1478
  164TCq2    H4 2511   0.813   3.255  11.500 -0.6487  0.8518  0.5225
  165MPD2     C 2512   1.402   0.513   2.285 -0.1643 -0.4084 -0.2748
  165MPD2    C1 2513   1.486   0.440   2.196  0.1163  0.6590  0.5277
  165MPD2    C2 2514   1.525   0.495   2.073  0.4130  0.3988 -0.0103
  165MPD2    C3 2515   1.491   0.626   2.038 -0.2263  0.1003  0.2941
  165MPD2    C4 2516   1.420   0.691   2.132  0.0452  0.1569 -0.0710
  165MPD2    C5 2517   1.371   0.635   2.248 -0.4074  0.1247  0.5227
  165MPD2     H 2518   1.585   0.432   2.009 -1.4752 -2.0776  0.6385
  165MPD2    H1 2519   1.407   0.799   2.123 -0.3016  0.0842 -0.3981
  165MPD2    H2 2520   1.368   0.473   2.380 -0.7437  0.4470 -0.1227
  165MPD2    H3 2521   1.310   0.689   2.320 -1.6580 -1.2610  0.4941
  165MPD2     N 2522   1.543   0.701   1.935 -0.3925 -0.1303  0.3039
  165MPD2    H5 2523   1.514   0.797   1.922 -0.1878 -0.4766 -2.6774
  165MPD2    N1 2524   1.521   0.304   2.241 -0.1691  0.0382 -0.0808
  165MPD2    H7 2525   1.487   0.280   2.334 -0.8357 -0.7045 -0.5177
  166TCq2    C1 2526   1.643   0.656   1.855  0.1958  0.4257  0.0131
  166TCq2    O2 2527   1.700   0.548   1.853  0.0765  0.2300 -0.9082
  166TCq2    C2 2528   1.711   0.762   1.779  0.5694  0.0657  0.4739
  166TCq2    C3 2529   1.667   0.890   1.764 -0.5657 -0.6587  0.4086
  166TCq2    C4 2530   1.743   0.985   1.710 -0.5391  0.4056  0.1650
  166TCq2    C5 2531   1.869   0.963   1.664  0.0277  0.1761 -0.5468
  166TCq2    C6 2532   1.911   0.832   1.670 -0.1688 -0.1543 -0.9476
  166TCq2    C7 2533   1.833   0.731   1.725  0.0625  0.3122  0.2919
  166TCq2    C8 2534   2.031   0.799   1.599 -1.0024  0.4823  0.2704
  166TCq2    O4 2535   2.120   0.883   1.594 -0.5312 -0.0122  0.0825
  166TCq2    C9 2536   1.671   1.109   1.671  0.4007 -0.8197 -0.4140
  166TCq2    O5 2537   1.724   1.175   1.576 -0.3726  0.5235  0.4940
  166TCq2    O6 2538   1.566   1.132   1.735  0.2069  0.2117  0.0927
  166TCq2    H2 2539   1.578   0.917   1.820  1.0043  1.3717  1.8886
  166TCq2    H3 2540   1.923   1.032   1.601  1.3372 -0.1316  0.2398
  166TCq2    H4 2541   1.862   0.627   1.716 -0.1038  0.2436  0.5570
  167TMC2    C1 2542   0.213   2.873  12.991  0.1648 -0.2945  0.0124
  167TMC2    C2 2543   0.209   2.944  13.106  1.2813  0.2687  0.4896
  167TMC2    C3 2544   0.227   2.864  13.216  0.4843 -0.1124  0.0794
  167TMC2    C4 2545   0.240   2.736  12.985  0.7798 -0.5166 -0.2740
  167TMC2    C5 2546   0.261   2.665  13.100  0.3802 -0.0244 -0.3103
  167TMC2    C6 2547   0.248   2.730  13.220 -0.0756 -0.3109 -0.0255
  167TMC2     C 2548   0.237   2.950  12.870  0.4984  0.0079  0.6642
  167TMC2     O 2549   0.222   3.073  12.879 -0.2644  0.1970  1.1087
  167TMC2     H 2550   0.182   3.049  13.102  3.4584  0.7515 -1.5027
  167TMC2    H1 2551   0.235   2.688  12.888 -1.6035 -0.5686 -0.1300
  167TMC2    H2 2552   0.285   2.679  13.307 -1.0515  1.7971  1.6427
  167TMC2    C7 2553   0.253   2.521  13.108  0.3706 -0.4701 -0.2063
  167TMC2    C8 2554   0.251   2.936  13.339 -0.2217  0.0501 -0.3281
  167TMC2    O1 2555   0.211   2.477  13.214 -0.1255  0.1445  0.1430
  167TMC2    O2 2556   0.307   2.888  13.436 -0.1665 -0.1690 -0.1148
  167TMC2    O5 2557   0.167   3.035  13.349 -0.0274 -0.0962 -0.1062
  167TMC2    H5 2558   0.114   3.039  13.267  1.8222  2.0103 -1.2073
  168MPD2     C 2559   0.311   3.057  12.610  0.3835 -0.2469 -0.1134
  168MPD2    C1 2560   0.291   2.925  12.632  0.4648  0.1133  0.2040
  168MPD2    C2 2561   0.292   2.837  12.528 -0.6955 -0.1105  0.6912
  168MPD2    C3 2562   0.335   2.874  12.399  0.0267  0.1073 -0.0626
  168MPD2    C4 2563   0.357   3.012  12.380 -0.1305  0.0052 -0.2590
  168MPD2    C5 2564   0.345   3.101  12.485 -0.8347 -0.2924  0.2697
  168MPD2     H 2565   0.264   2.733  12.545  0.0668 -0.5252 -0.5454
  168MPD2    H1 2566   0.384   3.051  12.282  1.7662 -2.9762 -0.9614
  168MPD2    H2 2567   0.311   3.139  12.681 -1.8269 -0.2678 -0.0955
  168MPD2    H3 2568   0.372   3.202  12.459 -0.3353 -1.2856 -3.1077
  168MPD2     N 2569   0.351   2.784  12.298 -0.4615  0.1686  0.3792
  168MPD2    H5 2570   0.376   2.816  12.205 -1.9080 -0.4228 -0.2087
  168MPD2    N1 2571   0.255   2.873  12.760 -0.8755  0.1251  0.5878
  168MPD2    H7 2572   0.263   2.772  12.766  2.4718  0.4029  0.7181
  169MPD1     C 2573   2.142   3.236   8.752  0.7912 -0.3877 -0.7609
  169MPD1    C1 2574   2.236   3.153   8.688 -0.2335 -0.2706  0.1777
  169MPD1    C2 2575   2.281   3.044   8.752 -0.3708 -0.0289  0.0341
  169MPD1    C3 2576   2.215   3.003   8.870 -0.0698  0.7272 -0.1913
  169MPD1    C4 2577   2.106   3.073   8.918 -0.6530  0.4796 -0.0772
  169MPD1    C5 2578   2.074   3.188   8.861  0.0051  0.1796  0.2591
  169MPD1     H 2579   2.355   2.977   8.709  1.0514  1.6206 -0.0553
  169MPD1    H1 2580   2.065   3.037   9.011  0.0265  2.2679  0.9117
  169MPD1    H2 2581   2.115   3.331   8.707 -0.8131 -0.0218  0.9604
  169MPD1    H3 2582   2.003   3.252   8.913  1.3957  1.0746  1.0393
  169MPD1     N 2583   2.266   2.885   8.934  0.2167 -0.0474  0.6881
  169MPD1    H5 2584   2.347   2.844   8.889 -0.6298 -0.2499 -0.6377
  169MPD1    N1 2585   2.303   3.198   8.575  0.5721  0.1122 -0.3140
  169MPD1    H6 2586   2.342   3.115   8.529  0.0794  0.8671 -2.0869
  169MPD1    H7 2587   2.238   3.248   8.515 -0.6744 -0.1604  0.8268
  170MPD1     C 2588   1.252   0.170  13.202 -0.0731 -0.4300 -0.3545
  170MPD1    C1 2589   1.276   0.303  13.182 -0.0382  0.7914  0.5303
  170MPD1    C2 2590   1.288   0.393  13.290  0.3562  0.1735  0.6055
  170MPD1    C3 2591   1.270   0.344  13.421  0.0488 -0.2484 -0.1448
  170MPD1    C4 2592   1.259   0.209  13.440 -0.0051  0.0827 -0.8912
  170MPD1    C5 2593   1.244   0.128  13.335  0.5639 -0.1299 -0.7593
  170MPD1     H 2594   1.319   0.494  13.266  0.3446  0.0773  0.1840
  170MPD1    H1 2595   1.246   0.168  13.539  2.6109 -0.0331 -0.5990
  170MPD1    H2 2596   1.229   0.094  13.129 -1.3038 -0.1406 -0.2798
  170MPD1    H3 2597   1.218   0.024  13.352 -0.3068  0.1540 -0.3320
  170MPD1     N 2598   1.277   0.437  13.532 -0.0202 -0.5841 -0.4991
  170MPD1    H5 2599   1.251   0.533  13.509 -0.1550 -0.7864 -1.1932
  170MPD1    N1 2600   1.279   0.350  13.050  0.4482 -0.1883 -0.0064
  170MPD1    H6 2601   1.289   0.278  12.979  0.6702  1.2633 -1.4501
  170MPD1    H7 2602   1.361   0.407  13.030 -1.0083  1.7075 -0.6204
  171MPD1     C 2603   4.542   1.404  15.385  0.3410  0.3551 -0.1036
  171MPD1    C1 2604   4.578   1.286  15.328  0.7840  0.2449  0.3065
  171MPD1    C2 2605   4.648   1.209  15.417 -0.6307 -0.0590 -0.6886
  171MPD1    C3 2606   4.690   1.252  15.538 -0.7085  0.0385 -0.0055
  171MPD1    C4 2607   4.662   1.374  15.586 -0.1373  0.0445  0.2412
  171MPD1    C5 2608   4.585   1.451  15.505  0.2213  0.0850 -0.3497
  171MPD1     H 2609   4.676   1.112  15.376 -0.4657  0.1452 -1.0617
  171MPD1    H1 2610   4.697   1.402  15.685  1.1267  0.0084 -0.1923
  171MPD1    H2 2611   4.485   1.478  15.329 -1.6428 -0.0532  1.4060
  171MPD1    H3 2612   4.538   1.543  15.539 -2.1526 -1.0881 -0.4445
  171MPD1     N 2613   0.028   1.164  15.634  0.0212  0.3938  0.6801
  171MPD1    H5 2614   0.046   1.211  15.722  1.0564 -0.2511  0.8252
  171MPD1    N1 2615   4.504   1.229  15.220  0.1979 -0.0488 -0.3474
  171MPD1    H6 2616   4.475   1.292  15.145  1.0440 -0.2796 -0.8757
  171MPD1    H7 2617   4.554   1.149  15.182  2.2026  1.5780 -1.1596
  172MPD1     C 2618   3.988   0.250   0.486 -0.0872 -0.3349 -0.1449
  172MPD1    C1 2619   4.126   0.280   0.471  0.3554 -0.0986 -0.0146
  172MPD1    C2 2620   4.175   0.402   0.496 -0.2475 -0.1777  0.4943
  172MPD1    C3 2621   4.090   0.508   0.536  0.3165  0.3259  0.0723
  172MPD1    C4 2622   3.962   0.477   0.561  0.1181 -0.5388 -0.0033
  172MPD1    C5 2623   3.913   0.350   0.542  0.4514  0.8614 -0.1378
  172MPD1     H 2624   4.282   0.420   0.489 -0.1281 -1.6054 -1.1308
  172MPD1    H1 2625   3.890   0.546   0.604  2.3281  0.8068  1.5543
  172MPD1    H2 2626   3.944   0.153   0.468 -0.9100  0.2779 -1.4235
  172MPD1    H3 2627   3.811   0.327   0.571  0.1575 -0.5992 -2.4008
  172MPD1     N 2628   4.140   0.642   0.548  0.1198 -0.7420  0.3291
  172MPD1    H5 2629   4.237   0.660   0.525  0.0136 -0.1623  0.3454
  172MPD1    N1 2630   4.220   0.183   0.423  0.7625 -0.4977 -0.1961
  172MPD1    H6 2631   4.231   0.098   0.478 -0.5685 -0.1096  0.6559
  172MPD1    H7 2632   4.311   0.219   0.396  0.3395 -0.6036 -1.7441
  173MPD1     C 2633   0.977   0.665  13.496  0.7955  0.2001  0.3142
  173MPD1    C1 2634   1.018   0.755  13.593  0.3059  0.5204  0.3823
  173MPD1    C2 2635   1.005   0.710  13.726 -0.3264  0.0182 -0.2714
  173MPD1    C3 2636   0.933   0.598  13.757  0.4891 -0.0485 -0.1257
  173MPD1    C4 2637   0.888   0.517  13.656  0.1925 -0.2015 -0.0932
  173MPD1    C5 2638   0.911   0.553  13.525 -0.6517 -0.2624 -0.3373
  173MPD1     H 2639   1.048   0.773  13.803 -1.4464  0.7327 -0.2262
  173MPD1    H1 2640   0.850   0.416  13.663  0.0106 -0.1304 -0.0537
  173MPD1    H2 2641   0.996   0.691  13.393  1.9209 -1.5051  0.0809
  173MPD1    H3 2642   0.874   0.485  13.449 -1.4304 -0.8919  0.5953
  173MPD1     N 2643   0.913   0.569  13.894  0.3278 -0.0651 -0.5242
  173MPD1    H5 2644   0.969   0.616  13.964 -2.1954  0.2230  1.2997
  173MPD1    N1 2645   1.095   0.865  13.556  0.0456  0.0481  0.1747
  173MPD1    H6 2646   1.092   0.931  13.634 -0.2210 -0.9484  1.0068
  173MPD1    H7 2647   1.057   0.908  13.472  0.2360 -2.1660 -1.0319
  174MPD1     C 2648   0.812   4.297  14.030  0.2846 -0.5079 -0.0793
  174MPD1    C1 2649   0.873   4.335  14.151  0.0490  0.0576  0.2199
  174MPD1    C2 2650   0.886   4.471  14.163 -0.1531  0.1075  0.0514
  174MPD1    C3 2651   0.860   4.571  14.067 -0.0137  0.5997  0.5993
  174MPD1    C4 2652   0.813   4.524  13.947  0.7016 -0.6859  0.1835
  174MPD1    C5 2653   0.789   4.388  13.929  0.2139  0.0421  0.2403
  174MPD1     H 2654   0.918   4.498  14.263 -0.5139 -0.9470  0.4512
  174MPD1    H1 2655   0.780   4.583  13.862  1.2503 -0.2458  0.2751
  174MPD1    H2 2656   0.785   4.193  14.018  0.4572 -0.5719  0.0917
  174MPD1    H3 2657   0.741   4.355  13.838  0.5257 -2.1049  0.8434
  174MPD1     N 2658   0.863   4.714  14.087  0.1256 -0.2028 -0.5941
  174MPD1    H5 2659   0.829   0.050  14.010  2.1766 -1.7302 -2.5778
  174MPD1    N1 2660   0.881   4.251  14.262 -0.0686  0.2246 -0.3999
  174MPD1    H6 2661   0.950   4.279  14.332 -1.0369  2.3206 -0.2773
  174MPD1    H7 2662   0.801   4.255  14.325 -0.6346 -1.8525 -0.9748
  175MPD1     C 2663   4.297   1.159  15.654  0.0916 -0.4771 -0.5308
  175MPD1    C1 2664   4.170   1.206  15.645 -0.4319 -0.1734 -0.2952
  175MPD1    C2 2665   4.075   1.153  15.725  0.1824 -0.7134 -0.0011
  175MPD1    C3 2666   4.104   1.052  15.816  0.2516 -0.5769 -0.1236
  175MPD1    C4 2667   4.228   1.003  15.816 -0.1256  0.1015 -0.9632
  175MPD1    C5 2668   4.328   1.051  15.738 -0.3290  0.5545  0.4152
  175MPD1     H 2669   3.972   1.186  15.716 -0.1528 -2.2139 -1.6102
  175MPD1    H1 2670   4.258   0.932  15.892 -1.1655 -0.3695 -0.9888
  175MPD1    H2 2671   4.375   1.208  15.597  0.1147 -0.5677 -0.5761
  175MPD1    H3 2672   4.432   1.022  15.741 -0.5415 -0.2786 -0.2449
  175MPD1     N 2673   4.017   1.004  15.913  0.1249  0.1431 -0.2428
  175MPD1    H5 2674   4.060   0.954  15.990  2.0889  0.0263 -1.4181
  175MPD1    N1 2675   4.139   1.331  15.584  0.3260  0.0793 -0.0343
  175MPD1    H6 2676   4.180   1.345  15.492  0.3152  0.8125  0.0696
  175MPD1    H7 2677   4.038   1.344  15.575  0.0416  0.0488  3.0685
  176MPD1     C 2678   1.128   2.989  17.157  0.2447 -0.4978 -0.3757
  176MPD1    C1 2679   1.121   3.116  17.114 -0.2621  0.4674  0.2144
  176MPD1    C2 2680   1.023   3.204  17.152 -0.0284 -0.4085  0.4930
  176MPD1    C3 2681   0.937   3.174  17.250 -1.1187  0.2138 -0.7315
  176MPD1    C4 2682   0.946   3.042  17.304  0.8508  0.9029 -0.4509
  176MPD1    C5 2683   1.036   2.955  17.258  0.2966  0.9585 -0.8919
  176MPD1     H 2684   1.020   3.308  17.119  1.4641  0.0595  1.8451
  176MPD1    H1 2685   0.879   3.010  17.383  2.9981 -2.3094  0.0660
  176MPD1    H2 2686   1.198   2.917  17.117  0.8260 -0.9375  1.4247
  176MPD1    H3 2687   1.046   2.854  17.297 -0.6160  1.0753 -0.3424
  176MPD1     N 2688   0.851   3.266  17.296 -0.4276  0.2195  0.6749
  176MPD1    H5 2689   0.856   3.361  17.261  1.0640 -0.0943  0.0550
  176MPD1    N1 2690   1.194   3.151  17.002 -0.6189 -0.3706 -0.0194
  176MPD1    H6 2691   1.278   3.095  16.994  0.2171  0.8582  0.1233
  176MPD1    H7 2692   1.228   3.247  16.990  0.1190 -0.6322  0.0237
  177MPD1     C 2693   3.444   2.709  10.133 -0.4578  0.3203 -0.8868
  177MPD1    C1 2694   3.522   2.703  10.024 -0.2119 -0.3398  0.1719
  177MPD1    C2 2695   3.463   2.749   9.904  0.4650  0.8624  0.0907
  177MPD1    C3 2696   3.332   2.800   9.890  0.0873 -0.8104 -0.1980
  177MPD1    C4 2697   3.247   2.789  10.001  0.9034  0.4645  0.6982
  177MPD1    C5 2698   3.307   2.746  10.121 -0.0499 -0.2420  0.9312
  177MPD1     H 2699   3.523   2.758   9.814 -0.2436  3.3315 -0.1555
  177MPD1    H1 2700   3.142   2.817   9.999  1.2553  1.7875  0.4331
  177MPD1    H2 2701   3.485   2.678  10.228  0.1891  0.5554 -1.0903
  177MPD1    H3 2702   3.248   2.741  10.212  0.7355  0.8163  1.4975
  177MPD1     N 2703   3.282   2.842   9.762  0.6027  0.1583  0.2916
  177MPD1    H5 2704   3.345   2.838   9.683  1.0226 -2.5084  0.7795
  177MPD1    N1 2705   3.650   2.646  10.039 -0.4082  0.1272 -0.2226
  177MPD1    H6 2706   3.669   2.593   9.954 -0.5498 -2.8815  1.6327
  177MPD1    H7 2707   3.671   2.580  10.114 -1.6093  2.1396  1.8969
  178MPD1     C 2708   1.144   3.818   0.596 -0.0272 -0.0746 -0.2038
  178MPD1    C1 2709   1.218   3.931   0.580 -0.0745 -1.0816 -0.5362
  178MPD1    C2 2710   1.318   3.941   0.482 -0.3274  0.4566  0.2957
  178MPD1    C3 2711   1.354   3.823   0.418 -0.0448 -0.6220 -0.1038
  178MPD1    C4 2712   1.288   3.707   0.442  0.4737 -0.0643 -0.3783
  178MPD1    C5 2713   1.166   3.717   0.509  0.1308 -0.3716  0.9979
  178MPD1     H 2714   1.370   4.035   0.473  2.0340 -0.8529  0.2988
  178MPD1    H1 2715   1.306   3.617   0.384 -2.5559 -0.6575 -0.4029
  178MPD1    H2 2716   1.053   3.815   0.654  0.3620  2.5882  0.5465
  178MPD1    H3 2717   1.105   3.628   0.518 -1.2191  0.4066 -0.3566
  178MPD1     N 2718   1.443   3.822   0.310 -0.4955 -0.9886 -0.6284
  178MPD1    H5 2719   1.455   3.736   0.258 -2.5966 -2.7608  1.8646
  178MPD1    N1 2720   1.198   4.041   0.666 -0.2035  0.5746 -0.1756
  178MPD1    H6 2721   1.165   4.011   0.758  0.4826  0.3789  0.0095
  178MPD1    H7 2722   1.285   4.090   0.686 -0.1809  0.8711 -1.0070
  179MPD1     C 2723   1.035   2.551  15.625 -0.1899  0.0647 -0.8045
  179MPD1    C1 2724   0.998   2.456  15.532  0.0725  0.9330  0.0468
  179MPD1    C2 2725   0.980   2.326  15.571  0.5693  0.4586  0.6920
  179MPD1    C3 2726   1.022   2.283  15.698 -0.4157 -0.3482 -0.0912
  179MPD1    C4 2727   1.063   2.375  15.789 -0.1282 -0.4384 -0.6144
  179MPD1    C5 2728   1.073   2.507  15.754 -0.0657  0.0034 -0.1792
  179MPD1     H 2729   0.949   2.256  15.494  0.8478  0.7306  0.3347
  179MPD1    H1 2730   1.096   2.352  15.890  0.8279 -0.3548 -0.9081
  179MPD1    H2 2731   1.045   2.656  15.601 -1.4650 -0.0998 -2.0358
  179MPD1    H3 2732   1.121   2.569  15.829 -1.3377  1.4660 -0.5729
  179MPD1     N 2733   1.014   2.149  15.735  0.1344 -0.8014 -0.1832
  179MPD1    H5 2734   1.060   2.133  15.825  0.9600 -0.5447 -0.5563
  179MPD1    N1 2735   0.954   2.498  15.406 -0.8889 -0.2799 -0.0541
  179MPD1    H6 2736   0.976   2.430  15.334 -0.4890  0.1803 -0.3669
  179MPD1    H7 2737   0.995   2.588  15.382  1.3755 -1.1764  0.4177
  180MPD1     C 2738   0.611   3.959  14.910 -0.1342 -0.7591 -0.4384
  180MPD1    C1 2739   0.710   3.880  14.977 -0.5372  0.4505  0.1648
  180MPD1    C2 2740   0.740   3.762  14.924  0.3566  0.7003 -0.2852
  180MPD1    C3 2741   0.660   3.699  14.827 -0.3529  0.0924  0.1957
  180MPD1    C4 2742   0.560   3.773  14.765  0.4376  0.1761 -0.0704
  180MPD1    C5 2743   0.538   3.899  14.805 -0.0802 -0.3528 -0.1130
  180MPD1     H 2744   0.812   3.696  14.971  1.1887  2.2798  0.6296
  180MPD1    H1 2745   0.509   3.732  14.678  4.2872 -1.1699 -1.7036
  180MPD1    H2 2746   0.592   4.061  14.940  0.8496 -0.3362 -1.2557
  180MPD1    H3 2747   0.470   3.957  14.745 -0.4890  0.8747  1.5402
  180MPD1     N 2748   0.702   3.572  14.782 -0.4845  0.0308 -0.5654
  180MPD1    H5 2749   0.787   3.532  14.821 -2.2074 -0.6998  2.3643
  180MPD1    N1 2750   0.786   3.934  15.082 -0.2994 -0.5306 -0.0479
  180MPD1    H6 2751   0.826   3.856  15.135 -0.4772 -0.1926  0.5855
  180MPD1    H7 2752   0.753   4.001  15.151  0.8841 -0.4944  0.4862
  181MPD1     C 2753   1.891   0.466   9.702 -0.2219  0.6882  0.1316
  181MPD1    C1 2754   1.966   0.360   9.763 -0.2778  0.2503 -0.1265
  181MPD1    C2 2755   2.105   0.385   9.777  0.3405 -0.0580 -0.1200
  181MPD1    C3 2756   2.159   0.486   9.695 -0.3954  0.0391 -0.9879
  181MPD1    C4 2757   2.086   0.560   9.612  1.3175  0.5282 -0.2081
  181MPD1    C5 2758   1.944   0.562   9.622  0.5951 -0.2111  0.7213
  181MPD1     H 2759   2.161   0.313   9.835  1.1815  0.9013  0.2615
  181MPD1    H1 2760   2.131   0.628   9.541  0.7471  0.0735 -1.0161
  181MPD1    H2 2761   1.783   0.457   9.699 -0.4504  2.7682  1.8797
  181MPD1    H3 2762   1.880   0.627   9.564  2.3108  1.5196  0.7681
  181MPD1     N 2763   2.301   0.503   9.691  0.3744  0.1254 -0.3337
  181MPD1    H5 2764   2.334   0.589   9.648 -0.0639  0.4011 -0.1209
  181MPD1    N1 2765   1.902   0.261   9.849  0.0128 -0.1609 -0.2781
  181MPD1    H6 2766   1.806   0.248   9.818 -0.8233  2.1399  1.4018
  181MPD1    H7 2767   1.947   0.169   9.845  0.5898  0.1536 -1.1164
  182MPD1     C 2768   3.927   0.456   1.741 -0.4259  0.3631  0.2707
  182MPD1    C1 2769   3.971   0.470   1.612 -0.2044 -0.9709 -0.2398
  182MPD1    C2 2770   3.865   0.465   1.520  0.4792  0.3885  0.3838
  182MPD1    C3 2771   3.736   0.428   1.553  0.6136  0.2209  0.1514
  182MPD1    C4 2772   3.711   0.406   1.685 -0.7121 -0.1470  0.1791
  182MPD1    C5 2773   3.807   0.417   1.777 -0.2635 -0.7884 -0.2210
  182MPD1     H 2774   3.883   0.506   1.421  0.5285  1.1734  0.7177
  182MPD1    H1 2775   3.614   0.376   1.723 -1.2859 -0.2778 -1.3905
  182MPD1    H2 2776   4.001   0.468   1.820  1.0915 -0.7460 -0.9794
  182MPD1    H3 2777   3.792   0.399   1.883  0.1588  0.4208  0.0456
  182MPD1     N 2778   3.636   0.401   1.451  0.1310 -0.7332  0.2530
  182MPD1    H5 2779   3.541   0.381   1.481  0.2837 -0.1459  1.0971
  182MPD1    N1 2780   4.099   0.519   1.592  0.1472 -0.4713  0.0341
  182MPD1    H6 2781   4.172   0.474   1.646  1.5444  0.1227 -1.3321
  182MPD1    H7 2782   4.110   0.506   1.492  4.2493  0.9035  0.3125
  183MPD1     C 2783   4.359   1.028   9.935  0.5579 -0.6197  0.0453
  183MPD1    C1 2784   4.247   1.023   9.853 -0.1291 -0.2157  0.0559
  183MPD1    C2 2785   4.141   0.937   9.888 -0.2697  0.0463  0.3673
  183MPD1    C3 2786   4.146   0.860  10.007  0.0680 -0.3125 -0.1868
  183MPD1    C4 2787   4.253   0.873  10.093  0.2223 -0.2665  0.1256
  183MPD1    C5 2788   4.363   0.962  10.052 -0.0202 -0.8369  0.3235
  183MPD1     H 2789   4.059   0.926   9.817  0.9995 -1.4764 -0.8522
  183MPD1    H1 2790   4.274   0.807  10.177 -2.7290 -0.9887  0.2813
  183MPD1    H2 2791   4.441   1.094   9.910 -0.0889  0.0923 -0.1944
  183MPD1    H3 2792   4.450   0.967  10.116  0.3744 -0.3614 -0.2492
  183MPD1     N 2793   4.044   0.765  10.025 -0.4124  0.3808  0.1321
  183MPD1    H5 2794   3.970   0.770   9.956 -0.9360 -1.5837  0.5464
  183MPD1    N1 2795   4.257   1.082   9.729  0.3961 -0.2180  0.3670
  183MPD1    H6 2796   4.173   1.108   9.678 -1.4015 -3.8850  1.4793
  183MPD1    H7 2797   4.335   1.143   9.708  0.6883 -1.8094 -3.1931
  184MPD1     C 2798   2.213   2.885   9.998  0.5534  0.5874 -0.4525
  184MPD1    C1 2799   2.340   2.857  10.012  0.0176  0.2415  0.4604
  184MPD1    C2 2800   2.435   2.918   9.931 -0.3669 -0.0291 -0.2981
  184MPD1    C3 2801   2.399   2.998   9.825  1.0935 -0.6716  0.0110
  184MPD1    C4 2802   2.265   3.021   9.813  0.1631 -0.0183 -0.0195
  184MPD1    C5 2803   2.170   2.971   9.896  0.6045  0.7720 -0.4494
  184MPD1     H 2804   2.539   2.901   9.954 -0.8063 -0.3801  1.3744
  184MPD1    H1 2805   2.212   3.089   9.747  0.7083 -2.9426 -3.5095
  184MPD1    H2 2806   2.138   2.830  10.052  0.7627  0.8323  0.0877
  184MPD1    H3 2807   2.065   2.999   9.891  0.4607  0.1087 -1.2029
  184MPD1     N 2808   2.478   3.081   9.748  0.6800 -0.3330 -0.5903
  184MPD1    H5 2809   2.442   3.145   9.679 -1.2131 -1.0854 -0.3048
  184MPD1    N1 2810   2.382   2.781  10.117  0.1166  0.0127 -0.2428
  184MPD1    H6 2811   2.319   2.713  10.160 -0.7207 -0.3008 -1.9670
  184MPD1    H7 2812   2.468   2.731  10.094  1.2949  0.2919  3.5687
  185MPD1     C 2813   2.172   3.480   9.092  0.0011 -0.0347  0.5252
  185MPD1    C1 2814   2.292   3.540   9.085  0.2045 -0.0869  0.0006
  185MPD1    C2 2815   2.389   3.516   9.185  0.0521  0.3264 -0.2851
  185MPD1    C3 2816   2.371   3.401   9.269  0.8805  0.6276 -0.1622
  185MPD1    C4 2817   2.258   3.323   9.252  0.2717 -0.4505 -0.2550
  185MPD1    C5 2818   2.158   3.361   9.165 -0.3192  0.2773  0.1591
  185MPD1     H 2819   2.474   3.582   9.196  1.1357 -1.1342  0.0931
  185MPD1    H1 2820   2.238   3.232   9.308 -4.1221  1.3622  1.0848
  185MPD1    H2 2821   2.089   3.509   9.028  1.1097 -0.9316 -1.3181
  185MPD1    H3 2822   2.065   3.309   9.150 -1.9019  3.0040  0.5410
  185MPD1     N 2823   2.461   3.347   9.360 -0.2678 -0.0117 -0.3452
  185MPD1    H5 2824   2.432   3.264   9.411  0.3894  0.7563  1.2970
  185MPD1    N1 2825   2.314   3.645   8.992  0.0876  0.1384  0.3302
  185MPD1    H6 2826   2.414   3.666   8.991 -0.2872  2.0129  1.6811
  185MPD1    H7 2827   2.288   3.620   8.897  0.4276  2.2784 -0.3361
  186MPD1     C 2828   1.568   1.957  16.135  0.6802 -0.2451  0.3182
  186MPD1    C1 2829   1.642   2.071  16.120  0.5093  0.0017  0.1304
  186MPD1    C2 2830   1.704   2.128  16.230  0.5761 -0.2601  0.2036
  186MPD1    C3 2831   1.695   2.073  16.357  0.2320 -0.1573  0.1813
  186MPD1    C4 2832   1.631   1.951  16.369  0.4860  0.1601  0.5784
  186MPD1    C5 2833   1.570   1.892  16.255 -0.1858 -0.2105  0.2493
  186MPD1     H 2834   1.770   2.213  16.212 -0.1433  0.3673  0.5106
  186MPD1    H1 2835   1.633   1.887  16.457 -0.0361 -1.6887 -0.7468
  186MPD1    H2 2836   1.520   1.913  16.049 -0.8930  2.2778 -0.1114
  186MPD1    H3 2837   1.533   1.790  16.261 -2.0847  0.5390  1.1818
  186MPD1     N 2838   1.759   2.118  16.473  0.6034 -0.3638  0.8649
  186MPD1    H5 2839   1.744   2.066  16.559 -3.8404 -1.2468 -0.4542
  186MPD1    N1 2840   1.670   2.118  15.984 -0.6130  0.0445 -0.5168
  186MPD1    H6 2841   1.710   2.211  15.995 -2.7864  0.8758  0.4521
  186MPD1    H7 2842   1.589   2.132  15.925 -1.2097 -0.0158  0.2824
  187MPD1     C 2843   0.726   3.862   0.528 -0.0132  0.9162  0.1940
  187MPD1    C1 2844   0.659   3.831   0.409  0.6595  0.7386 -0.1805
  187MPD1    C2 2845   0.654   3.927   0.311 -0.4125 -0.6477 -0.7342
  187MPD1    C3 2846   0.725   4.046   0.321  0.5509  0.4867 -0.1337
  187MPD1    C4 2847   0.805   4.068   0.431 -0.3108  0.4765 -0.2907
  187MPD1    C5 2848   0.805   3.972   0.532 -0.5899  1.8530  0.3869
  187MPD1     H 2849   0.579   3.913   0.234  0.2293 -0.1848 -1.4509
  187MPD1    H1 2850   0.883   4.143   0.439 -1.8984  2.0898 -0.1289
  187MPD1    H2 2851   0.719   3.795   0.614  0.1667 -1.1637 -1.4029
  187MPD1    H3 2852   0.865   3.984   0.621 -0.2717 -0.5272  0.4677
  187MPD1     N 2853   0.732   4.142   0.212  0.1033 -0.2184  0.2164
  187MPD1    H5 2854   0.784   4.229   0.217 -3.9854  2.2737 -0.7847
  187MPD1    N1 2855   0.577   3.721   0.387 -0.0168 -0.2760 -0.0729
  187MPD1    H6 2856   0.547   3.705   0.291 -0.4199  1.6197 -0.2705
  187MPD1    H7 2857   0.597   3.640   0.445 -0.3696  1.5410  2.5651
  188MPD1     C 2858   0.472   3.979  10.345 -0.2051  0.6733  0.0878
  188MPD1    C1 2859   0.598   3.947  10.359  0.3197  0.5046  0.5472
  188MPD1    C2 2860   0.646   3.849  10.269 -0.3454  0.2336  0.7093
  188MPD1    C3 2861   0.562   3.774  10.186  0.6666  0.1074 -0.3899
  188MPD1    C4 2862   0.430   3.814  10.177 -0.3513  0.5401 -0.0876
  188MPD1    C5 2863   0.388   3.903  10.271 -0.2223  0.5114  0.1288
  188MPD1     H 2864   0.752   3.829  10.257 -0.6823 -1.4313  0.5931
  188MPD1    H1 2865   0.355   3.752  10.129  1.1175 -2.4111  1.4689
  188MPD1    H2 2866   0.428   4.054  10.411 -0.7132  1.5189 -1.2269
  188MPD1    H3 2867   0.281   3.921  10.263 -0.1686  1.3153  1.2036
  188MPD1     N 2868   0.607   3.662  10.106  0.0707 -0.3220 -0.1812
  188MPD1    H5 2869   0.529   3.631  10.049  0.0282 -0.4807 -0.0356
  188MPD1    N1 2870   0.690   4.034  10.420 -0.3954 -0.1307  0.2639
  188MPD1    H6 2871   0.653   4.080  10.502 -2.6810 -1.1308 -0.2032
  188MPD1    H7 2872   0.773   3.981  10.447 -1.8841 -1.1182  2.8432
  189MPD1     C 2873   3.036   0.080   0.118 -0.3035  0.0649  0.3537
  189MPD1    C1 2874   2.982   0.096   0.242 -0.0211 -0.0819  0.7006
  189MPD1    C2 2875   2.898   0.200   0.270 -0.4303  0.3815  0.0375
  189MPD1    C3 2876   2.865   0.289   0.171 -1.0811 -0.4059  0.2531
  189MPD1    C4 2877   2.913   0.263   0.045 -0.5963 -0.1261  0.2753
  189MPD1    C5 2878   3.001   0.165   0.021 -0.4190  0.0079  0.2273
  189MPD1     H 2879   2.867   0.212   0.373 -0.7741  0.7171 -0.1089
  189MPD1    H1 2880   2.877   0.313  17.637 -2.2218  1.9405  2.0941
  189MPD1    H2 2881   3.106   0.000   0.097  0.9407  0.9719  1.1272
  189MPD1    H3 2882   3.045   0.154  17.603 -0.1981 -1.0342  0.4434
  189MPD1     N 2883   2.770   0.378   0.200 -0.7436  0.0144  0.2114
  189MPD1    H5 2884   2.724   0.369   0.290 -2.8743  0.7748 -0.7948
  189MPD1    N1 2885   3.000   0.003   0.345  0.5110  0.2222 -0.1025
  189MPD1    H6 2886   3.081   4.662   0.337 -0.0835 -0.6352  0.3495
  189MPD1    H7 2887   2.996   0.060   0.430  1.6559  0.3906 -0.1605
  190MPD1     C 2888   0.877   3.338  15.636 -0.0547 -0.4053 -0.5165
  190MPD1    C1 2889   0.898   3.384  15.762 -0.1990  0.4209  0.0449
  190MPD1    C2 2890   1.025   3.388  15.810 -0.9431 -0.1728  0.3952
  190MPD1    C3 2891   1.135   3.375  15.728 -0.4962 -0.5439 -0.0190
  190MPD1    C4 2892   1.117   3.357  15.593 -0.3759  0.2030  0.3664
  190MPD1    C5 2893   0.984   3.340  15.551 -0.2323 -0.0635  0.2723
  190MPD1     H 2894   1.031   3.408  15.916  0.1992 -2.8542  0.8550
  190MPD1    H1 2895   1.198   3.365  15.523 -2.6921  1.1680 -2.1924
  190MPD1    H2 2896   0.779   3.328  15.590 -0.5999 -0.5108  0.6486
  190MPD1    H3 2897   0.963   3.322  15.447 -0.6209  1.6269  0.0528
  190MPD1     N 2898   1.262   3.383  15.791 -0.3275 -0.2030 -0.1820
  190MPD1    H5 2899   1.264   3.411  15.889 -1.4798 -0.7417 -0.0011
  190MPD1    N1 2900   0.794   3.400  15.854  0.2321 -0.3419 -0.0104
  190MPD1    H6 2901   0.826   3.452  15.935 -0.4648 -1.0638  0.7281
  190MPD1    H7 2902   0.707   3.437  15.817  0.1670  0.5427  1.0440
  191MPD1     C 2903   0.532   0.557  13.169  0.3899 -0.1932 -0.2815
  191MPD1    C1 2904   0.616   0.650  13.117 -0.0376  0.1034 -0.4796
  191MPD1    C2 2905   0.564   0.740  13.028  0.4375  0.1917  0.5455
  191MPD1    C3 2906   0.444   0.718  12.972  0.9409 -0.6391 -0.5220
  191MPD1    C4 2907   0.365   0.618  13.009  0.8740 -0.0871  0.0413
  191MPD1    C5 2908   0.411   0.537  13.117 -0.0498  0.0903  0.6814
  191MPD1     H 2909   0.623   0.826  12.997 -1.0405  1.2149  0.5274
  191MPD1    H1 2910   0.263   0.595  12.979  0.8083  2.9222 -2.0735
  191MPD1    H2 2911   0.559   0.495  13.254  0.3095  1.5744  1.0266
  191MPD1    H3 2912   0.344   0.462  13.158 -1.9515  0.7834 -1.1308
  191MPD1     N 2913   0.414   0.816  12.875  0.4856 -0.6828  0.1615
  191MPD1    H5 2914   0.492   0.872  12.843 -0.5984  0.1047 -1.1262
  191MPD1    N1 2915   0.735   0.683  13.186 -0.0430 -0.4230 -0.7350
  191MPD1    H6 2916   0.796   0.608  13.217 -0.3714 -0.2882  0.2303
  191MPD1    H7 2917   0.798   0.739  13.129 -0.2635  1.5097  0.9345
  192MPD1     C 2918   4.430   1.411  12.277 -0.0018 -0.4273 -0.6527
  192MPD1    C1 2919   4.397   1.314  12.372 -0.0814  0.5030  0.6374
  192MPD1    C2 2920   4.499   1.233  12.407  0.2371 -0.0412  0.1804
  192MPD1    C3 2921   4.632   1.255  12.372 -0.2569  1.1659 -0.0621
  192MPD1    C4 2922   4.661   1.361  12.282 -0.3597  0.4901 -0.3020
  192MPD1    C5 2923   4.555   1.434  12.222  0.0017  0.4501 -0.4243
  192MPD1     H 2924   4.475   1.145  12.464 -1.2933 -1.0367 -1.9924
  192MPD1    H1 2925   0.045   1.381  12.259 -0.6459  0.8326 -1.2698
  192MPD1    H2 2926   4.350   1.477  12.247  0.7598  0.0319 -1.6668
  192MPD1    H3 2927   4.571   1.517  12.155  0.5417  0.3749 -0.3885
  192MPD1     N 2928   0.023   1.176  12.417  0.1567  0.1607 -0.4395
  192MPD1    H5 2929   0.114   1.200  12.379  0.4114 -0.1098 -0.0016
  192MPD1    N1 2930   4.267   1.291  12.423 -0.4356  0.3056  0.2887
  192MPD1    H6 2931   4.268   1.257  12.519 -0.7951 -0.5407 -0.0079
  192MPD1    H7 2932   4.223   1.383  12.427 -1.0929 -0.0117  0.4419
  193MPD1     C 2933   0.459   1.090  17.639  0.0763  0.0307 -0.6707
  193MPD1    C1 2934   0.418   1.215  17.624  0.6283  0.2625  0.9132
  193MPD1    C2 2935   0.413   1.273  17.496  0.2844 -0.4535  0.0949
  193MPD1    C3 2936   0.457   1.207  17.383 -0.2489  1.2751 -0.4304
  193MPD1    C4 2937   0.488   1.074  17.399  0.1730 -0.1716 -0.4504
  193MPD1    C5 2938   0.499   1.020  17.527 -0.4150 -0.0916 -0.1461
  193MPD1     H 2939   0.362   1.368  17.484 -1.3287 -1.2204  0.9328
  193MPD1    H1 2940   0.520   1.018  17.311  0.3166  0.1304 -0.5927
  193MPD1    H2 2941   0.454   1.037   0.052 -0.7367  1.4059  0.0600
  193MPD1    H3 2942   0.545   0.921  17.526  2.3609  1.2108 -1.4959
  193MPD1     N 2943   0.458   1.250  17.254 -0.0488 -0.2092  0.2704
  193MPD1    H5 2944   0.479   1.180  17.184 -0.8632  0.0945 -0.2839
  193MPD1    N1 2945   0.375   1.277   0.058 -0.6247 -0.3016  0.1949
  193MPD1    H6 2946   0.439   1.254   0.134 -0.1570  0.9371  0.1743
  193MPD1    H7 2947   0.375   1.378   0.049  1.2849 -0.2351  0.8586
  194MPD1     C 2948   2.962   3.617  16.668  0.6243 -0.0992  0.2996
  194MPD1    C1 2949   2.969   3.521  16.577 -0.0523 -0.3815 -0.4561
  194MPD1    C2 2950   2.967   3.390  16.618 -0.1318  0.1197 -0.4525
  194MPD1    C3 2951   2.942   3.361  16.756 -0.3171  0.1113 -0.2331
  194MPD1    C4 2952   2.937   3.461  16.848  0.4765 -0.2362 -0.2606
  194MPD1    C5 2953   2.952   3.591  16.799  0.5196 -0.2735  0.0357
  194MPD1     H 2954   2.972   3.315  16.539  2.1822  0.3248 -0.5138
  194MPD1    H1 2955   2.931   3.452  16.956  1.7514  0.6712 -0.1117
  194MPD1    H2 2956   2.952   3.722  16.643 -1.4587 -0.1571  0.9289
  194MPD1    H3 2957   2.952   3.673  16.870 -3.0585 -0.2857  0.0159
  194MPD1     N 2958   2.938   3.230  16.806 -0.1266 -0.9117 -0.1499
  194MPD1    H5 2959   2.943   3.224  16.907  1.1120 -2.5769 -0.3125
  194MPD1    N1 2960   3.006   3.549  16.441 -0.5345  0.4083 -0.9845
  194MPD1    H6 2961   3.021   3.471  16.377 -0.3574 -0.8856  0.6404
  194MPD1    H7 2962   2.981   3.635  16.392  0.7583  1.6319  0.4835
  195MPD1     C 2963   0.173   0.235  17.467 -0.3303  0.3000 -0.3262
  195MPD1    C1 2964   0.172   0.179  17.342 -0.9412 -0.7598 -0.2559
  195MPD1    C2 2965   0.116   0.057  17.344  0.6279 -0.3684 -0.0912
  195MPD1    C3 2966   0.058   4.716  17.458  0.2522 -0.5400  0.4757
  195MPD1    C4 2967   0.046   0.066  17.576  0.7988 -0.1911  0.5021
  195MPD1    C5 2968   0.107   0.190  17.579 -1.0653 -0.6923  0.1131
  195MPD1     H 2969   0.138   4.719  17.255 -2.5978 -2.2281  0.2954
  195MPD1    H1 2970   4.713   0.031  17.664  0.1488  2.2770  1.0930
  195MPD1    H2 2971   0.241   0.318  17.482 -1.9594  1.3346  1.5153
  195MPD1    H3 2972   0.119   0.263  17.658 -0.3249 -0.1331 -0.5160
  195MPD1     N 2973   0.013   4.585  17.464 -0.1599  0.3165  0.3739
  195MPD1    H5 2974   4.702   4.551  17.555  2.3084  0.4645  1.2663
  195MPD1    N1 2975   0.264   0.213  17.248  0.0910 -0.0935  0.2023
  195MPD1    H6 2976   0.267   0.314  17.243  2.1186 -0.1307  0.5149
  195MPD1    H7 2977   0.237   0.183  17.154  0.5872 -0.1366  0.0683
  196MPD1     C 2978   4.023   4.120   1.883  0.1105 -0.2058 -0.0363
  196MPD1    C1 2979   4.048   4.247   1.923  0.7488  0.0563 -0.2129
  196MPD1    C2 2980   4.104   4.332   1.829  0.3048 -0.2158 -0.3467
  196MPD1    C3 2981   4.108   4.304   1.694  0.1604 -0.1613  0.4215
  196MPD1    C4 2982   4.061   4.184   1.659 -0.6792  0.6091 -0.6377
  196MPD1    C5 2983   4.008   4.095   1.750  0.2553  0.5840 -0.3939
  196MPD1     H 2984   4.132   4.429   1.866 -0.2171 -0.0929 -0.2691
  196MPD1    H1 2985   4.062   4.148   1.557  2.1611 -0.5033 -0.2049
  196MPD1    H2 2986   3.982   4.045   1.951 -0.5111  0.3785  0.2327
  196MPD1    H3 2987   3.964   4.000   1.721  2.0146 -0.0358 -1.0828
  196MPD1     N 2988   4.159   4.394   1.597 -0.3716 -0.0630 -0.5050
  196MPD1    H5 2989   4.142   4.367   1.501  0.2380 -1.9186 -0.0905
  196MPD1    N1 2990   4.048   4.274   2.062  0.0014 -0.1578  0.5481
  196MPD1    H6 2991   4.030   4.373   2.082 -1.1680 -0.8355  2.8947
  196MPD1    H7 2992   3.992   4.215   2.123  2.0145 -1.1839  1.4187
  197MPD1     C 2993   3.307   2.018  17.456  0.0235 -0.4074 -0.0620
  197MPD1    C1 2994   3.399   2.109  17.496  0.2665 -0.7016  0.2246
  197MPD1    C2 2995   3.512   2.118  17.419  0.0588  0.0181  0.0983
  197MPD1    C3 2996   3.534   2.038  17.310  0.2604 -0.3973 -0.2553
  197MPD1    C4 2997   3.446   1.936  17.282 -0.2827  0.1760 -0.0281
  197MPD1    C5 2998   3.332   1.930  17.355 -0.3426 -0.0256 -0.3507
  197MPD1     H 2999   3.582   2.197  17.440  1.3453 -0.6027 -1.8132
  197MPD1    H1 3000   3.466   1.870  17.199  0.2247 -1.8703  1.7062
  197MPD1    H2 3001   3.211   2.019  17.506 -0.1992  0.2177 -0.5023
  197MPD1    H3 3002   3.255   1.860  17.324 -1.7436  0.0972  2.9403
  197MPD1     N 3003   3.653   2.043  17.230  0.0650  0.2466 -0.1300
  197MPD1    H5 3004   3.663   1.968  17.163  1.2748 -0.3624  0.7330
  197MPD1    N1 3005   3.368   2.207  17.589 -0.5774  0.3053 -0.4886
  197MPD1    H6 3006   3.461   2.233  17.622 -0.9409  0.6157  0.2845
  197MPD1    H7 3007   3.322   2.167  17.671 -0.2906  1.0419  0.0368
  198MPD1     C 3008   2.017   3.855  16.412  0.3577  0.9014  0.6182
  198MPD1    C1 3009   1.987   3.983  16.380 -0.4151  0.9186  0.2138
  198MPD1    C2 3010   1.878   4.045  16.439  0.2338  0.6372  0.0251
  198MPD1    C3 3011   1.808   3.990  16.549 -0.4422 -0.0681 -0.0841
  198MPD1    C4 3012   1.853   3.866  16.589  0.3126 -0.1015 -0.1616
  198MPD1    C5 3013   1.950   3.796  16.518 -0.2305 -0.0376 -0.0381
  198MPD1     H 3014   1.835   4.135  16.397 -1.6651 -0.1279  0.3056
  198MPD1    H1 3015   1.812   3.817  16.676 -0.2070  2.5095  1.0592
  198MPD1    H2 3016   2.093   3.808  16.350 -0.7570  0.7812 -0.6710
  198MPD1    H3 3017   1.967   3.693  16.546 -1.1677 -0.3796 -0.7464
  198MPD1     N 3018   1.691   4.055  16.587  0.2288 -0.4330  0.1347
  198MPD1    H5 3019   1.662   4.142  16.542  2.3283 -1.1651 -2.5858
  198MPD1    N1 3020   2.042   4.043  16.265  0.0145  0.1929  0.0897
  198MPD1    H6 3021   2.136   4.010  16.246  0.2997  1.0953 -0.0825
  198MPD1    H7 3022   2.030   4.144  16.262 -1.6817 -0.0011  0.5330
  199MPD1     C 3023   3.271   2.004  10.353 -0.8907 -0.6470  0.4116
  199MPD1    C1 3024   3.164   1.940  10.405 -0.1277 -0.0236  0.2369
  199MPD1    C2 3025   3.039   1.932  10.349  0.1842 -0.1931  0.0604
  199MPD1    C3 3026   3.032   1.986  10.227 -0.2475  0.1769  0.0002
  199MPD1    C4 3027   3.136   2.055  10.164  0.3881 -0.2813  0.0020
  199MPD1    C5 3028   3.261   2.060  10.225 -0.3422 -0.4677  0.4604
  199MPD1     H 3029   2.950   1.896  10.399 -0.4735  0.4589 -0.6599
  199MPD1    H1 3030   3.109   2.096  10.067  1.5597  2.8624  0.9913
  199MPD1    H2 3031   3.364   2.014  10.408 -0.0569  1.0624 -1.3140
  199MPD1    H3 3032   3.341   2.115  10.176 -0.8027 -0.7453 -0.5814
  199MPD1     N 3033   2.912   1.975  10.153  0.1567  0.0452  0.1430
  199MPD1    H5 3034   2.909   2.022  10.063  1.5235  0.7946  0.4888
  199MPD1    N1 3035   3.183   1.898  10.539 -0.2745 -0.4133 -0.0481
  199MPD1    H6 3036   3.155   1.801  10.547 -1.7010  0.0645  0.7220
  199MPD1    H7 3037   3.282   1.906  10.563 -0.9741  0.3470  2.5862
  200MPD1     C 3038   2.361   1.729  15.520  0.0832  0.1320 -0.1353
  200MPD1    C1 3039   2.315   1.839  15.446  0.2268 -0.7926 -0.1928
  200MPD1    C2 3040   2.309   1.966  15.505  0.1180 -0.4868 -0.6200
  200MPD1    C3 3041   2.369   1.986  15.626  0.0281  0.6865 -0.0112
  200MPD1    C4 3042   2.418   1.878  15.687 -0.7443  0.2688  0.1897
  200MPD1    C5 3043   2.419   1.753  15.639  0.4885 -0.0152 -0.1450
  200MPD1     H 3044   2.265   2.047  15.448 -2.1342 -0.6750  0.8955
  200MPD1    H1 3045   2.450   1.882  15.791  0.0699 -2.8987  0.0389
  200MPD1    H2 3046   2.367   1.628  15.480 -2.5950 -0.5310  1.1720
  200MPD1    H3 3047   2.457   1.670  15.698  1.9451 -1.0491 -2.5487
  200MPD1     N 3048   2.380   2.118  15.677 -0.6715 -0.5478  0.0747
  200MPD1    H5 3049   2.319   2.182  15.628 -1.5419 -0.1558  1.6727
  200MPD1    N1 3050   2.248   1.808  15.327  0.2076 -0.1947 -0.4602
  200MPD1    H6 3051   2.294   1.734  15.274  1.4758  0.9858 -0.9947
  200MPD1    H7 3052   2.234   1.892  15.272  0.9700  2.1339  2.9524
  201MPD1     C 3053   0.262   3.890  12.283  0.5080 -0.1504  0.0244
  201MPD1    C1 3054   0.331   3.874  12.405 -0.0347  0.0839 -0.0607
  201MPD1    C2 3055   0.260   3.909  12.515  0.0087  0.4749  0.7343
  201MPD1    C3 3056   0.129   3.959  12.514  0.2620 -0.1473  0.6765
  201MPD1    C4 3057   0.066   3.971  12.393  0.2694  0.1900 -0.1592
  201MPD1    C5 3058   0.128   3.933  12.278  0.2221  0.4811 -0.0165
  201MPD1     H 3059   0.302   3.884  12.612  1.4381  2.4678  0.6384
  201MPD1    H1 3060   4.681   3.996  12.386  0.6662  1.9160  0.0473
  201MPD1    H2 3061   0.314   3.867  12.191 -1.6693 -0.9171 -1.0149
  201MPD1    H3 3062   0.084   3.925  12.179  0.1044  1.5218 -0.0404
  201MPD1     N 3063   0.063   3.983  12.642  0.5735  0.0221 -0.2986
  201MPD1    H5 3064   0.104   3.943  12.726 -2.5897  0.6875  1.5718
  201MPD1    N1 3065   0.454   3.809  12.408 -0.0793  0.0598 -0.1739
  201MPD1    H6 3066   0.519   3.814  12.486 -1.9615 -3.9151  1.6822
  201MPD1    H7 3067   0.508   3.816  12.322 -0.5594  0.5079 -0.4350
  202MPD1     C 3068   4.258   0.069   9.528  0.1023  0.2451  0.0598
  202MPD1    C1 3069   4.343   4.678   9.530  0.7712 -0.7612  0.1809
  202MPD1    C2 3070   4.279   4.558   9.539 -0.3771 -0.2544  0.0417
  202MPD1    C3 3071   4.161   4.551   9.605  0.0317 -0.4721 -0.0617
  202MPD1    C4 3072   4.083   4.663   9.606 -0.0694  0.0327 -0.2112
  202MPD1    C5 3073   4.124   0.060   9.554  0.0435  0.2600  0.9971
  202MPD1     H 3074   4.336   4.467   9.523  0.7224  0.4763 -0.1499
  202MPD1    H1 3075   3.978   4.652   9.632  0.0229  0.1737  0.2353
  202MPD1    H2 3076   4.295   0.165   9.496  0.6495  0.4285  1.2686
  202MPD1    H3 3077   4.060   0.146   9.542  0.7240  0.3116 -2.1814
  202MPD1     N 3078   4.104   4.431   9.671  0.5848  0.3838 -0.5090
  202MPD1    H5 3079   4.017   4.449   9.720  0.5583  1.3143 -0.8921
  202MPD1    N1 3080   4.466   4.693   9.454  0.1955  0.4139 -0.8040
  202MPD1    H6 3081   4.513   0.063   9.463  1.1565 -0.2040  0.2714
  202MPD1    H7 3082   4.524   4.619   9.493 -1.0087 -0.4110 -0.5865
  203MPD1     C 3083   2.623   0.880  12.695 -0.9507 -0.5000  0.0656
  203MPD1    C1 3084   2.737   0.888  12.625  0.3322 -0.3383 -0.5535
  203MPD1    C2 3085   2.832   0.785  12.631 -0.2847  0.1518  0.1200
  203MPD1    C3 3086   2.806   0.677  12.708 -0.3591 -0.2503  0.1431
  203MPD1    C4 3087   2.696   0.677  12.793  0.0514 -0.3753  0.0820
  203MPD1    C5 3088   2.599   0.775  12.779  0.1167  0.7330  1.0306
  203MPD1     H 3089   2.932   0.799  12.591 -0.9071 -1.0367 -1.8713
  203MPD1    H1 3090   2.671   0.586  12.846 -1.7773  0.8050  1.2511
  203MPD1    H2 3091   2.549   0.959  12.694 -2.3204 -1.7719  0.1520
  203MPD1    H3 3092   2.505   0.771  12.833 -0.0798 -1.5701  0.5206
  203MPD1     N 3093   2.889   0.568  12.698  0.0122  0.2087  0.4252
  203MPD1    H5 3094   2.963   0.586  12.630 -0.2454  0.9834  0.3492
  203MPD1    N1 3095   2.750   0.982  12.521  1.0320 -0.2842  0.1207
  203MPD1    H6 3096   2.707   1.068  12.555  0.6367 -0.9850  1.4044
  203MPD1    H7 3097   2.849   0.990  12.499  0.4518  1.1953 -1.9650
  204MPD1     C 3098   2.312   1.703   0.243 -1.4204  0.1290  0.4250
  204MPD1    C1 3099   2.214   1.630   0.181  0.2199  0.9416 -0.2120
  204MPD1    C2 3100   2.240   1.582   0.049  0.6235  0.2841  0.5908
  204MPD1    C3 3101   2.360   1.605  17.666 -0.4983  0.0593  0.7908
  204MPD1    C4 3102   2.460   1.667   0.058 -0.3217  0.8462  0.0576
  204MPD1    C5 3103   2.427   1.717   0.182 -0.0329  0.5274  0.3898
  204MPD1     H 3104   2.171   1.513   0.003 -0.7913  2.1542 -0.0534
  204MPD1    H1 3105   2.559   1.692   0.021 -0.8762  1.4468 -1.0447
  204MPD1    H2 3106   2.299   1.755   0.337  0.9003  1.8561 -0.2008
  204MPD1    H3 3107   2.504   1.780   0.225 -1.5466  0.7079  2.8768
  204MPD1     N 3108   2.381   1.543  17.540  0.6112  0.5124 -0.1501
  204MPD1    H5 3109   2.301   1.496  17.498  1.3190 -1.5086  0.7647
  204MPD1    N1 3110   2.094   1.613   0.258  0.2965  0.4146  0.1025
  204MPD1    H6 3111   2.113   1.576   0.351 -0.4705  0.1988  0.1704
  204MPD1    H7 3112   2.011   1.572   0.215 -0.3036  1.1569  0.5628
  205MPD1     C 3113   3.236   0.223  16.961 -0.0420  0.8826  0.3832
  205MPD1    C1 3114   3.245   0.139  17.067 -0.3617 -0.7049 -0.8690
  205MPD1    C2 3115   3.141   0.150  17.160  0.1022  0.0213 -0.0893
  205MPD1    C3 3116   3.040   0.242  17.137 -0.5308  0.3513  0.3223
  205MPD1    C4 3117   3.042   0.326  17.032 -0.8068  0.3970  0.0138
  205MPD1    C5 3118   3.136   0.316  16.937 -0.3386  0.6365 -0.5588
  205MPD1     H 3119   3.139   0.097  17.254 -1.5431 -0.0684 -0.1727
  205MPD1    H1 3120   2.961   0.396  17.013 -1.5089 -0.0917  1.1727
  205MPD1    H2 3121   3.323   0.213  16.896 -0.1837  1.1899  0.1450
  205MPD1    H3 3122   3.138   0.389  16.856  0.9164  0.2922 -0.8451
  205MPD1     N 3123   2.922   0.264  17.218 -0.7641 -0.1005  0.0106
  205MPD1    H5 3124   2.845   0.324  17.189  1.1858  1.9087 -0.9389
  205MPD1    N1 3125   3.363   0.068  17.098  0.5129 -0.2664  0.1631
  205MPD1    H6 3126   3.350   0.015  17.184  0.6783  0.3198  0.5492
  205MPD1    H7 3127   3.383   4.719  17.026 -1.4354  0.2563 -0.8715
  206MPD1     C 3128   3.252   3.250  17.038  0.3306 -0.2040 -1.0251
  206MPD1    C1 3129   3.282   3.117  17.019 -0.3126  0.0026  0.7150
  206MPD1    C2 3130   3.296   3.066  16.893  0.1010  0.0088 -0.0636
  206MPD1    C3 3131   3.270   3.149  16.786  0.1732  0.9670 -0.5786
  206MPD1    C4 3132   3.256   3.284  16.806  0.3000  0.1659  0.0213
  206MPD1    C5 3133   3.248   3.332  16.929  0.4082 -0.1617  1.0883
  206MPD1     H 3134   3.302   2.959  16.873  0.1933 -0.1835  0.9605
  206MPD1    H1 3135   3.239   3.353  16.724 -1.0372  0.2015  0.3221
  206MPD1    H2 3136   3.257   3.292  17.138  0.3277 -1.4002 -0.5137
  206MPD1    H3 3137   3.244   3.440  16.944  0.1079 -0.0967  0.5213
  206MPD1     N 3138   3.267   3.108  16.651 -0.1952  0.3168 -0.2441
  206MPD1    H5 3139   3.250   3.180  16.582 -0.9415  0.4487  0.0802
  206MPD1    N1 3140   3.329   3.050  17.136 -0.2962  0.6651 -0.1286
  206MPD1    H6 3141   3.269   3.086  17.210  0.1462 -0.1148  0.6102
  206MPD1    H7 3142   3.310   2.950  17.128  0.0531  0.5961 -0.0762
  207MPD1     C 3143   0.561   1.660   9.138  0.4794  0.2788 -0.2669
  207MPD1    C1 3144   0.509   1.543   9.181 -0.2263 -0.0806  0.5473
  207MPD1    C2 3145   0.549   1.498   9.307 -0.0744 -0.2261  0.0264
  207MPD1    C3 3146   0.642   1.564   9.385  0.2269  0.1478  0.1307
  207MPD1    C4 3147   0.694   1.683   9.333  0.3538  0.2616 -0.5463
  207MPD1    C5 3148   0.655   1.725   9.212 -0.1225 -0.6216  0.1271
  207MPD1     H 3149   0.498   1.408   9.342 -1.7508  0.1456 -1.4975
  207MPD1    H1 3150   0.766   1.749   9.380  0.0800  1.9730 -2.5570
  207MPD1    H2 3151   0.542   1.703   9.040  1.9350  1.3003 -0.0950
  207MPD1    H3 3152   0.693   1.818   9.171 -0.7523 -0.2643  0.3609
  207MPD1     N 3153   0.677   1.528   9.517  0.2860  0.0713 -0.1962
  207MPD1    H5 3154   0.739   1.594   9.563  0.8403  0.8615 -2.0488
  207MPD1    N1 3155   0.433   1.461   9.097  0.0447  0.4400  0.5193
  207MPD1    H6 3156   0.374   1.520   9.038 -0.5103  1.0409  1.6925
  207MPD1    H7 3157   0.375   1.402   9.156  0.2155  1.0159  1.2618
  208MPD1     C 3158   3.201   3.739   1.124  0.0437  0.9647  0.0676
  208MPD1    C1 3159   3.215   3.871   1.160  1.1067 -0.6070  0.1741
  208MPD1    C2 3160   3.174   3.968   1.070 -0.1192  0.4117  0.1262
  208MPD1    C3 3161   3.121   3.938   0.947  0.0124 -0.4978  0.1524
  208MPD1    C4 3162   3.115   3.806   0.911 -0.3052 -0.0653  0.0284
  208MPD1    C5 3163   3.146   3.705   1.005  0.3939  0.6657  0.3087
  208MPD1     H 3164   3.150   4.068   1.107 -0.3870  0.3838  0.0259
  208MPD1    H1 3165   3.064   3.780   0.819  0.5554  1.1348 -0.7754
  208MPD1    H2 3166   3.235   3.657   1.187 -2.3656 -0.5847 -0.6691
  208MPD1    H3 3167   3.130   3.599   0.986 -0.5432  1.0884 -1.2804
  208MPD1     N 3168   3.089   4.042   0.857  0.1575  0.1032 -0.1212
  208MPD1    H5 3169   3.103   4.134   0.899  1.9422  0.7017 -2.0184
  208MPD1    N1 3170   3.240   3.910   1.291 -0.0969 -0.2663  0.8661
  208MPD1    H6 3171   3.269   4.006   1.312 -0.8182 -0.1641  1.4066
  208MPD1    H7 3172   3.315   3.852   1.328  0.9493 -0.5211 -1.6429
  209MPD1     C 3173   4.642   0.235  10.376 -0.2087  0.2317  0.5483
  209MPD1    C1 3174   0.038   0.276  10.315  0.0363 -0.1282 -0.4534
  209MPD1    C2 3175   0.079   0.401  10.346  0.1128 -0.1989 -0.5448
  209MPD1    C3 3176   0.034   0.473  10.457 -0.1440  0.9793 -0.6975
  209MPD1    C4 3177   4.639   0.428  10.515  0.6882 -0.8264  0.4787
  209MPD1    C5 3178   4.584   0.313  10.470  0.3766 -0.0060 -0.2293
  209MPD1     H 3179   0.166   0.439  10.295  0.0419  2.5974  1.4461
  209MPD1    H1 3180   4.577   0.482  10.586 -0.6595 -0.0866 -1.2434
  209MPD1    H2 3181   4.598   0.137  10.363 -0.0477  0.3786 -1.0613
  209MPD1    H3 3182   4.495   0.272  10.517  0.1550  1.8214  0.9280
  209MPD1     N 3183   0.095   0.593  10.500 -0.0818  0.0008  0.2115
  209MPD1    H5 3184   0.173   0.630  10.445 -0.7424  3.3824  1.5167
  209MPD1    N1 3185   0.089   0.208  10.208  0.2264  0.1703  0.0535
  209MPD1    H6 3186   0.076   0.107  10.202 -4.5385  0.6713  1.6911
  209MPD1    H7 3187   0.188   0.227  10.199 -0.1573  0.3581 -3.8959
  210MPD1     C 3188   0.155   1.362  11.286 -0.2134  0.3260  0.3426
  210MPD1    C1 3189   0.148   1.218  11.296  0.7223 -0.3959  0.0758
  210MPD1    C2 3190   0.157   1.143  11.180  0.0271 -0.5114  0.2675
  210MPD1    C3 3191   0.155   1.212  11.054  0.1716 -0.0575  0.2094
  210MPD1    C4 3192   0.155   1.351  11.050  0.0963  0.8055  0.4671
  210MPD1    C5 3193   0.157   1.425  11.164 -0.2663 -0.1186  0.8211
  210MPD1     H 3194   0.153   1.034  11.183  0.3405 -0.6371 -3.3968
  210MPD1    H1 3195   0.144   1.391  10.950  1.2261 -0.2260 -0.0739
  210MPD1    H2 3196   0.163   1.423  11.375 -0.2474 -2.4372  2.2211
  210MPD1    H3 3197   0.172   1.533  11.162  1.2209 -0.2854  2.3693
  210MPD1     N 3198   0.159   1.138  10.936  0.5327  0.5063  0.0881
  210MPD1    H5 3199   0.174   1.191  10.850  0.6939 -0.0524 -0.2324
  210MPD1    N1 3200   0.140   1.152  11.421 -0.3094 -0.0314 -0.6194
  210MPD1    H6 3201   0.106   1.215  11.493 -0.4888 -0.9200  0.0774
  210MPD1    H7 3202   0.065   1.083  11.413 -0.0542 -0.2405 -1.1877
  211MPD1     C 3203   3.827   4.571  16.562  0.4132  0.7613 -0.0515
  211MPD1    C1 3204   3.738   4.592  16.460  0.2804 -0.6775  0.1144
  211MPD1    C2 3205   3.608   4.598  16.492  0.6357 -0.1323 -0.2980
  211MPD1    C3 3206   3.559   4.600  16.627 -0.3268 -0.4977  0.3580
  211MPD1    C4 3207   3.653   4.579  16.728 -0.8312  0.1884  0.2752
  211MPD1    C5 3208   3.783   4.563  16.693 -0.6673 -0.7092 -0.4728
  211MPD1     H 3209   3.531   4.612  16.417  1.0939 -0.7388 -0.8827
  211MPD1    H1 3210   3.618   4.553  16.827  1.4246  2.5832  1.7075
  211MPD1    H2 3211   3.931   4.564  16.530  0.3255  0.2928 -0.2374
  211MPD1    H3 3212   3.859   4.550  16.768  1.4756 -0.1008 -2.5194
  211MPD1     N 3213   3.415   4.613  16.640 -0.6695  0.2563  0.1527
  211MPD1    H5 3214   3.351   4.630  16.563 -0.8511  0.4148  0.3417
  211MPD1    N1 3215   3.778   4.588  16.327 -0.2362  0.2929  0.2149
  211MPD1    H6 3216   3.723   4.644  16.262 -1.3846 -0.8513  0.1995
  211MPD1    H7 3217   3.879   4.588  16.315 -0.2606 -1.5909  0.0577
  212MPD1     C 3218   2.652   3.330  16.943  0.6422 -0.6970 -0.6516
  212MPD1    C1 3219   2.648   3.337  17.081  0.5414 -0.4324 -0.4645
  212MPD1    C2 3220   2.611   3.232  17.159  0.3911  0.4196 -0.8326
  212MPD1    C3 3221   2.554   3.122  17.098  0.1977 -0.6305  0.8423
  212MPD1    C4 3222   2.573   3.114  16.965 -0.0413  0.0334 -0.6211
  212MPD1    C5 3223   2.624   3.210  16.890 -0.1824  0.4384 -0.3602
  212MPD1     H 3224   2.614   3.234  17.267  1.0972  1.6571 -0.8772
  212MPD1    H1 3225   2.562   3.021  16.911 -0.0669  0.5472 -1.5087
  212MPD1    H2 3226   2.674   3.419  16.886  0.6495 -1.7521 -2.2898
  212MPD1    H3 3227   2.630   3.194  16.783  1.3481 -1.5542  0.0209
  212MPD1     N 3228   2.500   3.012  17.167 -0.2285 -0.3952 -0.4839
  212MPD1    H5 3229   2.494   2.918  17.130 -2.9168 -0.8049  1.0241
  212MPD1    N1 3230   2.706   3.446  17.143 -0.9940 -0.4222 -0.8306
  212MPD1    H6 3231   2.661   3.474  17.229 -1.7636 -3.1094 -0.3799
  212MPD1    H7 3232   2.730   3.526  17.085  0.2837 -0.0622  0.1868
  213MPD1     C 3233   0.509   3.613  15.807  0.6836  0.6413 -0.3474
  213MPD1    C1 3234   0.533   3.524  15.705 -0.3230  0.1832 -0.6296
  213MPD1    C2 3235   0.503   3.574  15.578 -0.5456  0.1124 -0.4553
  213MPD1    C3 3236   0.493   3.712  15.553  0.1889  0.3283 -0.3637
  213MPD1    C4 3237   0.505   3.798  15.658 -1.2857 -0.0826 -0.8863
  213MPD1    C5 3238   0.499   3.746  15.783  0.2124 -0.0358  0.5064
  213MPD1     H 3239   0.512   3.505  15.495 -1.0514  1.4195 -1.6028
  213MPD1    H1 3240   0.506   3.906  15.645 -0.5231 -0.1427 -1.3210
  213MPD1    H2 3241   0.501   3.585  15.911 -3.1807  1.5540 -0.4205
  213MPD1    H3 3242   0.496   3.818  15.864  1.4990 -0.3889  0.8630
  213MPD1     N 3243   0.469   3.754  15.419 -0.8076 -0.1548 -0.5160
  213MPD1    H5 3244   0.456   3.676  15.355  0.2099  0.8792 -1.9827
  213MPD1    N1 3245   0.506   3.393  15.725  0.3868  0.6150  0.5372
  213MPD1    H6 3246   0.539   3.350  15.812  0.4957 -1.3093 -0.4407
  213MPD1    H7 3247   0.534   3.344  15.640 -3.7713  0.7496 -0.8905
  214MPD1     C 3248   4.432   3.460  15.273  0.1732 -0.2213 -0.3273
  214MPD1    C1 3249   4.431   3.596  15.296  0.0303 -0.4665 -0.3346
  214MPD1    C2 3250   4.544   3.665  15.253  0.1702  0.7526 -0.1739
  214MPD1    C3 3251   4.662   3.606  15.205  0.2602 -0.2532  0.0544
  214MPD1    C4 3252   4.663   3.471  15.193  0.2283 -0.2917 -0.4390
  214MPD1    C5 3253   4.552   3.403  15.219 -0.4961  0.0717  0.3663
  214MPD1     H 3254   4.539   3.772  15.269  0.0211  0.7650 -0.3140
  214MPD1    H1 3255   0.032   3.421  15.156  1.0694  0.6064  0.3613
  214MPD1    H2 3256   4.344   3.400  15.290 -0.8640  1.7900  1.4032
  214MPD1    H3 3257   4.565   3.297  15.202  1.3925  0.3086  0.3277
  214MPD1     N 3258   0.053   3.678  15.165 -0.5040 -0.3158 -0.4392
  214MPD1    H5 3259   0.142   3.628  15.166 -2.0436 -3.0184  1.0682
  214MPD1    N1 3260   4.307   3.660  15.325  0.2417  0.5594  0.1103
  214MPD1    H6 3261   4.254   3.610  15.396 -0.8268 -1.8117 -2.3470
  214MPD1    H7 3262   4.312   3.751  15.371  0.5229 -0.4932  2.1774
  215MPD1     C 3263   3.565   0.415  11.281 -0.2216 -0.1892 -0.0126
  215MPD1    C1 3264   3.655   0.352  11.364 -0.2880 -0.6157 -0.1239
  215MPD1    C2 3265   3.791   0.389  11.345  0.1561 -0.0774 -0.4430
  215MPD1    C3 3266   3.834   0.459  11.242 -0.8589 -0.4577 -0.7231
  215MPD1    C4 3267   3.740   0.519  11.156 -1.3046  0.1898 -0.5472
  215MPD1    C5 3268   3.611   0.488  11.181 -0.1007 -0.0469  1.1581
  215MPD1     H 3269   3.873   0.354  11.407  1.1892 -1.7648 -2.7520
  215MPD1    H1 3270   3.763   0.580  11.069 -2.1287  0.4084 -0.6078
  215MPD1    H2 3271   3.457   0.406  11.287 -0.3719  0.7304 -1.1932
  215MPD1    H3 3272   3.535   0.533  11.117 -0.3436 -0.1105  1.4003
  215MPD1     N 3273   3.973   0.474  11.231 -0.0699 -0.2171  0.4937
  215MPD1    H5 3274   4.034   0.424  11.294 -2.6435 -0.9023  2.4703
  215MPD1    N1 3275   3.612   0.280  11.475  0.4144  0.0499 -0.3036
  215MPD1    H6 3276   3.688   0.234  11.523 -0.6535 -1.8754 -0.4701
  215MPD1    H7 3277   3.529   0.224  11.455 -0.3686  1.2237 -0.3977
  216MPD1     C 3278   2.559   2.092  16.160  0.3297 -0.1830  0.3954
  216MPD1    C1 3279   2.563   1.954  16.153 -1.3927 -0.3097  0.1791
  216MPD1    C2 3280   2.531   1.886  16.272 -0.1535 -0.6231  0.1147
  216MPD1    C3 3281   2.519   1.954  16.395  0.0140  0.5366  0.5202
  216MPD1    C4 3282   2.532   2.093  16.398  0.0788  0.0805 -1.3676
  216MPD1    C5 3283   2.534   2.159  16.276 -0.5583  0.2419  0.3066
  216MPD1     H 3284   2.528   1.778  16.283 -1.5023 -0.6110 -0.0526
  216MPD1    H1 3285   2.537   2.156  16.487 -1.3156 -2.6098  0.6028
  216MPD1    H2 3286   2.555   2.152  16.070  4.5446  1.3093  1.1626
  216MPD1    H3 3287   2.520   2.266  16.283 -1.1153  0.1227  1.0796
  216MPD1     N 3288   2.498   1.884  16.516 -0.2330  0.3031 -0.4103
  216MPD1    H5 3289   2.468   1.788  16.497 -0.2814  0.2631 -0.1281
  216MPD1    N1 3290   2.596   1.894  16.026  0.2880  0.8075  0.4223
  216MPD1    H6 3291   2.586   1.963  15.952  2.4068 -2.8059 -3.2862
  216MPD1    H7 3292   2.530   1.821  16.001  1.3298  0.4094 -1.1441
  217MPD1     C 3293   3.061   0.266   9.067 -0.9011  0.2702 -0.6760
  217MPD1    C1 3294   2.928   0.248   9.091 -0.5765 -0.1440  0.1392
  217MPD1    C2 3295   2.898   0.121   9.136  1.1148 -0.1680  0.7356
  217MPD1    C3 3296   2.989   0.020   9.151  0.6153  0.6896 -0.7132
  217MPD1    C4 3297   3.124   0.047   9.126 -0.4676 -0.1252  0.1171
  217MPD1    C5 3298   3.158   0.174   9.090 -0.7098 -0.1166 -0.3093
  217MPD1     H 3299   2.794   0.105   9.161 -0.1563  1.8598 -3.3079
  217MPD1    H1 3300   3.203   4.694   9.142  0.4453  0.5955 -1.1023
  217MPD1    H2 3301   3.101   0.360   9.030  2.0128 -0.5305  0.4916
  217MPD1    H3 3302   3.264   0.190   9.075 -1.0325  0.7467 -1.7096
  217MPD1     N 3303   2.958   4.606   9.187 -0.2798 -0.2410 -0.6711
  217MPD1    H5 3304   3.030   4.533   9.186 -3.0425 -3.0171  1.6012
  217MPD1    N1 3305   2.834   0.351   9.065 -0.4587  0.2102 -0.5680
  217MPD1    H6 3306   2.870   0.442   9.038 -0.8896  1.1369  2.0028
  217MPD1    H7 3307   2.762   0.364   9.135  1.6754 -0.1121  1.6642
  218MPD1     C 3308   4.168   1.209  12.786 -0.1053  0.0237  0.8274
  218MPD1    C1 3309   4.292   1.230  12.733 -0.4855 -0.0870 -0.2727
  218MPD1    C2 3310   4.387   1.136  12.718 -0.2725 -0.3855 -0.3873
  218MPD1    C3 3311   4.354   1.009  12.764  0.1452 -1.0508 -0.1544
  218MPD1    C4 3312   4.229   0.985  12.831 -0.0326 -0.3970 -0.3799
  218MPD1    C5 3313   4.137   1.085  12.831 -0.5530 -0.0492  0.4820
  218MPD1     H 3314   4.481   1.166  12.673  2.5657 -2.5108  4.1852
  218MPD1    H1 3315   4.202   0.888  12.871 -0.4233 -0.8680 -1.7948
  218MPD1    H2 3316   4.109   1.295  12.816 -1.3274 -0.4129 -0.3095
  218MPD1    H3 3317   4.047   1.079  12.892 -0.1151  0.5036  1.1839
  218MPD1     N 3318   4.456   0.914  12.740  0.2498 -0.5744  0.5722
  218MPD1    H5 3319   4.530   0.941  12.676  0.0932 -0.0119  0.6299
  218MPD1    N1 3320   4.325   1.364  12.716  0.2906  0.7050 -0.0371
  218MPD1    H6 3321   4.247   1.422  12.688 -1.2781 -1.8448 -0.8911
  218MPD1    H7 3322   4.406   1.373  12.656 -0.6892 -2.3188 -1.7940
  219MPD1     C 3323   0.320   0.622  11.985 -0.1094  0.0384  0.3729
  219MPD1    C1 3324   0.282   0.739  12.043  0.8303 -0.4265  0.2497
  219MPD1    C2 3325   0.197   0.730  12.152 -0.0206  0.1301 -0.8552
  219MPD1    C3 3326   0.143   0.607  12.198  0.3724  1.0531  0.4118
  219MPD1    C4 3327   0.185   0.491  12.132 -0.2177  0.1641  0.8109
  219MPD1    C5 3328   0.271   0.501  12.028 -0.4319 -0.2770  0.3524
  219MPD1     H 3329   0.185   0.820  12.211  1.4267 -0.7103  0.7134
  219MPD1    H1 3330   0.157   0.395  12.174 -0.8877 -1.1618 -2.7252
  219MPD1    H2 3331   0.376   0.632  11.893  0.4462  0.7822  0.7948
  219MPD1    H3 3332   0.307   0.415  11.973  1.4346  0.1156  0.9559
  219MPD1     N 3333   0.058   0.589  12.318 -0.2239 -0.0866 -0.3815
  219MPD1    H5 3334   0.053   0.494  12.353  1.9662 -0.2178 -0.4526
  219MPD1    N1 3335   0.337   0.861  12.007 -0.4294  0.2579 -0.1716
  219MPD1    H6 3336   0.272   0.939  12.006 -0.5712  0.1474  0.3883
  219MPD1    H7 3337   0.373   0.838  11.914 -1.2354 -1.3990 -0.0779
  220MPD1     C 3338   4.295   1.607   9.674  0.6916 -0.6930 -0.3173
  220MPD1    C1 3339   4.369   1.490   9.708  0.0928 -0.0974  0.9479
  220MPD1    C2 3340   4.314   1.415   9.806 -0.4106  0.0158  0.4049
  220MPD1    C3 3341   4.181   1.423   9.834 -0.0476 -0.2524  0.2522
  220MPD1    C4 3342   4.104   1.522   9.784 -0.1848 -0.7453  0.1787
  220MPD1    C5 3343   4.159   1.616   9.704  0.5885  0.8579 -0.3386
  220MPD1     H 3344   4.371   1.335   9.852 -0.7976  1.1660  2.8705
  220MPD1    H1 3345   4.000   1.540   9.808  0.9462 -0.4534  4.9846
  220MPD1    H2 3346   4.347   1.685   9.619  1.6851 -2.9572 -2.5758
  220MPD1    H3 3347   4.099   1.705   9.688 -0.3164  0.3342  0.1614
  220MPD1     N 3348   4.136   1.321   9.917 -0.0538  0.4743 -0.1813
  220MPD1    H5 3349   4.199   1.259   9.967  0.9828  0.6266 -1.3119
  220MPD1    N1 3350   4.508   1.479   9.681  0.2848 -0.7082  0.1604
  220MPD1    H6 3351   4.525   1.532   9.596 -1.6752 -0.2942  0.0339
  220MPD1    H7 3352   4.535   1.382   9.666  0.3063 -0.7177  0.2612
  221MPD1     C 3353   2.143   4.172  17.352  0.2098 -0.0768  0.0487
  221MPD1    C1 3354   2.213   4.289  17.342 -0.4049  0.6973  0.1849
  221MPD1    C2 3355   2.301   4.301  17.234 -0.0888 -0.2947 -0.4547
  221MPD1    C3 3356   2.312   4.201  17.136 -0.1495  0.2446 -0.2494
  221MPD1    C4 3357   2.230   4.096  17.141 -0.3274 -0.0628  0.4710
  221MPD1    C5 3358   2.157   4.080  17.256 -0.2236 -0.2096 -0.7138
  221MPD1     H 3359   2.349   4.398  17.227  0.1149 -0.2651  1.2802
  221MPD1    H1 3360   2.212   4.022  17.064  0.3328  0.1799  0.0874
  221MPD1    H2 3361   2.067   4.158  17.428  0.9135  0.2905  0.8268
  221MPD1    H3 3362   2.091   3.996  17.278  1.6201 -1.6205 -0.5625
  221MPD1     N 3363   2.404   4.195  17.026  0.1791 -0.1442 -0.2539
  221MPD1    H5 3364   2.389   4.117  16.963  0.2026 -1.0985  0.9384
  221MPD1    N1 3365   2.192   4.391  17.430  0.3715 -0.4532  0.4083
  221MPD1    H6 3366   2.197   4.359  17.527  0.0284  2.0098  1.2499
  221MPD1    H7 3367   2.262   4.465  17.441  0.5421 -0.7233  1.1184
  222MPD1     C 3368   1.935   1.932   0.593 -0.7848  0.1923 -0.1830
  222MPD1    C1 3369   1.965   1.910   0.724 -0.8803  0.3561  0.3351
  222MPD1    C2 3370   1.963   2.020   0.809 -0.3259 -0.9111  0.3276
  222MPD1    C3 3371   1.910   2.138   0.774  0.1325  0.2867 -0.0987
  222MPD1    C4 3372   1.877   2.156   0.641  0.1328  0.1509 -0.4080
  222MPD1    C5 3373   1.896   2.055   0.554  0.0054 -0.1503 -0.5223
  222MPD1     H 3374   1.993   1.992   0.910  0.4291 -0.2355  0.2998
  222MPD1    H1 3375   1.826   2.245   0.606 -0.4263  0.6959  1.7798
  222MPD1    H2 3376   1.939   1.855   0.516  0.2708  0.6065 -0.5355
  222MPD1    H3 3377   1.877   2.075   0.450 -0.9910  0.7408 -0.1613
  222MPD1     N 3378   1.879   2.239   0.864 -0.5440 -0.0559  0.3737
  222MPD1    H5 3379   1.845   2.327   0.826 -2.2672 -0.7213  0.4004
  222MPD1    N1 3380   2.011   1.783   0.768 -0.0530  0.0200  0.1807
  222MPD1    H6 3381   1.957   1.708   0.725  3.7891 -1.3487 -2.1559
  222MPD1    H7 3382   1.992   1.778   0.868 -1.5447  0.6090 -0.0541
  223MPD1     C 3383   1.604   2.660   1.849  0.1339  0.0729 -0.4303
  223MPD1    C1 3384   1.556   2.741   1.748 -0.6902  0.1789 -0.2701
  223MPD1    C2 3385   1.598   2.718   1.616 -0.8185 -0.2166  0.1033
  223MPD1    C3 3386   1.669   2.607   1.577 -0.6035  0.3693 -0.3395
  223MPD1    C4 3387   1.714   2.523   1.680  0.9033 -0.5379 -0.2442
  223MPD1    C5 3388   1.690   2.561   1.811  0.2249 -0.8081 -0.5236
  223MPD1     H 3389   1.554   2.787   1.545  0.6177  0.8510  0.2505
  223MPD1    H1 3390   1.779   2.438   1.661  0.4226 -1.8223  3.8131
  223MPD1    H2 3391   1.563   2.671   1.949  1.9753 -0.3543  0.3699
  223MPD1    H3 3392   1.724   2.495   1.890 -0.8158 -1.7453 -0.8637
  223MPD1     N 3393   1.709   2.594   1.441 -0.2745  0.0114 -0.8173
  223MPD1    H5 3394   1.672   2.663   1.377 -1.1252  1.1917  0.9628
  223MPD1    N1 3395   1.450   2.830   1.772 -0.0437  0.4705 -0.2607
  223MPD1    H6 3396   1.441   2.866   1.867 -0.6865 -2.2162  0.6843
  223MPD1    H7 3397   1.449   2.909   1.706 -0.0455 -1.2542 -2.3239
  224MPD1     C 3398   4.063   0.673   9.581 -0.3704  0.4536 -0.0752
  224MPD1    C1 3399   4.088   0.611   9.706  0.3935  0.0199  0.7918
  224MPD1    C2 3400   4.000   0.513   9.748 -0.5142 -0.5262 -0.1941
  224MPD1    C3 3401   3.886   0.483   9.682 -0.0025 -0.3028  0.1689
  224MPD1    C4 3402   3.858   0.556   9.569 -0.5531  0.6732 -0.0426
  224MPD1    C5 3403   3.942   0.652   9.520 -0.1138  0.1668  0.1543
  224MPD1     H 3404   4.027   0.448   9.831 -4.8095  0.1080  1.7170
  224MPD1    H1 3405   3.764   0.536   9.519 -0.5910  2.2853 -0.6253
  224MPD1    H2 3406   4.130   0.745   9.536 -1.2484  1.3865  0.0964
  224MPD1    H3 3407   3.918   0.709   9.431 -3.7515 -1.2280  0.2088
  224MPD1     N 3408   3.796   0.378   9.718  0.0754  0.4471  0.4184
  224MPD1    H5 3409   3.730   0.357   9.644  0.5110  0.5279  0.0100
  224MPD1    N1 3410   4.220   0.624   9.760 -0.2949  0.7776  0.0211
  224MPD1    H6 3411   4.267   0.707   9.725 -0.5177  0.8993  0.0115
  224MPD1    H7 3412   4.216   0.609   9.860 -0.9276 -0.5014 -0.1852
  225MPD1     C 3413   3.090   0.906  13.239 -0.3175 -0.1606  0.2993
  225MPD1    C1 3414   3.107   1.038  13.247  0.2106 -0.0393 -0.0200
  225MPD1    C2 3415   3.207   1.088  13.163  0.4343 -0.2760 -0.0665
  225MPD1    C3 3416   3.289   1.010  13.085  0.2129  0.5835  0.5255
  225MPD1    C4 3417   3.270   0.875  13.091 -0.2066  0.0982  0.1779
  225MPD1    C5 3418   3.171   0.830  13.162  1.3647  0.2554  0.8147
  225MPD1     H 3419   3.234   1.192  13.155  0.8191 -0.3832 -0.1439
  225MPD1    H1 3420   3.333   0.818  13.024  0.3255  0.4833  0.3509
  225MPD1    H2 3421   3.015   0.852  13.296  0.6668  0.5738  2.2932
  225MPD1    H3 3422   3.154   0.723  13.157  2.3009  0.3178 -3.8016
  225MPD1     N 3423   3.394   1.055  13.002  0.4609  0.1367  0.3956
  225MPD1    H5 3424   3.450   0.984  12.954 -0.5077  1.2224 -2.3289
  225MPD1    N1 3425   3.007   1.119  13.304  1.1457 -0.1088  0.8106
  225MPD1    H6 3426   2.951   1.076  13.378  1.3597 -2.2556 -0.2941
  225MPD1    H7 3427   3.050   1.202  13.344 -0.3041  1.0200  0.0179
  226MPD1     C 3428   3.460   4.382   9.581 -0.1869 -0.0685 -0.1801
  226MPD1    C1 3429   3.518   4.494   9.527 -0.5121  0.4786  0.5196
  226MPD1    C2 3430   3.437   4.599   9.485 -0.2059  0.2196  0.4030
  226MPD1    C3 3431   3.304   4.603   9.524 -0.1458  0.3481  0.0998
  226MPD1    C4 3432   3.253   4.496   9.594  0.1009 -0.2308 -0.3702
  226MPD1    C5 3433   3.329   4.383   9.619 -0.2009 -0.2964 -0.1127
  226MPD1     H 3434   3.482   4.690   9.449  1.1649 -1.3357 -1.8602
  226MPD1    H1 3435   3.148   4.502   9.622 -0.0917  0.2383 -1.1970
  226MPD1    H2 3436   3.518   4.293   9.599 -2.4442 -1.1373  1.8550
  226MPD1    H3 3437   3.290   4.295   9.670 -0.5054  0.2431  0.5887
  226MPD1     N 3438   3.238   0.005   9.498 -0.1186 -0.2606  0.5138
  226MPD1    H5 3439   3.288   0.077   9.447  0.7443 -0.5207  0.9797
  226MPD1    N1 3440   3.647   4.492   9.469 -0.3878  0.3882 -0.2414
  226MPD1    H6 3441   3.715   4.453   9.534 -1.0528  2.8403  1.9238
  226MPD1    H7 3442   3.686   4.586   9.462  0.5105 -0.4026 -5.5036
  227MPD1     C 3443   2.260   0.164   9.350 -0.1311  0.1531  0.9616
  227MPD1    C1 3444   2.327   0.046   9.363 -0.5970 -0.6523 -0.0404
  227MPD1    C2 3445   2.459   0.062   9.406  0.0056 -0.3087  0.1498
  227MPD1    C3 3446   2.514   0.191   9.416 -0.1237 -0.6235 -0.5940
  227MPD1    C4 3447   2.438   0.309   9.405  0.3203 -0.3697  0.0477
  227MPD1    C5 3448   2.307   0.287   9.365 -0.1119  0.0464 -0.4091
  227MPD1     H 3449   2.525   4.697   9.420  0.7906  0.2824 -0.0126
  227MPD1    H1 3450   2.478   0.408   9.422  3.6022 -1.4201 -1.6717
  227MPD1    H2 3451   2.157   0.162   9.316  0.7003  0.3865 -1.6001
  227MPD1    H3 3452   2.242   0.374   9.365 -1.0804 -0.7016 -1.9882
  227MPD1     N 3453   2.656   0.199   9.424 -0.5782  0.3432  0.3617
  227MPD1    H5 3454   2.704   0.110   9.437 -0.2041  0.3453 -0.9575
  227MPD1    N1 3455   2.269   4.653   9.309  0.4726  0.4681 -0.4853
  227MPD1    H6 3456   2.300   4.569   9.358  1.1442 -0.0532 -1.8015
  227MPD1    H7 3457   2.169   4.659   9.330  0.7039  3.9405 -0.3119
  228MPD1     C 3458   1.791   4.390  12.437 -0.9364  0.0884  0.1527
  228MPD1    C1 3459   1.664   4.402  12.394  0.2129 -0.0276  0.0225
  228MPD1    C2 3460   1.562   4.329  12.463  0.4262 -0.4591  0.4549
  228MPD1    C3 3461   1.594   4.224  12.542 -0.6976  0.0515  0.2266
  228MPD1    C4 3462   1.726   4.210  12.589  0.0268 -0.1160  0.7264
  228MPD1    C5 3463   1.821   4.294  12.536  0.0589  0.6449 -0.6623
  228MPD1     H 3464   1.458   4.326  12.430 -0.1977 -0.4078  2.4140
  228MPD1    H1 3465   1.748   4.138  12.666  0.6278 -1.4505 -0.7076
  228MPD1    H2 3466   1.871   4.454  12.399 -0.7832 -2.1223 -3.2831
  228MPD1    H3 3467   1.927   4.288  12.560 -0.0396  1.8986  0.0373
  228MPD1     N 3468   1.495   4.148  12.597 -0.0785  0.0603  0.2690
  228MPD1    H5 3469   1.400   4.178  12.579 -0.4569 -1.2747 -0.0025
  228MPD1    N1 3470   1.635   4.512  12.312 -0.1181  0.3666 -0.6714
  228MPD1    H6 3471   1.555   4.491  12.252 -0.7162 -1.1610  0.6624
  228MPD1    H7 3472   1.712   4.524  12.248 -0.5090  0.0973 -1.1884
  229MPD1     C 3473   1.075   2.566  14.371  0.5257 -0.0778 -0.2969
  229MPD1    C1 3474   1.152   2.666  14.419  0.5512 -0.1640  0.8357
  229MPD1    C2 3475   1.227   2.647  14.534 -0.1747 -0.3427  0.6121
  229MPD1    C3 3476   1.236   2.518  14.593 -0.5886 -0.4486 -0.4112
  229MPD1    C4 3477   1.172   2.405  14.528 -0.2356 -0.7085 -0.1014
  229MPD1    C5 3478   1.090   2.435  14.428 -0.2517  0.1483 -0.0254
  229MPD1     H 3479   1.298   2.726  14.556 -0.1498 -0.1458 -0.1688
  229MPD1    H1 3480   1.169   2.302  14.561 -0.0537  0.0640  2.3795
  229MPD1    H2 3481   1.011   2.576  14.285 -1.0160 -2.2419  0.5940
  229MPD1    H3 3482   1.026   2.350  14.407  0.9726 -0.3226 -1.8755
  229MPD1     N 3483   1.311   2.504  14.707  0.0766 -0.0179 -0.1298
  229MPD1    H5 3484   1.332   2.410  14.737  0.1213  0.0648  0.0997
  229MPD1    N1 3485   1.132   2.799  14.373 -0.1570  0.0072 -0.4680
  229MPD1    H6 3486   1.122   2.792  14.272  0.0547 -0.1658 -0.4803
  229MPD1    H7 3487   1.202   2.869  14.398 -0.6323  1.0781 -2.1459
  230MPD1     C 3488   1.501   2.543  15.772  0.0067  0.2812  1.1084
  230MPD1    C1 3489   1.575   2.446  15.712  0.6114 -0.0818 -0.6227
  230MPD1    C2 3490   1.567   2.434  15.573  0.5665  0.2642 -0.5903
  230MPD1    C3 3491   1.502   2.528  15.493 -0.9280 -0.3633 -0.1467
  230MPD1    C4 3492   1.444   2.638  15.554 -0.4633 -0.5702 -0.0937
  230MPD1    C5 3493   1.443   2.637  15.687  0.6284  0.2408 -0.0584
  230MPD1     H 3494   1.623   2.353  15.529 -0.4897 -0.7679 -0.0445
  230MPD1    H1 3495   1.386   2.713  15.500 -0.6228 -0.7678 -0.1972
  230MPD1    H2 3496   1.513   2.579  15.873  2.2586 -2.1341  1.7144
  230MPD1    H3 3497   1.390   2.719  15.735 -2.0484 -4.1749  4.5187
  230MPD1     N 3498   1.516   2.517  15.350 -0.1369  0.0625  0.0042
  230MPD1    H5 3499   1.549   2.426  15.322 -1.1487 -1.1450  2.7900
  230MPD1    N1 3500   1.632   2.339  15.778 -0.2050  0.3881  0.3566
  230MPD1    H6 3501   1.698   2.289  15.719  0.5695  2.6304 -0.6829
  230MPD1    H7 3502   1.676   2.373  15.863 -0.8456 -0.5760  1.0702
  231MPD1     C 3503   0.071   4.164  15.501 -0.1987  0.2501 -0.5550
  231MPD1    C1 3504   0.036   4.148  15.370  0.0825 -0.1923  0.4690
  231MPD1    C2 3505   0.053   4.247  15.273 -0.2053  0.3228 -0.0675
  231MPD1    C3 3506   0.120   4.360  15.312 -0.0966  0.5572  0.1392
  231MPD1    C4 3507   0.152   4.382  15.441 -0.0008  0.1539  0.3168
  231MPD1    C5 3508   0.128   4.283  15.537 -0.0067  0.9612 -0.9709
  231MPD1     H 3509   0.010   4.232  15.175 -0.7649  1.5965 -0.0291
  231MPD1    H1 3510   0.205   4.470  15.476  1.6795 -1.0438  0.7716
  231MPD1    H2 3511   0.045   4.092  15.577 -0.7064  0.3373 -0.6494
  231MPD1    H3 3512   0.148   4.305  15.641 -0.6037  0.0940 -0.6675
  231MPD1     N 3513   0.144   4.451  15.214 -0.2818 -0.2851  0.0937
  231MPD1    H5 3514   0.107   4.426  15.123 -2.5712 -1.8693  1.4656
  231MPD1    N1 3515   4.691   4.029  15.340  0.2388 -0.0520  0.6573
  231MPD1    H6 3516   4.714   3.950  15.400 -0.9024 -0.4051  0.6333
  231MPD1    H7 3517   4.694   3.999  15.243 -1.9078 -1.1806  0.9503
  232MPD1     C 3518   2.070   0.964   0.243 -0.1496 -0.3451  0.1541
  232MPD1    C1 3519   1.937   0.938   0.265  0.2335 -0.3077 -0.3495
  232MPD1    C2 3520   1.846   1.038   0.237  0.1710 -0.7830 -0.3380
  232MPD1    C3 3521   1.888   1.162   0.195  0.5293 -0.5416 -0.5681
  232MPD1    C4 3522   2.022   1.185   0.175  0.0001 -0.7287 -0.0525
  232MPD1    C5 3523   2.111   1.084   0.197 -0.3430  0.2891  0.2958
  232MPD1     H 3524   1.741   1.021   0.261 -0.0099 -1.1507 -1.4186
  232MPD1    H1 3525   2.061   1.273   0.126  0.8696 -1.2716 -0.3167
  232MPD1    H2 3526   2.140   0.884   0.265 -0.3353 -0.0772  1.7055
  232MPD1    H3 3527   2.215   1.095   0.165  0.3483  2.1438  3.2468
  232MPD1     N 3528   1.789   1.259   0.169 -0.1786 -0.0844 -0.1319
  232MPD1    H5 3529   1.693   1.229   0.187 -0.4720 -1.0334 -3.3369
  232MPD1    N1 3530   1.883   0.813   0.294  0.1530  0.7960 -0.9967
  232MPD1    H6 3531   1.793   0.826   0.338 -0.1073  0.5204 -1.4405
  232MPD1    H7 3532   1.939   0.754   0.355 -3.5284 -1.9652 -0.2353
  233MPD1     C 3533   2.070   0.612   1.961 -0.4017 -0.1524  0.3870
  233MPD1    C1 3534   2.049   0.482   1.937  0.0125 -0.5439 -0.3053
  233MPD1    C2 3535   2.157   0.398   1.905  0.2636 -0.1672  0.0319
  233MPD1    C3 3536   2.288   0.447   1.883 -0.0826  0.0195 -0.6303
  233MPD1    C4 3537   2.305   0.577   1.905 -0.0169 -0.3905  0.0373
  233MPD1    C5 3538   2.194   0.661   1.934 -0.0945  0.0101  0.2453
  233MPD1     H 3539   2.134   0.297   1.874 -2.1387 -0.4209  2.6145
  233MPD1    H1 3540   2.401   0.627   1.896 -0.4855  0.3264 -0.9749
  233MPD1    H2 3541   1.994   0.673   2.008 -1.4358 -0.4652 -0.8904
  233MPD1    H3 3542   2.213   0.768   1.933 -1.2834  0.2136 -2.0043
  233MPD1     N 3543   2.406   0.368   1.861 -0.1402 -0.1046  0.5528
  233MPD1    H5 3544   2.493   0.419   1.847  0.0627 -1.4518 -3.1018
  233MPD1    N1 3545   1.924   0.428   1.976  0.6039 -0.2605  0.2812
  233MPD1    H6 3546   1.836   0.478   1.963 -0.4324 -2.5189 -1.4728
  233MPD1    H7 3547   1.910   0.334   1.939  0.8104 -0.2518  0.1814
  234MPD1     C 3548   4.066   3.361   8.881 -0.0692 -0.1128  0.9903
  234MPD1    C1 3549   4.018   3.477   8.842 -0.2800  0.2602  0.3581
  234MPD1    C2 3550   3.948   3.557   8.932 -0.5853 -0.6770  0.0496
  234MPD1    C3 3551   3.925   3.526   9.061  1.0221 -0.8124  0.4893
  234MPD1    C4 3552   3.981   3.403   9.106 -0.1229  1.1195 -0.3687
  234MPD1    C5 3553   4.055   3.331   9.013  0.2459 -0.6234 -0.1174
  234MPD1     H 3554   3.907   3.644   8.882 -0.0595  1.3221  3.1295
  234MPD1    H1 3555   3.984   3.378   9.211 -0.4877 -2.4472 -1.2203
  234MPD1    H2 3556   4.137   3.297   8.830 -1.5447 -1.3874  0.5244
  234MPD1    H3 3557   4.110   3.245   9.048 -0.2116 -0.3342  1.3449
  234MPD1     N 3558   3.849   3.617   9.141 -0.3831  0.3994 -0.0154
  234MPD1    H5 3559   3.841   3.713   9.109  3.4482  0.0652 -1.9731
  234MPD1    N1 3560   4.053   3.516   8.715 -0.1738 -0.6099 -0.2397
  234MPD1    H6 3561   4.082   3.443   8.650 -1.7715  0.7949 -2.4969
  234MPD1    H7 3562   3.981   3.576   8.678  0.2545  0.2421  0.3136
  235MPD1     C 3563   4.456   1.414   9.379 -0.1642 -0.4581  0.4474
  235MPD1    C1 3564   4.580   1.347   9.394 -0.3845  0.2810  0.4014
  235MPD1    C2 3565   4.693   1.427   9.389  0.1624  0.3736 -0.1682
  235MPD1    C3 3566   4.683   1.562   9.353 -0.1049  0.1696 -0.1976
  235MPD1    C4 3567   4.562   1.623   9.341  0.9111  0.1791  0.6787
  235MPD1    C5 3568   4.448   1.548   9.349  0.2841 -0.5131 -0.1938
  235MPD1     H 3569   0.071   1.380   9.378  0.4224  1.7830 -3.8733
  235MPD1    H1 3570   4.549   1.729   9.323 -1.5630 -0.0714  1.0183
  235MPD1    H2 3571   4.362   1.362   9.394  0.4855 -2.7083 -3.0300
  235MPD1    H3 3572   4.352   1.597   9.348  0.9257  0.6577 -3.5711
  235MPD1     N 3573   0.087   1.631   9.342 -0.3708 -0.1591  0.4149
  235MPD1    H5 3574   0.168   1.585   9.382  1.3384  2.7896  0.3382
  235MPD1    N1 3575   4.588   1.214   9.432 -0.2357  0.1266  0.2160
  235MPD1    H6 3576   4.681   1.178   9.410  0.1531  0.4137  1.3868
  235MPD1    H7 3577   4.521   1.159   9.378 -0.1224  2.0768 -1.9507
  236MPD1     C 3578   4.048   2.452   9.239  0.0649 -0.2902 -0.0408
  236MPD1    C1 3579   4.152   2.530   9.275  0.3293  0.0867 -0.2506
  236MPD1    C2 3580   4.225   2.491   9.377 -0.1036  0.1289  0.8504
  236MPD1    C3 3581   4.204   2.372   9.445  0.1307 -0.8748 -0.1713
  236MPD1    C4 3582   4.108   2.289   9.400  0.0482 -0.0418  0.4764
  236MPD1    C5 3583   4.030   2.327   9.294 -0.1276  0.3904 -0.3651
  236MPD1     H 3584   4.298   2.561   9.417  2.4608 -1.7694 -0.4794
  236MPD1    H1 3585   4.090   2.191   9.443  1.6576  0.4755  2.3169
  236MPD1    H2 3586   3.986   2.478   9.154  4.1161 -1.8867 -3.4759
  236MPD1    H3 3587   3.952   2.260   9.257 -0.1306  0.5501 -0.6526
  236MPD1     N 3588   4.280   2.327   9.552 -0.2627  0.6584  0.2143
  236MPD1    H5 3589   4.250   2.237   9.588 -0.7535  0.2454 -1.2477
  236MPD1    N1 3590   4.168   2.658   9.227  0.6354  0.2565  0.5787
  236MPD1    H6 3591   4.261   2.699   9.235  0.8022 -0.0151  0.0097
  236MPD1    H7 3592   4.135   2.678   9.133 -2.1622  1.3509  1.8169
  237MPD1     C 3593   0.111   1.017  15.041 -0.0801 -0.0456  0.6051
  237MPD1    C1 3594   0.086   0.976  15.174  0.0825 -0.3957 -0.4860
  237MPD1    C2 3595   4.702   0.892  15.189  0.3584  0.4409 -0.1557
  237MPD1    C3 3596   4.621   0.845  15.084  0.4740  0.4749  0.2910
  237MPD1    C4 3597   4.639   0.889  14.957  0.5683  0.7048 -0.8626
  237MPD1    C5 3598   0.019   0.981  14.939 -0.4992 -0.0225  0.5087
  237MPD1     H 3599   4.677   0.854  15.287 -0.6622 -0.9274 -0.9520
  237MPD1    H1 3600   4.574   0.852  14.879  0.8819 -1.0676 -0.2948
  237MPD1    H2 3601   0.188   1.088  15.010  1.6465 -1.3842  1.8416
  237MPD1    H3 3602   0.021   1.023  14.839 -2.3087  0.9826  0.8960
  237MPD1     N 3603   4.519   0.749  15.099  0.3989  0.7747 -0.0131
  237MPD1    H5 3604   4.467   0.733  15.014  1.7275  0.0098 -0.6839
  237MPD1    N1 3605   0.180   0.993  15.273  0.0935  0.3137  0.4305
  237MPD1    H6 3606   0.134   0.980  15.363 -0.3363 -0.3139  0.1206
  237MPD1    H7 3607   0.228   1.082  15.276  1.5548 -0.3659 -2.6486
  238MPD1     C 3608   2.084   3.587  14.962 -0.0133  0.1211  0.1306
  238MPD1    C1 3609   2.012   3.613  15.075 -0.9346  0.6439  0.7819
  238MPD1    C2 3610   1.887   3.669  15.074  0.3642  0.0035 -0.0194
  238MPD1    C3 3611   1.846   3.727  14.948 -0.6969  0.1962  0.5523
  238MPD1    C4 3612   1.914   3.699  14.834 -0.2207  0.5045  0.2203
  238MPD1    C5 3613   2.036   3.640  14.845 -0.2320  0.2915 -0.1576
  238MPD1     H 3614   1.832   3.685  15.166  1.5445  2.0086  0.3485
  238MPD1    H1 3615   1.893   3.730  14.732  0.4187 -3.9075 -1.2297
  238MPD1    H2 3616   2.178   3.533  14.960  0.8363  1.5846 -0.0759
  238MPD1    H3 3617   2.103   3.642  14.759  0.2367 -1.9972  0.1562
  238MPD1     N 3618   1.732   3.814  14.936  0.5817 -0.0103  0.2385
  238MPD1    H5 3619   1.707   3.844  14.842  1.7258  0.2526  0.0126
  238MPD1    N1 3620   2.052   3.549  15.192 -0.3283 -0.0910  0.4121
  238MPD1    H6 3621   2.146   3.519  15.217  0.3139  1.6928  0.1134
  238MPD1    H7 3622   2.017   3.601  15.273  0.7244  0.2007  0.6829
  239MPD1     C 3623   1.732   0.559  15.360 -0.4264  0.0443  0.1195
  239MPD1    C1 3624   1.720   0.450  15.278  0.2694 -0.1463 -0.0727
  239MPD1    C2 3625   1.668   0.462  15.144 -0.5952  0.0912  0.8603
  239MPD1    C3 3626   1.643   0.593  15.098 -0.0726 -0.0425 -0.1959
  239MPD1    C4 3627   1.661   0.703  15.184 -0.0072 -0.3384 -0.0476
  239MPD1    C5 3628   1.703   0.680  15.315 -0.2440 -0.4217  0.0918
  239MPD1     H 3629   1.664   0.381  15.072 -1.9346  2.3537 -1.6174
  239MPD1    H1 3630   1.635   0.806  15.159 -0.3157  0.2053  2.5291
  239MPD1    H2 3631   1.766   0.557  15.463  0.5265  0.0559 -0.1899
  239MPD1    H3 3632   1.710   0.760  15.387  1.3991 -1.5954  1.2236
  239MPD1     N 3633   1.604   0.617  14.963  0.5246  0.5283  0.0223
  239MPD1    H5 3634   1.577   0.712  14.939 -0.9931 -0.3512 -1.7153
  239MPD1    N1 3635   1.737   0.323  15.338  0.0392 -0.1025  0.0035
  239MPD1    H6 3636   1.758   0.253  15.268 -2.4933  0.6558 -1.5307
  239MPD1    H7 3637   1.803   0.322  15.415  1.1422 -0.6204 -0.9514
  240MPD1     C 3638   1.473   0.093  14.262  0.7869  0.0871  0.0486
  240MPD1    C1 3639   1.345   0.109  14.219 -0.0615  0.1869 -0.2688
  240MPD1    C2 3640   1.245   0.075  14.309 -0.0217 -0.3074 -0.4159
  240MPD1    C3 3641   1.267   0.016  14.433 -0.1442  0.7078 -0.1226
  240MPD1    C4 3642   1.396   0.002  14.469  0.2953  0.6916  0.7051
  240MPD1    C5 3643   1.498   0.047  14.390  0.9610  0.3465 -0.4987
  240MPD1     H 3644   1.140   0.089  14.282 -0.2554  1.3804  1.2925
  240MPD1    H1 3645   1.415   4.667  14.560 -0.9225  2.6843  2.1541
  240MPD1    H2 3646   1.557   0.123  14.200 -1.0337  3.2055 -0.9311
  240MPD1    H3 3647   1.596   0.012  14.421 -0.0382 -0.7576  1.4320
  240MPD1     N 3648   1.162   4.700  14.512  0.5678 -0.1067 -0.7074
  240MPD1    H5 3649   1.069   4.699  14.471  0.2120  1.6474  0.0301
  240MPD1    N1 3650   1.307   0.166  14.091 -0.6981  0.0093 -0.1737
  240MPD1    H6 3651   1.381   0.140  14.027 -0.7849  0.4771 -0.4651
  240MPD1    H7 3652   1.217   0.128  14.059 -0.3808  1.8511 -3.2902
  241MPD1     C 3653   0.803   0.066  15.467  0.9116 -0.1534  0.1238
  241MPD1    C1 3654   0.759   4.659  15.429  0.5961 -0.8292  1.0011
  241MPD1    C2 3655   0.791   4.615  15.299  0.0805 -0.5214  0.3058
  241MPD1    C3 3656   0.881   4.682  15.221  0.6830  0.0533  0.7205
  241MPD1    C4 3657   0.929   0.082  15.261  0.2886 -0.3827 -0.4361
  241MPD1    C5 3658   0.891   0.130  15.386  0.1697  0.3297  0.0777
  241MPD1     H 3659   0.744   4.524  15.264  0.5935  0.4065 -2.7576
  241MPD1    H1 3660   1.003   0.126  15.194  0.6846 -1.9354 -1.0069
  241MPD1    H2 3661   0.773   0.116  15.558 -0.2380  0.9035 -0.8301
  241MPD1    H3 3662   0.946   0.218  15.418  0.3072  0.8064 -1.4686
  241MPD1     N 3663   0.928   4.635  15.093 -0.7880 -0.4676 -0.5330
  241MPD1    H5 3664   0.989   4.695  15.038 -2.3298 -0.4045 -2.1962
  241MPD1    N1 3665   0.662   4.591  15.506 -0.0790  0.4072 -0.1331
  241MPD1    H6 3666   0.655   4.610  15.605  0.8220  1.1461 -0.2042
  241MPD1    H7 3667   0.666   4.490  15.499 -2.5620  0.0704  3.1891
  242MPD1     C 3668   0.569   2.220  15.817  0.6308  0.4155  0.3307
  242MPD1    C1 3669   0.575   2.320  15.907 -0.6321 -0.6158  0.3476
  242MPD1    C2 3670   0.620   2.443  15.855  0.1016 -0.7460  0.1529
  242MPD1    C3 3671   0.669   2.455  15.723  0.2002  0.3268  0.5617
  242MPD1    C4 3672   0.660   2.349  15.639  0.4111 -0.5348 -0.1650
  242MPD1    C5 3673   0.606   2.231  15.684 -0.9172  0.4126  0.2091
  242MPD1     H 3674   0.617   2.531  15.917  4.2353  0.4630 -1.3747
  242MPD1    H1 3675   0.696   2.365  15.538  2.5551 -0.2707  0.6386
  242MPD1    H2 3676   0.509   2.132  15.841  0.6842 -0.1358 -1.5249
  242MPD1    H3 3677   0.608   2.150  15.613  0.2134  0.8349 -0.2386
  242MPD1     N 3678   0.704   2.577  15.659 -0.5252 -0.2116 -0.7315
  242MPD1    H5 3679   0.729   2.581  15.561 -0.9803 -2.9208 -0.9382
  242MPD1    N1 3680   0.520   2.304  16.035 -0.8252 -0.2049  0.5238
  242MPD1    H6 3681   0.555   2.380  16.094 -0.5205 -0.6846  0.9560
  242MPD1    H7 3682   0.534   2.213  16.077 -1.2487 -0.4668  0.1031
  243MPD1     C 3683   2.128   1.074  17.142  0.3802 -0.2634  0.8394
  243MPD1    C1 3684   2.220   0.982  17.107 -1.3300  0.7133 -0.6691
  243MPD1    C2 3685   2.305   1.021  17.010  0.2592 -0.7704  0.2273
  243MPD1    C3 3686   2.321   1.155  16.970  0.0507 -0.4765  0.0315
  243MPD1    C4 3687   2.241   1.249  17.028 -0.0242 -0.6148  0.3027
  243MPD1    C5 3688   2.141   1.207  17.112 -0.3374 -0.3494 -0.9939
  243MPD1     H 3689   2.379   0.953  16.968  0.8091  1.2138 -2.0078
  243MPD1    H1 3690   2.240   1.355  17.007 -0.3593 -0.6924 -0.0684
  243MPD1    H2 3691   2.049   1.054  17.213  0.0534  0.8932  0.7895
  243MPD1    H3 3692   2.071   1.275  17.160 -0.9017 -0.2387 -1.9624
  243MPD1     N 3693   2.419   1.190  16.869  0.3006  0.9772  0.4076
  243MPD1    H5 3694   2.454   1.109  16.819  0.4473 -0.2785  2.5315
  243MPD1    N1 3695   2.200   0.842  17.129  0.3284  0.2861 -0.3349
  243MPD1    H6 3696   2.173   0.830  17.226 -1.0329 -1.2700 -0.9034
  243MPD1    H7 3697   2.284   0.785  17.120 -0.2267 -0.7293  0.9183
  244MPD1     C 3698   3.057   0.680  16.587 -0.2597  0.1107 -0.1091
  244MPD1    C1 3699   3.040   0.729  16.714  0.5038  0.4327  0.2139
  244MPD1    C2 3700   2.954   0.841  16.728 -0.2463 -0.3658  0.1026
  244MPD1    C3 3701   2.914   0.915  16.615 -0.0440  0.1581 -0.4151
  244MPD1    C4 3702   2.949   0.863  16.491 -0.0861  0.2537  0.2591
  244MPD1    C5 3703   3.012   0.741  16.480  0.1702  0.1444 -0.1150
  244MPD1     H 3704   2.918   0.881  16.822 -1.3975  2.6883 -1.6387
  244MPD1    H1 3705   2.924   0.915  16.399  1.7224  0.0837 -0.3409
  244MPD1    H2 3706   3.091   0.578  16.576  1.6329  0.5953  1.2704
  244MPD1    H3 3707   3.018   0.690  16.384  0.0085 -1.8396  0.9369
  244MPD1     N 3708   2.845   1.041  16.629 -0.0038 -0.1516 -0.1816
  244MPD1    H5 3709   2.816   1.065  16.723  0.1993  0.2937 -0.2307
  244MPD1    N1 3710   3.073   0.658  16.829 -0.6934 -0.6037  0.7302
  244MPD1    H6 3711   3.157   0.600  16.826 -0.1948  0.0427  2.2300
  244MPD1    H7 3712   3.079   0.706  16.918 -0.5211  0.2121  0.2772
  245MPD1     C 3713   3.592   2.706  12.915 -0.2721 -0.5105  0.1004
  245MPD1    C1 3714   3.577   2.714  13.048 -0.2561 -0.3196  0.0573
  245MPD1    C2 3715   3.690   2.723  13.125  0.7476 -1.0045 -0.2297
  245MPD1    C3 3716   3.816   2.714  13.063 -0.6059 -0.2863  0.6114
  245MPD1    C4 3717   3.825   2.710  12.925 -0.4823  0.5437 -0.6941
  245MPD1    C5 3718   3.707   2.707  12.853  0.3359 -0.0329 -0.6599
  245MPD1     H 3719   3.681   2.740  13.232 -0.4807  2.4592 -0.8912
  245MPD1    H1 3720   3.919   2.695  12.874 -0.4710  1.0046 -0.8081
  245MPD1    H2 3721   3.505   2.699  12.850 -0.2172  1.7766 -0.2128
  245MPD1    H3 3722   3.701   2.695  12.745  0.9968  0.0896 -0.7146
  245MPD1     N 3723   3.936   2.725  13.147  0.3947  0.3142  0.0808
  245MPD1    H5 3724   3.911   2.749  13.242  0.6741  0.3484  0.1458
  245MPD1    N1 3725   3.452   2.681  13.104  0.0706  0.0976 -0.1417
  245MPD1    H6 3726   3.372   2.702  13.046 -0.3680  0.6229  0.6494
  245MPD1    H7 3727   3.435   2.702  13.202 -0.6580  1.8478 -0.6336
  246MPD1     C 3728   0.513   2.015   8.725  0.3063 -0.9039 -0.6748
  246MPD1    C1 3729   0.377   2.067   8.739  0.3504 -0.6566  0.3562
  246MPD1    C2 3730   0.279   1.979   8.754 -1.0979 -0.0119 -0.3754
  246MPD1    C3 3731   0.302   1.842   8.779 -0.8512  0.8195  0.0556
  246MPD1    C4 3732   0.435   1.801   8.781 -0.3497  0.3705  0.0894
  246MPD1    C5 3733   0.536   1.887   8.751 -0.4878 -0.1686  0.1252
  246MPD1     H 3734   0.179   2.020   8.753 -1.5594 -1.1971 -3.6105
  246MPD1    H1 3735   0.457   1.695   8.788 -5.2554 -0.5659  1.5744
  246MPD1    H2 3736   0.598   2.076   8.695  1.6732 -1.9081  1.1228
  246MPD1    H3 3737   0.635   1.847   8.735  0.3812  1.1912  2.0746
  246MPD1     N 3738   0.191   1.756   8.812 -1.1249  0.8388  0.4468
  246MPD1    H5 3739   0.098   1.791   8.791 -0.9236  0.6606 -0.7195
  246MPD1    N1 3740   0.349   2.198   8.699  0.2289 -0.1617  0.6086
  246MPD1    H6 3741   0.261   2.232   8.739 -0.0070  0.0509 -0.0890
  246MPD1    H7 3742   0.433   2.252   8.719  0.9282 -1.1205  0.2398
  247MPD1     C 3743   3.523   2.180  16.702  1.0011 -0.0986 -0.1589
  247MPD1    C1 3744   3.578   2.061  16.753  1.2862  0.6930  0.2961
  247MPD1    C2 3745   3.621   1.968  16.661 -0.2637 -0.5544 -0.6857
  247MPD1    C3 3746   3.607   1.994  16.531  0.7234  0.0706 -0.0983
  247MPD1    C4 3747   3.546   2.107  16.489 -0.1689 -0.5329  0.0239
  247MPD1    C5 3748   3.498   2.191  16.573  0.4473 -0.0149 -0.1617
  247MPD1     H 3749   3.671   1.878  16.696 -1.0828 -0.5503  0.5143
  247MPD1    H1 3750   3.542   2.130  16.383  0.3609 -1.8390 -0.2794
  247MPD1    H2 3751   3.490   2.255  16.773  1.7988 -0.8999  1.0557
  247MPD1    H3 3752   3.444   2.275  16.530 -1.0774 -1.8455 -1.7936
  247MPD1     N 3753   3.657   1.906  16.428  0.4939 -0.1291  0.4374
  247MPD1    H5 3754   3.642   1.933  16.331 -1.5834  2.0634  1.3436
  247MPD1    N1 3755   3.603   2.050  16.888 -0.0546 -0.6097 -0.4833
  247MPD1    H6 3756   3.547   2.116  16.941 -1.4017 -1.9673 -0.2244
  247MPD1    H7 3757   3.601   1.953  16.919 -0.4014  0.2195  2.0829
  248MPD1     C 3758   4.551   2.075  17.393  0.7757 -0.0511  0.7499
  248MPD1    C1 3759   4.539   2.176  17.492  0.4922 -0.0639 -0.3792
  248MPD1    C2 3760   4.463   2.149  17.602 -0.4705  0.6586  0.2701
  248MPD1    C3 3761   4.392   2.035  17.619  0.7118 -0.2700 -0.2034
  248MPD1    C4 3762   4.400   1.938  17.523 -0.0653  0.3871  0.4958
  248MPD1    C5 3763   4.480   1.959  17.412  0.5023  0.1610  0.1659
  248MPD1     H 3764   4.463   2.221   0.001 -1.0273  1.0664 -0.0996
  248MPD1    H1 3765   4.341   1.849  17.535  0.2803  0.5436  3.3354
  248MPD1    H2 3766   4.608   2.079  17.301  2.8933 -2.6913  1.9472
  248MPD1    H3 3767   4.476   1.886  17.332 -0.7309  0.0132  0.3557
  248MPD1     N 3768   4.324   2.013   0.062 -0.0080 -0.4126  0.3480
  248MPD1    H5 3769   4.337   2.069   0.145  1.3914  1.1254 -0.9048
  248MPD1    N1 3770   4.621   2.289  17.479  0.4998  0.4153 -0.2275
  248MPD1    H6 3771   4.653   2.305  17.384 -0.1260  0.3668 -0.4496
  248MPD1    H7 3772   4.577   2.372  17.518  0.7605  0.8884 -0.9434
  249MPD1     C 3773   1.143   0.722   9.625 -0.5040 -0.3908  0.1443
  249MPD1    C1 3774   1.031   0.720   9.546 -0.1087  0.2246  0.1876
  249MPD1    C2 3775   0.903   0.713   9.606 -0.5737 -0.2821  0.3593
  249MPD1    C3 3776   0.899   0.698   9.746  0.6882  0.3638 -0.6223
  249MPD1    C4 3777   1.012   0.720   9.824 -0.7155  0.3530  0.1575
  249MPD1    C5 3778   1.131   0.741   9.760  0.4144 -0.2026  0.1267
  249MPD1     H 3779   0.814   0.715   9.544 -0.6008  0.1783  0.4127
  249MPD1    H1 3780   1.012   0.707   9.932 -0.8855  0.0136  0.1182
  249MPD1    H2 3781   1.242   0.732   9.583  0.4080 -0.5273  2.2910
  249MPD1    H3 3782   1.226   0.743   9.814  0.5708  0.2580 -0.1671
  249MPD1     N 3783   0.776   0.652   9.802  0.1452  0.2370  0.0175
  249MPD1    H5 3784   0.703   0.620   9.739  2.8878 -0.9930 -2.5687
  249MPD1    N1 3785   1.034   0.749   9.403  0.2811  0.4216 -0.4305
  249MPD1    H6 3786   0.955   0.712   9.351 -0.3215 -0.0294  0.8090
  249MPD1    H7 3787   1.122   0.726   9.357  0.4226  0.1189 -0.0144
  250MPD2     C 3788   2.131   0.675  13.477 -0.1766 -0.9668 -0.8848
  250MPD2    C1 3789   2.177   0.736  13.365  0.2686 -0.4208  0.1675
  250MPD2    C2 3790   2.128   0.696  13.237 -0.4048  0.4495  0.5814
  250MPD2    C3 3791   2.025   0.605  13.232  0.1225 -0.0527  0.3703
  250MPD2    C4 3792   1.970   0.562  13.344  0.2586  0.3399 -0.1241
  250MPD2    C5 3793   2.022   0.592  13.467  0.0970  0.3925  0.7784
  250MPD2     H 3794   2.179   0.734  13.149 -0.4506  0.2103  0.4517
  250MPD2    H1 3795   1.882   0.500  13.329  0.7463 -0.1575 -0.9461
  250MPD2    H2 3796   2.172   0.701  13.574 -0.4514  0.9013 -1.2811
  250MPD2    H3 3797   1.971   0.551  13.554  1.5528  1.2152  2.0198
  250MPD2     N 3798   1.978   0.547  13.117 -0.1514  0.0674  0.8146
  250MPD2    H5 3799   1.893   0.495  13.131 -1.9280  1.8199 -3.2758
  250MPD2    N1 3800   2.295   0.817  13.377  0.2659 -0.2523  0.7000
  250MPD2    H7 3801   2.347   0.813  13.464  2.1206  0.5040 -0.3865
  251TMC3    C1 3802   2.460   0.983  13.334  0.5967 -0.2773 -0.1550
  251TMC3    C2 3803   2.479   1.118  13.297 -0.0562 -0.0616 -0.3381
  251TMC3    C3 3804   2.587   1.180  13.354 -0.2738  0.4573  0.3179
  251TMC3    C4 3805   2.547   0.918  13.411  0.0572 -0.0781  0.1714
  251TMC3    C5 3806   2.653   0.986  13.461 -0.9291  0.0835  0.0898
  251TMC3    C6 3807   2.670   1.119  13.444  0.1927  0.3789 -0.4752
  251TMC3     C 3808   2.338   0.912  13.284 -0.4471 -0.1803 -0.4364
  251TMC3     O 3809   2.293   0.948  13.179 -0.1375 -0.4718  0.2048
  251TMC3     H 3810   2.423   1.164  13.217  1.2488 -0.3140 -1.3910
  251TMC3    H1 3811   2.544   0.810  13.410  0.9809 -0.0961 -0.7717
  251TMC3    H2 3812   2.741   1.175  13.505 -0.3575  1.6413 -0.9847
  251TMC3    C7 3813   2.767   0.912  13.519 -0.7138  0.7756 -1.1419
  251TMC3    C8 3814   2.575   1.325  13.382 -0.0363  0.4236  0.1299
  251TMC3    O1 3815   2.874   0.974  13.529 -0.2588 -0.0561  0.3190
  251TMC3    O2 3816   2.598   1.364  13.497 -0.1161  0.2378  0.0668
  252TMC3    C1 3817   2.292   2.712   9.101  0.1694 -0.3193  0.8457
  252TMC3    C2 3818   2.429   2.714   9.088 -0.5723 -0.6699  0.8218
  252TMC3    C3 3819   2.508   2.625   9.150  0.1709 -0.0024  0.0279
  252TMC3    C4 3820   2.230   2.634   9.190 -0.5916  0.4766 -0.4354
  252TMC3    C5 3821   2.306   2.544   9.251  0.0812  0.2275  0.4978
  252TMC3    C6 3822   2.441   2.527   9.223  0.3892  0.1521  0.5712
  252TMC3     C 3823   2.210   2.822   9.046  0.7023 -0.1458 -0.4463
  252TMC3     O 3824   2.106   2.838   9.103  0.8042 -0.3896 -0.2187
  252TMC3     H 3825   2.472   2.784   9.018  0.4359 -0.0841  2.0418
  252TMC3    H1 3826   2.123   2.634   9.210 -0.4729  3.4276  0.2595
  252TMC3    H2 3827   2.504   2.453   9.271  1.2056 -0.0307 -0.7909
  252TMC3    C7 3828   2.237   2.454   9.344 -0.2656  0.1787  0.1151
  252TMC3    C8 3829   2.647   2.641   9.156  0.0941 -0.4653 -0.7087
  252TMC3    O1 3830   2.115   2.454   9.344  0.5943 -0.2508 -0.0056
  252TMC3    O2 3831   2.695   2.720   9.077  0.2432  0.1456 -0.1659
  253MPD2     C 3832   4.217   0.965  15.206  0.1733  0.1540 -0.1839
  253MPD2    C1 3833   4.090   0.912  15.177  0.4140 -0.2490 -0.2362
  253MPD2    C2 3834   4.022   0.848  15.284 -0.2190 -0.4040  0.2831
  253MPD2    C3 3835   4.075   0.842  15.416  0.1785 -0.1157  0.0579
  253MPD2    C4 3836   4.205   0.883  15.433  0.1666  1.4001  0.4454
  253MPD2    C5 3837   4.272   0.949  15.330 -0.7576  0.2793  0.3593
  253MPD2     H 3838   3.926   0.802  15.264 -1.2746  1.6010  0.6664
  253MPD2    H1 3839   4.257   0.882  15.528 -1.9636 -0.7587  1.5787
  253MPD2    H2 3840   4.276   1.006  15.126  0.4967  1.5723  0.7723
  253MPD2    H3 3841   4.368   0.998  15.335 -1.1211  1.0156  0.1276
  253MPD2     N 3842   3.998   0.795  15.526  0.3160 -0.7632 -0.1604
  253MPD2    H5 3843   4.042   0.770  15.615  3.5588  2.0026 -0.9840
  253MPD2    N1 3844   4.028   0.925  15.053 -0.9281 -0.4160  0.0402
  253MPD2    H7 3845   3.937   0.881  15.050 -0.1657 -2.0376  1.1964
  254TMC3    C1 3846   3.783   0.782  15.631  0.8071  0.3925 -0.3370
  254TMC3    C2 3847   3.658   0.833  15.651  0.1214 -0.6444 -0.2888
  254TMC3    C3 3848   3.579   0.787  15.749  0.7260  0.1782  0.1379
  254TMC3    C4 3849   3.841   0.707  15.725  0.3779 -0.5609 -0.3448
  254TMC3    C5 3850   3.762   0.666  15.831  0.5284  0.3314  0.1013
  254TMC3    C6 3851   3.632   0.695  15.839  0.4843  0.3206 -0.5110
  254TMC3     C 3852   3.856   0.811  15.510 -0.2494  0.7316 -0.5988
  254TMC3     O 3853   3.792   0.874  15.427  0.4566 -0.3933 -0.3519
  254TMC3     H 3854   3.596   0.884  15.577  2.3346 -1.5669 -2.7742
  254TMC3    H1 3855   3.941   0.666  15.713  0.4134 -0.7844  0.6901
  254TMC3    H2 3856   3.575   0.657  15.923 -0.0558 -0.9606 -1.4657
  254TMC3    C7 3857   3.822   0.650  15.958  0.1941  0.2249 -0.8529
  254TMC3    C8 3858   3.462   0.863  15.791  0.5674  0.1378 -0.7456
  254TMC3    O1 3859   3.748   0.670  16.058 -0.9076 -0.2421  0.3879
  254TMC3    O2 3860   3.388   0.807  15.873  0.1834  0.1667  0.8394
  255MPD2     C 3861   1.412   3.283  10.506  0.2526 -0.2075  0.3219
  255MPD2    C1 3862   1.492   3.395  10.525  0.3117 -0.0110  0.7765
  255MPD2    C2 3863   1.591   3.420  10.434 -0.0409  0.7757 -0.3321
  255MPD2    C3 3864   1.614   3.337  10.327 -0.3882  0.5629 -0.3033
  255MPD2    C4 3865   1.531   3.230  10.306  0.4258  0.7108  0.4794
  255MPD2    C5 3866   1.424   3.206  10.393 -0.0527  0.2123 -0.8257
  255MPD2     H 3867   1.664   3.498  10.449  1.6531 -0.3411 -2.6584
  255MPD2    H1 3868   1.549   3.159  10.225  0.4407  0.7056  0.4872
  255MPD2    H2 3869   1.329   3.257  10.571 -0.0749  0.5525  0.2167
  255MPD2    H3 3870   1.361   3.121  10.370  1.0483 -0.5563 -0.9953
  255MPD2     N 3871   1.725   3.358  10.245 -0.4009  0.1407 -0.2843
  255MPD2    H5 3872   1.802   3.412  10.284  0.4364 -0.4176 -1.1532
  255MPD2    N1 3873   1.469   3.475  10.642  0.1807  0.1829  0.0353
  255MPD2    H7 3874   1.390   3.449  10.699 -0.5121  2.3065  0.0364
  256TMC3    C1 3875   1.504   3.655  10.797 -0.3159 -0.5925  0.2467
  256TMC3    C2 3876   1.523   3.785  10.769 -0.3111  1.0964 -0.5459
  256TMC3    C3 3877   1.435   3.880  10.807  0.3242  0.6353 -0.0969
  256TMC3    C4 3878   1.386   3.616  10.863 -0.4744  0.6316  0.1671
  256TMC3    C5 3879   1.301   3.717  10.896  0.1955  0.3326 -0.8268
  256TMC3    C6 3880   1.323   3.844  10.871 -0.5229 -0.3808 -0.2107
  256TMC3     C 3881   1.557   3.563  10.696 -0.8031  0.2110  0.6254
  256TMC3     O 3882   1.664   3.596  10.646 -0.1385 -0.3688 -0.5450
  256TMC3     H 3883   1.619   3.817  10.730 -0.6796  0.4590 -1.9972
  256TMC3    H1 3884   1.388   3.513  10.896  1.6416  0.0465 -1.8073
  256TMC3    H2 3885   1.246   3.914  10.899 -0.6595 -1.0056  1.0000
  256TMC3    C7 3886   1.206   3.702  11.004  0.6441 -0.2320  1.0407
  256TMC3    C8 3887   1.444   4.016  10.756 -0.2112  0.1754  0.1225
  256TMC3    O1 3888   1.218   3.788  11.091  0.0934  0.1973  0.3056
  256TMC3    O2 3889   1.374   4.101  10.813 -0.6500  0.1386  0.4040
  257MPD2     C 3890   1.577   1.196  13.404  0.2991  0.1835 -0.0087
  257MPD2    C1 3891   1.464   1.137  13.365 -0.0778 -0.3752  0.0256
  257MPD2    C2 3892   1.398   1.036  13.439 -0.0687  0.3765 -0.5289
  257MPD2    C3 3893   1.449   0.998  13.560 -0.3092 -0.4552  0.0122
  257MPD2    C4 3894   1.571   1.061  13.607 -0.5448 -0.4122 -0.6807
  257MPD2    C5 3895   1.621   1.162  13.528 -0.1814 -0.0426 -0.6203
  257MPD2     H 3896   1.308   0.988  13.403 -0.7614  0.2231  1.4078
  257MPD2    H1 3897   1.613   1.031  13.703  2.2285  2.3569 -1.0245
  257MPD2    H2 3898   1.611   1.287  13.356  0.4315 -0.4088 -1.0289
  257MPD2    H3 3899   1.710   1.213  13.562 -1.0726  1.0767  0.0676
  257MPD2     N 3900   1.378   0.900  13.638 -0.5929 -0.0196  0.7107
  257MPD2    H5 3901   1.294   0.862  13.596 -0.3059  1.7067 -1.4160
  257MPD2    N1 3902   1.426   1.181  13.237 -0.1795  0.2760 -0.1393
  257MPD2    H7 3903   1.490   1.243  13.188 -0.7443 -0.1580 -1.4308
  258TMC3    C1 3904   1.335   0.731  13.798 -0.8229 -0.8393  0.0063
  258TMC3    C2 3905   1.310   0.637  13.706 -0.8475 -0.4694  0.2031
  258TMC3    C3 3906   1.296   0.513  13.751 -0.1583 -0.1722 -0.0426
  258TMC3    C4 3907   1.316   0.718  13.932  0.1515 -0.9435  0.5584
  258TMC3    C5 3908   1.279   0.595  13.973  0.1670  0.1677  0.3314
  258TMC3    C6 3909   1.269   0.490  13.888 -0.6740 -0.4926  0.2588
  258TMC3     C 3910   1.411   0.851  13.763  0.7976  0.5321 -0.4737
  258TMC3     O 3911   1.494   0.885  13.844 -0.0833  0.0398  0.1234
  258TMC3     H 3912   1.323   0.664  13.601 -1.7395 -2.4701 -0.4130
  258TMC3    H1 3913   1.339   0.793  14.006 -2.3899  0.6173 -0.2467
  258TMC3    H2 3914   1.236   0.394  13.924  1.2474 -1.2816 -0.0500
  258TMC3    C7 3915   1.219   0.586  14.102 -0.4135  0.4620  0.2755
  258TMC3    C8 3916   1.299   0.400  13.665  0.2264  1.0025  0.7384
  258TMC3    O1 3917   1.154   0.686  14.141  0.1040 -0.2789 -0.1146
  258TMC3    O2 3918   1.325   0.300  13.725  0.3217 -0.0762  0.0191
  259MPD2     C 3919   0.632   2.522   1.444  0.3012 -0.1630 -0.1044
  259MPD2    C1 3920   0.580   2.395   1.439 -0.5085  0.3494 -0.0535
  259MPD2    C2 3921   0.624   2.300   1.347 -0.0314  0.9673  0.3494
  259MPD2    C3 3922   0.731   2.327   1.263  0.4941  0.1680  0.6831
  259MPD2    C4 3923   0.775   2.455   1.260 -0.1170 -0.0880 -0.9320
  259MPD2    C5 3924   0.731   2.550   1.351 -0.7590 -0.2775  0.0376
  259MPD2     H 3925   0.586   2.199   1.355 -1.3560  1.4568  0.1309
  259MPD2    H1 3926   0.852   2.488   1.191  1.4901  0.3770  1.0827
  259MPD2    H2 3927   0.604   2.596   1.518  0.8145 -1.1148  1.0465
  259MPD2    H3 3928   0.769   2.652   1.355  0.7324 -0.8549  0.6452
  259MPD2     N 3929   0.789   2.229   1.179  0.3194 -0.2830 -0.4307
  259MPD2    H5 3930   0.870   2.254   1.122 -0.2921  0.0738 -1.1447
  259MPD2    N1 3931   0.471   2.371   1.524  0.1529 -0.6717  0.1040
  259MPD2    H7 3932   0.449   2.441   1.594 -0.5305 -0.4040 -0.3782
  260TMC3    C1 3933   0.809   2.025   1.063 -0.3021 -0.3791  0.5819
  260TMC3    C2 3934   0.942   2.050   1.040 -0.4082 -0.2766 -0.4299
  260TMC3    C3 3935   1.012   1.975   0.953 -0.2596 -0.4399  0.2848
  260TMC3    C4 3936   0.750   1.912   1.020  0.2676  0.3736  0.6864
  260TMC3    C5 3937   0.833   1.824   0.947  0.1835 -0.5637  0.6136
  260TMC3    C6 3938   0.963   1.855   0.908 -0.2091  0.4384  0.3879
  260TMC3     C 3939   0.735   2.104   1.154 -0.0164 -0.0621  0.0108
  260TMC3     O 3940   0.636   2.051   1.201  0.4201 -0.2033  0.0577
  260TMC3     H 3941   0.992   2.128   1.097 -2.0508  0.0610  0.5306
  260TMC3    H1 3942   0.643   1.897   1.030 -0.1692  1.8613 -1.8444
  260TMC3    H2 3943   1.029   1.775   0.878  0.4467  1.6174 -1.2582
  260TMC3    C7 3944   0.766   1.732   0.853  0.2106 -0.8989  0.7893
  260TMC3    C8 3945   1.152   2.015   0.930  0.5588 -0.0727 -0.2564
  260TMC3    O1 3946   0.839   1.673   0.776 -0.2439  0.0624  0.3412
  260TMC3    O2 3947   1.209   2.096   1.000  0.3381 -0.6023 -0.2679
  261MPD2     C 3948   1.340   0.465  12.711 -0.1378 -1.1310 -1.0776
  261MPD2    C1 3949   1.459   0.516  12.670  0.7058  0.6595 -0.8900
  261MPD2    C2 3950   1.460   0.612  12.571 -0.0364  0.7697  0.2205
  261MPD2    C3 3951   1.346   0.659  12.510 -0.3005  0.0028  0.6763
  261MPD2    C4 3952   1.224   0.598  12.549  0.3998  0.2820  0.0068
  261MPD2    C5 3953   1.226   0.498  12.647 -0.1413 -0.4651  0.4914
  261MPD2     H 3954   1.558   0.652  12.547 -0.7630  1.8084 -1.0605
  261MPD2    H1 3955   1.136   0.622  12.490 -1.2036 -0.8305  1.9391
  261MPD2    H2 3956   1.316   0.388  12.784 -1.4629 -2.1717 -2.6196
  261MPD2    H3 3957   1.135   0.466  12.696 -0.7626 -1.7357 -1.5050
  261MPD2     N 3958   1.357   0.748  12.405 -0.2492  1.0923  0.4452
  261MPD2    H5 3959   1.271   0.753  12.350  0.8080  2.0412 -1.1294
  261MPD2    N1 3960   1.585   0.476  12.719  0.4440 -0.1025 -0.6766
  261MPD2    H7 3961   1.666   0.521  12.678  0.7625 -0.3030 -0.2653
  262TMC3    C1 3962   1.456   0.896  12.258  0.6825  0.5186 -0.2907
  262TMC3    C2 3963   1.532   1.008  12.238  0.6405  0.3488 -0.2283
  262TMC3    C3 3964   1.547   1.056  12.108 -0.2291  0.3699  0.1635
  262TMC3    C4 3965   1.384   0.837  12.156 -0.1351  0.4312 -0.6257
  262TMC3    C5 3966   1.392   0.901  12.031  0.2681 -0.3719 -0.1131
  262TMC3    C6 3967   1.471   1.014  12.004  0.1120  0.3999  0.4921
  262TMC3     C 3968   1.464   0.829  12.385 -0.0882 -0.1830 -0.0033
  262TMC3     O 3969   1.553   0.860  12.463  0.5719  0.2884  0.3206
  262TMC3     H 3970   1.574   1.054  12.327 -1.2567  0.1578  0.7825
  262TMC3    H1 3971   1.322   0.750  12.171  1.3390 -0.5201  0.0255
  262TMC3    H2 3972   1.487   1.053  11.904  2.1711  0.3877  0.8122
  262TMC3    C7 3973   1.299   0.853  11.925  0.0221  0.1030 -0.1406
  262TMC3    C8 3974   1.622   1.177  12.078  0.0745  1.0743 -0.2549
  262TMC3    O1 3975   1.244   0.743  11.932  0.4494  0.3822 -0.1552
  262TMC3    O2 3976   1.623   1.212  11.961  0.0123 -0.5812  0.1065
  263MPD2     C 3977   2.614   4.710  11.221  0.2186  0.2088  0.5428
  263MPD2    C1 3978   2.670   0.105  11.275 -0.1235 -0.2782 -0.2266
  263MPD2    C2 3979   2.626   0.231  11.245  0.0640 -0.0373  0.4850
  263MPD2    C3 3980   2.526   0.247  11.150  0.1786  0.4445 -0.0772
  263MPD2    C4 3981   2.490   0.141  11.078 -0.1590  0.1560  0.3364
  263MPD2    C5 3982   2.525   0.012  11.126 -0.1477  0.6188  0.5289
  263MPD2     H 3983   2.670   0.316  11.296 -0.0286  0.4786 -0.2996
  263MPD2    H1 3984   2.407   0.138  11.008  1.2494  1.5120 -1.3954
  263MPD2    H2 3985   2.631   4.612  11.264 -0.1177  0.0695  0.3593
  263MPD2    H3 3986   2.466   4.659  11.071  0.6755 -0.5437  1.1789
  263MPD2     N 3987   2.475   0.377  11.123 -0.4252 -0.6005 -0.6586
  263MPD2    H5 3988   2.498   0.449  11.190 -1.2284 -0.3786 -0.6239
  263MPD2    N1 3989   2.767   0.091  11.378 -0.0944 -0.1579  0.2990
  263MPD2    H7 3990   2.796   4.715  11.395  1.5822  0.1183 -0.9911
  264TMC3    C1 3991   2.394   0.553  10.996 -0.4361 -0.2660  0.4988
  264TMC3    C2 3992   2.340   0.620  11.106  0.2373 -0.0042 -0.1590
  264TMC3    C3 3993   2.355   0.758  11.092 -0.2892 -0.3398 -0.6023
  264TMC3    C4 3994   2.451   0.605  10.888  0.2635 -0.9706 -0.1070
  264TMC3    C5 3995   2.457   0.741  10.881 -0.4087 -0.0632 -0.2329
  264TMC3    C6 3996   2.406   0.812  10.981 -0.0161 -0.0837  0.0369
  264TMC3     C 3997   2.408   0.412  11.014  0.3044  0.5592 -0.2836
  264TMC3     O 3998   2.388   0.344  10.913 -0.0313  0.3849  0.2042
  264TMC3     H 3999   2.318   0.569  11.199 -3.1577 -1.2289 -1.6076
  264TMC3    H1 4000   2.493   0.539  10.813 -1.1317 -4.1357  1.8676
  264TMC3    H2 4001   2.397   0.919  10.969  1.7326  0.2034  1.2656
  264TMC3    C7 4002   2.510   0.803  10.757 -0.4980 -0.1688  0.1460
  264TMC3    C8 4003   2.314   0.852  11.192  0.0157 -0.3983 -0.3208
  264TMC3    O1 4004   2.542   0.721  10.672 -0.4166  0.3268 -0.6737
  264TMC3    O2 4005   2.302   0.967  11.156 -0.0090 -0.4585  0.4777
  265MPD2     C 4006   0.360   0.369  15.764 -0.4942 -0.0718 -0.4598
  265MPD2    C1 4007   0.353   0.483  15.679  0.3162 -0.1102  0.1067
  265MPD2    C2 4008   0.394   0.464  15.553 -0.2632 -0.3428 -0.5720
  265MPD2    C3 4009   0.444   0.342  15.511  0.3080  0.2674 -0.1850
  265MPD2    C4 4010   0.456   0.237  15.599 -0.1959 -0.0553 -0.7977
  265MPD2    C5 4011   0.400   0.252  15.718 -0.2827 -0.0524 -0.6057
  265MPD2     H 4012   0.351   0.540  15.489 -2.2917  0.8888  2.2070
  265MPD2    H1 4013   0.493   0.142  15.562  0.8344 -0.6280  1.7435
  265MPD2    H2 4014   0.330   0.374  15.868  1.2514 -0.4910  0.0536
  265MPD2    H3 4015   0.407   0.166  15.784 -1.6425  0.7322  0.5679
  265MPD2     N 4016   0.486   0.320  15.379 -0.0533  0.3382 -0.4287
  265MPD2    H5 4017   0.521   0.226  15.363 -1.3751 -0.5619  2.0769
  265MPD2    N1 4018   0.296   0.611  15.724  0.1395 -0.0832 -0.5883
  265MPD2    H7 4019   0.284   0.676  15.647  1.5690  1.3313  0.3732
  266TMC3    C1 4020   0.181   0.772  15.855  0.3901 -0.0809 -0.4130
  266TMC3    C2 4021   0.145   0.828  15.975 -0.5400 -0.2240 -0.1352
  266TMC3    C3 4022   0.105   0.956  15.979  0.0813  0.2327 -0.0243
  266TMC3    C4 4023   0.153   0.838  15.738  0.5085  0.3324  0.2056
  266TMC3    C5 4024   0.099   0.968  15.755  0.1137  0.5555  0.0820
  266TMC3    C6 4025   0.090   1.037  15.867  0.0328  0.1953 -0.1802
  266TMC3     C 4026   0.234   0.636  15.843 -0.1742  0.6732  0.2382
  266TMC3     O 4027   0.209   0.561  15.937 -0.4779  0.0930  0.1575
  266TMC3     H 4028   0.149   0.763  16.062  1.0703 -0.3575 -0.3033
  266TMC3    H1 4029   0.161   0.785  15.644  0.1417  0.0692  0.3191
  266TMC3    H2 4030   0.057   1.140  15.870  3.9653  1.3570  2.1829
  266TMC3    C7 4031   0.055   1.032  15.629  0.4071  0.5022  0.0453
  266TMC3    C8 4032   0.096   1.009  16.117 -0.1566  0.1606 -0.0661
  266TMC3    O1 4033   0.036   0.958  15.532  0.0397  0.4753 -0.3435
  266TMC3    O2 4034   0.064   0.927  16.200 -0.2254 -0.2260 -0.2048
  267MPD2     C 4035   2.241   1.913  17.564  0.7034  0.4819 -0.6981
  267MPD2    C1 4036   2.369   1.929  17.516 -0.1011  0.2667 -0.4914
  267MPD2    C2 4037   2.390   1.876  17.388 -0.0078 -0.3424  0.0155
  267MPD2    C3 4038   2.289   1.821  17.310 -0.4095 -0.0291  0.4159
  267MPD2    C4 4039   2.162   1.816  17.357  0.4149  0.3634 -0.0341
  267MPD2    C5 4040   2.141   1.857  17.484 -0.1578  0.7434  0.3513
  267MPD2     H 4041   2.492   1.888  17.355 -0.0220 -1.5807 -0.4519
  267MPD2    H1 4042   2.079   1.769  17.307  1.9659 -0.0838 -2.1989
  267MPD2    H2 4043   2.212   1.963  17.656 -1.9922 -0.6579 -0.9403
  267MPD2    H3 4044   2.042   1.841  17.525  0.2035 -3.1971 -0.3061
  267MPD2     N 4045   2.304   1.791  17.174 -0.1433 -0.2606 -0.8967
  267MPD2    H5 4046   2.221   1.759  17.126  0.6327 -0.6103 -1.9958
  267MPD2    N1 4047   2.468   1.990  17.594 -0.2600 -0.3031 -0.2199
  267MPD2    H7 4048   2.442   2.024   0.005 -0.3873  1.3593 -0.8665
  268TMC3    C1 4049   2.671   2.103  17.649 -0.0314 -0.5718 -0.1000
  268TMC3    C2 4050   2.698   2.234  17.614 -0.1861  0.4755 -0.0455
  268TMC3    C3 4051   2.752   2.321   0.022 -0.1700  0.2656  0.2850
  268TMC3    C4 4052   2.678   2.061   0.095 -0.1089 -0.0188 -0.1688
  268TMC3    C5 4053   2.713   2.155   0.187  0.1568  0.3599  0.2454
  268TMC3    C6 4054   2.758   2.280   0.158  0.2904  0.0006  0.3035
  268TMC3     C 4055   2.596   2.030  17.550 -0.2254  0.7898 -0.0046
  268TMC3     O 4056   2.642   2.050  17.440 -0.9802 -0.7488 -0.5600
  268TMC3     H 4057   2.677   2.262  17.511 -1.7454 -1.1514 -0.1686
  268TMC3    H1 4058   2.652   1.963   0.133 -2.3666  0.2663 -0.9832
  268TMC3    H2 4059   2.784   2.348   0.239  1.4097 -3.1482  2.6022
  268TMC3    C7 4060   2.717   2.117   0.330  0.0330 -0.1323  0.3639
  268TMC3    C8 4061   2.768   2.462   0.002 -0.2199  0.1495  0.0296
  268TMC3    O1 4062   2.742   1.994   0.357 -0.5024  0.8263  0.1107
  268TMC3    O2 4063   2.802   2.533   0.102 -0.6067  0.6411  0.4214
  269MPD2     C 4064   3.312   1.099  15.336  0.0244 -0.2841 -0.8138
  269MPD2    C1 4065   3.232   1.107  15.445  0.5946  0.7347 -0.1358
  269MPD2    C2 4066   3.186   1.234  15.479 -0.2331 -0.4058  0.2645
  269MPD2    C3 4067   3.214   1.344  15.403  0.0454  0.0041  0.6336
  269MPD2    C4 4068   3.289   1.328  15.293 -0.3743  0.2460  0.1280
  269MPD2    C5 4069   3.331   1.208  15.257 -0.1627 -0.0341  0.6030
  269MPD2     H 4070   3.131   1.251  15.571 -2.6482 -0.7915 -1.0985
  269MPD2    H1 4071   3.327   1.415  15.241 -3.1575  0.8214 -0.9604
  269MPD2    H2 4072   3.354   1.002  15.311  2.9457  1.1475 -1.4275
  269MPD2    H3 4073   3.389   1.195  15.167 -0.1730 -0.2959  0.6329
  269MPD2     N 4074   3.147   1.460  15.450  0.4314  0.3367 -0.1897
  269MPD2    H5 4075   3.088   1.454  15.532  0.1913  1.5933 -0.2625
  269MPD2    N1 4076   3.190   0.990  15.510 -0.1070  0.8897 -0.3705
  269MPD2    H7 4077   3.221   0.903  15.468  0.9664 -0.6019  3.4365
  270TMC3    C1 4078   3.042   0.851  15.646  0.2672 -0.3276 -0.5056
  270TMC3    C2 4079   2.910   0.841  15.678 -0.0941  0.1139 -0.3530
  270TMC3    C3 4080   2.863   0.716  15.668  0.0467  0.6131 -0.0081
  270TMC3    C4 4081   3.123   0.751  15.612 -0.0824  0.1267 -0.3093
  270TMC3    C5 4082   3.072   0.631  15.617  0.5637 -0.3774 -0.1358
  270TMC3    C6 4083   2.944   0.609  15.647  0.2397 -0.4430  0.0377
  270TMC3     C 4084   3.097   0.983  15.611  0.2130 -0.8436  0.3456
  270TMC3     O 4085   3.020   1.069  15.654  0.3032  0.1065 -0.4504
  270TMC3     H 4086   2.844   0.927  15.688  1.5833  1.1966  1.2659
  270TMC3    H1 4087   3.226   0.765  15.578  0.6769  1.6141  2.5937
  270TMC3    H2 4088   2.913   0.507  15.668  0.0137  0.0756  2.1613
  270TMC3    C7 4089   3.140   0.520  15.554  0.1132  1.2617 -0.6574
  270TMC3    C8 4090   2.724   0.710  15.630  0.1024  0.5479  0.2642
  270TMC3    O1 4091   3.253   0.489  15.596 -0.5995 -0.2300 -0.1262
  270TMC3    O2 4092   2.644   0.778  15.695 -0.0598  0.0717 -0.5083
  271MPD2     C 4093   1.985   0.734  14.107  0.4664 -0.6312  0.0851
  271MPD2    C1 4094   1.930   0.778  14.222 -0.0787  0.3089 -0.0303
  271MPD2    C2 4095   1.889   0.909  14.244  0.0812 -0.4985 -0.4349
  271MPD2    C3 4096   1.909   1.006  14.147  0.0862 -0.5004 -0.4026
  271MPD2    C4 4097   1.951   0.955  14.024  0.4911  0.5566 -0.3318
  271MPD2    C5 4098   1.979   0.819  14.003 -0.4301  0.3069 -0.7007
  271MPD2     H 4099   1.861   0.939  14.345  0.8741  2.6995 -1.1749
  271MPD2    H1 4100   1.954   1.021  13.938  1.0025 -0.4539 -1.0909
  271MPD2    H2 4101   2.030   0.636  14.095 -0.2294 -0.8665 -0.6439
  271MPD2    H3 4102   2.030   0.789  13.912 -1.9646  0.2040 -1.5334
  271MPD2     N 4103   1.897   1.144  14.164 -0.2649  0.4697  0.1751
  271MPD2    H5 4104   1.843   1.175  14.244 -1.3553 -1.1548  0.0856
  271MPD2    N1 4105   1.934   0.690  14.337  0.2453  0.7654  0.7637
  271MPD2    H7 4106   1.929   0.725  14.432  1.1560 -3.1237  2.2361
  272TMC3    C1 4107   1.983   0.497  14.445 -0.0567 -0.1468 -0.4114
  272TMC3    C2 4108   2.102   0.428  14.427  0.3106 -0.0392  0.3595
  272TMC3    C3 4109   2.195   0.419  14.532  0.4413  0.2591  0.9506
  272TMC3    C4 4110   1.961   0.560  14.562 -0.5766  0.2527  0.3907
  272TMC3    C5 4111   2.045   0.543  14.672 -0.4311  0.5507 -0.0945
  272TMC3    C6 4112   2.165   0.477  14.658  0.8546 -0.6279  0.5835
  272TMC3     C 4113   1.938   0.552  14.321 -0.6904  0.5256 -0.7734
  272TMC3     O 4114   1.938   0.475  14.227  0.1791 -0.4679  0.3972
  272TMC3     H 4115   2.122   0.376  14.334  0.5017  0.6500  0.0162
  272TMC3    H1 4116   1.873   0.618  14.589 -1.2313  0.9830 -3.2940
  272TMC3    H2 4117   2.233   0.462  14.741 -0.6908  0.7857  2.0907
  272TMC3    C7 4118   2.014   0.631  14.780 -0.9385 -0.4223 -0.1323
  272TMC3    C8 4119   2.331   0.392  14.497  0.6739  0.1040 -0.3237
  272TMC3    O1 4120   1.900   0.678  14.785  0.1093 -0.4806  0.1724
  272TMC3    O2 4121   2.363   0.427  14.382 -0.2831  0.3625  0.2554
  273MPD2     C 4122   3.811   3.914  11.473 -0.0858  0.3772  0.3279
  273MPD2    C1 4123   3.831   4.049  11.491 -0.1841  0.3518 -0.4356
  273MPD2    C2 4124   3.837   4.141  11.382 -0.2514 -0.5065  0.0354
  273MPD2    C3 4125   3.824   4.099  11.252 -0.1916  0.3372 -0.1103
  273MPD2    C4 4126   3.813   3.960  11.229 -0.0839 -0.2610  0.5711
  273MPD2    C5 4127   3.805   3.874  11.342  0.1137  0.2887 -0.4906
  273MPD2     H 4128   3.841   4.248  11.399  0.8321 -0.2070 -2.0588
  273MPD2    H1 4129   3.803   3.919  11.130  1.4962 -0.1679  0.3616
  273MPD2    H2 4130   3.814   3.845  11.556 -1.0192  1.2898  1.1174
  273MPD2    H3 4131   3.806   3.769  11.316 -0.2143  0.3090 -0.5796
  273MPD2     N 4132   3.829   4.181  11.139 -0.2075  0.2127 -0.1880
  273MPD2    H5 4133   3.855   4.142  11.049  0.7892  1.7722 -0.5914
  273MPD2    N1 4134   3.832   4.092  11.627 -0.2353  0.1245 -0.1363
  273MPD2    H7 4135   3.840   4.019  11.697 -1.5273 -0.3130 -0.4521
  274TMC3    C1 4136   3.808   4.375  11.015  0.3404  0.1206  0.6732
  274TMC3    C2 4137   3.807   4.293  10.912 -0.2780 -0.3856  0.1820
  274TMC3    C3 4138   3.795   4.357  10.791 -0.0149  0.0872 -0.0123
  274TMC3    C4 4139   3.763   4.503  11.018  0.0202  0.0226  0.2607
  274TMC3    C5 4140   3.753   4.555  10.892 -0.5117 -0.4039 -0.0080
  274TMC3    C6 4141   3.784   4.493  10.776  0.2240  0.5581  0.3866
  274TMC3     C 4142   3.807   4.314  11.147 -0.0719 -0.0042 -0.2979
  274TMC3     O 4143   3.777   4.386  11.245  0.2118 -0.6153 -0.9714
  274TMC3     H 4144   3.806   4.185  10.915  0.0353 -0.4038 -0.3058
  274TMC3    H1 4145   3.789   4.555  11.110  0.1547 -0.4629  0.4971
  274TMC3    H2 4146   3.767   4.543  10.681  0.3073 -1.3227 -0.6225
  274TMC3    C7 4147   3.678   4.682  10.880 -0.2274  0.6138  0.3401
  274TMC3    C8 4148   3.777   4.262  10.682  0.5766 -0.2445  0.1553
  274TMC3    O1 4149   3.653   0.004  10.772  0.0576 -0.2597 -0.1456
  274TMC3    O2 4150   3.846   4.290  10.581 -0.2674  0.4692  0.3421
  275MPD2     C 4151   3.252   1.908  14.549 -0.3929  0.1733  0.2562
  275MPD2    C1 4152   3.198   1.896  14.677  0.7730  0.2142 -0.4138
  275MPD2    C2 4153   3.075   1.832  14.696 -0.5165  0.7699  0.0526
  275MPD2    C3 4154   3.006   1.779  14.587  0.2729  0.0251  0.3204
  275MPD2    C4 4155   3.065   1.778  14.462  0.0712 -0.4306  0.1190
  275MPD2    C5 4156   3.188   1.839  14.444  0.1447  0.5880  0.0167
  275MPD2     H 4157   3.035   1.821  14.796 -2.0649  1.3606 -0.5014
  275MPD2    H1 4158   3.013   1.726  14.383  0.3896  0.6102 -0.7859
  275MPD2    H2 4159   3.342   1.963  14.524 -0.3641 -1.7700 -3.8726
  275MPD2    H3 4160   3.233   1.837  14.346 -1.9041  1.7625 -0.9390
  275MPD2     N 4161   2.875   1.720  14.598 -0.2059  0.8336  0.3504
  275MPD2    H5 4162   2.837   1.679  14.513 -0.1558  1.3168  0.0961
  275MPD2    N1 4163   3.265   1.941  14.793 -0.1062  0.5466  0.5439
  275MPD2    H7 4164   3.222   1.923  14.883  0.0388 -0.8879  0.3304
  276TMC3    C1 4165   3.427   2.027  14.929  0.3497  0.0005 -0.2828
  276TMC3    C2 4166   3.416   1.925  15.020 -0.3124  0.4884  0.3706
  276TMC3    C3 4167   3.431   1.958  15.151 -0.0731  0.4477  0.1539
  276TMC3    C4 4168   3.468   2.148  14.960  0.9164 -0.7712 -0.4612
  276TMC3    C5 4169   3.499   2.177  15.088 -0.2655 -0.3672 -0.1729
  276TMC3    C6 4170   3.477   2.083  15.187  0.0043 -0.0544  0.4122
  276TMC3     C 4171   3.380   2.016  14.796 -0.1152  0.0602  0.3231
  276TMC3     O 4172   3.443   2.070  14.707 -0.1543  0.2286  0.1012
  276TMC3     H 4173   3.396   1.825  14.984  2.0111 -0.2092  1.0164
  276TMC3    H1 4174   3.460   2.222  14.881 -2.6228  0.9689  1.5243
  276TMC3    H2 4175   3.507   2.095  15.290 -1.0610  0.7501  0.6235
  276TMC3    C7 4176   3.621   2.257  15.111 -0.6401 -1.6183 -0.1233
  276TMC3    C8 4177   3.451   1.856  15.248 -0.3381 -0.5700 -0.6971
  276TMC3    O1 4178   3.667   2.256  15.224  0.2793 -0.1212  0.3498
  276TMC3    O2 4179   3.422   1.883  15.363  0.3198 -0.0959  0.2844
  277MPD2     C 4180   0.248   0.824  13.327 -0.7935 -0.8458  0.1010
  277MPD2    C1 4181   0.118   0.805  13.285  0.2726  0.1838  0.0095
  277MPD2    C2 4182   0.045   0.706  13.354  0.2359  0.1921 -0.1236
  277MPD2    C3 4183   0.105   0.621  13.445  0.0203  0.6568  0.3508
  277MPD2    C4 4184   0.237   0.640  13.484  0.9153  0.1777  0.2021
  277MPD2    C5 4185   0.303   0.745  13.423 -0.0351 -0.1694 -0.2151
  277MPD2     H 4186   4.659   0.685  13.345  0.3510  0.0156 -1.1016
  277MPD2    H1 4187   0.283   0.576  13.559  0.4344 -0.9158 -0.4357
  277MPD2    H2 4188   0.320   0.896  13.290 -1.6918 -1.5017 -2.9194
  277MPD2    H3 4189   0.408   0.747  13.451 -1.2149  0.9411  4.1378
  277MPD2     N 4190   0.035   0.504  13.499  0.4119  0.0519  0.2876
  277MPD2    H5 4191   4.671   0.477  13.448 -0.4409 -0.1078  1.7762
  277MPD2    N1 4192   0.061   0.881  13.180 -0.0168 -0.0012 -0.0434
  277MPD2    H7 4193   0.130   0.934  13.128  0.9663 -0.4100  0.8290
  278TMC3    C1 4194   0.001   0.285  13.587  0.0416 -0.3427  0.1075
  278TMC3    C2 4195   0.065   0.169  13.605 -0.0401 -0.1728 -0.0891
  278TMC3    C3 4196   4.719   0.055  13.566  0.0398 -0.6398 -1.0102
  278TMC3    C4 4197   4.592   0.293  13.545 -0.1752  0.0811  0.3030
  278TMC3    C5 4198   4.527   0.177  13.516  0.5105 -0.7242  0.5340
  278TMC3    C6 4199   4.588   0.054  13.531  0.5933 -0.5434 -0.4951
  278TMC3     C 4200   0.086   0.402  13.571  0.1521  0.2891  0.4637
  278TMC3     O 4201   0.196   0.389  13.617 -0.5288 -0.1948  0.3082
  278TMC3     H 4202   0.161   0.164  13.655  0.5832  0.3432 -1.2385
  278TMC3    H1 4203   4.543   0.387  13.524 -2.0938 -0.8543  0.5733
  278TMC3    H2 4204   4.537   4.682  13.504  1.2022 -0.4428 -1.9626
  278TMC3    C7 4205   4.401   0.169  13.456  0.4186  0.0137 -0.5156
  278TMC3    C8 4206   0.085   4.657  13.537 -0.5876 -0.7408  0.4969
  278TMC3    O1 4207   4.396   0.085  13.367  0.2614 -0.2095  0.3147
  278TMC3    O2 4208   0.196   4.660  13.589 -0.2216  0.3520 -0.4821
  279MPD2     C 4209   4.495   0.754   0.191  0.3014 -0.3525 -0.0757
  279MPD2    C1 4210   4.476   0.875   0.263  1.3314 -0.2949 -0.1575
  279MPD2    C2 4211   4.463   0.990   0.186 -0.5415 -0.4561 -0.5125
  279MPD2    C3 4212   4.480   0.985   0.049  0.2347  0.4086 -0.5343
  279MPD2    C4 4213   4.503   0.865  17.668 -0.8686 -0.5222 -0.1790
  279MPD2    C5 4214   4.501   0.748   0.054  0.4340 -0.8807  0.3485
  279MPD2     H 4215   4.438   1.084   0.235 -1.8666 -0.4431 -1.2089
  279MPD2    H1 4216   4.510   0.853  17.561  1.7109 -1.4656  0.0919
  279MPD2    H2 4217   4.491   0.658   0.242  1.2110 -1.3332 -1.8050
  279MPD2    H3 4218   4.513   0.652   0.005 -0.9702 -0.9595  0.1388
  279MPD2     N 4219   4.444   1.091  17.642 -0.6201  0.1770  0.0715
  279MPD2    H5 4220   4.442   1.071  17.543  0.9260 -2.1071  0.4984
  279MPD2    N1 4221   4.462   0.876   0.402 -0.4471  0.4027 -0.6514
  279MPD2    H7 4222   4.451   0.783   0.443 -0.4722  0.4897 -0.4585
  280TMC3    C1 4223   4.357   0.976   0.587  0.0092 -0.5963  0.1921
  280TMC3    C2 4224   4.283   0.858   0.595  0.2710  0.6591 -0.1277
  280TMC3    C3 4225   4.152   0.869   0.590  0.9781 -0.1214  0.4577
  280TMC3    C4 4226   4.295   1.099   0.608  0.0380 -0.9761  0.5322
  280TMC3    C5 4227   4.163   1.095   0.634 -0.8325  1.1263  1.2843
  280TMC3    C6 4228   4.088   0.982   0.610  0.4861 -0.4022  0.4795
  280TMC3     C 4229   4.438   0.989   0.476 -0.3571 -0.3055  0.2045
  280TMC3     O 4230   4.481   1.104   0.454  0.5802 -0.2430 -0.2413
  280TMC3     H 4231   4.343   0.767   0.591  0.7060  0.9345  0.0908
  280TMC3    H1 4232   4.344   1.195   0.597  1.6290 -1.7816  0.4940
  280TMC3    H2 4233   3.982   0.981   0.632  0.8782 -1.5051  2.3156
  280TMC3    C7 4234   4.095   1.224   0.620  0.2046  0.3296 -0.3720
  280TMC3    C8 4235   4.065   0.755   0.571  1.3722 -0.1190  0.0353
  280TMC3    O1 4236   4.138   1.313   0.692  0.0371 -0.1334 -0.1023
  280TMC3    O2 4237   3.947   0.777   0.596  0.5053  0.2531 -0.1080
  281TMC3    C1 4238   2.959   1.256  13.735 -0.4666  0.0694  0.2867
  281TMC3    C2 4239   3.055   1.174  13.786  0.4304 -0.6362 -0.8910
  281TMC3    C3 4240   3.018   1.089  13.887 -0.0544  0.1073  0.1595
  281TMC3    C4 4241   2.831   1.250  13.775 -0.1275 -0.2788 -1.2981
  281TMC3    C5 4242   2.800   1.164  13.873  0.0518 -0.2519 -0.3285
  281TMC3    C6 4243   2.891   1.086  13.931  0.5696  0.7783  0.0727
  281TMC3     C 4244   2.992   1.333  13.616  0.0802 -0.6865  0.3611
  281TMC3     O 4245   3.067   1.283  13.529  0.4752  0.7485 -0.5633
  281TMC3     H 4246   3.153   1.167  13.740  1.0201 -0.3596  0.3272
  281TMC3    H1 4247   2.752   1.317  13.743 -1.1151 -0.6971  0.2946
  281TMC3    H2 4248   2.870   1.015  14.009 -2.5360 -0.1157 -1.5663
  281TMC3    C7 4249   2.660   1.120  13.868  0.0809 -0.2180  0.5292
  281TMC3    C8 4250   3.117   0.989  13.934 -0.5460 -0.4328 -0.2379
  281TMC3    O1 4251   2.579   1.197  13.814 -0.6412  0.1232  0.5802
  281TMC3    O2 4252   3.218   1.052  13.949  0.0964 -0.0045  0.2160
  282MPD2     C 4253   0.418   2.221  14.881  0.3048  0.1807 -0.3081
  282MPD2    C1 4254   0.312   2.298  14.938  0.1996  0.1933 -0.3253
  282MPD2    C2 4255   0.227   2.367  14.856 -0.3343 -0.3616  0.0356
  282MPD2    C3 4256   0.241   2.361  14.718  0.1744  0.3260  0.0956
  282MPD2    C4 4257   0.352   2.297  14.662 -0.2693  0.2262 -0.1760
  282MPD2    C5 4258   0.439   2.222  14.741 -0.5852 -0.4068 -0.0370
  282MPD2     H 4259   0.142   2.418  14.900  0.1837  1.5334 -1.1231
  282MPD2    H1 4260   0.371   2.290  14.556  2.0117  0.5144  0.2178
  282MPD2    H2 4261   0.484   2.166  14.946  1.0161  1.7808  0.3208
  282MPD2    H3 4262   0.514   2.164  14.688 -0.5627 -0.9977  0.6544
  282MPD2     N 4263   0.141   2.425  14.635  0.2805 -0.4699 -0.0190
  282MPD2    H5 4264   0.073   2.483  14.682  0.6222  1.7793 -2.3156
  282MPD2    N1 4265   0.290   2.304  15.079  0.2434  0.2200 -0.4028
  282MPD2    H7 4266   0.204   2.349  15.108 -0.2193  0.3178 -1.9786
  283TMC3    C1 4267   0.290   2.247  15.304 -0.4791  0.0201 -1.0032
  283TMC3    C2 4268   0.284   2.373  15.353  0.1164  0.3061  0.0096
  283TMC3    C3 4269   0.260   2.376  15.488  0.6992  0.2367 -0.1617
  283TMC3    C4 4270   0.266   2.131  15.373 -0.7881 -0.2876  0.3873
  283TMC3    C5 4271   0.234   2.143  15.501  0.0472 -0.0728 -0.3185
  283TMC3    C6 4272   0.223   2.267  15.560  0.1960  0.1020 -0.5661
  283TMC3     C 4273   0.350   2.227  15.176 -0.0091 -0.3863 -0.0039
  283TMC3     O 4274   0.446   2.151  15.173 -0.1321  0.1965 -0.0279
  283TMC3     H 4275   0.319   2.460  15.299 -0.5455  0.3475 -0.3480
  283TMC3    H1 4276   0.283   2.033  15.329  0.9934  0.6724 -1.0773
  283TMC3    H2 4277   0.195   2.279  15.664  1.9163 -0.3578 -0.0441
  283TMC3    C7 4278   0.142   2.050  15.563  0.2710 -0.1343 -0.7200
  283TMC3    C8 4279   0.264   2.506  15.565  0.2236 -0.3561 -0.6161
  283TMC3    O1 4280   0.127   2.055  15.683  0.1327 -0.3932 -0.4505
  283TMC3    O2 4281   0.267   2.494  15.689  0.0703 -0.2489  0.1820
  284MPD2     C 4282   2.924   2.061  12.326 -0.1598  1.6259  0.6130
  284MPD2    C1 4283   3.040   2.104  12.252  0.3360  0.2551  0.4435
  284MPD2    C2 4284   3.163   2.058  12.292  0.6823 -0.5813  0.6598
  284MPD2    C3 4285   3.170   1.956  12.389  0.5309  0.1527 -0.4277
  284MPD2    C4 4286   3.057   1.903  12.451  0.0314 -0.9202  0.0861
  284MPD2    C5 4287   2.933   1.957  12.422  0.3988 -0.3065  0.0075
  284MPD2     H 4288   3.257   2.089  12.247 -1.0033 -1.2476 -3.2766
  284MPD2    H1 4289   3.068   1.816  12.515 -0.0423 -0.6099  0.5222
  284MPD2    H2 4290   2.824   2.088  12.294  0.0061  0.7882 -0.6385
  284MPD2    H3 4291   2.838   1.908  12.440  1.1281 -1.3657  0.9404
  284MPD2     N 4292   3.286   1.881  12.434  0.4426 -0.2717 -0.5963
  284MPD2    H5 4293   3.269   1.803  12.497  0.8257 -0.1900 -0.3940
  284MPD2    N1 4294   3.046   2.190  12.144  0.0269  0.0290 -0.0597
  284MPD2    H7 4295   3.138   2.204  12.103 -0.1164 -0.2621 -0.4873
  285TMC3    C1 4296   2.973   2.307  11.963  0.4333  0.1420 -0.4799
  285TMC3    C2 4297   2.884   2.279  11.861 -0.2918 -0.0094 -0.1847
  285TMC3    C3 4298   2.920   2.279  11.732 -0.6768  0.3150 -0.1806
  285TMC3    C4 4299   3.105   2.335  11.933 -0.1677 -0.5026 -0.5569
  285TMC3    C5 4300   3.132   2.355  11.802 -0.4313 -0.5965  0.4091
  285TMC3    C6 4301   3.043   2.328  11.698  0.4168  0.3236 -0.6350
  285TMC3     C 4302   2.938   2.253  12.088  0.1255  0.0184  0.1250
  285TMC3     O 4303   2.819   2.246  12.124 -0.6965 -0.3669 -0.3257
  285TMC3     H 4304   2.781   2.257  11.887  0.6234 -1.8788  1.9112
  285TMC3    H1 4305   3.174   2.363  12.011 -1.8198  0.9953  0.3575
  285TMC3    H2 4306   3.084   2.326  11.598  0.1929 -2.0899 -0.6840
  285TMC3    C7 4307   3.262   2.404  11.762 -0.4634  0.1465  0.0765
  285TMC3    C8 4308   2.866   2.168  11.655  0.3230  0.3805  0.6533
  285TMC3    O1 4309   3.279   2.447  11.647 -0.1640 -0.1996  0.6964
  285TMC3    O2 4310   2.828   2.062  11.709 -0.1945  0.5557  0.5335
  286MPD2     C 4311   3.084   1.021   1.816  0.5034 -0.6108  0.3629
  286MPD2    C1 4312   3.101   0.989   1.679 -0.6612  0.0165  0.1079
  286MPD2    C2 4313   3.220   0.978   1.618 -0.8286  0.5995 -0.0660
  286MPD2    C3 4314   3.337   0.990   1.696  0.2402 -0.7057  0.4448
  286MPD2    C4 4315   3.327   1.019   1.833 -0.1528 -0.9003 -0.8946
  286MPD2    C5 4316   3.200   1.038   1.890  0.3310  0.2575 -0.1982
  286MPD2     H 4317   3.224   0.957   1.512  0.4967 -0.8081  0.2679
  286MPD2    H1 4318   3.412   1.019   1.900 -0.7313 -0.3368 -0.1573
  286MPD2    H2 4319   2.984   1.025   1.857 -0.1033 -2.8014 -0.9071
  286MPD2    H3 4320   3.194   1.043   1.999 -0.4402 -1.3233 -0.1666
  286MPD2     N 4321   3.468   0.978   1.640  0.1769  0.0610  0.6575
  286MPD2    H5 4322   3.547   0.981   1.703 -0.3039  0.2918  1.2511
  286MPD2    N1 4323   2.990   0.947   1.604  0.2417 -0.3039 -0.3023
  286MPD2    H7 4324   3.004   0.925   1.506 -1.4561  1.9841 -1.0850
  287TMC3    C1 4325   3.637   0.919   1.483 -0.0693  0.7377  0.1191
  287TMC3    C2 4326   3.668   0.869   1.355 -0.1977  0.5345 -0.4572
  287TMC3    C3 4327   3.781   0.791   1.336  0.2434 -0.2277 -0.7781
  287TMC3    C4 4328   3.724   0.889   1.587 -0.3142 -0.6035  0.1452
  287TMC3    C5 4329   3.840   0.822   1.571  0.0118 -0.0923 -0.4566
  287TMC3    C6 4330   3.867   0.777   1.447 -0.7521  0.0637 -0.2378
  287TMC3     C 4331   3.497   0.963   1.508  0.0725  0.7753 -0.7479
  287TMC3     O 4332   3.424   0.968   1.410  0.0716  0.2206  0.1990
  287TMC3     H 4333   3.604   0.885   1.270 -1.2550  1.0301  0.4326
  287TMC3    H1 4334   3.705   0.934   1.684 -0.8612 -0.4208 -0.0490
  287TMC3    H2 4335   3.962   0.733   1.421 -2.0434 -3.4967  1.1580
  287TMC3    C7 4336   3.956   0.878   1.633  0.1346 -0.5553 -0.5385
  287TMC3    C8 4337   3.806   0.713   1.220  0.0938  0.4534 -0.4010
  287TMC3    O1 4338   3.947   0.994   1.657  0.0880  0.0745 -0.7653
  287TMC3    O2 4339   3.921   0.674   1.208  0.3560 -0.2968 -0.1204
  288TMC3    C1 4340   0.858   0.205  14.191  0.6917 -0.5858 -0.7190
  288TMC3    C2 4341   0.831   0.272  14.305  0.3512  0.0559  0.1926
  288TMC3    C3 4342   0.815   0.404  14.295  1.8652 -0.8844  0.1390
  288TMC3    C4 4343   0.885   0.270  14.070  0.1997  0.5080 -0.2087
  288TMC3    C5 4344   0.880   0.403  14.066  0.2997 -0.3015  0.2014
  288TMC3    C6 4345   0.834   0.471  14.174 -0.3735  0.8544  0.0000
  288TMC3     C 4346   0.865   0.060  14.206 -0.4028 -0.3284  0.3533
  288TMC3     O 4347   0.899   0.009  14.313  0.0112  0.2585 -0.0581
  288TMC3     H 4348   0.833   0.217  14.399 -0.8034 -2.0311 -1.0003
  288TMC3    H1 4349   0.911   0.213  13.981  0.7365 -0.8862  0.8380
  288TMC3    H2 4350   0.812   0.577  14.164 -1.3252  0.6932  0.3792
  288TMC3    C7 4351   0.839   0.461  13.938 -0.1354 -0.2871 -0.2043
  288TMC3    C8 4352   0.741   0.482  14.396  0.7249  0.0250 -0.3005
  288TMC3    O1 4353   0.773   0.382  13.878 -0.2947  0.0075 -0.6785
  288TMC3    O2 4354   0.725   0.604  14.384  1.0439 -0.3939  0.3076
  289MPD2     C 4355   0.816   3.997  14.586  1.0599  0.1341 -0.6856
  289MPD2    C1 4356   0.750   4.119  14.571  0.5093 -0.4667  0.5156
  289MPD2    C2 4357   0.654   4.131  14.470 -0.1226  0.5119 -0.9254
  289MPD2    C3 4358   0.630   4.025  14.384  0.2686 -0.4999  0.4071
  289MPD2    C4 4359   0.690   3.901  14.404 -0.2114 -0.0682 -0.1016
  289MPD2    C5 4360   0.778   3.891  14.508 -0.0400 -0.0029  0.1307
  289MPD2     H 4361   0.603   4.227  14.461  0.6418  0.7782 -2.2569
  289MPD2    H1 4362   0.676   3.822  14.331 -1.1993 -0.0048  0.0189
  289MPD2    H2 4363   0.896   3.984  14.658  0.1428  0.4718  0.3986
  289MPD2    H3 4364   0.828   3.795  14.517 -0.0204 -0.0274 -0.2218
  289MPD2     N 4365   0.543   4.033  14.279  0.1384 -0.0321 -0.3870
  289MPD2    H5 4366   0.544   3.945  14.229  3.7483  0.0076 -0.4491
  289MPD2    N1 4367   0.804   4.233  14.641 -0.4404  0.1880  0.5047
  289MPD2    H7 4368   0.863   4.217  14.721  0.6341 -0.3304 -0.3941
  290TMC3    C1 4369   0.417   4.143  14.108  0.4947 -0.1421 -0.0661
  290TMC3    C2 4370   0.455   4.248  14.027  0.3821 -0.1552  0.6509
  290TMC3    C3 4371   0.388   4.259  13.902 -0.1202  1.1702  0.3765
  290TMC3    C4 4372   0.331   4.050  14.077 -0.3816  0.0457 -0.1945
  290TMC3    C5 4373   0.271   4.065  13.950 -0.8293  0.0412  0.1924
  290TMC3    C6 4374   0.303   4.163  13.863  0.0182  0.2823  0.9599
  290TMC3     C 4375   0.486   4.154  14.234 -0.4883 -0.6012  0.2905
  290TMC3     O 4376   0.500   4.267  14.279 -0.1416 -0.3407  0.0352
  290TMC3     H 4377   0.539   4.313  14.053  0.0904  0.8821 -0.9977
  290TMC3    H1 4378   0.325   3.972  14.151 -1.6492  0.5036  0.1841
  290TMC3    H2 4379   0.250   4.185  13.771  2.3403  2.3952  0.1488
  290TMC3    C7 4380   0.240   3.935  13.886  0.0993  0.4645  0.5286
  290TMC3    C8 4381   0.451   4.356  13.811  0.2367 -0.0901 -0.4582
  290TMC3    O1 4382   0.253   3.932  13.765  0.1380  0.0897 -0.4595
  290TMC3    O2 4383   0.496   4.328  13.699  0.2682  0.1774  0.0059
  291MPD2     C 4384   0.005   4.187   0.532 -0.0701  0.4578  0.0899
  291MPD2    C1 4385   4.643   4.103   0.463 -0.6485 -0.1368  0.5752
  291MPD2    C2 4386   4.620   4.132   0.327  0.3662 -0.0621 -0.2320
  291MPD2    C3 4387   4.677   4.244   0.261 -0.0630 -0.2450  0.5883
  291MPD2    C4 4388   0.030   4.331   0.329 -0.1373 -0.1979  0.0803
  291MPD2    C5 4389   0.051   4.300   0.468 -0.1999  0.4211  0.0823
  291MPD2     H 4390   4.560   4.061   0.270  0.7956 -1.1637  0.6815
  291MPD2    H1 4391   0.067   4.424   0.290 -0.9620 -1.0865 -2.7976
  291MPD2    H2 4392   0.015   4.180   0.640 -0.8562 -1.9635  0.0014
  291MPD2    H3 4393   0.105   4.375   0.523 -0.7644  1.2439 -0.4866
  291MPD2     N 4394   4.666   4.263   0.122 -0.2432  0.1819  0.1100
  291MPD2    H5 4395   0.020   4.318   0.079 -0.7156 -0.2447 -1.2605
  291MPD2    N1 4396   4.577   3.994   0.520 -0.5440  0.8381  0.4947
  291MPD2    H7 4397   4.528   3.934   0.455  1.9700 -0.9489  0.2812
  292TMC3    C1 4398   4.526   3.814   0.659 -0.1054  0.6117  0.2645
  292TMC3    C2 4399   4.489   3.780   0.788  0.1269 -0.3695  0.5835
  292TMC3    C3 4400   4.416   3.665   0.806 -1.4001 -0.1094  0.1028
  292TMC3    C4 4401   4.480   3.750   0.545 -0.5705  0.4811 -0.4143
  292TMC3    C5 4402   4.401   3.638   0.568  0.0988 -0.1436  0.1549
  292TMC3    C6 4403   4.371   3.595   0.696  0.5794  0.1168  0.2511
  292TMC3     C 4404   4.598   3.941   0.649 -0.6516  0.1786  0.1635
  292TMC3     O 4405   4.648   3.988   0.750  0.2145  0.6364 -0.4385
  292TMC3     H 4406   4.536   3.831   0.872 -0.0206 -0.2639  0.6011
  292TMC3    H1 4407   4.515   3.781   0.448  1.5601 -0.0488  0.1913
  292TMC3    H2 4408   4.326   3.497   0.705 -0.7271  0.5613 -1.4075
  292TMC3    C7 4409   4.397   3.538   0.460 -0.0312 -0.3282  0.0143
  292TMC3    C8 4410   4.382   3.642   0.942 -0.2807  0.1292  0.3466
  292TMC3    O1 4411   4.390   3.420   0.481  0.8789 -0.5794 -0.3737
  292TMC3    O2 4412   4.436   3.720   1.020 -0.4021  0.3667 -0.1722
  293MPD2     C 4413   1.724   0.947  12.747 -0.2603  0.0703  0.1273
  293MPD2    C1 4414   1.609   0.922  12.822 -0.6139  0.4112 -0.7161
  293MPD2    C2 4415   1.628   0.887  12.953  0.4298 -0.0451  0.7626
  293MPD2    C3 4416   1.751   0.874  13.011 -0.2029  1.5947 -0.6206
  293MPD2    C4 4417   1.863   0.896  12.937 -0.0351  0.2892 -0.2283
  293MPD2    C5 4418   1.844   0.929  12.803 -1.0444  0.1300 -0.0572
  293MPD2     H 4419   1.532   0.872  13.002 -0.7005 -1.3934 -1.8863
  293MPD2    H1 4420   1.964   0.898  12.976  0.1854 -0.4403 -0.7711
  293MPD2    H2 4421   1.720   0.968  12.641 -1.3951  1.3937  0.4388
  293MPD2    H3 4422   1.927   0.938  12.734  0.4033 -0.7840  1.5451
  293MPD2     N 4423   1.763   0.836  13.146 -0.5438 -0.1239  0.4246
  293MPD2    H5 4424   1.856   0.842  13.187  0.8960  0.3136 -2.8773
  293MPD2    N1 4425   1.482   0.931  12.760  0.2573 -0.3391  0.3170
  293MPD2    H7 4426   1.489   0.949  12.661  0.5521  1.3882  0.6557
  294TMC3    C1 4427   1.254   0.946  12.718 -0.4786 -0.5259  0.1264
  294TMC3    C2 4428   1.134   0.879  12.733  0.3422  0.0442  0.2907
  294TMC3    C3 4429   1.038   0.884  12.632 -0.3786  0.4422  0.5519
  294TMC3    C4 4430   1.278   1.013  12.601 -0.0641  0.4859  0.1722
  294TMC3    C5 4431   1.184   1.005  12.501 -0.2032  0.0908  0.8886
  294TMC3    C6 4432   1.066   0.933  12.503  0.4490 -0.7979  0.3473
  294TMC3     C 4433   1.360   0.900  12.807  0.4132 -0.1187 -0.5667
  294TMC3     O 4434   1.326   0.847  12.913 -0.9421  0.4686 -0.4255
  294TMC3     H 4435   1.116   0.808  12.813  2.3883  1.5988  2.1055
  294TMC3    H1 4436   1.376   1.054  12.579 -0.4285  1.2681 -0.0061
  294TMC3    H2 4437   0.985   0.948  12.432  1.3831  1.7710 -0.1782
  294TMC3    C7 4438   1.219   1.090  12.388  0.4082 -0.2049 -0.2989
  294TMC3    C8 4439   0.917   0.813  12.657  0.5136  0.0610 -0.5634
  294TMC3    O1 4440   1.301   1.178  12.415  0.1572  0.3535  0.3064
  294TMC3    O2 4441   0.886   0.790  12.770  0.2373 -0.2462  0.9544
  295MPD2     C 4442   1.494   3.773   1.187  0.0840 -0.2953 -0.2657
  295MPD2    C1 4443   1.608   3.705   1.225 -0.8070  0.6379  0.4801
  295MPD2    C2 4444   1.652   3.714   1.356  0.3170  0.2803 -0.0836
  295MPD2    C3 4445   1.570   3.783   1.453 -0.1002  0.7395  0.5952
  295MPD2    C4 4446   1.460   3.858   1.412  0.7173  0.6141 -0.1566
  295MPD2    C5 4447   1.430   3.858   1.279  0.6272  1.1717  0.1171
  295MPD2     H 4448   1.735   3.654   1.393  1.0535  0.8066 -0.9035
  295MPD2    H1 4449   1.415   3.930   1.480 -1.0408 -0.9867  0.3817
  295MPD2    H2 4450   1.452   3.773   1.087 -0.7192  0.8094  0.0700
  295MPD2    H3 4451   1.347   3.913   1.236 -1.7598 -0.9478  2.0331
  295MPD2     N 4452   1.618   3.785   1.588 -0.0048 -0.1522 -0.0484
  295MPD2    H5 4453   1.562   3.847   1.645 -1.0516  1.3700 -2.7321
  295MPD2    N1 4454   1.684   3.628   1.132 -0.0842  0.2105 -0.5008
  295MPD2    H7 4455   1.771   3.585   1.163 -0.0742  1.9161  1.8430
  296TMC3    C1 4456   1.707   3.726   1.802 -0.6505  0.9884  0.7098
  296TMC3    C2 4457   1.662   3.847   1.862  0.0519 -0.5034 -0.5224
  296TMC3    C3 4458   1.659   3.854   1.996 -0.1003 -0.2016 -0.3989
  296TMC3    C4 4459   1.743   3.612   1.877  0.1804 -0.2562 -0.5656
  296TMC3    C5 4460   1.729   3.633   2.010  0.6184  0.1378 -0.1654
  296TMC3    C6 4461   1.698   3.752   2.075 -0.6247 -1.0376 -0.3531
  296TMC3     C 4462   1.711   3.706   1.653 -0.0758 -0.3614 -0.2179
  296TMC3     O 4463   1.782   3.619   1.609  0.5531 -0.2947 -0.3558
  296TMC3     H 4464   1.615   3.923   1.800  0.5957  0.6273  0.4515
  296TMC3    H1 4465   1.761   3.514   1.835  1.2302  0.4127 -1.6954
  296TMC3    H2 4466   1.710   3.759   2.182  0.2790  1.2153 -0.6103
  296TMC3    C7 4467   1.777   3.526   2.100  0.9175  0.4416  0.0408
  296TMC3    C8 4468   1.612   3.972   2.054 -0.6175  0.3440 -0.4544
  296TMC3    O1 4469   1.867   3.459   2.048 -0.2913 -0.2432  0.6409
  296TMC3    O2 4470   1.625   4.074   1.986 -0.7287 -0.4914  0.4278
  297MPD2     C 4471   4.151   1.106  16.572  0.2616  0.4304 -0.4600
  297MPD2    C1 4472   4.138   1.139  16.436 -0.5482  0.0463 -0.2775
  297MPD2    C2 4473   4.219   1.238  16.389  0.2841 -0.0619  0.1778
  297MPD2    C3 4474   4.317   1.293  16.464 -0.6731  0.5785  0.4197
  297MPD2    C4 4475   4.329   1.270  16.599  0.1088 -0.2194 -0.1443
  297MPD2    C5 4476   4.239   1.176  16.650  0.3634 -0.4073 -0.4793
  297MPD2     H 4477   4.216   1.270  16.286 -0.3304  1.4399  0.6615
  297MPD2    H1 4478   4.401   1.317  16.663 -0.3261 -2.0295  1.6657
  297MPD2    H2 4479   4.076   1.046  16.622  0.9905 -0.6479 -0.6633
  297MPD2    H3 4480   4.254   1.157  16.756 -2.0148  1.9348  0.2936
  297MPD2     N 4481   4.395   1.391  16.401 -0.6160 -0.4922 -0.2835
  297MPD2    H5 4482   4.374   1.408  16.303  1.7562  1.1233 -0.5096
  297MPD2    N1 4483   4.035   1.082  16.354  0.1407  0.2832  0.8677
  297MPD2    H7 4484   4.030   1.116  16.259  2.8214  0.7002  0.8944
  298TMC3    C1 4485   3.852   0.951  16.275 -0.0765 -0.0903  0.1664
  298TMC3    C2 4486   3.906   0.958  16.149 -0.4193 -0.1198  0.1503
  298TMC3    C3 4487   3.825   0.993  16.051 -0.0299  0.8374  0.3354
  298TMC3    C4 4488   3.721   0.991  16.302 -0.0131 -0.1602  0.4834
  298TMC3    C5 4489   3.650   1.045  16.197 -0.3757  0.3149  0.1483
  298TMC3    C6 4490   3.696   1.031  16.069 -1.2322 -0.8062  0.5639
  298TMC3     C 4491   3.941   0.983  16.389  0.0298 -0.0847  0.0545
  298TMC3     O 4492   3.910   0.937  16.499 -0.6896 -0.1653  0.1806
  298TMC3     H 4493   4.010   0.929  16.133 -1.2274 -3.2120  0.4837
  298TMC3    H1 4494   3.686   0.982  16.405  0.7098 -0.9280  0.6594
  298TMC3    H2 4495   3.638   1.045  15.978 -1.5163 -0.2833  0.8250
  298TMC3    C7 4496   3.580   1.169  16.240 -0.1338  0.5241 -0.6666
  298TMC3    C8 4497   3.884   1.034  15.926 -0.3552 -0.1416  0.8616
  298TMC3    O1 4498   3.541   1.181  16.354  0.1035  0.1248 -0.3958
  298TMC3    O2 4499   3.806   1.061  15.835  0.0559 -0.0293  0.5084
  299MPD2     C 4500   3.719   0.593  10.811  0.2705  0.3884 -0.0095
  299MPD2    C1 4501   3.735   0.718  10.761  0.2326 -0.2773 -0.5986
  299MPD2    C2 4502   3.628   0.766  10.688  0.3067  0.5862 -0.2801
  299MPD2    C3 4503   3.515   0.689  10.660  0.6837 -0.5881 -0.3163
  299MPD2    C4 4504   3.502   0.564  10.721  0.2513  0.4375  0.2906
  299MPD2    C5 4505   3.601   0.518  10.801 -0.8523 -0.0191  0.3373
  299MPD2     H 4506   3.649   0.863  10.645  0.6117  1.1614  1.1619
  299MPD2    H1 4507   3.414   0.500  10.727  0.4322  0.1549 -0.0664
  299MPD2    H2 4508   3.801   0.536  10.854  0.2866  0.9252  0.6795
  299MPD2    H3 4509   3.590   0.418  10.841 -0.7262  0.1168  0.7129
  299MPD2     N 4510   3.399   0.743  10.594  0.2045  0.0868 -0.3481
  299MPD2    H5 4511   3.325   0.675  10.583 -1.8670  1.9495  2.0314
  299MPD2    N1 4512   3.860   0.784  10.781 -0.6651 -0.2381  0.1721
  299MPD2    H7 4513   3.928   0.738  10.841  0.2525  0.4490 -0.3520
  300TMC3    C1 4514   3.255   0.892  10.497  0.5816  0.3407  0.0443
  300TMC3    C2 4515   3.240   1.003  10.427 -0.3562 -0.0241 -0.3658
  300TMC3    C3 4516   3.137   1.089  10.452 -0.4146  0.2370  0.9587
  300TMC3    C4 4517   3.162   0.852  10.588 -1.0887  0.1895  0.7785
  300TMC3    C5 4518   3.062   0.940  10.620  0.9655 -0.6484  0.0303
  300TMC3    C6 4519   3.053   1.062  10.561  0.1962 -0.3826 -0.0192
  300TMC3     C 4520   3.386   0.865  10.539 -0.7401  0.6228 -0.5229
  300TMC3     O 4521   3.454   0.961  10.538  0.4436  0.2786  0.1771
  300TMC3     H 4522   3.322   1.043  10.369 -0.7326 -1.4188 -1.8571
  300TMC3    H1 4523   3.174   0.756  10.638 -1.2716 -1.8788 -3.2107
  300TMC3    H2 4524   2.970   1.127  10.587 -0.2832 -0.9842 -0.0421
  300TMC3    C7 4525   2.951   0.888  10.707  0.2876  0.3440 -0.6475
  300TMC3    C8 4526   3.171   1.226  10.421  0.3299 -0.4481 -0.0835
  300TMC3    O1 4527   2.918   0.771  10.694  0.8526  0.1982  0.3170
  300TMC3    O2 4528   3.280   1.265  10.460 -0.1693 -0.5416 -0.1274
  301MPD2     C 4529   2.476   1.677   0.557  0.7701  0.0925  0.3484
  301MPD2    C1 4530   2.348   1.691   0.601  0.3020  0.7356  0.3349
  301MPD2    C2 4531   2.253   1.592   0.582 -0.0247 -0.4052  0.9687
  301MPD2    C3 4532   2.284   1.474   0.515  0.2368 -0.3811  0.4411
  301MPD2    C4 4533   2.412   1.457   0.466  0.6837  0.2166  0.6412
  301MPD2    C5 4534   2.501   1.565   0.482  0.3625 -0.9168 -0.0532
  301MPD2     H 4535   2.159   1.604   0.633 -0.1959  0.1828  0.5113
  301MPD2    H1 4536   2.442   1.365   0.420 -1.5401 -0.3245  0.2583
  301MPD2    H2 4537   2.554   1.753   0.556  0.5401  0.3157 -0.6894
  301MPD2    H3 4538   2.601   1.564   0.442 -0.4184 -2.0162 -1.9648
  301MPD2     N 4539   2.191   1.373   0.488 -0.3101  0.4946  0.3013
  301MPD2    H5 4540   2.228   1.280   0.475 -3.0798 -0.2644 -2.0726
  301MPD2    N1 4541   2.309   1.803   0.676  0.2716  0.6068  0.2739
  301MPD2    H7 4542   2.216   1.794   0.717  0.0898  0.9549 -0.0755
  302TMC3    C1 4543   1.972   1.276   0.506 -0.9923 -0.6195  0.3873
  302TMC3    C2 4544   2.030   1.161   0.549 -0.4375  0.7053 -0.7918
  302TMC3    C3 4545   1.949   1.052   0.571 -0.0997  0.3254 -0.3391
  302TMC3    C4 4546   1.839   1.290   0.498  0.3499 -0.6105  0.2047
  302TMC3    C5 4547   1.762   1.181   0.525 -0.1858  0.0739  0.3427
  302TMC3    C6 4548   1.813   1.061   0.564  0.1579  0.2524  0.1688
  302TMC3     C 4549   2.055   1.395   0.495  0.4566 -0.6965  0.0196
  302TMC3     O 4550   1.993   1.501   0.500  0.2691 -0.1128  0.4923
  302TMC3     H 4551   2.137   1.147   0.558 -0.5949 -1.5449 -2.4275
  302TMC3    H1 4552   1.793   1.384   0.473  3.8951  0.7609 -1.2155
  302TMC3    H2 4553   1.748   0.978   0.592  1.2450 -0.3375  0.9319
  302TMC3    C7 4554   1.618   1.214   0.557 -0.4830  0.3396 -0.5099
  302TMC3    C8 4555   2.014   0.957   0.658  0.1492  0.4234 -0.3847
  302TMC3    O1 4556   1.537   1.128   0.544 -0.3572  0.1300  0.2973
  302TMC3    O2 4557   2.134   0.946   0.643 -0.0745  0.3167 -0.2415
  303MPD2     C 4558   2.335   0.507  10.230 -0.7818  0.1984  0.4376
  303MPD2    C1 4559   2.260   0.598  10.301  0.4152 -0.1295  0.3647
  303MPD2    C2 4560   2.190   0.689  10.230  0.1251 -0.3412  0.6523
  303MPD2    C3 4561   2.208   0.707  10.094  0.1910 -0.0098 -0.6346
  303MPD2    C4 4562   2.291   0.620  10.024  0.4990 -0.4952  0.7142
  303MPD2    C5 4563   2.347   0.513  10.094  0.3272  0.0553 -0.9582
  303MPD2     H 4564   2.116   0.746  10.284  0.6074 -1.3868  2.4081
  303MPD2    H1 4565   2.299   0.634   9.917  0.1952  0.5864  0.8318
  303MPD2    H2 4566   2.381   0.429  10.290  0.3522 -0.4736 -1.2997
  303MPD2    H3 4567   2.411   0.440  10.045  0.1595 -0.9001  0.2494
  303MPD2     N 4568   2.140   0.805  10.022  0.6592 -0.2880  0.0019
  303MPD2    H5 4569   2.159   0.813   9.923  2.1981 -0.5865  0.2852
  303MPD2    N1 4570   2.251   0.589  10.440 -0.3369  0.2062  0.5343
  303MPD2    H7 4571   2.305   0.518  10.487 -2.6997 -2.2030 -0.3768
  304TMC3    C1 4572   2.162   0.645  10.649  0.7013 -0.0790  0.0007
  304TMC3    C2 4573   2.130   0.749  10.731  0.1626  0.3765  0.2429
  304TMC3    C3 4574   2.039   0.726  10.826  0.3490 -0.2427 -0.7689
  304TMC3    C4 4575   2.114   0.518  10.672  0.0022 -0.3095  0.1112
  304TMC3    C5 4576   2.035   0.489  10.776  0.1212 -0.3371  0.1892
  304TMC3    C6 4577   2.008   0.597  10.858 -0.0577 -0.2359 -0.7367
  304TMC3     C 4578   2.197   0.689  10.511  0.1323 -0.9236  0.8345
  304TMC3     O 4579   2.213   0.808  10.495 -0.2299  0.4895 -0.6965
  304TMC3     H 4580   2.170   0.849  10.715  0.9471  0.5097  3.1089
  304TMC3    H1 4581   2.122   0.433  10.606 -0.6277 -2.2468  2.5240
  304TMC3    H2 4582   1.945   0.581  10.944 -1.1165  0.0804 -1.4524
  304TMC3    C7 4583   1.913   0.414  10.744 -0.2995  0.1443  0.1800
  304TMC3    C8 4584   1.933   0.814  10.859 -0.3672  0.0117 -0.4524
  304TMC3    O1 4585   1.926   0.326  10.658 -0.3996 -0.4743 -0.5479
  304TMC3    O2 4586   1.828   0.753  10.867 -0.1448 -1.0790 -0.1583
  305MPD2     C 4587   0.531   2.867  14.019 -0.3464 -0.2117  0.2329
  305MPD2    C1 4588   0.549   2.733  14.052  0.5496 -0.7540 -0.4161
  305MPD2    C2 4589   0.548   2.635  13.956 -0.1628 -0.2718 -0.1516
  305MPD2    C3 4590   0.529   2.672  13.823 -0.1403  0.4452 -0.5310
  305MPD2    C4 4591   0.520   2.805  13.791 -0.3849 -0.0357  0.2447
  305MPD2    C5 4592   0.519   2.898  13.888  0.2511 -0.0226 -0.6293
  305MPD2     H 4593   0.550   2.529  13.979 -0.2903 -0.3985 -0.7162
  305MPD2    H1 4594   0.502   2.837  13.688  0.6049 -0.9619 -0.2147
  305MPD2    H2 4595   0.538   2.944  14.095 -1.2548 -0.8646  0.9706
  305MPD2    H3 4596   0.517   3.004  13.866 -0.2346 -0.3197 -2.0537
  305MPD2     N 4597   0.517   2.578  13.725  0.6228  0.4804 -0.3593
  305MPD2    H5 4598   0.518   2.612  13.629 -0.5177  0.6805 -0.2976
  305MPD2    N1 4599   0.596   2.704  14.185 -0.5279 -0.3860 -1.2508
  305MPD2    H7 4600   0.623   2.780  14.247 -1.0585 -0.0423 -1.4421
  306TMC3    C1 4601   0.661   2.584  14.378 -0.5981  0.3939 -0.0568
  306TMC3    C2 4602   0.694   2.464  14.434  0.0247 -0.5489 -0.2241
  306TMC3    C3 4603   0.741   2.471  14.567  0.0944  0.3324 -0.3454
  306TMC3    C4 4604   0.683   2.708  14.446 -0.1708 -0.3680  0.3739
  306TMC3    C5 4605   0.729   2.698  14.572 -0.5850  0.5118 -0.7824
  306TMC3    C6 4606   0.745   2.583  14.644  0.0022 -0.1854 -0.1916
  306TMC3     C 4607   0.605   2.581  14.247 -0.2684  0.2153 -0.3879
  306TMC3     O 4608   0.585   2.467  14.204  0.3703 -0.5577  0.3202
  306TMC3     H 4609   0.693   2.371  14.379 -0.6063  0.2423 -1.5537
  306TMC3    H1 4610   0.670   2.807  14.404  3.0234 -0.2739 -0.3758
  306TMC3    H2 4611   0.799   2.581  14.738 -1.6572 -2.0700  0.7242
  306TMC3    C7 4612   0.768   2.825  14.633  0.3635 -0.0959  0.3707
  306TMC3    C8 4613   0.796   2.346  14.615  0.2008 -0.5321 -0.3739
  306TMC3    O1 4614   0.805   2.916  14.558 -0.2706  0.0641  0.1127
  306TMC3    O2 4615   0.850   2.268  14.533 -0.5266 -0.3814  0.2591
  307MPD2     C 4616   3.298   0.166   0.484 -0.8104 -0.3849 -0.5200
  307MPD2    C1 4617   3.247   0.255   0.391 -0.1556  0.5194 -0.3422
  307MPD2    C2 4618   3.160   0.354   0.431 -0.3741 -0.3085  0.4924
  307MPD2    C3 4619   3.105   0.350   0.552 -0.7584 -0.1902  0.4751
  307MPD2    C4 4620   3.143   0.241   0.637 -0.1005  0.0448  0.0477
  307MPD2    C5 4621   3.247   0.160   0.608 -0.5701 -0.3150 -0.3316
  307MPD2     H 4622   3.121   0.426   0.359 -1.1571 -2.5147 -1.2762
  307MPD2    H1 4623   3.100   0.228   0.736  0.9605  2.6200  0.8307
  307MPD2    H2 4624   3.358   0.078   0.464 -0.4434 -0.0263 -0.9805
  307MPD2    H3 4625   3.271   0.077   0.673  0.3140 -0.8486 -1.3382
  307MPD2     N 4626   2.999   0.437   0.591  0.2691 -0.4643 -0.3942
  307MPD2    H5 4627   2.963   0.417   0.684  0.8426  0.9868  0.1389
  307MPD2    N1 4628   3.284   0.253   0.255  0.4444  0.0799  0.1963
  307MPD2    H7 4629   3.247   0.330   0.201 -0.5326 -0.9461 -0.5843
  308TMC3    C1 4630   2.631   0.585   0.671  0.2116  0.4212  0.0643
  308TMC3    C2 4631   2.604   0.718   0.660  0.5556 -0.0430  0.0831
  308TMC3    C3 4632   2.697   0.792   0.603  0.1041  1.3032 -0.3178
  308TMC3    C4 4633   2.755   0.536   0.655  0.6182 -0.6424  0.8405
  308TMC3    C5 4634   2.854   0.617   0.615  0.4011 -0.1956 -0.8150
  308TMC3    C6 4635   2.826   0.749   0.590 -0.0321 -0.3055  0.1188
  308TMC3     C 4636   2.529   0.486   0.705 -0.2594  0.6891  1.0368
  308TMC3     O 4637   2.568   0.372   0.721 -0.0351 -0.4567 -0.3752
  308TMC3     H 4638   2.504   0.754   0.677 -0.7378 -2.6506 -1.9420
  308TMC3    H1 4639   2.774   0.430   0.667  0.8757 -0.7045 -0.1480
  308TMC3    H2 4640   2.904   0.820   0.565 -2.2627  2.1891  0.1903
  308TMC3    C7 4641   2.962   0.558   0.538 -0.6284  0.0626  0.3199
  308TMC3    C8 4642   2.660   0.922   0.549  0.6002 -0.6019  0.0480
  308TMC3    O1 4643   3.002   0.612   0.436  0.6041 -0.2183  0.3507
  308TMC3    O2 4644   2.563   0.971   0.605  0.3097 -0.2485 -0.1323
  309MPD2     C 4645   1.739   0.447  17.133  0.5162  0.1787 -0.1594
  309MPD2    C1 4646   1.773   0.573  17.106 -0.6488 -0.0449 -0.4458
  309MPD2    C2 4647   1.700   0.679  17.168 -0.3436  0.9204 -0.0127
  309MPD2    C3 4648   1.593   0.643  17.254 -0.4319 -0.0282 -0.3430
  309MPD2    C4 4649   1.560   0.507  17.277  0.0228  0.3125  0.3008
  309MPD2    C5 4650   1.638   0.415  17.219 -0.1964 -0.7945 -0.3689
  309MPD2     H 4651   1.734   0.781  17.156  0.2656  0.6480 -0.5738
  309MPD2    H1 4652   1.473   0.470  17.330 -1.7433  0.5367 -2.4393
  309MPD2    H2 4653   1.792   0.363  17.089  0.0533  0.8795 -2.0784
  309MPD2    H3 4654   1.623   0.308  17.221 -2.6473 -0.4181  2.0274
  309MPD2     N 4655   1.505   0.733  17.310  0.3198  0.0908 -0.1617
  309MPD2    H5 4656   1.430   0.698  17.368  1.2635 -0.9160  0.4322
  309MPD2    N1 4657   1.884   0.604  17.022 -0.0371 -0.7830 -0.6813
  309MPD2    H7 4658   1.903   0.702  17.003 -1.0385 -1.1228 -3.4552
  310TMC3    C1 4659   2.075   0.576  16.904 -1.0214 -0.5755  0.9734
  310TMC3    C2 4660   2.036   0.672  16.817 -0.2841  0.4067 -0.3584
  310TMC3    C3 4661   2.130   0.734  16.739 -0.1701  1.0632 -0.3689
  310TMC3    C4 4662   2.196   0.513  16.888 -0.4739  0.6136 -0.3549
  310TMC3    C5 4663   2.284   0.560  16.794  0.2394 -0.3928 -0.1568
  310TMC3    C6 4664   2.255   0.674  16.719  0.0669  0.1977  0.1538
  310TMC3     C 4665   1.975   0.508  16.972  0.5667 -0.5133 -0.1493
  310TMC3     O 4666   1.991   0.392  17.005 -0.0888  0.3310 -0.3844
  310TMC3     H 4667   1.933   0.705  16.813 -1.0793 -2.1332 -0.3827
  310TMC3    H1 4668   2.215   0.428  16.953  1.2195  0.8556 -0.5322
  310TMC3    H2 4669   2.327   0.718  16.650 -2.4956  0.4080 -2.3908
  310TMC3    C7 4670   2.401   0.476  16.761 -0.0659 -0.0394 -0.0599
  310TMC3    C8 4671   2.081   0.824  16.637  0.5172  0.2779 -0.2552
  310TMC3    O1 4672   2.420   0.382  16.835 -0.3501 -0.0758 -0.1623
  310TMC3    O2 4673   1.961   0.833  16.615 -0.0600 -0.0477 -0.2644
  311MPD2     C 4674   4.155   3.090  12.685  0.1899  0.1567 -0.8081
  311MPD2    C1 4675   4.139   3.011  12.796 -0.1563  0.0430 -0.2055
  311MPD2    C2 4676   4.018   3.010  12.860  0.0648  0.2092 -0.1693
  311MPD2    C3 4677   3.909   3.094  12.818  0.1129 -0.0603  0.0715
  311MPD2    C4 4678   3.920   3.166  12.703  0.3731  0.3641 -0.1020
  311MPD2    C5 4679   4.044   3.167  12.636 -0.0817 -0.4952  0.9235
  311MPD2     H 4680   4.006   2.949  12.949 -1.4187 -2.6705 -2.3909
  311MPD2    H1 4681   3.832   3.224  12.675 -0.1320 -0.0441  0.6297
  311MPD2    H2 4682   4.244   3.093  12.624  0.5807 -2.4572 -0.3705
  311MPD2    H3 4683   4.044   3.216  12.539  0.2533 -1.9210  0.1989
  311MPD2     N 4684   3.781   3.080  12.883  0.1794 -1.1509 -0.1944
  311MPD2    H5 4685   3.798   3.039  12.974  1.2472  0.7572  0.4523
  311MPD2    N1 4686   4.244   2.919  12.832 -0.0488  0.0302  0.3220
  311MPD2    H7 4687   4.217   2.850  12.901  0.1847  0.4583  0.8461
  312TMC3    C1 4688   3.554   3.084  12.936 -0.6713  0.5080 -0.3638
  312TMC3    C2 4689   3.424   3.060  12.894 -0.2975 -0.3880 -0.4459
  312TMC3    C3 4690   3.331   3.035  12.989 -0.0627  0.7684 -1.0689
  312TMC3    C4 4691   3.586   3.058  13.070  0.1068  0.2638 -0.1345
  312TMC3    C5 4692   3.488   3.022  13.155  0.2508  0.2323 -0.0798
  312TMC3    C6 4693   3.358   3.010  13.116 -1.1837 -0.0717  0.5614
  312TMC3     C 4694   3.657   3.084  12.833 -0.0771 -0.2427 -0.2389
  312TMC3     O 4695   3.633   3.099  12.711 -0.3481 -0.1847  0.2455
  312TMC3     H 4696   3.413   3.042  12.788 -1.6629  0.7641 -0.5058
  312TMC3    H1 4697   3.688   3.064  13.105  0.4545 -0.9834 -0.9595
  312TMC3    H2 4698   3.289   2.970  13.189 -0.5151  1.9002  2.2893
  312TMC3    C7 4699   3.520   3.037  13.296  0.1455 -0.0780 -0.7949
  312TMC3    C8 4700   3.197   2.993  12.944 -0.4242 -0.0008 -0.2936
  312TMC3    O1 4701   3.634   3.017  13.339  0.2067 -0.6900  0.3217
  312TMC3    O2 4702   3.136   2.916  13.017 -1.2999  0.2367  0.3749
  313MPD2     C 4703   2.543   1.408  10.959 -0.2110 -0.0948 -0.1559
  313MPD2    C1 4704   2.526   1.487  10.844 -0.2335 -0.2976  0.0082
  313MPD2    C2 4705   2.444   1.439  10.743  0.0219  0.2942  0.2164
  313MPD2    C3 4706   2.368   1.325  10.761 -0.2398  0.1345  0.0114
  313MPD2    C4 4707   2.370   1.262  10.886 -0.4267 -0.6566 -0.4713
  313MPD2    C5 4708   2.462   1.298  10.977 -0.2866  0.0640 -0.1748
  313MPD2     H 4709   2.455   1.488  10.647  1.6356 -2.2083 -0.8866
  313MPD2    H1 4710   2.303   1.178  10.902  0.4234 -1.0521  1.0705
  313MPD2    H2 4711   2.602   1.432  11.046 -1.2465 -1.0667  0.8056
  313MPD2    H3 4712   2.475   1.242  11.069 -0.6531  0.1817 -0.0504
  313MPD2     N 4713   2.303   1.283  10.644  0.0457  0.6740 -0.4222
  313MPD2    H5 4714   2.315   1.335  10.558 -0.0776  0.0007 -0.8559
  313MPD2    N1 4715   2.607   1.597  10.806  0.2406  0.1157  0.2610
  313MPD2    H7 4716   2.602   1.636  10.712 -2.9124 -1.7013 -0.3430
  314TMC3    C1 4717   2.782   1.747  10.825  0.0874 -0.3442 -0.1359
  314TMC3    C2 4718   2.911   1.768  10.873 -0.4533  0.1711  0.0453
  314TMC3    C3 4719   2.977   1.879  10.825  0.1321  0.1875  0.0191
  314TMC3    C4 4720   2.734   1.817  10.714 -0.2482  0.0699  0.9678
  314TMC3    C5 4721   2.808   1.920  10.670  0.5136 -0.6666  0.0161
  314TMC3    C6 4722   2.932   1.951  10.726 -0.7484  0.1759  0.6180
  314TMC3     C 4723   2.697   1.655  10.896  0.7643  0.3040 -0.0516
  314TMC3     O 4724   2.733   1.621  11.010  0.3604 -0.0868  0.4937
  314TMC3     H 4725   2.945   1.715  10.961  0.8064  2.7278  1.1081
  314TMC3    H1 4726   2.633   1.803  10.676 -0.5109  1.5990  1.1141
  314TMC3    H2 4727   2.988   2.034  10.684 -3.9199  1.5472 -0.9214
  314TMC3    C7 4728   2.733   2.021  10.589 -0.6161  0.2482  0.4093
  314TMC3    C8 4729   3.093   1.931  10.894  0.2066 -0.4523  0.0209
  314TMC3    O1 4730   2.610   2.014  10.590  0.5753 -0.0859  0.4466
  314TMC3    O2 4731   3.156   2.036  10.861  0.0533 -0.2418 -0.3619
  315MPD2     C 4732   3.384   0.702   0.010 -0.4341  0.4644  0.1697
  315MPD2    C1 4733   3.369   0.787   0.116 -0.1663 -0.2084  0.5675
  315MPD2    C2 4734   3.402   0.920   0.095 -0.1955 -0.4865  0.9069
  315MPD2    C3 4735   3.440   0.969  17.653  0.2111 -0.2502  0.4457
  315MPD2    C4 4736   3.444   0.888  17.550  1.0302  0.0112  0.0868
  315MPD2    C5 4737   3.417   0.753  17.569 -0.0330 -1.1151  0.2081
  315MPD2     H 4738   3.390   0.983   0.183  0.1237  0.0949  0.5352
  315MPD2    H1 4739   3.482   0.927  17.457  0.1119  1.3284  0.2682
  315MPD2    H2 4740   3.358   0.596   0.010  0.0062  0.3516 -0.3202
  315MPD2    H3 4741   3.437   0.685  17.488  1.4864 -0.5586  0.1121
  315MPD2     N 4742   3.472   1.105  17.640  0.0457 -0.3837  0.1111
  315MPD2    H5 4743   3.469   1.161   0.044  2.6013 -2.8835  1.8198
  315MPD2    N1 4744   3.358   0.758   0.253  0.8620  0.3798 -0.2092
  315MPD2    H7 4745   3.367   0.833   0.321  0.5109 -0.1520  0.4333
  316TMC3    C1 4746   3.534   1.311  17.533  0.0033  0.7255  0.5961
  316TMC3    C2 4747   3.585   1.337  17.657 -0.5688  0.0941  0.7482
  316TMC3    C3 4748   3.534   1.452   0.037 -0.7831  1.1863  0.2287
  316TMC3    C4 4749   3.431   1.385  17.475 -0.3735  0.1203  0.1238
  316TMC3    C5 4750   3.392   1.500  17.539 -0.5956  0.7108  0.1618
  316TMC3    C6 4751   3.446   1.536  17.659 -0.0967  0.4269  0.1254
  316TMC3     C 4752   3.495   1.173  17.518  0.3209  0.1734  0.5348
  316TMC3     O 4753   3.470   1.139  17.403 -0.0424 -0.4041  0.0536
  316TMC3     H 4754   3.653   1.268   0.024 -0.5843  0.5024  1.3457
  316TMC3    H1 4755   3.386   1.347  17.384  0.8143  0.3773 -0.5710
  316TMC3    H2 4756   3.403   1.620   0.030 -0.3681  0.5825 -0.3509
  316TMC3    C7 4757   3.284   1.576  17.485  0.0019 -0.2343 -0.1861
  316TMC3    C8 4758   3.593   1.495   0.165  0.0332 -0.3183  0.7161
  316TMC3    O1 4759   3.215   1.637  17.566  0.3696  0.5949  0.2296
  316TMC3    O2 4760   3.547   1.590   0.228 -0.0658 -0.4169  0.5028
  317MPD2     C 4761   0.322   4.403  13.008 -0.4726  0.5608  0.7250
  317MPD2    C1 4762   0.389   4.321  12.918 -0.8829 -0.7301 -0.2943
  317MPD2    C2 4763   0.502   4.259  12.965  0.1924  0.4765 -0.0003
  317MPD2    C3 4764   0.532   4.260  13.096 -0.6896 -0.0159  0.2503
  317MPD2    C4 4765   0.455   4.324  13.187 -0.0193 -0.2416  0.4027
  317MPD2    C5 4766   0.351   4.403  13.140  0.4900  0.6505  0.5608
  317MPD2     H 4767   0.577   4.219  12.898  1.0202  1.4004  0.3750
  317MPD2    H1 4768   0.476   4.324  13.293 -1.8985 -3.1453  0.7917
  317MPD2    H2 4769   0.234   4.463  12.987  1.2286  2.0311 -2.1003
  317MPD2    H3 4770   0.293   4.469  13.204 -0.9118  0.6274 -0.7034
  317MPD2     N 4771   0.641   4.186  13.130 -0.6861 -0.7415 -0.1594
  317MPD2    H5 4772   0.691   4.158  13.047  0.6740  1.2390  0.0021
  317MPD2    N1 4773   0.355   4.297  12.783  0.1659  0.4604 -0.2186
  317MPD2    H7 4774   0.417   4.232  12.737 -1.4313 -0.7016 -0.7046
  318TMC3    C1 4775   0.786   4.060  13.254  1.0143 -0.5536  0.8704
  318TMC3    C2 4776   0.786   3.943  13.324 -0.3255 -0.0349  0.2314
  318TMC3    C3 4777   0.898   3.871  13.308  0.3855  0.3564 -0.0155
  318TMC3    C4 4778   0.896   4.114  13.191  0.0436 -0.0619 -0.2062
  318TMC3    C5 4779   1.017   4.053  13.208 -0.4868 -0.6497  0.1757
  318TMC3    C6 4780   1.019   3.927  13.265  0.3738 -0.3494  0.1379
  318TMC3     C 4781   0.670   4.140  13.255  0.1291 -0.6014 -0.4195
  318TMC3     O 4782   0.598   4.114  13.348 -0.4520 -0.4625  0.2063
  318TMC3     H 4783   0.691   3.906  13.360  0.0318 -0.3897  0.8266
  318TMC3    H1 4784   0.889   4.212  13.147 -2.2698  0.5190  1.4847
  318TMC3    H2 4785   1.114   3.878  13.281  0.3747 -0.2266  0.5064
  318TMC3    C7 4786   1.133   4.113  13.145 -0.1988 -0.1765 -0.0972
  318TMC3    C8 4787   0.888   3.724  13.324 -0.4979 -0.6041  0.1434
  318TMC3    O1 4788   1.107   4.210  13.079  0.0892  0.2961  0.0130
  318TMC3    O2 4789   0.996   3.660  13.328  0.0543 -0.2270 -0.1710
  319MPD2     C 4790   1.145   0.697  17.215  0.4335  0.9462 -0.2395
  319MPD2    C1 4791   1.123   0.557  17.224  0.6118  0.0344  0.1044
  319MPD2    C2 4792   1.062   0.496  17.120  0.6317 -0.6328  0.4274
  319MPD2    C3 4793   1.016   0.561  17.001  0.0297  0.0315 -0.2319
  319MPD2    C4 4794   1.040   0.696  16.996  0.5428  0.9036  0.3756
  319MPD2    C5 4795   1.097   0.763  17.103 -0.2995  0.0527  0.3560
  319MPD2     H 4796   1.053   0.389  17.133  0.8913 -0.8597 -1.2738
  319MPD2    H1 4797   1.015   0.761  16.913 -0.8094  0.0588  0.1230
  319MPD2    H2 4798   1.188   0.752  17.298  1.4728  1.6706 -1.2629
  319MPD2    H3 4799   1.102   0.870  17.089  2.4739 -0.0533  0.6523
  319MPD2     N 4800   0.957   0.497  16.892 -0.2080 -0.1922  0.1186
  319MPD2    H5 4801   0.911   0.558  16.825  0.4003  0.8977  0.6810
  319MPD2    N1 4802   1.178   0.478  17.329  0.5111 -0.0629  0.4497
  319MPD2    H7 4803   1.168   0.377  17.321  1.9342 -0.2032  0.4532
  320TMC3    C1 4804   0.877   0.328  16.755  0.3555 -0.1255  0.0275
  320TMC3    C2 4805   0.907   0.410  16.648 -0.2591  0.5678 -0.2008
  320TMC3    C3 4806   0.888   0.357  16.521 -0.2783 -0.4225  0.5224
  320TMC3    C4 4807   0.842   0.195  16.742 -0.7180 -0.0611  0.3621
  320TMC3    C5 4808   0.837   0.148  16.614  0.3584  0.5564 -0.7103
  320TMC3    C6 4809   0.862   0.225  16.500 -0.3668 -0.6009 -0.0886
  320TMC3     C 4810   0.933   0.359  16.880  0.1224 -0.1683 -0.1208
  320TMC3     O 4811   0.961   0.266  16.949  0.3154 -0.1884 -0.0316
  320TMC3     H 4812   0.935   0.515  16.653  1.1436  0.2014 -0.4096
  320TMC3    H1 4813   0.813   0.139  16.830 -0.0238 -1.0629 -0.0480
  320TMC3    H2 4814   0.866   0.176  16.403 -1.6720  0.0143 -0.4522
  320TMC3    C7 4815   0.868   0.007  16.596 -0.0072 -0.7831 -0.0692
  320TMC3    C8 4816   0.867   0.451  16.415 -0.0458 -0.3540  0.3466
  320TMC3    O1 4817   0.865   4.676  16.483  0.1119  0.6034  0.5471
  320TMC3    O2 4818   0.900   0.570  16.431  0.0877 -0.0529  0.3311
  321TMC3    C1 4819   1.278   0.418  17.530 -0.5715 -0.1078 -0.3639
  321TMC3    C2 4820   1.316   0.295  17.489  0.5199  0.2348 -0.2679
  321TMC3    C3 4821   1.419   0.228  17.549 -0.3798  0.4176 -0.2547
  321TMC3    C4 4822   1.345   0.475  17.640 -0.4342  0.3967  0.2257
  321TMC3    C5 4823   1.454   0.411   0.016  0.1885 -0.0192  0.2623
  321TMC3    C6 4824   1.500   0.290  17.638  0.2895  0.3464  0.1672
  321TMC3     C 4825   1.240   0.522  17.443  0.0182  0.4128  0.9370
  321TMC3     O 4826   1.292   0.634  17.451 -0.4382  0.0061 -0.1585
  321TMC3     H 4827   1.265   0.248  17.405 -1.5095 -1.5192  1.9563
  321TMC3    H1 4828   1.324   0.575  17.674 -0.7979  0.6813 -0.8550
  321TMC3    H2 4829   1.577   0.228   0.002 -1.3332 -1.7822  0.0385
  321TMC3    C7 4830   1.458   0.399   0.160 -0.1841 -0.2628 -0.1956
  321TMC3    C8 4831   1.406   0.084  17.578  0.2551 -0.2096 -0.2290
  321TMC3    O1 4832   1.557   0.342   0.206  0.0040 -0.3181 -0.1966
  321TMC3    O2 4833   1.499   0.031  17.634  0.0464 -0.2136 -0.4022
  322MPD2     C 4834   0.379   1.852  13.527  0.4656 -0.3063  0.0856
  322MPD2    C1 4835   0.450   1.796  13.631  0.4629  0.1100 -0.1429
  322MPD2    C2 4836   0.544   1.705  13.596 -0.1461  0.3602  0.2528
  322MPD2    C3 4837   0.580   1.681  13.465  0.0862 -0.3263  0.3374
  322MPD2    C4 4838   0.500   1.730  13.364  0.2345  1.1740  0.3770
  322MPD2    C5 4839   0.405   1.823  13.398  0.5220  0.4166 -0.4303
  322MPD2     H 4840   0.613   1.672  13.673  1.6974  0.2284 -1.4622
  322MPD2    H1 4841   0.534   1.717  13.261 -1.5969  0.5938 -0.1566
  322MPD2    H2 4842   0.308   1.931  13.550 -0.0578 -0.4272 -1.1243
  322MPD2    H3 4843   0.349   1.873  13.319 -1.6607  0.0455  0.8885
  322MPD2     N 4844   0.689   1.597  13.455 -0.5729  0.5904 -0.4330
  322MPD2    H5 4845   0.742   1.581  13.540  0.0340  2.4882 -0.4602
  322MPD2    N1 4846   0.431   1.828  13.766 -0.3815  0.2954  0.7005
  322MPD2    H7 4847   0.494   1.778  13.827 -1.9123 -2.6693 -0.1371
  323TMC3    C1 4848   0.411   1.951  13.954 -0.2371 -0.6623 -0.1730
  323TMC3    C2 4849   0.454   2.071  14.005  0.3783  0.7777 -0.3881
  323TMC3    C3 4850   0.493   2.077  14.133  0.2382 -0.2586  0.4008
  323TMC3    C4 4851   0.372   1.848  14.034 -0.0613 -0.4936 -0.5060
  323TMC3    C5 4852   0.395   1.866  14.166 -0.1808  0.2091 -0.5254
  323TMC3    C6 4853   0.459   1.978  14.216  0.6652  0.1156 -0.4569
  323TMC3     C 4854   0.385   1.942  13.814 -0.2837 -0.1692 -0.6796
  323TMC3     O 4855   0.355   2.042  13.751  0.0824 -0.3362 -0.4380
  323TMC3     H 4856   0.484   2.150  13.938 -0.4359  0.5340 -1.0281
  323TMC3    H1 4857   0.327   1.758  13.994 -0.7849 -0.8590  1.1006
  323TMC3    H2 4858   0.487   1.980  14.321  1.2467  0.8545 -0.6260
  323TMC3    C7 4859   0.383   1.751  14.247  0.3294 -0.5190  0.3015
  323TMC3    C8 4860   0.629   2.122  14.143  0.4160  0.1095  0.0334
  323TMC3    O1 4861   0.395   1.646  14.193 -0.1091 -0.2128 -0.3374
  323TMC3    O2 4862   0.700   2.056  14.217  0.2881 -0.0336 -0.1034
  324MPD2     C 4863   2.268   3.651  14.454 -0.8928  0.4352 -0.0602
  324MPD2    C1 4864   2.343   3.569  14.540 -0.1500  0.2290  0.1708
  324MPD2    C2 4865   2.290   3.468  14.606 -0.2001  0.1205  0.3056
  324MPD2    C3 4866   2.157   3.428  14.575  0.0614  0.0980  0.6667
  324MPD2    C4 4867   2.082   3.509  14.488 -0.3162  0.3553  0.3639
  324MPD2    C5 4868   2.137   3.625  14.436  0.4934  0.3729 -0.0883
  324MPD2     H 4869   2.339   3.413  14.685  1.6754  0.9181 -0.3061
  324MPD2    H1 4870   1.976   3.490  14.472  0.1705 -2.3091  0.3181
  324MPD2    H2 4871   2.307   3.739  14.405 -0.9741  0.7648  0.4704
  324MPD2    H3 4872   2.067   3.685  14.379  1.3350  0.0781 -1.4393
  324MPD2     N 4873   2.088   3.317  14.634 -0.3315  0.0302  0.2335
  324MPD2    H5 4874   1.991   3.309  14.605 -0.1295 -1.5547  0.0080
  324MPD2    N1 4875   2.476   3.602  14.568  0.4233  0.3249 -0.1644
  324MPD2    H7 4876   2.520   3.565  14.652 -1.4136  0.2220  0.7435
  325TMC3    C1 4877   2.044   3.133  14.741 -0.9537 -0.3404 -0.7261
  325TMC3    C2 4878   2.008   3.045  14.638  0.8915 -0.0647 -0.8723
  325TMC3    C3 4879   1.875   3.003  14.627 -0.6424  0.2235 -0.2463
  325TMC3    C4 4880   1.949   3.193  14.812 -0.0769  0.3044  0.1629
  325TMC3    C5 4881   1.820   3.161  14.798  0.4790  0.3337  0.5219
  325TMC3    C6 4882   1.784   3.059  14.705  0.3593 -0.4998 -0.0859
  325TMC3     C 4883   2.149   3.222  14.710 -0.4436 -0.2473 -0.1415
  325TMC3     O 4884   2.261   3.173  14.693 -0.4406  0.1692  0.0749
  325TMC3     H 4885   2.086   3.011  14.572  2.3431 -0.6749  1.1509
  325TMC3    H1 4886   1.988   3.269  14.880  0.7156 -0.4695  0.5772
  325TMC3    H2 4887   1.686   3.020  14.678  0.4338 -0.2673 -0.6821
  325TMC3    C7 4888   1.727   3.263  14.833 -0.2826  0.2116  0.3370
  325TMC3    C8 4889   1.846   2.937  14.496  0.1652 -0.7962  0.4605
  325TMC3    O1 4890   1.774   3.365  14.880  0.2946  0.2891  0.0915
  325TMC3    O2 4891   1.906   2.981  14.398 -0.3970 -0.1949 -0.0468
  326MPD2     C 4892   3.080   4.083  11.174 -0.0930 -0.2020  0.0850
  326MPD2    C1 4893   3.020   4.094  11.052  0.4475  0.0885 -0.3491
  326MPD2    C2 4894   2.964   4.221  11.020  0.3081  0.1569  0.7533
  326MPD2    C3 4895   2.980   4.337  11.097 -0.0263 -1.0282 -0.2331
  326MPD2    C4 4896   3.044   4.321  11.217  0.6964  0.0547 -0.2017
  326MPD2    C5 4897   3.090   4.194  11.249 -1.1287  0.2309 -0.5508
  326MPD2     H 4898   2.911   4.234  10.926  2.0710 -0.7143 -0.3575
  326MPD2    H1 4899   3.070   4.399  11.289  1.3981  0.5342 -0.9718
  326MPD2    H2 4900   3.126   3.993  11.214  0.8840  0.9231  1.4752
  326MPD2    H3 4901   3.146   4.177  11.341  0.6426 -1.6276 -1.9729
  326MPD2     N 4902   2.938   4.465  11.055 -0.3097  0.0480 -0.1006
  326MPD2    H5 4903   2.975   4.536  11.118 -1.4583 -1.7868  2.6701
  326MPD2    N1 4904   3.008   3.996  10.957 -1.1073  0.9568  0.4899
  326MPD2    H7 4905   2.943   4.015  10.882 -0.1134  1.8424 -0.1395
  327TMC3    C1 4906   3.043   3.780  10.857  0.0764 -0.1128 -1.1643
  327TMC3    C2 4907   2.919   3.801  10.799  0.0986 -0.7457  0.0778
  327TMC3    C3 4908   2.909   3.779  10.667  0.0303  0.7189 -0.0457
  327TMC3    C4 4909   3.152   3.752  10.781  0.2852  0.2692  0.0518
  327TMC3    C5 4910   3.138   3.733  10.648  0.8047  0.4401 -0.0572
  327TMC3    C6 4911   3.014   3.744  10.586 -0.1521 -0.2667 -0.6917
  327TMC3     C 4912   3.067   3.870  10.966 -0.0487  0.2399 -0.3515
  327TMC3     O 4913   3.136   3.829  11.063  0.0091 -0.1388  0.0963
  327TMC3     H 4914   2.836   3.834  10.860 -0.2932  0.0145 -0.8687
  327TMC3    H1 4915   3.245   3.725  10.830  0.8009  1.4520 -0.2745
  327TMC3    H2 4916   3.007   3.725  10.480 -1.9737  0.3514 -0.6784
  327TMC3    C7 4917   3.259   3.764  10.572  0.5416  0.1808 -0.5594
  327TMC3    C8 4918   2.795   3.837  10.595 -0.0274  0.1702  0.1043
  327TMC3    O1 4919   3.253   3.738  10.451 -0.6288  0.3572 -0.5335
  327TMC3    O2 4920   2.809   3.880  10.486  0.4766 -0.2078  0.4507
  328MPD2     C 4921   0.940   3.936  17.480 -0.0665  0.5514 -0.2023
  328MPD2    C1 4922   0.836   3.889  17.394  0.1964  0.3602 -0.0816
  328MPD2    C2 4923   0.808   3.966  17.285 -0.1296 -0.0595 -0.0769
  328MPD2    C3 4924   0.872   4.088  17.256  0.2488  0.4729  0.0933
  328MPD2    C4 4925   0.970   4.135  17.344  0.3372  0.3628 -0.2451
  328MPD2    C5 4926   0.999   4.058  17.453  0.0521 -0.3987 -0.8776
  328MPD2     H 4927   0.712   3.959  17.234  0.2567  1.7179 -1.0503
  328MPD2    H1 4928   1.029   4.220  17.314  0.2499  0.1788 -0.9474
  328MPD2    H2 4929   0.960   3.896  17.579  0.4123  1.1000 -0.0782
  328MPD2    H3 4930   1.079   4.099  17.512 -1.2235 -0.4713  0.9221
  328MPD2     N 4931   0.832   4.175  17.156  0.4350  0.6205 -0.9929
  328MPD2    H5 4932   0.864   4.270  17.168 -0.3571  0.6351  1.0437
  328MPD2    N1 4933   0.767   3.767  17.432  0.0053  0.4764 -0.6019
  328MPD2    H7 4934   0.795   3.714  17.514  1.5681  2.3910  0.1004
  329TMC3    C1 4935   0.601   3.587  17.413 -0.6464 -0.3875 -0.2523
  329TMC3    C2 4936   0.467   3.575  17.387 -0.5053 -0.2476 -0.1733
  329TMC3    C3 4937   0.426   3.453  17.344 -0.1847  0.5655  0.0833
  329TMC3    C4 4938   0.682   3.472  17.412 -0.0921 -0.4043  0.1200
  329TMC3    C5 4939   0.638   3.353  17.362  0.5396  0.3110  0.0713
  329TMC3    C6 4940   0.505   3.347  17.323  0.4418  0.2125  0.1884
  329TMC3     C 4941   0.660   3.718  17.366  0.2921  0.4510  0.0236
  329TMC3     O 4942   0.597   3.775  17.276  0.2819 -0.3055  0.4742
  329TMC3     H 4943   0.410   3.667  17.390 -1.3339 -0.7799  0.3864
  329TMC3    H1 4944   0.782   3.481  17.451  0.1062  0.6314 -0.6075
  329TMC3    H2 4945   0.462   3.261  17.272  1.8294 -0.6392  0.4631
  329TMC3    C7 4946   0.728   3.237  17.356 -0.9173 -0.2693 -0.2173
  329TMC3    C8 4947   0.318   3.463  17.247 -0.5704  0.0297  0.3819
  329TMC3    O1 4948   0.681   3.124  17.377 -0.0746 -0.5731  0.5659
  329TMC3    O2 4949   0.339   3.411  17.135  0.1658  0.6165  0.0959
  330TMC3    C1 4950   3.224   2.982   9.379  0.5999  0.1334 -0.2738
  330TMC3    C2 4951   3.106   2.962   9.315 -0.0055  0.0699  1.1138
  330TMC3    C3 4952   3.004   2.917   9.402  1.2571 -0.0887  0.0324
  330TMC3    C4 4953   3.242   2.951   9.512  0.3800  0.1707  0.0045
  330TMC3    C5 4954   3.138   2.911   9.592 -0.3528  0.5641 -0.2120
  330TMC3    C6 4955   3.014   2.897   9.536 -0.1588 -1.1880  0.1066
  330TMC3     C 4956   3.336   3.040   9.307 -0.1851 -0.0148  0.7824
  330TMC3     O 4957   3.449   3.008   9.342 -0.2227 -0.1048 -0.3543
  330TMC3     H 4958   3.100   2.985   9.210  0.7607  0.5778  1.1777
  330TMC3    H1 4959   3.334   2.995   9.550  1.6373 -0.4584 -2.3391
  330TMC3    H2 4960   2.936   2.863   9.604 -1.1441  0.1895 -0.3388
  330TMC3    C7 4961   3.152   2.878   9.730 -0.3448 -0.6704  0.0973
  330TMC3    C8 4962   2.869   2.956   9.355 -0.3596  0.0502 -0.8796
  330TMC3    O1 4963   3.049   2.883   9.800  0.5130  0.0134  0.3521
  330TMC3    O2 4964   2.875   3.036   9.260  0.3095  0.5393  0.0102
  331MPD2     C 4965   1.033   3.181  12.498  0.5649  0.2279  0.7773
  331MPD2    C1 4966   1.105   3.150  12.387  0.0376 -1.0339  0.0674
  331MPD2    C2 4967   1.197   3.043  12.387 -0.1719 -0.0810  0.3705
  331MPD2    C3 4968   1.201   2.967  12.505 -0.2942 -0.2945 -0.2274
  331MPD2    C4 4969   1.125   3.002  12.618 -0.2022 -0.2169 -0.0021
  331MPD2    C5 4970   1.037   3.105  12.610 -0.1531  0.0009 -0.4058
  331MPD2     H 4971   1.249   3.014  12.297  0.4019 -0.7455  0.9167
  331MPD2    H1 4972   1.131   2.939  12.707 -0.2162  0.5553  0.5435
  331MPD2    H2 4973   0.972   3.270  12.503  2.2358  1.4321 -0.3142
  331MPD2    H3 4974   0.966   3.128  12.689  0.5975 -2.8786  1.0756
  331MPD2     N 4975   1.301   2.871  12.498  0.4672 -0.9761 -0.0045
  331MPD2    H5 4976   1.350   2.845  12.413  1.2046 -0.4787  0.2600
  331MPD2    N1 4977   1.106   3.226  12.262 -0.3317 -0.5290  0.3412
  331MPD2    H7 4978   1.179   3.195  12.197  0.6765 -1.9686  2.1615
  332TMC3    C1 4979   1.482   2.766  12.578 -0.0231  0.1941  0.0821
  332TMC3    C2 4980   1.549   2.784  12.462  0.0878  0.1619 -0.3649
  332TMC3    C3 4981   1.668   2.718  12.433  0.2778 -0.0819 -0.6027
  332TMC3    C4 4982   1.545   2.686  12.674  0.1284  0.2544  0.4943
  332TMC3    C5 4983   1.659   2.615  12.634 -0.2431 -0.0761 -0.3476
  332TMC3    C6 4984   1.727   2.626  12.514 -0.0883 -0.1976 -1.1934
  332TMC3     C 4985   1.353   2.817  12.611 -0.3095  1.4135 -0.5661
  332TMC3     O 4986   1.297   2.787  12.717  0.2853 -0.6089 -0.6141
  332TMC3     H 4987   1.524   2.856  12.384 -2.2400 -1.5179 -1.1816
  332TMC3    H1 4988   1.501   2.666  12.771  0.7115  0.7263  0.8578
  332TMC3    H2 4989   1.816   2.569  12.493 -1.2108 -2.8183  1.1965
  332TMC3    C7 4990   1.720   2.534  12.739  0.1796  0.8445  1.0849
  332TMC3    C8 4991   1.718   2.743  12.300 -0.7071 -0.3079  0.3778
  332TMC3    O1 4992   1.642   2.488  12.817 -0.4251  0.1125  0.0680
  332TMC3    O2 4993   1.716   2.863  12.272  0.7987  0.0186  0.2526
  333MPD2     C 4994   1.380   2.227  11.616 -0.2683  0.0725  0.2425
  333MPD2    C1 4995   1.445   2.155  11.518  0.2094  0.3446 -0.1236
  333MPD2    C2 4996   1.379   2.042  11.467  0.7698 -0.5840 -0.9751
  333MPD2    C3 4997   1.256   2.010  11.524  0.4119  0.4454  0.0999
  333MPD2    C4 4998   1.201   2.085  11.626 -0.0583  0.5754  0.2414
  333MPD2    C5 4999   1.267   2.191  11.675 -0.8768 -0.0004 -1.1116
  333MPD2     H 5000   1.418   1.979  11.388 -2.6701 -0.9084 -2.4291
  333MPD2    H1 5001   1.104   2.074  11.673  0.5222  1.6729  1.6956
  333MPD2    H2 5002   1.419   2.325  11.643  0.0982  0.4444 -1.6928
  333MPD2    H3 5003   1.212   2.260  11.738 -3.0310 -1.2659 -1.5771
  333MPD2     N 5004   1.188   1.899  11.477 -0.2297  0.4657  0.3437
  333MPD2    H5 5005   1.238   1.839  11.413  0.3759  0.4364  0.8494
  333MPD2    N1 5006   1.568   2.191  11.472  0.1994 -0.6375 -0.1728
  333MPD2    H7 5007   1.613   2.272  11.513 -0.6726  0.0168 -0.5177
  334TMC3    C1 5008   1.763   2.198  11.352 -0.2896  0.6991 -0.1700
  334TMC3    C2 5009   1.871   2.126  11.312  0.6152 -0.9631  0.1980
  334TMC3    C3 5010   1.978   2.197  11.257 -0.7239 -0.5506 -0.6519
  334TMC3    C4 5011   1.750   2.334  11.350 -0.0513 -0.1683  0.1692
  334TMC3    C5 5012   1.863   2.391  11.300  0.5329 -1.1725  0.1545
  334TMC3    C6 5013   1.977   2.333  11.260 -0.1814 -0.5993 -0.3065
  334TMC3     C 5014   1.642   2.122  11.370 -0.2314 -0.0514  0.7209
  334TMC3     O 5015   1.621   2.016  11.312  0.0704 -0.1026  0.2280
  334TMC3     H 5016   1.869   2.018  11.322 -1.0490 -0.9327  0.1264
  334TMC3    H1 5017   1.668   2.396  11.382  0.1604  0.1898  0.0176
  334TMC3    H2 5018   2.063   2.395  11.239  0.4278 -0.8643  1.3943
  334TMC3    C7 5019   1.880   2.538  11.315  0.3096  0.3339  0.0883
  334TMC3    C8 5020   2.100   2.123  11.222 -0.7047 -0.1987  0.0143
  334TMC3    O1 5021   1.936   2.609  11.233 -0.6429 -0.2505  0.3358
  334TMC3    O2 5022   2.113   2.014  11.268  0.3172 -0.6613 -0.2871
  335TMC3    C1 5023   1.612   3.890   0.161  0.6401  0.3406  0.9631
  335TMC3    C2 5024   1.568   3.818   0.056  0.4808  0.4845 -0.3975
  335TMC3    C3 5025   1.641   3.828  17.618  0.0218 -0.1944 -0.6077
  335TMC3    C4 5026   1.729   3.963   0.156 -0.9614 -0.2521  0.0039
  335TMC3    C5 5027   1.798   3.969   0.036  0.6541  0.7241 -0.4497
  335TMC3    C6 5028   1.755   3.901  17.610  0.2139  0.1870  0.0361
  335TMC3     C 5029   1.521   3.926   0.263  0.1286  0.0184  0.6716
  335TMC3     O 5030   1.538   4.031   0.321  0.0044 -0.0463 -0.2779
  335TMC3     H 5031   1.468   3.779   0.067  1.5502 -2.0128  0.5182
  335TMC3    H1 5032   1.759   4.013   0.247 -0.8359  0.2769 -0.3233
  335TMC3    H2 5033   1.803   3.910  17.513  2.6289 -1.1448  1.1048
  335TMC3    C7 5034   1.931   4.015   0.017  0.0024  0.1679 -0.0641
  335TMC3    C8 5035   1.615   3.739  17.506  0.1027  0.2077 -0.3645
  335TMC3    O1 5036   1.988   3.999  17.592  0.4278 -0.3177  0.1339
  335TMC3    O2 5037   1.638   3.791  17.396  0.2797 -0.4395  0.0246
  336MPD2     C 5038   1.239   1.728  16.342  0.1499 -1.1290 -0.0697
  336MPD2    C1 5039   1.224   1.645  16.233 -0.5297  0.0075  0.1418
  336MPD2    C2 5040   1.256   1.508  16.243  0.5251 -0.0258  0.2189
  336MPD2    C3 5041   1.301   1.455  16.360  0.8232  0.0397 -0.5104
  336MPD2    C4 5042   1.309   1.540  16.473 -0.7212 -0.9569  0.6020
  336MPD2    C5 5043   1.284   1.674  16.460  0.8225  0.0002  0.4766
  336MPD2     H 5044   1.230   1.448  16.156  0.0156  2.2347 -1.1685
  336MPD2    H1 5045   1.322   1.506  16.575  1.6891  0.9638  0.9245
  336MPD2    H2 5046   1.218   1.834  16.334  0.3186 -1.0264  0.8714
  336MPD2    H3 5047   1.293   1.738  16.547 -0.1285  0.2933  0.3581
  336MPD2     N 5048   1.309   1.314  16.379  0.4474  0.5199  0.0906
  336MPD2    H5 5049   1.310   1.282  16.475  0.4240  0.9943  0.2450
  336MPD2    N1 5050   1.175   1.690  16.103  0.0213 -0.1940  0.4214
  336MPD2    H7 5051   1.180   1.620  16.029 -0.7027  1.0264 -0.7809
  337TMC3    C1 5052   1.056   1.804  15.943 -0.5458  0.1872  0.5084
  337TMC3    C2 5053   1.004   1.684  15.900  0.5513 -0.1272 -0.0199
  337TMC3    C3 5054   0.938   1.691  15.778  0.0080 -0.3226 -0.1861
  337TMC3    C4 5055   1.037   1.924  15.868 -0.1271 -0.1779  0.0623
  337TMC3    C5 5056   0.990   1.920  15.742 -0.4815  0.5579  0.8646
  337TMC3    C6 5057   0.935   1.805  15.693  0.1878  0.1078  0.0928
  337TMC3     C 5058   1.128   1.811  16.071  0.0953  0.6753  0.4456
  337TMC3     O 5059   1.162   1.918  16.120 -0.3174  0.3595 -0.4142
  337TMC3     H 5060   1.007   1.590  15.953  0.9821 -0.8995 -1.4073
  337TMC3    H1 5061   1.073   2.016  15.915 -0.6606 -0.2149  0.5349
  337TMC3    H2 5062   0.916   1.797  15.587 -1.4864  1.4291  0.2745
  337TMC3    C7 5063   0.959   2.041  15.670 -0.3939 -0.4081  0.7915
  337TMC3    C8 5064   0.889   1.564  15.722 -0.2876  0.4703 -0.0681
  337TMC3    O1 5065   0.901   2.029  15.562 -0.1208  0.0831  0.2052
  337TMC3    O2 5066   0.919   1.462  15.779 -0.5252 -0.0473  0.1437
  338MPD2     C 5067   1.383   1.128   1.147  0.3275  0.5853 -0.4862
  338MPD2    C1 5068   1.348   1.085   1.018  0.2247 -0.5486 -0.7052
  338MPD2    C2 5069   1.231   1.132   0.961 -0.0802 -0.2199  0.3688
  338MPD2    C3 5070   1.170   1.249   1.017 -0.0369 -0.5959  0.2376
  338MPD2    C4 5071   1.217   1.295   1.138  0.4894 -0.7079  0.2661
  338MPD2    C5 5072   1.314   1.235   1.201 -0.3242 -0.5134  0.1243
  338MPD2     H 5073   1.197   1.102   0.863 -0.6806  2.8103 -0.3448
  338MPD2    H1 5074   1.175   1.385   1.183  1.3385 -0.0397 -0.2986
  338MPD2    H2 5075   1.473   1.089   1.192 -0.2476  0.1444  0.2739
  338MPD2    H3 5076   1.345   1.280   1.295  2.7292 -0.3577 -0.9680
  338MPD2     N 5077   1.056   1.306   0.951  0.1021 -0.2422  0.0731
  338MPD2    H5 5078   1.027   1.263   0.863  0.7574 -2.7590  1.0878
  338MPD2    N1 5079   1.395   0.964   0.959  0.1313 -0.3529  0.4127
  338MPD2    H7 5080   1.341   0.928   0.881 -1.0809  1.5808  0.3538
  339TMC3    C1 5081   0.828   1.368   0.940 -0.5397  0.1155 -0.1379
  339TMC3    C2 5082   0.717   1.354   1.010 -0.4697 -0.5065 -0.4314
  339TMC3    C3 5083   0.609   1.306   0.942 -0.0204  0.1041  0.3408
  339TMC3    C4 5084   0.837   1.367   0.803 -0.3297  0.5570  0.1088
  339TMC3    C5 5085   0.726   1.330   0.738  0.0807 -0.3039 -0.0535
  339TMC3    C6 5086   0.611   1.289   0.805  0.6977  0.3212 -0.2411
  339TMC3     C 5087   0.957   1.380   1.012 -0.2670  0.0309  0.5558
  339TMC3     O 5088   0.953   1.406   1.132  0.4080  0.1997 -0.2603
  339TMC3     H 5089   0.725   1.358   1.118  0.9256  0.7636 -0.5835
  339TMC3    H1 5090   0.928   1.394   0.750 -2.1810  0.8297 -2.9130
  339TMC3    H2 5091   0.522   1.256   0.753  1.3112  1.3222 -1.9226
  339TMC3    C7 5092   0.745   1.279   0.598  0.9956  0.0204  0.3257
  339TMC3    C8 5093   0.477   1.306   1.011 -0.3014  0.1155 -0.2529
  339TMC3    O1 5094   0.674   1.186   0.557 -0.6534 -0.1721  0.1842
  339TMC3    O2 5095   0.374   1.267   0.952 -0.2051  0.3178  0.3533
  340MPD2     C 5096   0.961   3.358  10.716 -0.0034 -0.1401  0.4887
  340MPD2    C1 5097   1.045   3.460  10.678  0.2167 -0.4330 -0.3104
  340MPD2    C2 5098   1.095   3.543  10.779 -0.9116 -0.2107  0.1440
  340MPD2    C3 5099   1.085   3.510  10.906  0.7602 -0.2847  0.3349
  340MPD2    C4 5100   0.995   3.418  10.939  0.2550  0.4063 -0.5701
  340MPD2    C5 5101   0.925   3.344  10.848  0.0523 -0.4217 -0.0812
  340MPD2     H 5102   1.137   3.640  10.759  0.6174 -0.4948  2.0619
  340MPD2    H1 5103   0.960   3.405  11.041 -0.6296 -0.8786 -1.0291
  340MPD2    H2 5104   0.915   3.289  10.646  1.5548  0.9827 -1.6649
  340MPD2    H3 5105   0.853   3.268  10.876 -2.2005  1.2777 -1.2638
  340MPD2     N 5106   1.131   3.587  11.015  0.2367 -0.8234  0.2945
  340MPD2    H5 5107   1.078   3.566  11.099  0.2594 -2.5703 -0.1362
  340MPD2    N1 5108   1.072   3.485  10.542 -0.0545 -0.8159 -0.1320
  340MPD2    H7 5109   1.027   3.417  10.481 -1.3795  0.4690 -0.5859
  341TMC3    C1 5110   1.194   3.561  10.348  0.6139 -0.8753  0.3914
  341TMC3    C2 5111   1.192   3.440  10.291  0.1448 -0.0134 -0.3560
  341TMC3    C3 5112   1.214   3.434  10.158 -0.0793 -0.5354 -0.1050
  341TMC3    C4 5113   1.208   3.673  10.274 -0.2548 -0.3336  0.2108
  341TMC3    C5 5114   1.239   3.659  10.143 -0.1754  0.6075 -0.9716
  341TMC3    C6 5115   1.252   3.544  10.080 -0.5260 -0.0307  0.3571
  341TMC3     C 5116   1.162   3.583  10.494 -0.8623  0.2273 -0.3223
  341TMC3     O 5117   1.227   3.672  10.549  0.2684  0.7730 -0.1141
  341TMC3     H 5118   1.187   3.351  10.354  0.6798  2.4214  3.1508
  341TMC3    H1 5119   1.196   3.770  10.322  0.7028 -0.2715  0.3189
  341TMC3    H2 5120   1.300   3.540   9.983  1.0568 -1.8700  1.2131
  341TMC3    C7 5121   1.289   3.776  10.068 -0.0079  0.0359 -0.0239
  341TMC3    C8 5122   1.186   3.305  10.103  1.1228  0.0731 -0.4839
  341TMC3    O1 5123   1.303   3.763   9.949  0.7228 -0.3247 -0.4991
  341TMC3    O2 5124   1.170   3.211  10.179  0.4643 -0.3984 -0.2411
  342MPD2     C 5125   4.010   2.412  17.438  0.0307 -0.2423  0.0323
  342MPD2    C1 5126   4.142   2.363  17.443 -0.0891 -0.0680 -0.4560
  342MPD2    C2 5127   4.248   2.458  17.452 -0.1381 -0.4480  0.1360
  342MPD2    C3 5128   4.219   2.590  17.481 -0.1776  0.1017  0.0957
  342MPD2    C4 5129   4.087   2.634  17.471 -0.5012  0.2013 -0.0658
  342MPD2    C5 5130   3.987   2.545  17.447 -0.0342 -0.9398  0.0847
  342MPD2     H 5131   4.349   2.434  17.425  0.5334  1.1870  1.1635
  342MPD2    H1 5132   4.058   2.738  17.479 -1.8601 -0.2845  1.1660
  342MPD2    H2 5133   3.921   2.356  17.415  1.2239 -2.4290  0.7674
  342MPD2    H3 5134   3.890   2.591  17.454 -0.1247 -0.9075 -1.3736
  342MPD2     N 5135   4.319   2.691  17.502  0.6723 -0.5680  0.7036
  342MPD2    H5 5136   4.291   2.786  17.526  2.4888  0.2789 -0.5290
  342MPD2    N1 5137   4.172   2.233  17.394  0.0626 -0.0966  0.0661
  342MPD2    H7 5138   4.261   2.217  17.347 -0.9702 -1.1398 -1.5448
  343TMC3    C1 5139   4.136   2.002  17.329 -0.5042  0.2494 -0.4203
  343TMC3    C2 5140   4.212   2.019  17.212 -0.2673 -0.1207  0.2089
  343TMC3    C3 5141   4.247   1.902  17.143  0.3001 -0.4970 -0.1811
  343TMC3    C4 5142   4.082   1.883  17.363  0.6022  0.3374 -0.3586
  343TMC3    C5 5143   4.108   1.773  17.290  0.5542  0.1126  0.3408
  343TMC3    C6 5144   4.194   1.780  17.178 -0.7674  0.3281 -0.2396
  343TMC3     C 5145   4.098   2.123  17.399 -0.4044  0.6521  0.1832
  343TMC3     O 5146   3.988   2.110  17.452  0.3761 -0.2225 -0.1244
  343TMC3     H 5147   4.254   2.113  17.177 -0.3895  0.1431  0.7687
  343TMC3    H1 5148   4.017   1.873  17.450  0.6191 -1.9267 -0.6099
  343TMC3    H2 5149   4.206   1.693  17.115 -1.7434  0.0063  0.0081
  343TMC3    C7 5150   4.078   1.642  17.348  0.0477  0.6328  0.6952
  343TMC3    C8 5151   4.331   1.912  17.030  0.0590 -0.6506  0.5486
  343TMC3    O1 5152   4.071   1.561  17.251  0.1977 -0.2200  0.8169
  343TMC3    O2 5153   4.322   2.017  16.962  0.4608 -0.3440  0.2134
  344MPD2     C 5154   4.211   1.526  10.511 -0.6969  0.0988  0.3968
  344MPD2    C1 5155   4.304   1.433  10.562  0.1455  0.0304 -0.2318
  344MPD2    C2 5156   4.436   1.452  10.535 -0.0104 -0.2971  0.0747
  344MPD2    C3 5157   4.468   1.538  10.427 -0.3772  0.5029  0.2080
  344MPD2    C4 5158   4.375   1.623  10.377 -0.3294  0.1724  0.2555
  344MPD2    C5 5159   4.247   1.626  10.421 -0.2478 -0.1275  0.3471
  344MPD2     H 5160   4.513   1.389  10.576  0.2709 -0.1412 -0.2111
  344MPD2    H1 5161   4.407   1.690  10.298 -1.9493  0.1541 -0.4239
  344MPD2    H2 5162   4.107   1.527  10.541 -0.4766  0.8839  1.1254
  344MPD2    H3 5163   4.178   1.701  10.385 -0.1957 -1.1550 -1.8534
  344MPD2     N 5164   4.596   1.541  10.361 -0.1741 -0.8524  0.1503
  344MPD2    H5 5165   4.614   1.609  10.288 -2.6302  0.2600  0.5844
  344MPD2    N1 5166   4.274   1.330  10.654 -0.3249  0.7310  0.5646
  344MPD2    H7 5167   4.349   1.271  10.689 -0.8270  1.5114  2.9671
  345TMC3    C1 5168   0.104   1.491  10.311 -0.0686  0.3190 -0.1450
  345TMC3    C2 5169   0.221   1.466  10.375 -0.8347 -0.2435  0.5637
  345TMC3    C3 5170   0.342   1.513  10.320  0.2207 -0.1873 -0.3841
  345TMC3    C4 5171   0.101   1.558  10.192 -0.7857 -0.1368  0.9947
  345TMC3    C5 5172   0.224   1.603  10.144 -0.9024 -0.1339 -0.0099
  345TMC3    C6 5173   0.347   1.577  10.207  0.6904  0.0383 -0.3699
  345TMC3     C 5174   4.701   1.458  10.386 -0.6060  0.0109 -0.2847
  345TMC3     O 5175   4.715   1.369  10.474 -0.4145  0.1004 -0.2701
  345TMC3     H 5176   0.215   1.431  10.477  2.1468 -0.7406  0.5508
  345TMC3    H1 5177   0.010   1.585  10.140  0.6980 -0.8884 -2.0605
  345TMC3    H2 5178   0.438   1.606  10.157  0.6489  0.5015 -0.1745
  345TMC3    C7 5179   0.240   1.681  10.026 -0.3005 -0.4743 -0.0994
  345TMC3    C8 5180   0.446   1.548  10.407  0.6564 -0.1253  0.2803
  345TMC3    O1 5181   0.336   1.755  10.033  0.1440  0.1828  0.0410
  345TMC3    O2 5182   0.470   1.472  10.496  0.4565 -0.0253  0.1694
  346MPD2     C 5183   0.912   2.865  13.939  0.0919  0.0824 -0.8071
  346MPD2    C1 5184   0.862   2.999  13.949 -0.2289 -0.4635  0.1926
  346MPD2    C2 5185   0.820   3.051  14.069  0.1092 -0.5125  0.2017
  346MPD2    C3 5186   0.831   2.977  14.186  0.9618 -0.1206 -0.6766
  346MPD2    C4 5187   0.880   2.847  14.176 -0.4105 -0.2946  0.2144
  346MPD2    C5 5188   0.908   2.794  14.050  0.0542 -0.2854 -0.5248
  346MPD2     H 5189   0.792   3.156  14.065  1.0916 -0.3106 -1.5348
  346MPD2    H1 5190   0.892   2.780  14.261  0.8646  1.2636  1.2556
  346MPD2    H2 5191   0.950   2.818  13.849  0.9864 -2.2891  0.8226
  346MPD2    H3 5192   0.935   2.689  14.048  4.5190  0.8874 -0.1220
  346MPD2     N 5193   0.812   3.047  14.313 -0.1777  0.3063 -0.4719
  346MPD2    H5 5194   0.836   2.993  14.395  1.0833  0.5234 -0.6930
  346MPD2    N1 5195   0.848   3.083  13.835  0.0454 -0.1738 -0.7804
  346MPD2    H7 5196   0.808   3.175  13.853 -0.7879 -0.4405 -1.2800
  347TMC3    C1 5197   0.773   3.217  14.484 -0.3982  0.0499 -0.2161
  347TMC3    C2 5198   0.903   3.212  14.525  0.1588  0.6796  0.6360
  347TMC3    C3 5199   0.955   3.303  14.612 -1.0079  0.8730 -0.0267
  347TMC3    C4 5200   0.699   3.315  14.540 -0.1428  0.5272  0.6700
  347TMC3    C5 5201   0.751   3.399  14.634  0.0414 -0.5628 -0.7495
  347TMC3    C6 5202   0.879   3.400  14.672  0.6269 -0.3970 -0.0987
  347TMC3     C 5203   0.752   3.173  14.346 -0.3220  0.2387 -0.6186
  347TMC3     O 5204   0.682   3.246  14.275 -0.5525 -0.8741 -0.9042
  347TMC3     H 5205   0.970   3.137  14.486  0.5511  0.5996  1.4587
  347TMC3    H1 5206   0.598   3.329  14.505  0.2911 -0.5353 -0.9974
  347TMC3    H2 5207   0.917   3.474  14.741 -0.5044 -1.3584  1.5740
  347TMC3    C7 5208   0.658   3.507  14.674  0.2485 -0.5958  0.4404
  347TMC3    C8 5209   1.095   3.301  14.636 -0.5608  0.3512 -0.2483
  347TMC3    O1 5210   0.562   3.525  14.597 -0.3417 -0.1970  0.2115
  347TMC3    O2 5211   1.144   3.196  14.608 -0.1395  0.0499  0.4362
  348MPD2     C 5212   3.563   2.821  12.064  0.4413  0.8351 -0.2441
  348MPD2    C1 5213   3.635   2.938  12.067  0.4679 -0.3226 -0.0118
  348MPD2    C2 5214   3.629   3.020  11.954 -0.0140  0.1283 -0.5014
  348MPD2    C3 5215   3.570   2.981  11.836 -0.1752 -0.2706  0.2246
  348MPD2    C4 5216   3.505   2.857  11.846 -0.2560  0.4130  0.6566
  348MPD2    C5 5217   3.500   2.777  11.951  0.3338 -0.0273  0.1378
  348MPD2     H 5218   3.697   3.105  11.954 -1.7825  1.5439  0.0530
  348MPD2    H1 5219   3.459   2.814  11.758  1.5635  1.0377 -0.5898
  348MPD2    H2 5220   3.560   2.755  12.150 -1.4208  0.9891 -0.1891
  348MPD2    H3 5221   3.460   2.676  11.947  0.5605 -0.1191  0.1712
  348MPD2     N 5222   3.580   3.061  11.726 -0.0847  0.3398  0.2122
  348MPD2    H5 5223   3.644   3.139  11.735 -0.4308  0.7150 -0.5504
  348MPD2    N1 5224   3.724   2.981  12.164 -0.4472 -0.1863  0.7863
  348MPD2    H7 5225   3.778   3.066  12.156  0.1985 -0.6150  0.5580
  349TMC3    C1 5226   3.829   2.988  12.367 -0.1725 -0.3364  0.0990
  349TMC3    C2 5227   3.874   2.900  12.463 -0.7890  0.2672  0.0508
  349TMC3    C3 5228   4.005   2.863  12.449 -0.5370 -0.6625  0.0254
  349TMC3    C4 5229   3.921   3.070  12.303 -0.0708 -0.3461  0.0810
  349TMC3    C5 5230   4.057   3.032  12.303 -0.2582  0.8857  0.1641
  349TMC3    C6 5231   4.098   2.927  12.374 -0.0427  0.4572 -0.1017
  349TMC3     C 5232   3.731   2.922  12.285 -0.1259 -0.0596  0.2222
  349TMC3     O 5233   3.683   2.819  12.325 -0.6841  0.2773 -0.0026
  349TMC3     H 5234   3.807   2.844  12.527 -0.4161  0.7794  0.8893
  349TMC3    H1 5235   3.889   3.156  12.247  2.3267  0.2865 -0.3313
  349TMC3    H2 5236   4.203   2.904  12.379 -0.5023 -1.3323  1.3093
  349TMC3    C7 5237   4.094   3.015  12.166  0.2954 -0.9057  0.1714
  349TMC3    C8 5238   4.053   2.764  12.544 -0.6538 -0.6379  0.0665
  349TMC3    O1 5239   4.109   2.903  12.117  0.5076  0.0084 -0.3672
  349TMC3    O2 5240   3.973   2.726  12.626 -0.5747 -0.3306  0.6322
  350MPD2     C 5241   2.633   1.070   9.846 -0.3577 -0.1178  0.2104
  350MPD2    C1 5242   2.584   0.961   9.910  0.4668  0.6684 -0.0313
  350MPD2    C2 5243   2.490   0.973  10.012 -0.5180 -0.4690 -0.1493
  350MPD2    C3 5244   2.437   1.098  10.034  0.3378 -0.8776 -0.0391
  350MPD2    C4 5245   2.474   1.201   9.960 -0.1939 -0.0897 -0.5548
  350MPD2    C5 5246   2.581   1.188   9.875 -0.1848  0.7804  0.6544
  350MPD2     H 5247   2.458   0.887  10.070  1.3032 -1.2128 -0.2481
  350MPD2    H1 5248   2.443   1.302   9.984  2.2289  0.2743  1.0175
  350MPD2    H2 5249   2.706   1.059   9.766 -1.2681 -1.0062 -0.4959
  350MPD2    H3 5250   2.618   1.272   9.817 -0.0746  1.1989  1.3259
  350MPD2     N 5251   2.349   1.116  10.148 -0.0832 -0.0262 -0.4902
  350MPD2    H5 5252   2.341   1.050  10.225  0.7771 -0.0738 -0.4315
  350MPD2    N1 5253   2.604   0.833   9.871  0.4025  0.1733 -0.0362
  350MPD2    H7 5254   2.561   0.760   9.927  1.0697  1.2648  1.8930
  351TMC3    C1 5255   2.671   0.649   9.753 -0.0761  0.6542  1.5594
  351TMC3    C2 5256   2.782   0.565   9.734  0.6522  0.3552  0.6149
  351TMC3    C3 5257   2.755   0.431   9.729  0.7044 -0.9234 -0.1589
  351TMC3    C4 5258   2.544   0.596   9.761 -0.1794  0.0726  0.0448
  351TMC3    C5 5259   2.525   0.466   9.731 -0.3892  0.2876  0.0676
  351TMC3    C6 5260   2.631   0.379   9.725  0.4411 -0.4677  0.2805
  351TMC3     C 5261   2.693   0.786   9.788 -0.7208  0.1497 -0.0543
  351TMC3     O 5262   2.795   0.841   9.751  0.1894 -0.1724  0.3310
  351TMC3     H 5263   2.881   0.605   9.756  0.6165 -0.3344  1.9725
  351TMC3    H1 5264   2.459   0.663   9.769  0.8905  1.1893  2.1680
  351TMC3    H2 5265   2.613   0.275   9.700 -1.6277  0.5918 -2.6571
  351TMC3    C7 5266   2.391   0.408   9.727 -0.0122 -0.1888  0.3190
  351TMC3    C8 5267   2.867   0.335   9.751  0.5439 -0.3791 -0.1875
  351TMC3    O1 5268   2.374   0.296   9.777 -0.4869 -0.1783 -0.1624
  351TMC3    O2 5269   2.975   0.388   9.728 -0.1299 -0.5875  0.0102
  352MPD2     C 5270   2.234   2.751   0.882  0.2260  0.1985 -0.1393
  352MPD2    C1 5271   2.211   2.692   1.012 -0.5166  1.0742 -0.0965
  352MPD2    C2 5272   2.240   2.559   1.017  0.6247 -0.5506  0.2989
  352MPD2    C3 5273   2.286   2.491   0.902 -0.1157 -0.1689 -0.1863
  352MPD2    C4 5274   2.294   2.549   0.779 -0.3141 -0.3346 -0.8125
  352MPD2    C5 5275   2.269   2.677   0.770 -0.1047 -0.8894 -0.0648
  352MPD2     H 5276   2.233   2.500   1.107 -2.2192 -1.0911 -0.2915
  352MPD2    H1 5277   2.334   2.497   0.693 -0.9275  0.5772 -1.6485
  352MPD2    H2 5278   2.207   2.854   0.864  1.2128  0.1399 -1.9862
  352MPD2    H3 5279   2.280   2.732   0.677  3.2462 -1.2441  0.1316
  352MPD2     N 5280   2.314   2.353   0.911 -1.0018  0.2338 -0.1105
  352MPD2    H5 5281   2.341   2.305   0.825 -2.3734  1.1354 -1.0327
  352MPD2    N1 5282   2.160   2.768   1.121  0.3758  0.2944 -0.1355
  352MPD2    H7 5283   2.147   2.866   1.100 -1.4759  0.4429  1.6749
  353TMC3    C1 5284   2.326   2.136   0.997 -0.5805 -0.0295  0.1944
  353TMC3    C2 5285   2.390   2.090   0.881 -0.0479 -0.3579  0.5594
  353TMC3    C3 5286   2.360   1.958   0.848 -1.0996 -0.4780  0.2333
  353TMC3    C4 5287   2.267   2.046   1.089 -0.2384  0.4704  0.0152
  353TMC3    C5 5288   2.260   1.920   1.049  0.2250  0.2131  0.5688
  353TMC3    C6 5289   2.298   1.876   0.928  0.0573  0.1833 -0.4655
  353TMC3     C 5290   2.310   2.274   1.024 -0.2496  0.8368 -0.0675
  353TMC3     O 5291   2.280   2.302   1.140  0.0143 -0.1562  0.1131
  353TMC3     H 5292   2.428   2.153   0.802 -3.3959  2.4865  1.2468
  353TMC3    H1 5293   2.225   2.083   1.182 -0.3250  0.8547 -0.1773
  353TMC3    H2 5294   2.255   1.779   0.903  1.3019 -0.6918  0.8064
  353TMC3    C7 5295   2.148   1.850   1.117  0.1419 -0.9822 -0.2491
  353TMC3    C8 5296   2.395   1.905   0.716  0.2623  0.2869 -0.1373
  353TMC3    O1 5297   2.065   1.791   1.049 -0.2381  0.5357 -0.3847
  353TMC3    O2 5298   2.479   1.970   0.654 -0.2756 -0.1427  0.2737
  354TMC3    C1 5299   3.866   4.340  13.178  0.6967 -0.3000 -0.3860
  354TMC3    C2 5300   3.739   4.397  13.177  0.0745  0.5692 -0.2873
  354TMC3    C3 5301   3.674   4.400  13.054  0.8419 -0.2003 -0.2078
  354TMC3    C4 5302   3.938   4.314  13.072 -0.4429  0.5582  0.0450
  354TMC3    C5 5303   3.875   4.339  12.948 -0.2795  0.3612  0.3330
  354TMC3    C6 5304   3.742   4.373  12.938  0.5654 -0.4620  1.1563
  354TMC3     C 5305   3.933   4.328  13.309 -0.1944  0.1417 -0.2042
  354TMC3     O 5306   4.055   4.320  13.304  0.2361 -0.1823  0.0265
  354TMC3     H 5307   3.696   4.431  13.270 -1.3901  0.3875 -0.8890
  354TMC3    H1 5308   4.045   4.301  13.078 -0.4811  0.6766  0.9264
  354TMC3    H2 5309   3.696   4.378  12.840  0.5718 -0.1365  1.1717
  354TMC3    C7 5310   3.964   4.398  12.841 -0.0023 -0.4915  0.3078
  354TMC3    C8 5311   3.565   4.487  13.035 -1.0377 -0.3917  0.3505
  354TMC3    O1 5312   4.083   4.400  12.867  0.1028 -0.2889 -0.0653
  354TMC3    O2 5313   3.546   4.541  12.927  0.1454  0.1395  0.1804
  355MPD2     C 5314   2.997   0.718  12.096  0.5541  0.1308  0.5405
  355MPD2    C1 5315   3.077   0.719  11.990  0.6215 -0.3820  0.5502
  355MPD2    C2 5316   3.192   0.640  11.991  0.5283 -0.0110 -0.4540
  355MPD2    C3 5317   3.223   0.572  12.105 -0.0830  0.2276 -0.2575
  355MPD2    C4 5318   3.132   0.566  12.210 -0.1105 -0.3606  0.4233
  355MPD2    C5 5319   3.018   0.641  12.203 -0.1390 -0.2660  0.3508
  355MPD2     H 5320   3.259   0.639  11.905  0.2776  0.9359 -0.6613
  355MPD2    H1 5321   3.146   0.508  12.301  2.1117  0.3889  0.5597
  355MPD2    H2 5322   2.901   0.768  12.098 -0.2129 -1.3286 -0.2681
  355MPD2    H3 5323   2.940   0.633  12.278  0.6766 -1.2823  1.0904
  355MPD2     N 5324   3.353   0.512  12.107  0.1589 -0.3495 -0.1989
  355MPD2    H5 5325   3.404   0.507  12.019  0.1760 -1.4961 -0.1252
  355MPD2    N1 5326   3.033   0.784  11.875 -0.4829  0.5977 -0.2382
  355MPD2    H7 5327   2.941   0.827  11.887 -0.5520  0.0586  1.1533
  356TMC3    C1 5328   3.550   0.433  12.199 -0.5912 -0.0917 -0.3706
  356TMC3    C2 5329   3.605   0.421  12.069 -0.3845  0.0305  0.9142
  356TMC3    C3 5330   3.736   0.401  12.055 -0.9125  0.3793 -0.7123
  356TMC3    C4 5331   3.629   0.424  12.303  0.1797  0.4776 -0.0906
  356TMC3    C5 5332   3.762   0.403  12.281 -0.3004  0.1454  0.9226
  356TMC3    C6 5333   3.825   0.405  12.162 -0.0667  0.8417  0.5263
  356TMC3     C 5334   3.411   0.460  12.222 -0.1938 -0.1884  0.7429
  356TMC3     O 5335   3.369   0.438  12.335  0.2717 -0.2701  0.1681
  356TMC3     H 5336   3.545   0.431  11.980 -1.1810 -2.3668  1.1841
  356TMC3    H1 5337   3.586   0.424  12.403 -1.2900  0.4624 -0.7261
  356TMC3    H2 5338   3.930   0.385  12.145 -0.6200 -0.5790 -1.3048
  356TMC3    C7 5339   3.840   0.435  12.393  0.3394 -0.3078  0.3806
  356TMC3    C8 5340   3.784   0.425  11.922  0.4604  0.0971 -0.4618
  356TMC3    O1 5341   3.915   0.351  12.443 -0.0094  0.1599 -0.1135
  356TMC3    O2 5342   3.734   0.361  11.831  0.4778  0.5220  0.1887
  357MPD2     C 5343   3.196   0.635   1.598 -0.2324  0.3776  0.3677
  357MPD2    C1 5344   3.152   0.545   1.503  0.0938 -0.5045  0.2581
  357MPD2    C2 5345   3.046   0.464   1.534 -0.2282 -0.0592  0.1806
  357MPD2    C3 5346   2.977   0.484   1.654 -0.3508 -0.0789 -0.0672
  357MPD2    C4 5347   3.009   0.591   1.736  0.7427  0.7781  0.0127
  357MPD2    C5 5348   3.122   0.661   1.710  0.7545 -0.1582 -1.0414
  357MPD2     H 5349   3.012   0.386   1.466  1.5930 -0.3474 -0.3935
  357MPD2    H1 5350   2.961   0.609   1.831 -1.2239 -1.1350 -0.6052
  357MPD2    H2 5351   3.289   0.688   1.582 -0.0099  0.0237  0.4897
  357MPD2    H3 5352   3.144   0.729   1.791 -2.9865 -0.7802  0.5200
  357MPD2     N 5353   2.868   0.403   1.695 -0.0744  0.2633 -0.5299
  357MPD2    H5 5354   2.819   0.431   1.779  2.0661  1.3153  0.3714
  357MPD2    N1 5355   3.215   0.545   1.375 -0.1290 -0.2595  0.5023
  357MPD2    H7 5356   3.303   0.596   1.373 -0.2624 -0.1226 -1.5732
  358TMC3    C1 5357   3.326   0.447   1.196 -0.1037  0.0574 -0.4463
  358TMC3    C2 5358   3.326   0.353   1.094 -0.1673 -0.1596  0.0023
  358TMC3    C3 5359   3.440   0.277   1.069 -0.5845 -0.1686 -0.3283
  358TMC3    C4 5360   3.438   0.446   1.273 -0.0839  0.1404  0.0118
  358TMC3    C5 5361   3.549   0.380   1.236 -0.0293 -0.3011 -0.2830
  358TMC3    C6 5362   3.555   0.293   1.132 -0.2322 -0.1316  0.2560
  358TMC3     C 5363   3.205   0.459   1.269 -0.0361 -1.3601 -0.1319
  358TMC3     O 5364   3.107   0.387   1.245  0.5080  0.1211 -0.2429
  358TMC3     H 5365   3.232   0.330   1.046  1.9034  0.6127 -4.3446
  358TMC3    H1 5366   3.442   0.507   1.363 -0.6936  0.4658 -0.1787
  358TMC3    H2 5367   3.640   0.226   1.124  0.5188  0.8562 -0.0460
  358TMC3    C7 5368   3.668   0.388   1.319  0.1264 -0.2669  0.2184
  358TMC3    C8 5369   3.413   0.159   0.991 -0.2717 -0.0297 -0.1896
  358TMC3    O1 5370   3.781   0.368   1.271  0.6182  0.3257  0.2684
  358TMC3    O2 5371   3.307   0.164   0.928  0.6534 -0.2080 -0.0017
  359MPD2     C 5372   3.358   4.453  12.234 -0.2435 -0.1839 -0.4177
  359MPD2    C1 5373   3.402   4.323  12.246  0.1829  0.2465 -0.3796
  359MPD2    C2 5374   3.334   4.227  12.317  0.5501 -0.4654 -0.4094
  359MPD2    C3 5375   3.215   4.260  12.375 -0.5443  0.8568 -0.2299
  359MPD2    C4 5376   3.179   4.394  12.380  0.0120  0.3329  0.5899
  359MPD2    C5 5377   3.248   4.494  12.310 -0.8108  0.3224  0.4039
  359MPD2     H 5378   3.371   4.125  12.307  0.2953 -0.7686  1.9015
  359MPD2    H1 5379   3.081   4.426  12.412 -0.2861  0.4320 -0.4495
  359MPD2    H2 5380   3.402   4.526  12.168  1.4670  1.1261  2.1988
  359MPD2    H3 5381   3.211   4.596  12.300 -0.3694  0.4306 -0.1973
  359MPD2     N 5382   3.122   4.164  12.429 -0.1572 -0.2375  0.2091
  359MPD2    H5 5383   3.044   4.197  12.484  0.3353  0.0573  0.7399
  359MPD2    N1 5384   3.521   4.283  12.177 -0.4886 -0.3252  0.1556
  359MPD2    H7 5385   3.547   4.185  12.182  0.9242  0.0719  0.5574
  360TMC3    C1 5386   3.683   4.266  12.021  0.4733  0.0822  0.6125
  360TMC3    C2 5387   3.750   4.171  12.089  0.1639  0.1634 -0.1098
  360TMC3    C3 5388   3.861   4.113  12.028 -0.4542  0.4663  0.1054
  360TMC3    C4 5389   3.715   4.286  11.890  0.3951 -1.0925 -0.2730
  360TMC3    C5 5390   3.803   4.209  11.826  0.8549  0.6147 -0.4076
  360TMC3    C6 5391   3.878   4.123  11.894  0.6339  0.9369  0.8340
  360TMC3     C 5392   3.587   4.356  12.082 -0.5627 -0.7323  0.2424
  360TMC3     O 5393   3.570   4.468  12.026  0.3089 -0.4142  0.3073
  360TMC3     H 5394   3.752   4.173  12.198 -0.1214  0.1528 -0.1041
  360TMC3    H1 5395   3.643   4.351  11.843  1.6659  1.1148  0.8282
  360TMC3    H2 5396   3.973   4.093  11.850  1.3004  2.7072  1.0634
  360TMC3    C7 5397   3.805   4.214  11.680  0.0062  0.0688 -0.0241
  360TMC3    C8 5398   3.932   4.005  12.099  0.7124  0.0968  0.0505
  360TMC3    O1 5399   3.769   4.318  11.629  0.1535  0.1855  0.4661
  360TMC3    O2 5400   3.916   4.005  12.224 -0.7650  0.1204 -0.0040
  361MPD2     C 5401   0.796   2.847  17.580 -0.5328  0.0622 -0.0078
  361MPD2    C1 5402   0.771   2.772  17.470  0.0642 -0.4061  0.2753
  361MPD2    C2 5403   0.812   2.641  17.463  0.4853 -0.0660 -0.9875
  361MPD2    C3 5404   0.886   2.580  17.568  0.4579  0.1448  0.9478
  361MPD2    C4 5405   0.911   2.651  17.679  0.3239 -0.3898 -0.2196
  361MPD2    C5 5406   0.867   2.783  17.681  0.1316  0.1459  0.3819
  361MPD2     H 5407   0.782   2.581  17.377  2.8502 -1.8590 -0.5478
  361MPD2    H1 5408   0.966   2.619   0.086  0.5788 -0.3470 -0.3634
  361MPD2    H2 5409   0.756   2.946  17.598 -3.1134 -0.5142 -2.5803
  361MPD2    H3 5410   0.887   2.840   0.090 -1.9147 -1.7626  2.0605
  361MPD2     N 5411   0.951   2.455  17.565 -0.2652  0.0130  0.3899
  361MPD2    H5 5412   0.998   2.420  17.647 -0.6814  1.5118  1.2776
  361MPD2    N1 5413   0.685   2.832  17.370 -0.3933  0.0527 -0.2174
  361MPD2    H7 5414   0.646   2.924  17.390 -0.8806 -0.3784  0.7940
  362TMC3    C1 5415   0.530   2.853  17.210  0.1748  0.1933 -0.3321
  362TMC3    C2 5416   0.433   2.894  17.303  0.2618 -0.0245 -0.2511
  362TMC3    C3 5417   0.348   2.997  17.276  0.5333  0.5397  0.4320
  362TMC3    C4 5418   0.545   2.911  17.092  0.5676 -0.6853 -0.5142
  362TMC3    C5 5419   0.455   3.013  17.071 -0.3833 -0.0441  0.1815
  362TMC3    C6 5420   0.356   3.055  17.152 -0.1240 -0.0267  0.3669
  362TMC3     C 5421   0.641   2.773  17.254 -0.1824 -0.1609  0.0210
  362TMC3     O 5422   0.704   2.711  17.164  0.3658  0.5607 -0.0230
  362TMC3     H 5423   0.429   2.844  17.398  1.1504 -0.8838 -0.6646
  362TMC3    H1 5424   0.627   2.882  17.028  2.3052  1.3933  0.7511
  362TMC3    H2 5425   0.299   3.142  17.124 -0.5328 -0.3438  0.2214
  362TMC3    C7 5426   0.425   3.064  16.940  0.8521  0.0108  1.1711
  362TMC3    C8 5427   0.297   3.080  17.381  0.0224 -0.1040  0.2178
  362TMC3    O1 5428   0.316   3.110  16.915 -0.0612 -0.9459 -0.6188
  362TMC3    O2 5429   0.362   3.072  17.483  0.6930 -0.2882  0.2566
  363TMC3    C1 5430   3.934   0.555  10.096 -1.2155 -0.2429 -0.1319
  363TMC3    C2 5431   3.954   0.432  10.158 -0.1137  0.7552 -0.3751
  363TMC3    C3 5432   3.853   0.336  10.138  0.4094 -0.6061  0.2429
  363TMC3    C4 5433   3.818   0.591  10.042 -0.0993 -0.9833  0.4185
  363TMC3    C5 5434   3.722   0.490  10.021  0.0062 -0.2395 -0.0837
  363TMC3    C6 5435   3.744   0.362  10.067 -0.5042 -0.4552  0.3964
  363TMC3     C 5436   4.050   0.646  10.107 -0.3554  0.0319  0.3134
  363TMC3     O 5437   4.152   0.601  10.160 -0.4411 -0.5415  0.1260
  363TMC3     H 5438   4.042   0.418  10.219 -0.4012 -0.3210 -0.2166
  363TMC3    H1 5439   3.790   0.695  10.026  1.0494 -0.5108  1.3759
  363TMC3    H2 5440   3.664   0.289  10.058 -0.1574 -0.9678  1.4411
  363TMC3    C7 5441   3.600   0.527   9.957  0.6215  0.3102  0.3390
  363TMC3    C8 5442   3.877   0.201  10.179  0.2508  0.8819  0.1433
  363TMC3    O1 5443   3.511   0.442   9.967  0.0868  0.7006  0.1366
  363TMC3    O2 5444   3.990   0.161  10.155  0.3624 -0.1171  0.0637
  364MPD2     C 5445   2.334   4.059  10.559 -0.1139 -0.3992  0.3725
  364MPD2    C1 5446   2.448   4.077  10.486  0.3008 -0.2289  0.2248
  364MPD2    C2 5447   2.552   3.996  10.517  0.1714  1.0928 -0.0808
  364MPD2    C3 5448   2.550   3.904  10.621 -0.1141 -0.7045 -0.2418
  364MPD2    C4 5449   2.439   3.904  10.700 -0.6428 -0.6894 -0.4403
  364MPD2    C5 5450   2.330   3.979  10.668  0.4923  0.4089 -0.2437
  364MPD2     H 5451   2.646   4.015  10.467  1.3793  0.5964  2.0335
  364MPD2    H1 5452   2.432   3.829  10.778 -0.2339 -1.3728 -1.0508
  364MPD2    H2 5453   2.252   4.128  10.539  0.5324  0.6778  1.4519
  364MPD2    H3 5454   2.241   3.972  10.731  2.2568  1.5899  2.4036
  364MPD2     N 5455   2.670   3.833  10.663  0.1465 -0.3246 -0.1112
  364MPD2    H5 5456   2.667   3.793  10.757 -0.2772  0.9007  0.3959
  364MPD2    N1 5457   2.448   4.161  10.376 -0.3743 -0.6821  0.4099
  364MPD2    H7 5458   2.375   4.231  10.377 -0.1450 -0.4202 -0.7672
  365TMC3    C1 5459   2.520   4.265  10.184 -0.6616  0.6389  0.1717
  365TMC3    C2 5460   2.611   4.256  10.081 -0.2175 -0.4765 -0.3443
  365TMC3    C3 5461   2.633   4.365   9.998 -0.1397 -0.6193 -0.2474
  365TMC3    C4 5462   2.464   4.386  10.213  0.3050 -0.8710  0.5143
  365TMC3    C5 5463   2.496   4.492  10.132  0.8199 -0.2332  0.6013
  365TMC3    C6 5464   2.576   4.484  10.019 -0.5017  0.2763  0.3641
  365TMC3     C 5465   2.545   4.162  10.279 -0.0116  0.4614 -0.5516
  365TMC3     O 5466   2.623   4.068  10.255 -0.0471  0.3680 -0.1772
  365TMC3     H 5467   2.629   4.154  10.049  1.9468 -0.5770  1.1971
  365TMC3    H1 5468   2.406   4.396  10.304  0.3541  0.1144  0.4448
  365TMC3    H2 5469   2.595   4.571   9.957 -0.4494  0.8326  1.1646
  365TMC3    C7 5470   2.412   4.614  10.140  0.1793  0.2567  0.2417
  365TMC3    C8 5471   2.721   4.359   9.880  0.1288 -0.0191 -0.0532
  365TMC3    O1 5472   2.387   4.676  10.038  0.6411  0.2455 -0.3116
  365TMC3    O2 5473   2.731   4.458   9.804 -0.1742 -0.2015  0.3173
  366MPD2     C 5474   0.716   0.991  15.272  0.0700  0.5725 -0.1580
  366MPD2    C1 5475   0.841   0.996  15.216 -0.0084  1.0851 -0.0644
  366MPD2    C2 5476   0.918   0.880  15.212 -0.9559  0.6628  0.6140
  366MPD2    C3 5477   0.872   0.757  15.258  0.1801  0.3195 -0.2139
  366MPD2    C4 5478   0.747   0.753  15.309  0.0860  0.5450 -0.1052
  366MPD2    C5 5479   0.672   0.864  15.313  0.5459  0.6813  0.0484
  366MPD2     H 5480   1.024   0.881  15.189 -0.7135  0.8966  1.7348
  366MPD2    H1 5481   0.701   0.659  15.334 -0.5357  0.9638  0.3252
  366MPD2    H2 5482   0.645   1.072  15.281  0.2545  1.0009 -2.5274
  366MPD2    H3 5483   0.570   0.854  15.350  0.2518  0.3369 -0.8638
  366MPD2     N 5484   0.957   0.638  15.243  0.1950 -0.4693  0.5563
  366MPD2    H5 5485   1.047   0.651  15.196  0.9246 -1.7526  1.6095
  366MPD2    N1 5486   0.899   1.125  15.191  0.3343  0.1041 -0.2432
  366MPD2    H7 5487   0.999   1.123  15.173  0.4685  2.5406  0.2756
  367TMC3    C1 5488   0.912   1.362  15.185  0.7067 -0.3000  0.1299
  367TMC3    C2 5489   1.016   1.354  15.278  0.2087 -0.1635  0.6346
  367TMC3    C3 5490   1.047   1.463  15.352 -0.3636 -0.9725  0.4111
  367TMC3    C4 5491   0.853   1.483  15.157  0.2622 -0.3295  0.4502
  367TMC3    C5 5492   0.893   1.589  15.231 -0.5982  0.2464 -0.1976
  367TMC3    C6 5493   0.990   1.586  15.333 -0.0648  0.2715 -0.0002
  367TMC3     C 5494   0.830   1.241  15.166  0.1352 -0.6610  0.3331
  367TMC3     O 5495   0.710   1.267  15.148 -0.3078 -0.0719 -0.2180
  367TMC3     H 5496   1.056   1.258  15.310 -1.7540 -0.9363  0.7395
  367TMC3    H1 5497   0.775   1.494  15.081 -2.3006 -2.5886  2.7502
  367TMC3    H2 5498   0.992   1.670  15.402  0.2449 -0.1502  0.4988
  367TMC3    C7 5499   0.799   1.701  15.231 -0.5686  0.7857  0.1322
  367TMC3    C8 5500   1.124   1.442  15.469  0.4832  0.3055  0.3169
  367TMC3    O1 5501   0.748   1.723  15.338 -0.1732  0.0169  0.4005
  367TMC3    O2 5502   1.158   1.330  15.497 -0.1468 -0.1058  0.1755
  368MPD2     C 5503   2.101   2.797  12.260 -0.3573  0.2891 -0.5330
  368MPD2    C1 5504   2.108   2.927  12.290 -0.0740 -0.3578  0.1292
  368MPD2    C2 5505   2.178   3.012  12.206 -0.0568 -0.1023 -0.1474
  368MPD2    C3 5506   2.230   2.962  12.088  0.4383  0.1823 -0.2947
  368MPD2    C4 5507   2.229   2.826  12.062 -0.0298  0.2907 -0.2172
  368MPD2    C5 5508   2.162   2.745  12.150 -0.4260 -0.3508 -0.2894
  368MPD2     H 5509   2.188   3.117  12.231 -3.1948 -0.0836  1.1332
  368MPD2    H1 5510   2.265   2.785  11.968 -1.5609 -1.2921 -0.1316
  368MPD2    H2 5511   2.031   2.737  12.318 -1.2559  1.2655 -0.6059
  368MPD2    H3 5512   2.144   2.642  12.120 -0.7124 -0.3870  0.0137
  368MPD2     N 5513   2.281   3.058  11.997  0.1495  0.4076 -0.6200
  368MPD2    H5 5514   2.351   3.020  11.934  0.2595  0.2339 -0.3939
  368MPD2    N1 5515   2.040   2.986  12.400 -0.6942  0.2991  0.5742
  368MPD2    H7 5516   2.036   3.087  12.406 -0.1015  0.2472  1.8825
  369TMC3    C1 5517   1.886   3.001  12.583 -0.2887 -0.1567 -0.3855
  369TMC3    C2 5518   1.858   3.134  12.553 -0.2374 -0.8453 -0.5373
  369TMC3    C3 5519   1.775   3.201  12.629 -0.0288  0.6819 -0.3507
  369TMC3    C4 5520   1.838   2.946  12.700  0.1115  0.1007  0.0527
  369TMC3    C5 5521   1.759   3.022  12.781  0.4378 -0.7011 -0.0139
  369TMC3    C6 5522   1.722   3.149  12.745 -0.2383 -0.0902  0.3502
  369TMC3     C 5523   1.976   2.920  12.503 -0.2013  0.5150 -0.6394
  369TMC3     O 5524   1.981   2.804  12.530  0.2616  0.0828 -0.4049
  369TMC3     H 5525   1.893   3.168  12.456 -0.2707 -2.0198 -0.9743
  369TMC3    H1 5526   1.858   2.843  12.728 -1.3601 -1.1027 -3.3305
  369TMC3    H2 5527   1.673   3.219  12.812  0.0265 -1.5229  2.0591
  369TMC3    C7 5528   1.690   2.949  12.883 -0.7173 -0.3600  0.5329
  369TMC3    C8 5529   1.775   3.346  12.606 -0.0438 -0.8966 -0.4383
  369TMC3    O1 5530   1.744   2.862  12.951  0.0041 -0.2861  0.2704
  369TMC3    O2 5531   1.690   3.411  12.663  0.0719 -0.0320 -0.0688
  370TMC3    C1 5532   2.024   3.176  16.761 -0.3585  0.2155 -0.4686
  370TMC3    C2 5533   1.956   3.093  16.852 -0.4497 -0.2977  0.0451
  370TMC3    C3 5534   1.919   2.973  16.796 -0.6551  0.1689  1.1068
  370TMC3    C4 5535   2.057   3.135  16.635  0.5497  0.1041  0.6288
  370TMC3    C5 5536   2.020   3.018  16.586  0.4944 -0.4845 -0.0610
  370TMC3    C6 5537   1.947   2.928  16.666  0.3796 -0.0448 -0.5455
  370TMC3     C 5538   2.108   3.271  16.833 -0.0718 -0.5659  1.0547
  370TMC3     O 5539   2.124   3.258  16.955 -0.1193  0.2974 -0.3700
  370TMC3     H 5540   1.941   3.126  16.955 -2.4567  3.1652 -1.3546
  370TMC3    H1 5541   2.132   3.192  16.581  0.8304 -1.2236 -0.3764
  370TMC3    H2 5542   1.915   2.835  16.622 -0.7223  0.0664  0.0257
  370TMC3    C7 5543   2.069   2.980  16.451 -0.5919  0.5522 -0.4922
  370TMC3    C8 5544   1.857   2.868  16.872 -0.6918  0.0246  0.7741
  370TMC3    O1 5545   2.100   3.073  16.381 -0.2990 -0.0548 -0.0862
  370TMC3    O2 5546   1.842   2.751  16.832  0.3494  0.5769  0.4335
  371TMC3    C1 5547   3.085   1.688  15.460  0.3084 -0.7973  0.1789
  371TMC3    C2 5548   3.115   1.690  15.592 -0.8850  0.4328 -0.0969
  371TMC3    C3 5549   3.115   1.809  15.660 -0.2324 -0.2556 -0.9098
  371TMC3    C4 5550   3.077   1.814  15.401  1.1335  0.2424  0.0477
  371TMC3    C5 5551   3.062   1.928  15.471  0.4112 -0.4691 -0.0626
  371TMC3    C6 5552   3.082   1.930  15.609  0.0261 -0.5779  0.0722
  371TMC3     C 5553   3.146   1.581  15.384 -0.7602 -0.0491  0.2980
  371TMC3     O 5554   3.191   1.611  15.271 -0.0271  0.2650  0.1138
  371TMC3     H 5555   3.123   1.596  15.645 -1.5033  0.2445 -0.3295
  371TMC3    H1 5556   3.090   1.818  15.294  0.1333  1.8527 -0.0273
  371TMC3    H2 5557   3.056   2.017  15.668  1.0572  0.7712 -1.4962
  371TMC3    C7 5558   3.087   2.053  15.406 -0.1409  1.0485  0.3314
  371TMC3    C8 5559   3.104   1.789  15.807 -0.7480 -0.3201  0.1786
  371TMC3    O1 5560   3.093   2.155  15.472  0.3378  0.5071  0.2337
  371TMC3    O2 5561   3.159   1.687  15.845 -0.0113 -0.2739 -0.8507
  372MPD2     C 5562   2.270   2.895  13.435  0.2511 -0.7722 -0.1009
  372MPD2    C1 5563   2.364   2.906  13.536  0.2058  0.0668  0.1930
  372MPD2    C2 5564   2.329   2.881  13.666  0.6769  0.2559  0.1612
  372MPD2    C3 5565   2.201   2.827  13.699 -0.5397  0.2373  0.3204
  372MPD2    C4 5566   2.111   2.818  13.601  0.0198  0.0573 -0.4213
  372MPD2    C5 5567   2.144   2.859  13.473  0.0175 -0.9544  0.2251
  372MPD2     H 5568   2.403   2.884  13.746  2.3160  0.0923 -1.3408
  372MPD2    H1 5569   2.007   2.793  13.619 -0.0420  0.6897  0.1325
  372MPD2    H2 5570   2.283   2.908  13.329 -0.1810 -0.5709 -0.1314
  372MPD2    H3 5571   2.071   2.835  13.396  0.4030  1.7911 -0.9668
  372MPD2     N 5572   2.171   2.814  13.838  1.0604  0.2391 -0.0061
  372MPD2    H5 5573   2.244   2.840  13.903  0.5102 -0.4323  0.8879
  372MPD2    N1 5574   2.496   2.931  13.500 -0.6625 -0.7594  0.2022
  372MPD2    H7 5575   2.570   2.917  13.568 -0.1699  0.5170 -0.0766
  373TMC3    C1 5576   2.061   2.744  14.027 -0.1635  0.0704 -0.0804
  373TMC3    C2 5577   2.106   2.851  14.098 -0.4052 -0.3043  0.1241
  373TMC3    C3 5578   2.177   2.824  14.215  0.7087 -0.2010  0.0291
  373TMC3    C4 5579   2.081   2.615  14.066  0.5168 -0.1243 -0.4900
  373TMC3    C5 5580   2.162   2.586  14.179  0.0201 -0.5653 -0.1051
  373TMC3    C6 5581   2.209   2.695  14.253  0.5929  0.4934 -0.4285
  373TMC3     C 5582   2.053   2.757  13.884  0.1954  0.3082  0.5474
  373TMC3     O 5583   1.976   2.685  13.829 -0.0272  0.1951  0.4291
  373TMC3     H 5584   2.097   2.953  14.063  0.3530 -0.8758 -1.7213
  373TMC3    H1 5585   2.049   2.534  14.001 -1.2592  1.1674 -1.2173
  373TMC3    H2 5586   2.272   2.684  14.341 -0.7895  1.0446  0.6173
  373TMC3    C7 5587   2.265   2.483  14.142  0.6152  0.1652 -0.7391
  373TMC3    C8 5588   2.276   2.916  14.251 -0.2601  0.3052 -0.0703
  373TMC3    O1 5589   2.231   2.405  14.056 -0.2471 -0.7835  0.4135
  373TMC3    O2 5590   2.387   2.870  14.277 -0.0532  0.5922  0.3087
  374TMC3    C1 5591   2.677   3.172   9.670  0.8606  0.5629  0.3791
  374TMC3    C2 5592   2.816   3.183   9.671 -0.4256  0.0530 -0.1905
  374TMC3    C3 5593   2.878   3.269   9.579 -0.4202  0.4299  0.2648
  374TMC3    C4 5594   2.606   3.221   9.569  0.3331  0.0124 -0.3138
  374TMC3    C5 5595   2.664   3.306   9.481  0.0405 -0.4514  0.5355
  374TMC3    C6 5596   2.802   3.327   9.480  0.5879 -0.6504  0.5798
  374TMC3     C 5597   2.617   3.073   9.757 -0.3279 -0.6911  0.2455
  374TMC3     O 5598   2.694   2.989   9.809 -0.1379 -0.1817 -1.0020
  374TMC3     H 5599   2.867   3.126   9.748 -2.5517 -2.6052 -0.7344
  374TMC3    H1 5600   2.502   3.191   9.555  1.0415 -3.3672  1.6928
  374TMC3    H2 5601   2.849   3.409   9.428 -0.3361 -0.5318 -0.0771
  374TMC3    C7 5602   2.590   3.380   9.374 -0.4246 -0.3401 -0.1031
  374TMC3    C8 5603   3.023   3.291   9.572  0.5637 -0.3149  0.5552
  374TMC3    O1 5604   2.652   3.470   9.318 -0.2552 -0.6468 -0.6256
  374TMC3    O2 5605   3.066   3.339   9.467  0.5758  0.0413 -0.1625
  375MPD2     C 5606   3.230   4.040  17.308  0.0828  0.3554  0.3245
  375MPD2    C1 5607   3.121   4.048  17.224 -0.1046 -0.0504  0.4132
  375MPD2    C2 5608   3.130   4.009  17.094  0.3373 -0.2351  0.5754
  375MPD2    C3 5609   3.252   3.966  17.036  0.3940  0.0791 -0.0251
  375MPD2    C4 5610   3.359   3.959  17.123  0.1943 -0.1767  0.7392
  375MPD2    C5 5611   3.345   3.991  17.259  0.9215 -0.6654  0.6358
  375MPD2     H 5612   3.042   4.019  17.031  0.8465  1.4199  0.1107
  375MPD2    H1 5613   3.459   3.933  17.091  1.1189  2.5154  1.3923
  375MPD2    H2 5614   3.231   4.062  17.414  0.0489 -3.0831  1.0327
  375MPD2    H3 5615   3.424   3.988  17.333  1.2398 -0.2017  0.3179
  375MPD2     N 5616   3.269   3.936  16.897 -0.2544 -0.3504 -0.9233
  375MPD2    H5 5617   3.365   3.911  16.875  0.0054 -2.2027  2.3024
  375MPD2    N1 5618   2.985   4.069  17.272 -0.2892  0.0751  0.7067
  375MPD2    H7 5619   2.922   4.061  17.192 -0.6100 -0.3108  0.9984
  376TMC3    C1 5620   3.229   3.924  16.665 -0.4774 -0.3894 -0.2684
  376TMC3    C2 5621   3.365   3.909  16.628 -0.2343  0.0825  0.4335
  376TMC3    C3 5622   3.391   3.884  16.491  0.1606  0.3126  0.0678
  376TMC3    C4 5623   3.131   3.936  16.571  0.7290  0.6458  0.4290
  376TMC3    C5 5624   3.167   3.917  16.439  0.7675  0.3465 -0.4092
  376TMC3    C6 5625   3.293   3.891  16.392 -1.5318 -0.5650  0.8374
  376TMC3     C 5626   3.174   3.954  16.798  0.0007  0.1837  0.0659
  376TMC3     O 5627   3.058   3.976  16.815 -0.4299  0.3465  0.1979
  376TMC3     H 5628   3.446   3.922  16.699 -1.4413 -0.5807  1.9303
  376TMC3    H1 5629   3.027   3.953  16.596  0.6233 -1.9133  1.7198
  376TMC3    H2 5630   3.321   3.889  16.287  0.6830 -1.0095  1.4335
  376TMC3    C7 5631   3.051   3.919  16.351  0.7266  0.0878 -0.3513
  376TMC3    C8 5632   3.527   3.869  16.446  0.6018  0.6319 -0.0899
  376TMC3    O1 5633   2.959   3.992  16.387  0.1575 -0.1474 -0.1837
  376TMC3    O2 5634   3.544   3.882  16.324 -0.9863  0.3251 -0.6870
  377MPD2     C 5635   1.272   3.408  12.758  0.9062 -0.3902  0.2757
  377MPD2    C1 5636   1.164   3.473  12.699  0.0672 -0.5075  0.3282
  377MPD2    C2 5637   1.039   3.432  12.741  0.2496  0.7043 -0.0920
  377MPD2    C3 5638   1.027   3.349  12.853  0.7466  0.7725  0.2678
  377MPD2    C4 5639   1.137   3.300  12.906 -0.5742  0.4920  0.0344
  377MPD2    C5 5640   1.258   3.330  12.866 -0.6336  0.1454 -0.6736
  377MPD2     H 5641   0.949   3.463  12.689 -0.3151 -0.2451  0.3180
  377MPD2    H1 5642   1.114   3.232  12.987  1.2927 -0.3222 -0.1149
  377MPD2    H2 5643   1.374   3.422  12.725  1.4455 -0.0588  2.1157
  377MPD2    H3 5644   1.347   3.281  12.904  0.5200  1.4459 -1.7106
  377MPD2     N 5645   0.902   3.318  12.921  0.4929 -0.2018 -0.5345
  377MPD2    H5 5646   0.890   3.239  12.983 -1.1100  1.6688  1.5527
  377MPD2    N1 5647   1.196   3.568  12.598 -0.0573 -0.1535 -0.4457
  377MPD2    H7 5648   1.294   3.578  12.573  0.3221 -2.5621  0.1118
  378TMC3    C1 5649   1.111   3.770  12.182 -0.8550  0.2946  0.1348
  378TMC3    C2 5650   1.070   3.732  12.309 -0.1437 -0.6333  0.6511
  378TMC3    C3 5651   1.150   3.664  12.392  0.7771 -0.0680  0.1185
  378TMC3    C4 5652   1.228   3.714  12.136 -0.7514  0.5714 -0.2134
  378TMC3    C5 5653   1.309   3.652  12.223 -0.3670 -0.8030 -0.3127
  378TMC3    C6 5654   1.271   3.616  12.350 -1.4105 -0.5868  0.7112
  378TMC3     C 5655   1.012   3.827  12.090  0.5343  0.1819  0.0652
  378TMC3     O 5656   0.896   3.786  12.100 -0.0835 -0.1924 -0.0149
  378TMC3     H 5657   0.971   3.756  12.347 -0.7281 -0.4060 -1.0090
  378TMC3    H1 5658   1.259   3.724  12.033  1.5089 -0.3203  0.3896
  378TMC3    H2 5659   1.330   3.551  12.414 -1.0749  0.7397  1.7555
  378TMC3    C7 5660   1.435   3.601  12.183  1.1332  0.0679 -0.3038
  378TMC3    C8 5661   1.104   3.624  12.523 -0.2255  0.5905 -0.1510
  378TMC3    O1 5662   1.472   3.503  12.248  0.0774  0.2573 -0.2015
  378TMC3    O2 5663   0.981   3.628  12.533  0.1235  0.5107 -0.4970
  379MPD2     C 5664   2.118   1.228  16.320 -0.4264 -0.3941  0.3887
  379MPD2    C1 5665   2.036   1.120  16.313 -0.1909 -0.0114  0.4428
  379MPD2    C2 5666   2.047   1.015  16.408 -0.6517 -0.4178 -0.2188
  379MPD2    C3 5667   2.150   1.020  16.499  0.1680 -0.1379 -0.2909
  379MPD2    C4 5668   2.249   1.125  16.494 -0.1583  0.7251  0.3326
  379MPD2    C5 5669   2.225   1.226  16.404 -0.1920  0.1184  0.0631
  379MPD2     H 5670   1.981   0.928  16.407  1.4765 -2.0022 -1.3741
  379MPD2    H1 5671   2.344   1.122  16.546 -0.0019  1.3733  0.0798
  379MPD2    H2 5672   2.116   1.313  16.253  0.1227 -0.6444  0.0568
  379MPD2    H3 5673   2.293   1.311  16.400  0.2113 -0.3674 -3.1416
  379MPD2     N 5674   2.177   0.915  16.586 -0.1759 -0.0201 -0.5511
  379MPD2    H5 5675   2.259   0.910  16.646 -0.4687  0.3494 -0.1284
  379MPD2    N1 5676   1.932   1.123  16.220 -0.1115  1.0777 -0.2428
  379MPD2    H7 5677   1.927   1.207  16.163  0.1174  0.3104 -1.4012
  380TMC3    C1 5678   1.726   1.054  16.103 -0.5951  0.1628 -0.3541
  380TMC3    C2 5679   1.691   0.957  16.013  0.1735 -0.1468  0.1347
  380TMC3    C3 5680   1.588   0.974  15.920 -0.0475  0.0446 -0.3313
  380TMC3    C4 5681   1.663   1.173  16.099 -0.1773  0.0635  0.4006
  380TMC3    C5 5682   1.559   1.202  16.008 -0.1898  0.0235  0.4927
  380TMC3    C6 5683   1.527   1.099  15.920  0.0757  0.0990  0.8413
  380TMC3     C 5684   1.835   1.020  16.195  0.2454  0.1982  0.0022
  380TMC3     O 5685   1.851   0.902  16.209 -0.0813  0.1860  0.3088
  380TMC3     H 5686   1.744   0.863  16.003  1.1792  0.5738 -1.2740
  380TMC3    H1 5687   1.711   1.253  16.154  0.3506 -0.9547  1.4301
  380TMC3    H2 5688   1.445   1.111  15.850 -1.2908 -3.2620  1.8751
  380TMC3    C7 5689   1.539   1.332  15.961 -0.8615 -0.0169  0.0640
  380TMC3    C8 5690   1.656   0.962  15.792 -0.5281 -0.0695 -0.1448
  380TMC3    O1 5691   1.622   1.412  16.005 -0.3794 -0.5530  0.5663
  380TMC3    O2 5692   1.606   0.875  15.711 -0.3136  0.5352  0.2584
  381TMC3    C1 5693   1.870   2.255  16.626 -0.2712  0.1779 -0.0936
  381TMC3    C2 5694   1.967   2.353  16.637 -0.0787 -0.1925 -1.1740
  381TMC3    C3 5695   1.977   2.431  16.749  0.1170  0.0848 -0.4098
  381TMC3    C4 5696   1.775   2.249  16.722  0.4860  0.1113 -0.6152
  381TMC3    C5 5697   1.790   2.326  16.836 -0.3997  0.0900 -0.1452
  381TMC3    C6 5698   1.881   2.426  16.848  0.1195 -0.7865 -0.3825
  381TMC3     C 5699   1.833   2.226  16.485  0.0910 -0.0184 -0.2917
  381TMC3     O 5700   1.861   2.305  16.398  1.1335 -0.0047 -0.2318
  381TMC3     H 5701   2.039   2.368  16.558  1.0403 -2.3427 -0.5759
  381TMC3    H1 5702   1.687   2.187  16.705 -0.8454  1.7781  0.2376
  381TMC3    H2 5703   1.876   2.486  16.939 -2.7757 -1.3679 -0.1529
  381TMC3    C7 5704   1.721   2.273  16.951 -0.3522  0.0642 -0.4447
  381TMC3    C8 5705   2.068   2.538  16.735  0.4065  0.3558 -0.2711
  381TMC3    O1 5706   1.706   2.154  16.951 -0.1940  0.1216 -0.1755
  381TMC3    O2 5707   2.100   2.563  16.616 -0.1724  0.4799 -0.1361
  382MPD2     C 5708   1.052   0.226   0.124 -0.2056  0.4585  0.3453
  382MPD2    C1 5709   0.923   0.239   0.072 -0.6154  0.3957  0.0366
  382MPD2    C2 5710   0.838   0.133   0.080  0.5377 -0.2329 -0.4790
  382MPD2    C3 5711   0.881   0.010   0.120  0.9568  0.2897 -0.3939
  382MPD2    C4 5712   1.011   4.714   0.164  0.6851 -0.4598  1.1416
  382MPD2    C5 5713   1.099   0.098   0.164 -0.2662  0.2655 -0.7787
  382MPD2     H 5714   0.739   0.145   0.037 -0.2674 -1.7008  1.0061
  382MPD2    H1 5715   1.056   4.618   0.187  2.0830 -0.1715 -0.4176
  382MPD2    H2 5716   1.124   0.307   0.123 -0.3385  0.5774  0.3773
  382MPD2    H3 5717   1.205   0.086   0.183 -0.3987 -0.6270 -0.5949
  382MPD2     N 5718   0.811   4.609   0.090 -0.2514 -1.0047  0.4116
  382MPD2    H5 5719   0.845   4.517   0.117  0.9045 -0.6702  0.0820
  382MPD2    N1 5720   0.871   0.356   0.007  0.4667 -0.2954 -0.0152
  382MPD2    H7 5721   0.777   0.340  17.652 -0.0742  1.3105  0.6633
  383TMC3    C1 5722   0.713   4.451  17.636 -0.3311 -0.9162 -0.7198
  383TMC3    C2 5723   0.685   4.433  17.500 -0.4967  0.3863  0.5187
  383TMC3    C3 5724   0.654   4.305  17.461  0.4302  0.0609  0.5962
  383TMC3    C4 5725   0.731   4.345   0.041 -0.3919 -0.2085  0.4699
  383TMC3    C5 5726   0.695   4.222  17.673  0.6191 -0.1620 -0.2398
  383TMC3    C6 5727   0.657   4.194  17.544  0.1039  0.0049 -0.5068
  383TMC3     C 5728   0.709   4.589   0.000  0.8443  0.1067  0.7123
  383TMC3     O 5729   0.663   4.672  17.607 -0.5301  0.4117 -0.5547
  383TMC3     H 5730   0.672   4.522  17.440  0.2310  1.4271  1.9081
  383TMC3    H1 5731   0.742   4.371   0.146 -2.7894 -2.2373  1.2069
  383TMC3    H2 5732   0.643   4.091  17.513  0.4110 -0.4161  0.7478
  383TMC3    C7 5733   0.659   4.126   0.091 -0.3075 -0.0291 -0.0993
  383TMC3    C8 5734   0.590   4.305  17.327 -0.0922 -0.7069  0.1628
  383TMC3    O1 5735   0.588   4.032   0.051  0.0942 -0.1090 -0.4874
  383TMC3    O2 5736   0.578   4.413  17.271  0.1197  0.3082 -0.1704
  384MPD2     C 5737   2.143   1.351  11.746  0.0238 -0.1900 -0.3633
  384MPD2    C1 5738   2.050   1.269  11.798 -0.0552 -0.2920 -0.3219
  384MPD2    C2 5739   1.964   1.207  11.711 -0.0720 -0.2272 -0.3305
  384MPD2    C3 5740   1.967   1.239  11.569  0.0706 -0.5839 -0.0216
  384MPD2    C4 5741   2.062   1.329  11.516  0.3481 -0.3702  0.5204
  384MPD2    C5 5742   2.150   1.388  11.609 -0.9806  0.2240  0.1313
  384MPD2     H 5743   1.904   1.127  11.753  0.6977 -0.6369  0.0047
  384MPD2    H1 5744   2.070   1.351  11.410 -0.8990 -0.1649  0.4589
  384MPD2    H2 5745   2.219   1.395  11.810  0.2823 -0.7134 -0.3127
  384MPD2    H3 5746   2.218   1.470  11.590  0.0454 -0.5736  0.3796
  384MPD2     N 5747   1.864   1.181  11.492 -0.1241 -0.2916 -0.1830
  384MPD2    H5 5748   1.793   1.133  11.547  0.6200 -0.5550  0.5490
  384MPD2    N1 5749   2.058   1.209  11.927  0.3914  0.4565  0.1538
  384MPD2    H7 5750   1.987   1.139  11.948  1.5371 -0.4330  1.0063
  385TMC3    C1 5751   1.764   1.071  11.315 -0.2546  0.0320 -0.2511
  385TMC3    C2 5752   1.829   0.967  11.251  0.6284 -0.2893  0.3166
  385TMC3    C3 5753   1.796   0.845  11.297 -0.4565 -0.4273  0.0038
  385TMC3    C4 5754   1.674   1.050  11.418  0.3387  0.5201  0.9070
  385TMC3    C5 5755   1.635   0.924  11.450 -0.0381  0.2105 -0.0281
  385TMC3    C6 5756   1.703   0.822  11.394 -0.1091  0.1717 -0.1103
  385TMC3     C 5757   1.871   1.165  11.354 -0.7170  0.0650  0.1289
  385TMC3     O 5758   1.963   1.184  11.273 -0.4473 -0.5968 -0.7265
  385TMC3     H 5759   1.913   0.981  11.185  0.4544 -1.2000 -0.1018
  385TMC3    H1 5760   1.615   1.137  11.447  1.8389  2.4908 -1.9204
  385TMC3    H2 5761   1.686   0.719  11.424 -1.5743 -0.4458 -3.0023
  385TMC3    C7 5762   1.614   0.914  11.592  0.6324  0.0962  0.2124
  385TMC3    C8 5763   1.898   0.745  11.273 -0.4287 -0.2881  0.3555
  385TMC3    O1 5764   1.655   1.010  11.652  0.3186 -0.2312  0.6179
  385TMC3    O2 5765   1.945   0.735  11.158  0.5749  0.3518 -0.3331
  386TMC3    C1 5766   2.549   4.052  11.743  0.3311 -0.2618  0.1001
  386TMC3    C2 5767   2.537   3.982  11.626 -0.8705 -0.4087  0.0119
  386TMC3    C3 5768   2.441   4.015  11.538  0.0668 -0.0553  0.3935
  386TMC3    C4 5769   2.454   4.140  11.789 -0.2261 -0.1141 -0.1914
  386TMC3    C5 5770   2.359   4.171  11.696  0.6308 -0.7709 -0.4016
  386TMC3    C6 5771   2.344   4.106  11.576 -0.0236 -0.6446  0.5157
  386TMC3     C 5772   2.656   4.014  11.838 -0.0351  0.0340  0.1314
  386TMC3     O 5773   2.667   4.080  11.940 -0.1514  0.4659  0.5209
  386TMC3     H 5774   2.622   3.928  11.585  0.5378  2.0389 -0.3226
  386TMC3    H1 5775   2.455   4.187  11.886 -1.2734  0.8735 -0.6644
  386TMC3    H2 5776   2.267   4.126  11.502  1.0480  1.9763  0.1375
  386TMC3    C7 5777   2.239   4.224  11.759 -0.1895 -0.2329 -0.1248
  386TMC3    C8 5778   2.404   3.926  11.434  0.5610  0.3417 -0.2615
  386TMC3    O1 5779   2.230   4.205  11.879  0.2258 -0.8092 -0.2052
  386TMC3    O2 5780   2.313   3.961  11.365 -0.2405 -0.2057  0.2488
  387MPD2     C 5781   0.306   3.234   9.601  0.1681  0.1786  0.6728
  387MPD2    C1 5782   0.389   3.174   9.695  0.3594 -0.6217 -0.0702
  387MPD2    C2 5783   0.362   3.047   9.739  0.1929  0.6205 -0.0966
  387MPD2    C3 5784   0.262   2.967   9.694  0.1153  0.1890  0.2520
  387MPD2    C4 5785   0.173   3.024   9.604 -0.1853  0.0329  0.3288
  387MPD2    C5 5786   0.190   3.160   9.560 -0.0085 -0.5496 -0.2747
  387MPD2     H 5787   0.436   3.005   9.807 -0.7625 -0.4671  0.2525
  387MPD2    H1 5788   0.079   2.979   9.576  0.3586 -0.0298 -1.4327
  387MPD2    H2 5789   0.324   3.337   9.575 -0.4933  0.0672 -0.2030
  387MPD2    H3 5790   0.119   3.208   9.494 -0.2245 -2.8241 -1.6573
  387MPD2     N 5791   0.245   2.845   9.750  0.4315 -0.5874 -0.2048
  387MPD2    H5 5792   0.314   2.822   9.821  0.2761 -0.6293 -0.0674
  387MPD2    N1 5793   0.505   3.237   9.752 -0.2604  0.5921 -0.0087
  387MPD2    H7 5794   0.555   3.175   9.815 -1.2512 -0.8441 -0.6494
  388TMC3    C1 5795   0.663   3.387   9.829  0.0463 -0.3906  0.0063
  388TMC3    C2 5796   0.661   3.497   9.902 -0.1225  0.1260  0.4460
  388TMC3    C3 5797   0.743   3.502  10.010  0.3913 -0.3559 -0.5774
  388TMC3    C4 5798   0.731   3.280   9.876  0.6223  0.4637  0.0029
  388TMC3    C5 5799   0.801   3.278   9.997 -0.6507 -0.3808 -0.3062
  388TMC3    C6 5800   0.820   3.400  10.059  0.2630 -0.1557 -0.1219
  388TMC3     C 5801   0.543   3.367   9.747  0.0545  0.0948  0.5192
  388TMC3     O 5802   0.477   3.462   9.708  0.3508 -0.0193  0.1372
  388TMC3     H 5803   0.609   3.586   9.867 -0.7246 -0.5406 -0.3626
  388TMC3    H1 5804   0.736   3.192   9.813  1.0908  0.5448 -0.0739
  388TMC3    H2 5805   0.868   3.401  10.156 -0.3164 -0.2207  0.1653
  388TMC3    C7 5806   0.817   3.151  10.065 -0.4000  0.3715  0.1905
  388TMC3    C8 5807   0.734   3.606  10.104 -0.0721  0.0211  0.3395
  388TMC3    O1 5808   0.871   3.160  10.173 -0.1803  0.1444 -0.3837
  388TMC3    O2 5809   0.835   3.633  10.169  0.1368  0.8469 -0.1727
  389MPD2     C 5810   4.005   1.970  10.699  1.2498 -0.1077  0.1660
  389MPD2    C1 5811   3.903   1.878  10.686  0.3028 -0.6786  0.0064
  389MPD2    C2 5812   3.863   1.805  10.801  0.6009  0.1554 -0.2726
  389MPD2    C3 5813   3.922   1.824  10.925  0.2812  0.5075 -0.4629
  389MPD2    C4 5814   4.031   1.912  10.931 -0.3715 -0.3008 -0.0538
  389MPD2    C5 5815   4.065   1.995  10.820  0.0923 -0.2517  0.7885
  389MPD2     H 5816   3.790   1.727  10.785  1.1268 -0.2809 -0.5782
  389MPD2    H1 5817   4.082   1.935  11.024  0.7668 -0.4311 -0.6388
  389MPD2    H2 5818   4.039   2.033  10.617 -0.1868  0.3253 -0.0867
  389MPD2    H3 5819   4.134   2.079  10.820 -0.0774 -0.1123  1.3710
  389MPD2     N 5820   3.876   1.760  11.039 -0.2744 -0.2123 -0.3534
  389MPD2    H5 5821   3.934   1.785  11.119  0.4727 -3.3843  0.0914
  389MPD2    N1 5822   3.845   1.860  10.560  0.0032 -0.1342  0.4880
  389MPD2    H7 5823   3.881   1.913  10.481 -2.4732  1.3513  0.3499
  390TMC3    C1 5824   3.776   1.612  11.183  0.1378  0.0456 -0.2447
  390TMC3    C2 5825   3.663   1.540  11.208  0.1262  0.2379 -0.3711
  390TMC3    C3 5826   3.630   1.515  11.337 -0.3559  0.4243 -0.3492
  390TMC3    C4 5827   3.856   1.647  11.280  0.1474 -0.2662 -0.8860
  390TMC3    C5 5828   3.819   1.615  11.408 -0.7147 -0.2205 -0.3134
  390TMC3    C6 5829   3.701   1.562  11.444  0.1457 -0.5160 -0.0049
  390TMC3     C 5830   3.779   1.671  11.051 -0.3098  0.1111 -0.3646
  390TMC3     O 5831   3.714   1.614  10.961  0.5622 -0.0560  0.2033
  390TMC3     H 5832   3.604   1.486  11.135 -0.4029 -0.9536  0.9434
  390TMC3    H1 5833   3.953   1.688  11.256  0.3975  0.2709  0.9879
  390TMC3    H2 5834   3.660   1.544  11.543  0.3271 -0.9748 -0.0136
  390TMC3    C7 5835   3.904   1.672  11.510  0.6213 -0.5937  0.5900
  390TMC3    C8 5836   3.493   1.458  11.360 -0.4219  0.3376 -0.1436
  390TMC3    O1 5837   3.993   1.748  11.470 -0.0678 -0.4312 -0.2381
  390TMC3    O2 5838   3.433   1.387  11.275 -0.5638  0.1480 -0.0862
  391MPD2     C 5839   3.297   2.982  11.001  0.3199  0.2466  0.5988
  391MPD2    C1 5840   3.424   3.040  10.997 -0.4393  0.1061  0.3000
  391MPD2    C2 5841   3.480   3.053  10.874  0.8935  0.1091  0.1638
  391MPD2    C3 5842   3.420   3.009  10.759 -0.3976 -0.1767  0.5261
  391MPD2    C4 5843   3.305   2.938  10.764 -0.2678 -0.3194 -0.3654
  391MPD2    C5 5844   3.242   2.934  10.882 -0.2998  0.0518  0.0383
  391MPD2     H 5845   3.583   3.087  10.868  0.2254  1.2642 -4.9510
  391MPD2    H1 5846   3.254   2.898  10.677 -1.1697  0.7127 -0.3153
  391MPD2    H2 5847   3.235   2.976  11.090  1.6856  2.6500  1.7116
  391MPD2    H3 5848   3.145   2.886  10.882 -1.2836  2.0456 -0.7776
  391MPD2     N 5849   3.475   3.039  10.634 -0.2494  0.0327 -0.1432
  391MPD2    H5 5850   3.569   3.079  10.636  0.0664 -0.7179  0.2408
  391MPD2    N1 5851   3.484   3.053  11.124 -0.5437  0.3781 -0.7264
  391MPD2    H7 5852   3.425   3.055  11.206  0.7390 -2.6895  0.2783
  392TMC3    C1 5853   3.522   3.038  10.397 -0.5441 -0.4367 -0.3894
  392TMC3    C2 5854   3.462   3.027  10.273  0.6325 -0.0779 -0.0336
  392TMC3    C3 5855   3.521   3.099  10.179 -0.2580 -0.0941  0.4686
  392TMC3    C4 5856   3.637   3.115  10.424 -0.5309 -0.7079  0.6143
  392TMC3    C5 5857   3.682   3.187  10.322 -0.0293 -0.6009  0.6272
  392TMC3    C6 5858   3.622   3.191  10.202 -0.0470 -0.4533 -0.2728
  392TMC3     C 5859   3.425   3.008  10.509  0.3007  0.1540 -0.2018
  392TMC3     O 5860   3.314   2.967  10.477  0.1743  0.0986 -0.3165
  392TMC3     H 5861   3.374   2.966  10.257 -0.4968  1.3328  0.7419
  392TMC3    H1 5862   3.687   3.111  10.520 -0.5916  0.5731  0.7033
  392TMC3    H2 5863   3.643   3.250  10.114 -1.2461  0.1317 -0.1715
  392TMC3    C7 5864   3.809   3.252  10.343 -0.3428  0.3925  0.0340
  392TMC3    C8 5865   3.435   3.135  10.070  0.0613 -0.1213 -0.3126
  392TMC3    O1 5866   3.858   3.251  10.457 -0.2921 -0.2093  0.9021
  392TMC3    O2 5867   3.316   3.115  10.088 -0.0487  0.6248  0.2056
  393TMC3    C1 5868   1.068   1.319   9.976  0.2566 -0.0165 -0.1923
  393TMC3    C2 5869   0.951   1.238   9.983  0.8101 -0.2596 -0.0088
  393TMC3    C3 5870   0.911   1.192  10.105  0.2980  0.2469 -0.3178
  393TMC3    C4 5871   1.129   1.370  10.085  0.7447  0.1455 -0.2942
  393TMC3    C5 5872   1.094   1.313  10.205 -0.0914  0.3568 -0.1206
  393TMC3    C6 5873   0.976   1.236  10.221 -0.0533  0.1743  0.2409
  393TMC3     C 5874   1.090   1.396   9.851  0.0101 -0.8960  0.2336
  393TMC3     O 5875   1.144   1.505   9.871  0.2069 -0.0825 -0.6727
  393TMC3     H 5876   0.899   1.212   9.892  0.6066 -0.2379  0.1011
  393TMC3    H1 5877   1.203   1.449  10.082 -0.0376  0.9310  0.9368
  393TMC3    H2 5878   0.964   1.206  10.324  0.4662 -1.9650 -0.3118
  393TMC3    C7 5879   1.175   1.353  10.320 -0.6431 -0.1610  0.4532
  393TMC3    C8 5880   0.793   1.101  10.102 -0.1080  0.5523  0.8183
  393TMC3    O1 5881   1.121   1.402  10.421  0.1123 -0.0154  0.0512
  393TMC3    O2 5882   0.741   1.077   9.993 -0.1888  0.1734  0.0014
  394TMC3    C1 5883   3.709   1.790  10.380  0.2755 -0.4266 -0.4528
  394TMC3    C2 5884   3.577   1.769  10.337 -0.1888 -0.0969  0.4317
  394TMC3    C3 5885   3.546   1.794  10.206  0.3175  0.9146 -0.1513
  394TMC3    C4 5886   3.808   1.811  10.285  0.0207  0.3994 -0.2242
  394TMC3    C5 5887   3.768   1.828  10.151  0.3946  0.2760 -0.1479
  394TMC3    C6 5888   3.639   1.825  10.111 -0.6278 -0.3643 -0.2301
  394TMC3     C 5889   3.730   1.790  10.519 -0.0119  0.3594 -0.1774
  394TMC3     O 5890   3.656   1.721  10.584  0.1825  0.6794 -0.1443
  394TMC3     H 5891   3.500   1.783  10.412 -0.0347  0.3164  0.5190
  394TMC3    H1 5892   3.911   1.810  10.319  0.2975 -2.7898 -1.1514
  394TMC3    H2 5893   3.609   1.828  10.007  1.9405  1.3925 -0.9103
  394TMC3    C7 5894   3.874   1.831  10.055  0.2070  0.4601 -0.0241
  394TMC3    C8 5895   3.419   1.751  10.155  0.1712  0.6098 -0.0822
  394TMC3    O1 5896   3.867   1.910   9.962 -0.2865  0.2336  0.0254
  394TMC3    O2 5897   3.387   1.765  10.038 -0.1734  0.2749  0.2551
  395TMC3    C1 5898   4.325   3.814  14.406  0.2131 -0.0785 -0.2510
  395TMC3    C2 5899   4.190   3.828  14.411 -0.9576 -0.1065 -0.3418
  395TMC3    C3 5900   4.139   3.951  14.439 -0.3765  0.2248  0.6372
  395TMC3    C4 5901   4.420   3.907  14.436  0.2310  0.2773  0.1448
  395TMC3    C5 5902   4.363   4.030  14.465  0.0874  0.6380 -0.6612
  395TMC3    C6 5903   4.229   4.051  14.477 -0.6539  0.3053 -0.1077
  395TMC3     C 5904   4.365   3.688  14.452  0.5428 -0.2943  0.0891
  395TMC3     O 5905   4.448   3.627  14.382  0.0105 -0.4587  0.1942
  395TMC3     H 5906   4.137   3.743  14.371 -0.9595 -0.1448 -0.2571
  395TMC3    H1 5907   4.523   3.875  14.445  0.3466  0.9321  1.1271
  395TMC3    H2 5908   4.190   4.149  14.499 -0.6656  0.6240 -1.5539
  395TMC3    C7 5909   4.458   4.131  14.518 -1.0036 -0.1120 -0.2072
  395TMC3    C8 5910   4.018   3.953  14.518 -0.1275 -1.4463 -0.0223
  395TMC3    O1 5911   4.424   4.220  14.593  0.3750 -0.5546  0.1056
  395TMC3    O2 5912   3.993   4.051  14.584  0.0843  0.0997 -0.3734
  396MPD2     C 5913   3.741   4.713  17.230  0.1168  0.2468 -0.0329
  396MPD2    C1 5914   3.843   0.080  17.278 -0.1978 -0.2568 -0.5763
  396MPD2    C2 5915   3.880   0.191  17.209 -0.6130 -0.3131  0.4375
  396MPD2    C3 5916   3.812   0.221  17.094 -0.3747 -0.4789 -0.5363
  396MPD2    C4 5917   3.708   0.131  17.052  0.8923  0.5424 -0.3359
  396MPD2    C5 5918   3.672   0.022  17.119  0.2145  0.0633 -1.2942
  396MPD2     H 5919   3.962   0.260  17.229 -0.2196 -0.6170 -0.1062
  396MPD2    H1 5920   3.662   0.137  16.954  0.1064 -0.4780 -0.0349
  396MPD2    H2 5921   3.727   4.616  17.276  1.2539  0.3363  0.5075
  396MPD2    H3 5922   3.597   4.678  17.072  0.2311 -0.5333 -0.5108
  396MPD2     N 5923   3.837   0.338  17.020  0.1530  0.5055 -0.1344
  396MPD2    H5 5924   3.928   0.378  17.039  0.3841  0.2590 -0.7401
  396MPD2    N1 5925   3.919   0.043  17.393 -0.0171 -0.4390 -0.1400
  396MPD2    H7 5926   3.889   4.676  17.438 -0.5845 -0.1860 -0.0317
  397TMC3    C1 5927   4.115   4.697  17.489 -0.0013 -0.4724 -0.1918
  397TMC3    C2 5928   4.155   4.626  17.383  0.2659 -0.7295 -0.3044
  397TMC3    C3 5929   4.107   4.502  17.358  0.4930  0.0325 -0.2723
  397TMC3    C4 5930   4.056   4.632  17.596  0.4383  0.4750  0.5116
  397TMC3    C5 5931   4.039   4.499  17.585 -0.6688  0.2495 -0.1732
  397TMC3    C6 5932   4.048   4.437  17.464  0.0128  0.4092  0.2987
  397TMC3     C 5933   4.038   0.091  17.427  0.1368  0.2164  0.3162
  397TMC3     O 5934   4.114   0.163  17.362 -0.1268 -0.0622  0.1456
  397TMC3     H 5935   4.198   4.676  17.297  0.2693 -0.0303  0.1114
  397TMC3    H1 5936   4.042   4.689   0.006  0.3588  3.0719 -1.1240
  397TMC3    H2 5937   4.030   4.332  17.449 -0.2167 -0.0381  3.8872
  397TMC3    C7 5938   3.956   4.432   0.004  0.4085  0.0004  0.0799
  397TMC3    C8 5939   4.082   4.444  17.226 -0.6021  0.0016 -1.2195
  397TMC3    O1 5940   3.907   4.328  17.648 -0.9232 -0.1739 -0.0977
  397TMC3    O2 5941   4.035   4.328  17.220  0.0004 -0.0768  0.0976
  398MPD2     C 5942   2.511   1.180   0.148 -0.5714 -0.0548 -0.4242
  398MPD2    C1 5943   2.590   1.086   0.086  0.2071 -0.1978  0.3767
  398MPD2    C2 5944   2.673   1.129  17.667  0.5865  0.4921 -0.4267
  398MPD2    C3 5945   2.694   1.258  17.640  0.0023  0.3359  0.6391
  398MPD2    C4 5946   2.627   1.353   0.025 -0.3704 -0.2017  0.2297
  398MPD2    C5 5947   2.537   1.312   0.122  0.1567  0.1737  0.4268
  398MPD2     H 5948   2.730   1.056  17.610 -0.4957 -1.5242  1.0856
  398MPD2    H1 5949   2.644   1.458   0.004  0.5297 -0.1180  1.3824
  398MPD2    H2 5950   2.439   1.153   0.223  0.0604 -0.3349  0.0827
  398MPD2    H3 5951   2.489   1.391   0.179 -0.7243  0.3480 -0.5804
  398MPD2     N 5952   2.786   1.286  17.532  0.0241 -0.1728  0.3584
  398MPD2    H5 5953   2.809   1.208  17.471 -0.4416  1.0763 -1.4265
  398MPD2    N1 5954   2.571   0.947   0.106 -0.2487 -0.0586 -0.4703
  398MPD2    H7 5955   2.629   0.887   0.049  2.1234  1.9934 -0.2730
  399TMC3    C1 5956   2.490   0.742   0.180 -0.4313  0.2097 -0.4477
  399TMC3    C2 5957   2.604   0.680   0.141 -0.3686 -0.4459  0.2270
  399TMC3    C3 5958   2.615   0.546   0.172 -0.4367  1.3344  0.1164
  399TMC3    C4 5959   2.385   0.676   0.236 -0.6369 -0.1272 -0.4293
  399TMC3    C5 5960   2.402   0.542   0.260 -0.1443  0.6790  0.3891
  399TMC3    C6 5961   2.515   0.467   0.221  0.7424  0.0209  0.8439
  399TMC3     C 5962   2.494   0.885   0.201 -0.1323 -0.3743 -0.6661
  399TMC3     O 5963   2.422   0.930   0.288 -0.0351 -0.0743  0.0059
  399TMC3     H 5964   2.694   0.732   0.114 -0.2331  0.0041  1.5301
  399TMC3    H1 5965   2.290   0.718   0.266 -0.6541 -0.8538  0.5266
  399TMC3    H2 5966   2.516   0.359   0.211  1.9315  0.0553  0.6353
  399TMC3    C7 5967   2.299   0.481   0.330  0.3421  0.3290 -0.6162
  399TMC3    C8 5968   2.733   0.481   0.123  0.4921 -0.5134 -0.1672
  399TMC3    O1 5969   2.187   0.534   0.335 -0.8688 -0.5072  0.4226
  399TMC3    O2 5970   2.779   0.514   0.014  0.4205 -0.5566 -0.0217
  400TMC3    C1 5971   0.710   4.261  16.966  0.0643  0.7697  0.0902
  400TMC3    C2 5972   0.630   4.225  16.853 -0.3630 -0.5642  0.0464
  400TMC3    C3 5973   0.565   4.325  16.789 -0.0785 -0.0214  0.6960
  400TMC3    C4 5974   0.724   4.391  17.004 -0.3410 -0.6070 -0.3883
  400TMC3    C5 5975   0.655   4.483  16.935 -0.2489  0.1719  0.3821
  400TMC3    C6 5976   0.572   4.456  16.828  0.5795  0.7973 -1.0190
  400TMC3     C 5977   0.753   4.144  17.047 -0.6348 -0.0741  0.1276
  400TMC3     O 5978   0.723   4.032  17.013 -0.0300 -0.4615  0.1197
  400TMC3     H 5979   0.619   4.122  16.821 -1.4639 -0.1023 -1.0608
  400TMC3    H1 5980   0.788   4.414  17.088 -0.9880 -1.5392  0.3670
  400TMC3    H2 5981   0.520   4.538  16.779 -0.1355  0.4831 -0.7658
  400TMC3    C7 5982   0.664   4.623  16.980 -0.0620 -0.1171 -0.1507
  400TMC3    C8 5983   0.437   4.283  16.732 -0.0048  0.5473 -0.1811
  400TMC3    O1 5984   0.770   4.661  17.023  0.2349  0.1782 -0.2995
  400TMC3    O2 5985   0.373   4.384  16.703 -0.5903  0.2566 -0.2770
  401MPD2     C 5986   3.240   2.947   0.806  0.1915  0.0997  1.0148
  401MPD2    C1 5987   3.316   2.849   0.861 -0.2237 -0.2535 -0.9041
  401MPD2    C2 5988   3.279   2.716   0.849  0.2452  0.2831 -0.1591
  401MPD2    C3 5989   3.168   2.689   0.773 -0.3529 -0.5263  0.1479
  401MPD2    C4 5990   3.087   2.787   0.721 -0.7925  0.0512  0.3528
  401MPD2    C5 5991   3.128   2.912   0.741  0.3059 -0.0542 -0.2399
  401MPD2     H 5992   3.344   2.648   0.903  0.3622 -1.4687 -2.5176
  401MPD2    H1 5993   2.991   2.773   0.671  0.5961 -0.7647 -2.1135
  401MPD2    H2 5994   3.267   3.052   0.808 -0.6533  0.3163  1.2221
  401MPD2    H3 5995   3.067   2.992   0.700  0.7496 -0.1454 -1.0782
  401MPD2     N 5996   3.132   2.550   0.768 -0.2441 -0.3942  0.5151
  401MPD2    H5 5997   3.185   2.486   0.826 -0.4566  0.5433  1.7473
  401MPD2    N1 5998   3.445   2.878   0.916 -0.0383 -0.3850  0.0412
  401MPD2    H7 5999   3.499   2.801   0.954  2.8890  1.7010  0.0767
  402TMC3    C1 6000   3.039   2.353   0.681 -0.2901  0.1744 -0.1246
  402TMC3    C2 6001   3.084   2.304   0.800  0.0392 -0.4235  0.3060
  402TMC3    C3 6002   3.166   2.193   0.808  0.1639  0.1958  0.6893
  402TMC3    C4 6003   3.085   2.290   0.564 -0.9144 -0.9692  0.1228
  402TMC3    C5 6004   3.179   2.193   0.574  0.5704  0.0921  0.0054
  402TMC3    C6 6005   3.232   2.159   0.693  0.4594 -0.2146 -0.3779
  402TMC3     C 6006   3.030   2.500   0.686 -0.4403 -0.2388  0.4417
  402TMC3     O 6007   2.967   2.556   0.596 -0.6474 -0.3331 -0.0353
  402TMC3     H 6008   3.031   2.340   0.887 -0.1220  0.4329 -0.1481
  402TMC3    H1 6009   3.074   2.340   0.468  0.8295  0.7690  0.8103
  402TMC3    H2 6010   3.304   2.079   0.699 -1.0076 -1.3748  1.6486
  402TMC3    C7 6011   3.239   2.142   0.449  0.5118 -0.7111 -0.2022
  402TMC3    C8 6012   3.232   2.150   0.930  0.4680 -0.0962  0.4575
  402TMC3    O1 6013   3.159   2.137   0.356 -0.1245 -0.0327 -0.0988
  402TMC3    O2 6014   3.320   2.068   0.918 -0.1403  0.3161 -0.1064
  403MPD2     C 6015   2.147   1.236  13.400 -0.1682  0.5185  0.0272
  403MPD2    C1 6016   2.105   1.164  13.510  0.2901  0.5924 -0.0618
  403MPD2    C2 6017   2.138   1.207  13.638 -0.6134 -0.2160  0.1743
  403MPD2    C3 6018   2.211   1.318  13.658  0.7488  0.3679 -0.2617
  403MPD2    C4 6019   2.256   1.389  13.552 -0.0177 -0.1647  0.0974
  403MPD2    C5 6020   2.220   1.354  13.425  0.6299  0.0218 -0.3390
  403MPD2     H 6021   2.098   1.149  13.721  0.6197  3.1847  3.1739
  403MPD2    H1 6022   2.314   1.479  13.572  2.5954 -1.7797 -0.2191
  403MPD2    H2 6023   2.128   1.214  13.295  0.3589  1.3823 -0.2490
  403MPD2    H3 6024   2.243   1.410  13.335 -0.6504  1.4679  0.2397
  403MPD2     N 6025   2.225   1.354  13.797 -0.1416  0.0672 -0.2804
  403MPD2    H5 6026   2.205   1.283  13.867 -0.2776 -1.6120 -2.0342
  403MPD2    N1 6027   2.019   1.055  13.486 -0.1481  0.2486  0.7205
  403MPD2    H7 6028   2.002   1.035  13.388 -1.6447 -1.9288  1.4313
  404TMC3    C1 6029   1.868   0.873  13.528 -0.4667  0.4249  0.5388
  404TMC3    C2 6030   1.812   0.792  13.622  0.2926  0.3943 -0.1165
  404TMC3    C3 6031   1.707   0.710  13.582  0.0674 -0.4787 -0.2971
  404TMC3    C4 6032   1.826   0.872  13.398 -0.0775 -0.4380  0.3206
  404TMC3    C5 6033   1.703   0.806  13.367  0.4119  0.2530  0.1587
  404TMC3    C6 6034   1.655   0.717  13.458 -0.0644 -0.1764  0.1349
  404TMC3     C 6035   1.948   0.982  13.580  0.4553 -0.1508  0.0316
  404TMC3     O 6036   1.964   0.980  13.696  0.3919 -0.1966  0.7460
  404TMC3     H 6037   1.850   0.798  13.724 -1.4271 -2.0619  0.6614
  404TMC3    H1 6038   1.871   0.947  13.334 -1.9385 -0.2764 -0.7849
  404TMC3    H2 6039   1.572   0.653  13.430 -0.4137  0.8681 -1.2323
  404TMC3    C7 6040   1.657   0.804  13.229  1.1040 -0.0701 -0.1191
  404TMC3    C8 6041   1.657   0.616  13.676 -0.1197  0.4047 -0.6369
  404TMC3    O1 6042   1.548   0.748  13.208  0.0416 -0.3885 -0.6604
  404TMC3    O2 6043   1.624   0.508  13.628  0.3111 -0.6972  0.8365
  405MPD2     C 6044   1.924   2.653  15.502  0.9646 -0.1487  0.2414
  405MPD2    C1 6045   2.012   2.551  15.529 -0.8415 -0.7534 -0.0589
  405MPD2    C2 6046   2.019   2.457  15.434 -0.4382  0.2893 -0.3796
  405MPD2    C3 6047   1.946   2.469  15.320 -0.3913  0.0210  0.1227
  405MPD2    C4 6048   1.848   2.566  15.299  0.1327 -0.4329  0.2908
  405MPD2    C5 6049   1.836   2.660  15.395 -0.1857  0.2701  0.0244
  405MPD2     H 6050   2.098   2.384  15.448 -0.2732  0.5436  0.0204
  405MPD2    H1 6051   1.779   2.574  15.215  0.8923  1.6526 -0.1261
  405MPD2    H2 6052   1.912   2.738  15.567  0.4694  0.5769 -0.7943
  405MPD2    H3 6053   1.771   2.747  15.390 -0.1120  0.3821  1.0187
  405MPD2     N 6054   1.973   2.369  15.220  0.1302  0.0324  0.5925
  405MPD2    H5 6055   2.058   2.318  15.241 -0.7931 -0.9029  2.0587
  405MPD2    N1 6056   2.097   2.553  15.636 -0.4702  0.5729 -0.0315
  405MPD2    H7 6057   2.101   2.640  15.687 -1.6665  0.8091 -0.3466
  406TMC3    C1 6058   2.077   2.263  14.776 -0.9434 -0.1810 -0.7089
  406TMC3    C2 6059   2.212   2.267  14.801 -0.5775  0.3975 -0.5825
  406TMC3    C3 6060   2.254   2.293  14.927  0.3018  0.5813 -0.9035
  406TMC3    C4 6061   1.981   2.279  14.875  0.5530  0.1065  0.0577
  406TMC3    C5 6062   2.033   2.313  15.000 -0.0679  0.5373 -0.8827
  406TMC3    C6 6063   2.165   2.312  15.029 -0.2851  0.2070  0.2226
  406TMC3     C 6064   2.050   2.175  14.664 -0.1416  0.7954  0.5957
  406TMC3     O 6065   2.137   2.166  14.582  0.0147 -0.0103  0.5792
  406TMC3     H 6066   2.287   2.227  14.734 -0.9272 -0.4776 -0.4500
  406TMC3    H1 6067   1.874   2.276  14.858  0.7062  3.1969 -1.4780
  406TMC3    H2 6068   2.198   2.341  15.128  0.8818 -0.3464 -0.0068
  406TMC3    C7 6069   1.937   2.379  15.089  0.0016  0.3729 -0.8683
  406TMC3    C8 6070   2.394   2.279  14.957  0.3985 -0.1373  0.7545
  406TMC3    O1 6071   1.837   2.439  15.048  0.2253  0.2033  0.8274
  406TMC3    O2 6072   2.455   2.202  14.886 -0.4909 -0.2117 -0.4016
  407MPD2     C 6073   4.385   2.976   9.430 -0.4167 -0.2461 -0.2247
  407MPD2    C1 6074   4.490   2.913   9.489  0.8003 -1.2113 -1.0938
  407MPD2    C2 6075   4.535   2.969   9.605  0.3651 -1.0309  0.7687
  407MPD2    C3 6076   4.473   3.078   9.665  0.1104 -0.4644  0.6085
  407MPD2    C4 6077   4.377   3.147   9.596  0.2627 -0.3038 -0.1215
  407MPD2    C5 6078   4.333   3.094   9.476  0.5146 -0.7265  0.2806
  407MPD2     H 6079   4.625   2.921   9.641  1.0826  0.5027  1.0059
  407MPD2    H1 6080   4.323   3.228   9.644  0.1453  0.3264 -1.3106
  407MPD2    H2 6081   4.348   2.931   9.339 -0.7879 -0.0602 -0.1657
  407MPD2    H3 6082   4.255   3.145   9.420 -0.4426 -0.8738  1.4936
  407MPD2     N 6083   4.520   3.141   9.779  0.4644  0.3924  0.4700
  407MPD2    H5 6084   4.484   3.234   9.797  0.1508 -0.0385  2.0522
  407MPD2    N1 6085   4.563   2.802   9.439 -0.1167 -0.5011 -0.5142
  407MPD2    H7 6086   4.639   2.769   9.497 -0.0239  0.9948  0.2384
  408TMC3    C1 6087   4.627   2.619   9.316 -0.6937 -0.3494 -0.5767
  408TMC3    C2 6088   0.033   2.633   9.359 -0.0737  0.4700  0.5927
  408TMC3    C3 6089   0.120   2.529   9.354  0.2473  0.7725 -0.1624
  408TMC3    C4 6090   4.580   2.497   9.275 -0.5808  0.6660 -0.2384
  408TMC3    C5 6091   4.673   2.393   9.286 -0.3460  0.5545 -0.0767
  408TMC3    C6 6092   0.078   2.404   9.322  0.5852 -0.0460 -0.1443
  408TMC3     C 6093   4.532   2.726   9.327  0.3432  0.2427  0.6199
  408TMC3     O 6094   4.436   2.734   9.253  0.2445 -0.3273 -0.3701
  408TMC3     H 6095   0.064   2.733   9.387  0.0946  1.1460 -2.0259
  408TMC3    H1 6096   4.473   2.495   9.264 -0.4706  0.2218 -1.1644
  408TMC3    H2 6097   0.151   2.324   9.317  1.6524  0.7974  1.6838
  408TMC3    C7 6098   4.640   2.263   9.239  0.4129  0.2186 -0.2496
  408TMC3    C8 6099   0.270   2.542   9.364  0.1729 -0.0891 -0.1214
  408TMC3    O1 6100   0.014   2.181   9.229 -0.6181 -0.0316  0.1890
  408TMC3    O2 6101   0.331   2.443   9.400  0.1581 -0.2168 -0.2545
  409MPD2     C 6102   4.350   3.968  16.707  0.2549  0.3267  0.1453
  409MPD2    C1 6103   4.391   4.017  16.834  0.0330  0.7191  0.7309
  409MPD2    C2 6104   4.426   4.151  16.835 -0.7568 -0.0191 -0.1809
  409MPD2    C3 6105   4.419   4.233  16.729 -0.6412 -0.0588 -0.7682
  409MPD2    C4 6106   4.378   4.184  16.609 -0.0322  0.3232  0.3326
  409MPD2    C5 6107   4.349   4.048  16.600  0.4226 -0.5385  0.0070
  409MPD2     H 6108   4.474   4.181  16.927 -0.8939 -0.0689 -0.0931
  409MPD2    H1 6109   4.374   4.247  16.521  0.0378 -0.4169 -0.1956
  409MPD2    H2 6110   4.322   3.864  16.690  1.1841 -0.0462  0.8987
  409MPD2    H3 6111   4.337   4.012  16.498 -1.9500  1.6723 -0.5018
  409MPD2     N 6112   4.461   4.372  16.737  0.3565  0.1286  0.1092
  409MPD2    H5 6113   4.469   4.416  16.646 -2.6827  1.8775  0.6823
  409MPD2    N1 6114   4.406   3.940  16.946 -0.6539  0.3099  0.0720
  409MPD2    H7 6115   4.448   3.983  17.027 -3.0624  3.2669 -0.2149
  410TMC3    C1 6116   4.601   4.528  16.846  0.9709 -0.3715 -0.5539
  410TMC3    C2 6117   4.700   4.481  16.931  0.2894  0.6358  0.3466
  410TMC3    C3 6118   0.104   4.524  16.908  0.7293  0.3268 -0.6577
  410TMC3    C4 6119   4.625   4.603  16.734 -0.2745  0.2096 -0.1846
  410TMC3    C5 6120   0.036   4.649  16.729 -0.5074  0.7166  0.2100
  410TMC3    C6 6121   0.128   4.602  16.807 -0.2184 -1.0977  0.4300
  410TMC3     C 6122   4.481   4.446  16.852 -0.0261  0.3354 -0.3885
  410TMC3     O 6123   4.444   4.420  16.965  0.3588 -0.2456 -0.4286
  410TMC3     H 6124   4.682   4.409  17.011  1.9302 -1.4613 -1.1783
  410TMC3    H1 6125   4.542   4.632  16.670 -1.4511 -1.2230  0.6778
  410TMC3    H2 6126   0.232   4.627  16.790 -0.1490 -2.8017 -1.7187
  410TMC3    C7 6127   0.082   4.701  16.605 -0.0728 -0.0444 -0.0735
  410TMC3    C8 6128   0.219   4.457  16.967 -0.0517  0.2829  0.3887
  410TMC3    O1 6129   0.202   4.677  16.579 -0.1306  0.2056 -0.1750
  410TMC3    O2 6130   0.313   4.525  17.003 -0.1655 -0.2621  0.0459
  411MPD2     C 6131   0.064   0.515  14.060  0.0994 -0.0065  0.4082
  411MPD2    C1 6132   0.020   0.441  14.163 -0.6161 -0.3333  0.6070
  411MPD2    C2 6133   0.047   0.303  14.160  0.6337 -0.4243  0.9168
  411MPD2    C3 6134   0.111   0.243  14.060  0.1660  0.7033  0.2753
  411MPD2    C4 6135   0.142   0.321  13.954 -0.0063 -0.1753  1.0397
  411MPD2    C5 6136   0.126   0.458  13.954 -0.0309 -0.2931  0.3769
  411MPD2     H 6137   0.018   0.238  14.242  0.0631 -1.9203 -0.4678
  411MPD2    H1 6138   0.167   0.281  13.856  0.6195  1.8247  0.3790
  411MPD2    H2 6139   0.046   0.621  14.065 -1.3665 -0.2925  1.1431
  411MPD2    H3 6140   0.148   0.507  13.860 -0.5254  0.4787  0.6667
  411MPD2     N 6141   0.156   0.108  14.054  0.0194  0.0266  0.4148
  411MPD2    H5 6142   0.208   0.080  13.971 -0.3872  0.6479 -0.0500
  411MPD2    N1 6143   4.672   0.505  14.269  0.1330 -0.2859 -0.1132
  411MPD2    H7 6144   4.651   0.602  14.249 -0.3443 -0.8724 -2.3773
  412TMC3    C1 6145   0.136   4.593  14.077 -0.3489  0.0527 -0.1015
  412TMC3    C2 6146   0.083   4.492  14.157  0.0440 -0.4980 -0.5747
  412TMC3    C3 6147   0.027   4.383  14.092  0.1951  0.7211 -0.0610
  412TMC3    C4 6148   0.141   4.580  13.945 -0.0711 -0.0461 -0.2682
  412TMC3    C5 6149   0.077   4.474  13.881 -0.3862  0.3323  0.0505
  412TMC3    C6 6150   0.025   4.365  13.958  0.1040 -0.8342 -0.5441
  412TMC3     C 6151   0.137   0.009  14.146  0.4859  0.4333  0.2946
  412TMC3     O 6152   0.111   0.019  14.267  0.2571  0.0657  0.5277
  412TMC3     H 6153   0.074   4.505  14.264  0.6628 -3.2387 -0.2055
  412TMC3    H1 6154   0.193   4.655  13.887 -0.4146  0.1834 -0.2784
  412TMC3    H2 6155   4.688   4.288  13.907 -0.2236 -0.4820 -0.7199
  412TMC3    C7 6156   4.678   4.538  13.829  0.4909 -1.2819  0.5293
  412TMC3    C8 6157   4.617   4.366  14.152 -1.1928 -0.4980 -0.1449
  412TMC3    O1 6158   4.660   4.651  13.869  0.4721 -0.0759 -0.2574
  412TMC3    O2 6159   4.569   4.467  14.208 -0.4025  0.0132  0.8022
  413MPD2     C 6160   1.120   3.072  16.015 -0.3924 -0.2307  0.4554
  413MPD2    C1 6161   1.153   3.024  15.885  0.1358  0.1668 -0.7631
  413MPD2    C2 6162   1.286   2.973  15.856  0.6338  0.2161 -0.0962
  413MPD2    C3 6163   1.376   2.952  15.955 -0.2224 -0.0205  0.3554
  413MPD2    C4 6164   1.336   2.985  16.088 -0.3114  0.1406 -0.2451
  413MPD2    C5 6165   1.213   3.045  16.116  0.6628  0.1142 -0.3370
  413MPD2     H 6166   1.308   2.955  15.752 -0.8707 -0.5162 -0.2990
  413MPD2    H1 6167   1.409   2.958  16.164 -1.9053 -2.6524  0.2690
  413MPD2    H2 6168   1.026   3.112  16.051  0.1513 -0.3757  2.0338
  413MPD2    H3 6169   1.176   3.061  16.217 -1.0164 -1.6417 -0.6789
  413MPD2     N 6170   1.507   2.894  15.932  0.0022  0.8011 -0.2228
  413MPD2    H5 6171   1.540   2.871  15.840 -1.2308  2.4112 -1.0699
  413MPD2    N1 6172   1.051   3.039  15.787 -0.0175 -0.7007 -0.1888
  413MPD2    H7 6173   0.961   3.067  15.825 -0.8159 -1.3015 -1.6656
  414TMC3    C1 6174   1.686   2.762  15.981  1.2172  0.4520  1.1850
  414TMC3    C2 6175   1.719   2.638  16.016  0.1526  0.3558 -0.0092
  414TMC3    C3 6176   1.846   2.596  16.025 -0.4940 -0.6961 -0.7144
  414TMC3    C4 6177   1.789   2.835  15.928  0.6245  0.4072 -0.6638
  414TMC3    C5 6178   1.912   2.788  15.929 -0.2172  0.1156  1.1877
  414TMC3    C6 6179   1.947   2.666  15.985 -0.0523 -0.9293  0.4229
  414TMC3     C 6180   1.569   2.823  16.027 -0.6854 -0.3627 -0.6314
  414TMC3     O 6181   1.523   2.776  16.129 -0.3137  0.0490  0.2085
  414TMC3     H 6182   1.649   2.569  16.063 -0.3204  0.4355 -0.6081
  414TMC3    H1 6183   1.775   2.942  15.937  1.4253  0.4949 -0.3649
  414TMC3    H2 6184   2.049   2.629  15.980 -0.6902 -3.0489  3.0903
  414TMC3    C7 6185   2.010   2.831  15.835  0.1430  0.5609 -0.2525
  414TMC3    C8 6186   1.868   2.455  16.040  0.4309 -0.2903  0.6019
  414TMC3    O1 6187   2.106   2.760  15.818  0.1242  0.9678 -0.7578
  414TMC3    O2 6188   1.778   2.380  16.009 -0.0045 -0.5254 -0.0366
  415TMC3    C1 6189   1.973   0.967   9.972 -0.8398 -0.0644  0.3605
  415TMC3    C2 6190   2.041   1.056   9.895 -0.2168  0.1559 -0.3792
  415TMC3    C3 6191   1.960   1.131   9.819  0.1496  0.3433  0.4798
  415TMC3    C4 6192   1.834   0.961   9.986  0.4402  0.2388 -0.1061
  415TMC3    C5 6193   1.761   1.048   9.908 -0.7457  0.1060 -0.0708
  415TMC3    C6 6194   1.824   1.130   9.819 -0.0427  0.1026 -0.5994
  415TMC3     C 6195   2.041   0.886  10.074 -0.1368  0.1009 -0.7484
  415TMC3     O 6196   1.987   0.892  10.186 -0.5455 -0.0408 -0.4782
  415TMC3     H 6197   2.149   1.055   9.888 -0.2042  0.1088 -0.1868
  415TMC3    H1 6198   1.799   0.885  10.054  0.2885 -0.3251 -0.8192
  415TMC3    H2 6199   1.773   1.198   9.752  1.9180  0.2382 -1.9531
  415TMC3    C7 6200   1.614   1.058   9.907  0.6489 -0.4745  0.5292
  415TMC3    C8 6201   2.022   1.215   9.721  0.0090 -0.8560  0.1050
  415TMC3    O1 6202   1.559   1.110   9.814  0.1572  0.1086 -0.2905
  415TMC3    O2 6203   1.964   1.254   9.619 -0.5399  0.1003 -0.4473
  416MPD2     C 6204   3.296   0.239  11.055 -0.1897 -0.0398  0.7787
  416MPD2    C1 6205   3.340   0.163  11.156 -0.1812 -0.7046 -0.9650
  416MPD2    C2 6206   3.451   0.077  11.142 -0.2881 -0.2340 -0.0751
  416MPD2    C3 6207   3.519   0.086  11.024 -0.6842 -0.6155  0.1506
  416MPD2    C4 6208   3.490   0.183  10.931 -0.0107  0.9601  0.1879
  416MPD2    C5 6209   3.374   0.254  10.945 -0.2809  0.2206  0.1722
  416MPD2     H 6210   3.490   0.013  11.219 -0.2520 -1.2109 -0.9041
  416MPD2    H1 6211   3.540   0.192  10.836 -1.8560  0.7791 -0.7950
  416MPD2    H2 6212   3.210   0.303  11.068  0.7993  0.8411  2.9648
  416MPD2    H3 6213   3.330   0.317  10.868  0.4711  2.6943  1.7683
  416MPD2     N 6214   3.621   4.702  11.004  0.2793  0.0552  0.0229
  416MPD2    H5 6215   3.624   4.630  11.075 -3.2244  0.2515  0.3803
  416MPD2    N1 6216   3.255   0.159  11.267 -0.2467 -0.5421  0.4895
  416MPD2    H7 6217   3.162   0.198  11.249  1.0026  2.5427  0.6477
  417TMC3    C1 6218   3.174   0.122  11.490 -0.1374  0.0460  0.0387
  417TMC3    C2 6219   3.197   0.158  11.618  0.0710  0.3228  0.4383
  417TMC3    C3 6220   3.089   0.196  11.694 -0.6721 -0.3090  0.2479
  417TMC3    C4 6221   3.051   0.105  11.436  0.1365  0.7931 -0.7674
  417TMC3    C5 6222   2.943   0.132  11.520  0.3354 -0.1251  0.6166
  417TMC3    C6 6223   2.958   0.194  11.644  0.2049  0.4740 -0.5407
  417TMC3     C 6224   3.289   0.121  11.393  0.5074  0.2687  0.3405
  417TMC3     O 6225   3.395   0.078  11.425  0.3791 -0.0366 -0.3440
  417TMC3     H 6226   3.289   0.207  11.647 -1.2966  0.8120  4.0188
  417TMC3    H1 6227   3.032   0.077  11.333  1.4178 -0.8782 -0.5406
  417TMC3    H2 6228   2.876   0.235  11.701 -1.0689  0.1093 -2.1135
  417TMC3    C7 6229   2.831   0.189  11.446 -0.4336 -0.2360 -0.3557
  417TMC3    C8 6230   3.098   0.217  11.836  0.8941  0.1323 -0.3634
  417TMC3    O1 6231   2.812   0.309  11.464 -0.2961  0.0213 -0.0693
  417TMC3    O2 6232   3.003   0.201  11.908  0.1094  0.2501  0.1100
  418TMC3    C1 6233   3.091   1.136  17.450  0.0705 -0.3529 -0.1634
  418TMC3    C2 6234   3.018   1.253  17.420  0.4622 -0.1840  0.4939
  418TMC3    C3 6235   3.008   1.353  17.506  0.3317  0.5929 -0.3916
  418TMC3    C4 6236   3.140   1.113  17.576  0.3570 -1.3139  0.5344
  418TMC3    C5 6237   3.122   1.219  17.662  0.2364  0.1319 -0.4804
  418TMC3    C6 6238   3.067   1.342  17.633 -0.0713 -0.3915 -0.1505
  418TMC3     C 6239   3.116   1.033  17.342  0.3023  0.2699  0.1103
  418TMC3     O 6240   3.116   1.069  17.225  0.4360  0.0816 -0.0985
  418TMC3     H 6241   2.993   1.270  17.316  2.1002 -2.7613 -0.3285
  418TMC3    H1 6242   3.199   1.028  17.607  0.3694 -1.8068 -0.8117
  418TMC3    H2 6243   3.066   1.430   0.015  2.4492  0.4437 -1.2339
  418TMC3    C7 6244   3.073   1.165   0.101  0.5871 -0.0126 -0.3547
  418TMC3    C8 6245   2.876   1.392  17.540 -0.4534 -0.4356 -0.3148
  418TMC3    O1 6246   3.121   1.056   0.140  0.0402  0.0721 -0.0210
  418TMC3    O2 6247   2.865   1.498  17.598  0.3841 -0.3987 -0.4062
  419MPD2     C 6248   0.813   4.540  12.293 -0.3333 -0.3374  0.2461
  419MPD2    C1 6249   0.725   4.642  12.341 -0.1287  0.2991  0.1884
  419MPD2    C2 6250   0.702   4.646  12.478  0.6591 -0.4451 -0.7190
  419MPD2    C3 6251   0.756   4.553  12.567  0.2187  0.5319 -0.3190
  419MPD2    C4 6252   0.852   4.463  12.521 -0.2381  0.5702  0.7466
  419MPD2    C5 6253   0.868   4.453  12.381  0.7005 -0.4601 -0.0941
  419MPD2     H 6254   0.637   0.002  12.522  1.6525 -0.5874  0.9914
  419MPD2    H1 6255   0.908   4.393  12.582  1.0775 -0.8755 -2.1240
  419MPD2    H2 6256   0.830   4.530  12.186  1.5945  1.9084  0.3212
  419MPD2    H3 6257   0.938   4.377  12.350  0.3997  0.2458 -2.5066
  419MPD2     N 6258   0.721   4.568  12.703  0.6702 -0.9368  0.1928
  419MPD2    H5 6259   0.659   4.645  12.725  2.4363  0.0755  1.6462
  419MPD2    N1 6260   0.672   0.026  12.261  0.0414  0.6405 -0.2527
  419MPD2    H7 6261   0.631   0.106  12.307  2.4883  0.7900  1.6521
  420TMC3    C1 6262   0.702   4.541  12.925  0.5067 -0.1972  0.2499
  420TMC3    C2 6263   0.594   4.626  12.918 -0.5473 -0.3196  0.0495
  420TMC3    C3 6264   0.553   4.699  13.026  0.8781 -0.0309 -0.3338
  420TMC3    C4 6265   0.761   4.518  13.043  0.5042  0.2812 -0.3300
  420TMC3    C5 6266   0.714   4.589  13.153  0.3967  0.5198  0.3895
  420TMC3    C6 6267   0.617   4.685  13.146  0.0026  1.2394 -0.3994
  420TMC3     C 6268   0.756   4.485  12.805  0.1548 -0.9098 -0.3383
  420TMC3     O 6269   0.821   4.382  12.813  0.2458  0.1490 -0.1625
  420TMC3     H 6270   0.528   4.612  12.833  0.1806  0.8725 -0.7137
  420TMC3    H1 6271   0.846   4.451  13.046  1.8959  1.9962 -1.1160
  420TMC3    H2 6272   0.581   0.016  13.235 -0.9343  3.4945 -2.0552
  420TMC3    C7 6273   0.807   4.585  13.267  0.1134  0.5606 -0.2350
  420TMC3    C8 6274   0.448   0.080  13.003  0.3758 -0.4981  1.0766
  420TMC3    O1 6275   0.881   4.489  13.280  0.6523  0.2001  0.4707
  420TMC3    O2 6276   0.435   0.114  12.886  0.0675  0.3487  0.4830
  421TMC3    C1 6277   2.308   1.451  13.984  0.2285  0.4716 -0.4888
  421TMC3    C2 6278   2.290   1.559  14.062 -0.0242 -0.0335  0.2385
  421TMC3    C3 6279   2.361   1.565  14.182  0.5066 -0.8711 -0.5185
  421TMC3    C4 6280   2.368   1.337  14.023 -0.1563 -0.7435 -0.3337
  421TMC3    C5 6281   2.436   1.349  14.140 -0.0742 -0.0988  0.1375
  421TMC3    C6 6282   2.442   1.461  14.216  0.0260 -0.1229 -0.5856
  421TMC3     C 6283   2.287   1.464  13.844 -0.5783  0.0447  0.6719
  421TMC3     O 6284   2.303   1.575  13.790  0.1885 -0.5568  0.1774
  421TMC3     H 6285   2.233   1.642  14.023 -4.1897 -2.2135  1.6204
  421TMC3    H1 6286   2.388   1.254  13.955  1.0058 -1.7728  1.2836
  421TMC3    H2 6287   2.497   1.460  14.310 -0.4107 -2.7403 -0.3547
  421TMC3    C7 6288   2.507   1.232  14.182 -0.3541  0.5337 -0.2708
  421TMC3    C8 6289   2.358   1.683  14.255  0.2616  0.4508 -0.0149
  421TMC3    O1 6290   2.601   1.246  14.264 -0.0045  0.0174  0.3572
  421TMC3    O2 6291   2.253   1.739  14.262 -0.3393  0.2852 -0.4698
  422TMC3    C1 6292   4.655   2.686  12.858  0.6328 -0.1545  0.0022
  422TMC3    C2 6293   4.625   2.648  12.985  0.1176 -0.9701  0.5113
  422TMC3    C3 6294   4.508   2.692  13.040 -0.2218 -0.4981 -0.1349
  422TMC3    C4 6295   4.578   2.773  12.786 -0.0780  0.3560  0.5120
  422TMC3    C5 6296   4.457   2.813  12.842  0.4774 -0.0267 -0.1167
  422TMC3    C6 6297   4.421   2.778  12.977 -0.3597  0.1591 -0.7199
  422TMC3     C 6298   0.022   2.609  12.780  0.0781  0.1741  0.0060
  422TMC3     O 6299   0.062   2.666  12.680  0.3219  0.8072 -0.5551
  422TMC3     H 6300   4.699   2.593  13.042  0.6604  0.2901  1.0425
  422TMC3    H1 6301   4.600   2.808  12.686 -1.1950 -3.0784 -0.9251
  422TMC3    H2 6302   4.340   2.823  13.032 -0.0061  1.3671 -1.1965
  422TMC3    C7 6303   4.368   2.904  12.771 -0.2932 -0.5345 -0.1142
  422TMC3    C8 6304   4.529   2.730  13.183 -0.5945 -0.7331  0.0784
  422TMC3    O1 6305   4.418   2.951  12.673 -0.7032 -0.0838 -0.0271
  422TMC3    O2 6306   4.482   2.836  13.223  0.0191  0.0746  0.1026
  423MPD2     C 6307   1.607   3.227   1.179  0.4748  0.3204 -0.1257
  423MPD2    C1 6308   1.662   3.112   1.129  0.0091 -0.4949 -0.0574
  423MPD2    C2 6309   1.642   3.064   1.002  0.5253 -0.1474 -0.2379
  423MPD2    C3 6310   1.565   3.132   0.910  0.0747  0.4473  0.4954
  423MPD2    C4 6311   1.518   3.255   0.957  0.0721 -0.1330 -0.0481
  423MPD2    C5 6312   1.531   3.295   1.090 -0.6728  0.8687 -0.3811
  423MPD2     H 6313   1.687   2.971   0.969  0.5735 -0.6319  1.1705
  423MPD2    H1 6314   1.473   3.324   0.886  0.5320 -0.6754 -0.8747
  423MPD2    H2 6315   1.617   3.259   1.282 -2.1359  0.3026  0.1374
  423MPD2    H3 6316   1.499   3.394   1.119  2.1803  1.0885  2.0234
  423MPD2     N 6317   1.535   3.089   0.778  0.3123 -0.5159  0.5251
  423MPD2    H5 6318   1.491   3.149   0.709 -2.1198 -2.3563  0.4679
  423MPD2    N1 6319   1.760   3.039   1.203 -0.2076  0.4822  0.1389
  423MPD2    H7 6320   1.794   2.954   1.159  0.2003  0.7339 -0.0406
  424TMC3    C1 6321   1.914   2.977   1.377 -0.8189  0.1132 -0.1885
  424TMC3    C2 6322   1.997   2.909   1.287 -0.1872  0.1631 -0.1705
  424TMC3    C3 6323   2.078   2.808   1.330  0.0146 -0.2797 -0.3109
  424TMC3    C4 6324   1.901   2.936   1.511  0.1004  0.6532 -0.5786
  424TMC3    C5 6325   1.982   2.830   1.548  0.4390  0.0367 -0.3416
  424TMC3    C6 6326   2.071   2.769   1.462  0.2240  0.2433  0.2695
  424TMC3     C 6327   1.806   3.063   1.332 -0.3291  0.3250  0.0536
  424TMC3     O 6328   1.748   3.140   1.411  0.2561 -0.5071 -0.4094
  424TMC3     H 6329   1.980   2.926   1.182  1.1687 -0.4373 -0.4871
  424TMC3    H1 6330   1.835   2.989   1.579 -0.8371  1.2166 -1.9141
  424TMC3    H2 6331   2.131   2.685   1.496  1.4305  1.3816  0.9217
  424TMC3    C7 6332   1.975   2.774   1.684  1.2288 -0.2391  0.6707
  424TMC3    C8 6333   2.137   2.715   1.248 -0.1527 -0.4674 -0.5562
  424TMC3    O1 6334   2.050   2.678   1.702 -0.2247  0.3619  0.4049
  424TMC3    O2 6335   2.144   2.601   1.294 -0.0064  0.4232  0.0470
  425MPD2     C 6336   0.568   2.645   0.108  0.0600  0.9879 -0.3595
  425MPD2    C1 6337   0.496   2.584   0.001  0.7845 -0.1575  0.2984
  425MPD2    C2 6338   0.374   2.640  17.642  0.0193  0.0509 -0.1245
  425MPD2    C3 6339   0.327   2.756   0.014 -0.2359 -0.6511 -0.0746
  425MPD2    C4 6340   0.391   2.817   0.124 -0.5788  0.5482 -0.3096
  425MPD2    C5 6341   0.513   2.763   0.171  0.0728  0.3375 -0.2754
  425MPD2     H 6342   0.325   2.590  17.560 -0.5152  0.6174 -0.1537
  425MPD2    H1 6343   0.358   2.914   0.160 -1.1033  0.4393 -0.4969
  425MPD2    H2 6344   0.660   2.607   0.150 -0.3551  0.1363 -0.2182
  425MPD2    H3 6345   0.564   2.812   0.253 -1.4173  3.0554 -0.9740
  425MPD2     N 6346   0.206   2.805  17.634  0.2459  0.3224 -0.7880
  425MPD2    H5 6347   0.176   2.764  17.546 -0.2995  2.1721 -1.4525
  425MPD2    N1 6348   0.542   2.458  17.632 -0.0164 -0.4590  0.0075
  425MPD2    H7 6349   0.609   2.413   0.013 -0.9032 -1.5610  0.1742
  426TMC3    C1 6350   0.568   2.273  17.478 -0.0736 -0.0649  0.1311
  426TMC3    C2 6351   0.556   2.232  17.347  0.1866  0.0106 -0.7940
  426TMC3    C3 6352   0.601   2.112  17.310 -0.3127 -0.9168 -0.2535
  426TMC3    C4 6353   0.612   2.188  17.566 -0.5618  0.4452  0.2746
  426TMC3    C5 6354   0.640   2.057  17.536 -0.0043  0.3055  0.0740
  426TMC3    C6 6355   0.648   2.022  17.404  0.0984  0.0803 -0.2905
  426TMC3     C 6356   0.508   2.407  17.511  0.0682  0.3107 -0.2436
  426TMC3     O 6357   0.444   2.462  17.423 -0.5949 -0.6588 -0.7255
  426TMC3     H 6358   0.502   2.291  17.275  0.0035  0.7172 -0.0708
  426TMC3    H1 6359   0.615   2.223  17.669  1.0453  0.9199  0.0663
  426TMC3    H2 6360   0.678   1.920  17.381  3.0749  0.6051  1.2421
  426TMC3    C7 6361   0.699   1.978  17.642  0.0739  0.3783  0.0759
  426TMC3    C8 6362   0.565   2.066  17.178 -0.3713  0.3289 -0.6941
  426TMC3    O1 6363   0.778   1.887  17.611 -0.1448  0.7191 -0.0696
  426TMC3    O2 6364   0.647   2.012  17.104 -0.4579  0.0107 -0.1270
  427MPD2     C 6365   3.681   0.114  14.777 -0.2008  0.2787 -0.1423
  427MPD2    C1 6366   3.655   4.704  14.803 -0.2160  0.0144 -1.1097
  427MPD2    C2 6367   3.527   4.669  14.829  0.3916  0.6762 -0.4371
  427MPD2    C3 6368   3.426   0.044  14.854 -0.0439 -0.1389 -0.2654
  427MPD2    C4 6369   3.461   0.183  14.840 -0.4499  0.1212  0.0262
  427MPD2    C5 6370   3.588   0.212  14.802 -0.7698 -0.4558 -0.2270
  427MPD2     H 6371   3.515   4.562  14.842 -0.6311  0.8718  0.2756
  427MPD2    H1 6372   3.394   0.266  14.860 -2.6752 -1.1714 -2.0820
  427MPD2    H2 6373   3.777   0.153  14.746  0.2518 -0.8477 -0.1833
  427MPD2    H3 6374   3.623   0.313  14.787  1.1452 -0.9795  0.7496
  427MPD2     N 6375   3.294   0.015  14.908 -0.2188  0.0181  0.5257
  427MPD2    H5 6376   3.234   0.096  14.914 -2.9279 -2.0469  1.5253
  427MPD2    N1 6377   3.753   4.600  14.806 -0.0353 -0.5269  0.2833
  427MPD2    H7 6378   3.725   4.514  14.851 -0.7245 -0.8743 -0.8148
  428TMC3    C1 6379   3.977   4.504  14.788 -0.2799  0.7515  0.0648
  428TMC3    C2 6380   3.941   4.376  14.823 -0.4592  0.2369 -0.2361
  428TMC3    C3 6381   4.037   4.278  14.841 -0.1480 -0.0209  0.2948
  428TMC3    C4 6382   4.108   4.538  14.767  0.3876 -0.4402 -0.3216
  428TMC3    C5 6383   4.201   4.439  14.783  0.4003  0.7060  0.0389
  428TMC3    C6 6384   4.165   4.312  14.818  0.0997 -0.5393 -0.5883
  428TMC3     C 6385   3.880   4.613  14.758  0.8199 -0.1278 -0.3147
  428TMC3     O 6386   3.939   4.708  14.705  0.1730  0.2422 -0.0400
  428TMC3     H 6387   3.835   4.352  14.820  0.0348 -1.6994 -2.4575
  428TMC3    H1 6388   4.155   4.635  14.757 -0.1172 -0.3352 -1.6014
  428TMC3    H2 6389   4.238   4.234  14.838  0.1521  0.3070  2.5554
  428TMC3    C7 6390   4.324   4.489  14.846  0.3720 -0.2369 -0.0975
  428TMC3    C8 6391   4.020   4.151  14.921  0.3734  0.2998  0.5192
  428TMC3    O1 6392   4.382   4.411  14.921 -0.0704 -0.7005 -0.8218
  428TMC3    O2 6393   4.113   4.072  14.920 -0.0549 -0.2085 -0.5420
  429MPD2     C 6394   4.374   0.256  17.660  0.9704  1.0004 -0.0772
  429MPD2    C1 6395   4.409   0.146  17.593  0.7350  0.8074 -0.2502
  429MPD2    C2 6396   4.446   0.160  17.460  0.7805 -0.3515  0.2799
  429MPD2    C3 6397   4.449   0.279  17.393  0.0139 -0.0596 -1.0934
  429MPD2    C4 6398   4.421   0.393  17.473  0.2098  0.8023 -0.1079
  429MPD2    C5 6399   4.386   0.378  17.607 -0.0976  0.1995  0.5253
  429MPD2     H 6400   4.473   0.070  17.405 -0.9575 -0.8690  0.2964
  429MPD2    H1 6401   4.423   0.493  17.431 -2.4049  0.7858 -0.3052
  429MPD2    H2 6402   4.338   0.258   0.081 -1.4294 -0.3001 -0.8805
  429MPD2    H3 6403   4.354   0.463  17.665 -0.1620  0.5461 -0.0150
  429MPD2     N 6404   4.492   0.287  17.258 -0.0791 -0.0027  0.1553
  429MPD2    H5 6405   4.491   0.201  17.204 -0.7239  0.8752 -1.2108
  429MPD2    N1 6406   4.413   0.020  17.656 -0.6137  0.4391 -0.6178
  429MPD2    H7 6407   4.410   4.659  17.594  1.5716 -0.4385  0.3883
  430TMC3    C1 6408   4.567   0.366  17.050  0.4650  0.6218  0.7343
  430TMC3    C2 6409   4.484   0.290  16.975  0.4775  0.0474 -0.2404
  430TMC3    C3 6410   4.528   0.245  16.855  0.3710  0.5083 -0.1160
  430TMC3    C4 6411   4.700   0.389  17.017 -0.4175 -0.1200 -0.5786
  430TMC3    C5 6412   0.027   0.332  16.902 -0.1947 -0.0911 -0.5744
  430TMC3    C6 6413   4.661   0.269  16.819  0.3719 -0.3124  0.4455
  430TMC3     C 6414   4.540   0.397  17.192 -0.3049  0.3984  0.3894
  430TMC3     O 6415   4.579   0.500  17.238  0.5507 -1.0179 -0.1883
  430TMC3     H 6416   4.380   0.283  17.003  0.2824  0.8363 -0.7878
  430TMC3    H1 6417   0.058   0.417  17.087 -2.0312 -2.6444  2.2447
  430TMC3    H2 6418   4.690   0.231  16.721  1.6446  0.1047  0.6603
  430TMC3    C7 6419   0.146   0.259  16.928 -0.4130  0.2109  0.2755
  430TMC3    C8 6420   4.430   0.207  16.754 -0.1591 -0.0060  1.1411
  430TMC3    O1 6421   0.122   0.145  16.959 -0.2337 -0.0137 -0.1707
  430TMC3    O2 6422   4.473   0.179  16.638 -0.7240 -0.2176 -0.3254
  431MPD2     C 6423   0.659   0.676  12.631 -0.0237  0.0518 -0.4371
  431MPD2    C1 6424   0.741   0.695  12.530 -0.3927  0.6048  0.2876
  431MPD2    C2 6425   0.708   0.633  12.405  0.1177  0.5393 -0.2410
  431MPD2    C3 6426   0.588   0.560  12.389  0.2384 -0.0121 -0.2114
  431MPD2    C4 6427   0.515   0.543  12.504 -0.9790 -0.1456 -0.1454
  431MPD2    C5 6428   0.550   0.597  12.621 -0.2572 -0.3669  0.1486
  431MPD2     H 6429   0.781   0.659  12.329 -0.4240 -0.3407 -1.0737
  431MPD2    H1 6430   0.435   0.471  12.505 -0.4314 -0.7524  0.5224
  431MPD2    H2 6431   0.674   0.719  12.729  1.6866 -0.8232 -0.3232
  431MPD2    H3 6432   0.497   0.573  12.712 -0.4603  0.2238  0.1846
  431MPD2     N 6433   0.554   0.476  12.282  0.1337  0.1901  0.0850
  431MPD2    H5 6434   0.482   0.407  12.303  1.2939 -0.4868  1.8926
  431MPD2    N1 6435   0.859   0.775  12.536 -0.4849 -0.2390 -0.0563
  431MPD2    H7 6436   0.899   0.811  12.450 -1.0909  0.8877  0.1372
  432TMC3    C1 6437   0.578   0.370  12.065 -0.3494  0.1171 -0.2498
  432TMC3    C2 6438   0.574   0.385  11.928  0.1307  0.8550  0.5004
  432TMC3    C3 6439   0.643   0.283  11.859 -0.6122 -0.0289 -0.3530
  432TMC3    C4 6440   0.595   0.257  12.131  0.2238  0.7625  0.2594
  432TMC3    C5 6441   0.647   0.157  12.060 -0.9733  0.0804 -0.1332
  432TMC3    C6 6442   0.675   0.164  11.928  0.6861  0.0410  0.4855
  432TMC3     C 6443   0.606   0.485  12.151  0.1356  0.1692  0.1551
  432TMC3     O 6444   0.670   0.580  12.112 -0.1173 -0.4788 -0.2465
  432TMC3     H 6445   0.572   0.484  11.885  0.0405  0.4820 -0.3397
  432TMC3    H1 6446   0.601   0.254  12.239  0.2818  0.7741  0.2566
  432TMC3    H2 6447   0.710   0.078  11.873  0.2441 -0.0046  0.2714
  432TMC3    C7 6448   0.688   0.031  12.122  0.3156  1.1201  0.1778
  432TMC3    C8 6449   0.705   0.326  11.738  0.1785 -0.3150 -0.9790
  432TMC3    O1 6450   0.728   4.665  12.043  0.2662 -0.3006  0.2090
  432TMC3    O2 6451   0.645   0.418  11.675  0.4802 -0.3319 -0.4862
  433MPD2     C 6452   4.593   3.434  10.840 -0.1539 -0.1832  0.0864
  433MPD2    C1 6453   4.478   3.363  10.874 -0.0585 -0.1550  0.4528
  433MPD2    C2 6454   4.438   3.363  11.006  0.4908 -0.8542 -0.8417
  433MPD2    C3 6455   4.508   3.431  11.102  0.1131  0.4849 -0.8134
  433MPD2    C4 6456   4.624   3.494  11.068  0.2012 -0.8527  0.5246
  433MPD2    C5 6457   4.666   3.488  10.941  0.0726 -0.8499  1.4861
  433MPD2     H 6458   4.347   3.311  11.032  0.7395 -0.9595 -0.1866
  433MPD2    H1 6459   4.687   3.542  11.142 -1.0395 -0.5203  1.3735
  433MPD2    H2 6460   4.642   3.433  10.743  0.2735  0.2521  0.2998
  433MPD2    H3 6461   0.045   3.530  10.924  0.2359 -2.2421 -1.0413
  433MPD2     N 6462   4.465   3.424  11.242  0.1622 -0.2200 -0.3290
  433MPD2    H5 6463   4.423   3.336  11.272 -0.6510  0.3574  0.2314
  433MPD2    N1 6464   4.428   3.262  10.776 -0.8841  0.1207 -0.4377
  433MPD2    H7 6465   4.470   3.258  10.684  0.2153 -0.1402  0.0765
  434TMC3    C1 6466   4.345   3.047  10.714 -0.7438  0.5164  0.3571
  434TMC3    C2 6467   4.341   2.932  10.782  0.2003  0.3258 -0.7709
  434TMC3    C3 6468   4.408   2.828  10.725  0.4456 -0.1429 -0.3339
  434TMC3    C4 6469   4.404   3.068  10.590  0.5533 -0.3872  0.4940
  434TMC3    C5 6470   4.469   2.956  10.546  0.6218  0.0378  0.8982
  434TMC3    C6 6471   4.468   2.836  10.608  0.6397 -0.3224  0.0053
  434TMC3     C 6472   4.338   3.163  10.805  0.1807 -0.7656  0.0316
  434TMC3     O 6473   4.264   3.149  10.905  0.2690 -0.1232 -0.6173
  434TMC3     H 6474   4.280   2.920  10.870  0.6850 -1.3721 -0.6660
  434TMC3    H1 6475   4.403   3.156  10.528 -0.1277 -0.7218  0.0264
  434TMC3    H2 6476   4.523   2.749  10.573  0.0262  0.0600 -1.8991
  434TMC3    C7 6477   4.476   2.942  10.400 -0.6335 -0.2318 -0.1193
  434TMC3    C8 6478   4.485   2.745  10.824 -0.5082  0.1636  0.5373
  434TMC3    O1 6479   4.507   3.039  10.336  0.1763  0.1282  0.4652
  434TMC3    O2 6480   4.430   2.719  10.926  0.2212  0.3632  0.0701
  435MPD2     C 6481   2.131   3.240  15.834 -0.4266 -0.1702  0.6758
  435MPD2    C1 6482   2.069   3.248  15.959 -0.6618  0.5578 -0.0466
  435MPD2    C2 6483   2.146   3.219  16.072  0.4300 -0.0654  0.1410
  435MPD2    C3 6484   2.277   3.184  16.065  0.2182 -1.2497  0.2806
  435MPD2    C4 6485   2.335   3.189  15.939 -0.0974  0.0861 -0.0373
  435MPD2    C5 6486   2.261   3.212  15.826  0.1533 -0.3285  0.7630
  435MPD2     H 6487   2.095   3.236  16.166 -0.6009 -0.1182 -0.4098
  435MPD2    H1 6488   2.442   3.178  15.929 -0.1512 -0.0213 -0.4801
  435MPD2    H2 6489   2.089   3.251  15.735 -2.1238  4.2538  1.9018
  435MPD2    H3 6490   2.311   3.199  15.731 -0.1868  1.6528  0.3097
  435MPD2     N 6491   2.356   3.153  16.180  0.7375  0.9377  0.2430
  435MPD2    H5 6492   2.295   3.157  16.261  1.2102  0.9482  0.6004
  435MPD2    N1 6493   1.931   3.280  15.973  0.5422  0.6394  0.6053
  435MPD2    H7 6494   1.896   3.289  16.068  1.4398  1.6303  0.8391
  436TMC3    C1 6495   1.538   3.290  16.064  0.1545 -0.1493 -0.2652
  436TMC3    C2 6496   1.673   3.310  16.035 -0.0112  0.6970  0.3406
  436TMC3    C3 6497   1.710   3.316  15.907  0.1446 -0.0412 -0.4815
  436TMC3    C4 6498   1.440   3.287  15.971  1.4356 -0.3210 -0.4855
  436TMC3    C5 6499   1.479   3.324  15.839 -1.0259 -0.2694 -0.9174
  436TMC3    C6 6500   1.611   3.331  15.807 -0.1938  0.2757 -0.5721
  436TMC3     C 6501   1.511   3.253  16.200  0.7550 -0.2559  0.0387
  436TMC3     O 6502   1.592   3.174  16.250 -0.2312 -0.2297 -0.1348
  436TMC3     H 6503   1.744   3.309  16.117  0.7133 -0.2661 -0.2971
  436TMC3    H1 6504   1.341   3.259  16.004  0.8180  2.4540  0.0629
  436TMC3    H2 6505   1.638   3.359  15.706 -2.3794  2.2536 -0.6262
  436TMC3    C7 6506   1.382   3.353  15.735  0.3857  0.3374 -0.4685
  436TMC3    C8 6507   1.848   3.317  15.868 -0.1227 -0.7592 -0.0233
  436TMC3    O1 6508   1.415   3.321  15.620  0.4596 -0.1882  0.4129
  436TMC3    O2 6509   1.875   3.327  15.747 -0.3169 -0.0833 -0.0088
  437TMC3    C1 6510   0.288   0.913  12.691  0.9735  0.5183  0.5344
  437TMC3    C2 6511   0.162   0.954  12.657 -0.1613  0.1442  0.1026
  437TMC3    C3 6512   0.151   1.019  12.534 -0.2506 -0.0987 -0.0354
  437TMC3    C4 6513   0.397   0.933  12.612 -0.6313  0.2153 -0.1510
  437TMC3    C5 6514   0.381   0.991  12.494  0.2063  0.3685  0.0364
  437TMC3    C6 6515   0.256   1.026  12.450  0.0569 -0.2666 -0.1480
  437TMC3     C 6516   0.296   0.823  12.803  0.0867 -0.6670  0.4762
  437TMC3     O 6517   0.187   0.769  12.826  0.4482 -0.2403 -0.3529
  437TMC3     H 6518   0.075   0.952  12.721 -1.6459 -2.3163 -2.0401
  437TMC3    H1 6519   0.494   0.896  12.644 -0.2368  1.0933 -0.3159
  437TMC3    H2 6520   0.241   1.055  12.347  2.2697  0.8132 -0.1501
  437TMC3    C7 6521   0.499   1.053  12.415 -0.2121  0.9018 -0.2669
  437TMC3    C8 6522   0.016   1.069  12.499  0.9506  0.1002  0.2079
  437TMC3    O1 6523   0.462   1.134  12.328  0.0231 -0.2995  0.0359
  437TMC3    O2 6524   4.642   1.034  12.568  0.0119  0.2047  0.1908
  438MPD2     C 6525   2.882   1.618  16.643 -0.1460 -0.7091 -0.1518
  438MPD2    C1 6526   2.925   1.505  16.705  0.7094 -0.0088 -0.0941
  438MPD2    C2 6527   2.864   1.475  16.827  0.2919  0.9233  0.5564
  438MPD2    C3 6528   2.774   1.560  16.890 -0.0012  0.3685 -0.2148
  438MPD2    C4 6529   2.736   1.680  16.824  0.3449 -0.0783 -1.1861
  438MPD2    C5 6530   2.795   1.702  16.707 -0.1217  0.2588 -0.6428
  438MPD2     H 6531   2.894   1.382  16.876 -0.5792 -0.1486 -0.9353
  438MPD2    H1 6532   2.686   1.764  16.871  0.3659 -1.6247  1.6133
  438MPD2    H2 6533   2.920   1.644  16.546  0.4534 -1.2466 -0.0637
  438MPD2    H3 6534   2.764   1.797  16.666  1.3671  0.1873 -1.9109
  438MPD2     N 6535   2.705   1.525  17.013  0.4357  0.0842 -0.4949
  438MPD2    H5 6536   2.637   1.594  17.042  1.2012  1.2632 -1.4753
  438MPD2    N1 6537   3.011   1.419  16.652 -0.1267  0.4286 -0.6791
  438MPD2    H7 6538   3.030   1.336  16.708 -1.0988  1.7478  1.6322
  439TMC3    C1 6539   3.143   1.301  16.505 -0.7514 -0.1218 -0.2287
  439TMC3    C2 6540   3.134   1.263  16.371 -0.0688 -0.4244  0.1122
  439TMC3    C3 6541   3.185   1.134  16.338 -0.3854 -0.3857 -0.0265
  439TMC3    C4 6542   3.181   1.213  16.605 -0.3801  0.5191  0.1466
  439TMC3    C5 6543   3.207   1.086  16.572 -0.7066 -0.1265 -0.2566
  439TMC3    C6 6544   3.214   1.044  16.436 -0.6197  0.3151 -0.3807
  439TMC3     C 6545   3.070   1.427  16.531  0.4064  1.0824  0.1063
  439TMC3     O 6546   3.058   1.498  16.432  0.1254  0.0673  0.0176
  439TMC3     H 6547   3.100   1.328  16.292  1.7821 -0.7135 -0.9275
  439TMC3    H1 6548   3.184   1.237  16.711  0.0443  0.6679  0.1013
  439TMC3    H2 6549   3.243   0.943  16.410 -4.0726 -0.7656 -0.0497
  439TMC3    C7 6550   3.269   1.006  16.673 -0.3858 -0.5589  0.0398
  439TMC3    C8 6551   3.215   1.094  16.202  0.3168  0.1255  0.5807
  439TMC3    O1 6552   3.278   1.059  16.785 -0.2783  0.1978  0.1480
  439TMC3    O2 6553   3.230   0.977  16.176 -0.2104  0.1927  0.5052
  440MPD2     C 6554   1.707   1.957  14.947 -0.4181  0.6953 -0.6288
  440MPD2    C1 6555   1.715   2.046  15.055 -0.1460  0.5181 -0.1770
  440MPD2    C2 6556   1.797   2.017  15.160  0.4914  0.0940  0.1827
  440MPD2    C3 6557   1.859   1.894  15.163  0.2983 -0.0316  0.3264
  440MPD2    C4 6558   1.855   1.811  15.055 -0.3974  0.1266  0.5308
  440MPD2    C5 6559   1.780   1.848  14.947 -0.6885 -0.0356  0.2588
  440MPD2     H 6560   1.801   2.091  15.239 -1.1021  0.4672 -0.0897
  440MPD2    H1 6561   1.896   1.711  15.056  0.8308  0.6439  1.4202
  440MPD2    H2 6562   1.643   1.978  14.863  0.2671 -2.2531 -1.9029
  440MPD2    H3 6563   1.784   1.778  14.864  2.0880  1.8588 -1.1839
  440MPD2     N 6564   1.926   1.850  15.277  0.1550 -0.1694  0.5541
  440MPD2    H5 6565   1.967   1.757  15.272 -2.4061 -1.1368 -2.9208
  440MPD2    N1 6566   1.637   2.158  15.057  0.0612 -0.0488  0.0263
  440MPD2    H7 6567   1.625   2.202  15.148  0.4699  1.1479 -0.5095
  441TMC3    C1 6568   1.971   1.828  15.504 -0.4840 -0.2591  0.2258
  441TMC3    C2 6569   2.014   1.888  15.620  0.3968 -0.2989 -0.2409
  441TMC3    C3 6570   2.072   1.810  15.715  0.3020  0.4163  0.5333
  441TMC3    C4 6571   1.975   1.692  15.479 -0.1840  0.2059  0.2304
  441TMC3    C5 6572   2.028   1.620  15.584  0.0086 -0.9825 -0.5073
  441TMC3    C6 6573   2.079   1.675  15.700  0.3123 -0.0885 -1.1218
  441TMC3     C 6574   1.921   1.917  15.397 -0.0961  0.6407  0.0402
  441TMC3     O 6575   1.921   2.035  15.429 -0.2437  0.0980 -0.3542
  441TMC3     H 6576   2.007   1.996  15.623  2.1228 -0.2055  0.4849
  441TMC3    H1 6577   1.905   1.645  15.412 -0.3235 -0.6158  0.9618
  441TMC3    H2 6578   2.138   1.614  15.768 -0.3513 -1.4865 -1.7843
  441TMC3    C7 6579   1.977   1.493  15.606 -0.1355  0.2123 -0.3457
  441TMC3    C8 6580   2.109   1.871  15.840 -0.1548 -0.3755 -0.4798
  441TMC3    O1 6581   1.979   1.455  15.720  0.2857  0.2194 -1.0601
  441TMC3    O2 6582   2.165   1.793  15.916  0.1524  0.2758  0.2358
  442MPD2     C 6583   0.061   2.336  16.038 -0.1189  0.4713 -0.6623
  442MPD2    C1 6584   0.013   2.310  16.167  0.1951 -0.2557 -0.2291
  442MPD2    C2 6585   4.687   2.191  16.211 -0.3539  0.2622 -0.2174
  442MPD2    C3 6586   4.699   2.086  16.124 -0.0298 -0.4578 -0.2463
  442MPD2    C4 6587   0.010   2.109  15.989 -0.1651  0.5562  0.2845
  442MPD2    C5 6588   0.047   2.237  15.945 -0.5938 -1.5154 -0.3282
  442MPD2     H 6589   4.653   2.180  16.314  0.0677 -0.4074 -0.1485
  442MPD2    H1 6590   0.009   2.036  15.908 -1.1989  0.3126  0.5153
  442MPD2    H2 6591   0.093   2.437  16.014 -0.4825  0.6041 -0.5910
  442MPD2    H3 6592   0.069   2.243  15.839  0.2101 -1.9349 -0.1850
  442MPD2     N 6593   4.665   1.951  16.151 -0.0381  0.0633  0.0521
  442MPD2    H5 6594   4.661   1.888  16.072 -1.2337  0.5824 -0.3056
  442MPD2    N1 6595   0.012   2.430  16.246  0.3846 -0.1348  0.6382
  442MPD2    H7 6596   0.038   2.515  16.197 -1.4794 -1.4330 -2.5966
  443TMC3    C1 6597   4.659   2.583  16.404 -0.4083  1.0487  0.7155
  443TMC3    C2 6598   4.602   2.659  16.307 -0.4388 -0.1020  0.3018
  443TMC3    C3 6599   4.488   2.731  16.326 -0.0951 -0.0039  0.2766
  443TMC3    C4 6600   4.611   2.603  16.534  0.1803  0.1285  0.2795
  443TMC3    C5 6601   4.502   2.680  16.555 -0.2557 -0.1742 -0.3122
  443TMC3    C6 6602   4.436   2.741  16.451  0.0010  0.3405 -0.0280
  443TMC3     C 6603   4.688   2.444  16.376 -0.5972 -0.5262 -0.7531
  443TMC3     O 6604   4.661   2.359  16.467  0.2974 -0.0899  0.5816
  443TMC3     H 6605   4.635   2.653  16.204  2.9461 -0.1127  1.3837
  443TMC3    H1 6606   4.639   2.531  16.610  0.4405  0.0349  0.0963
  443TMC3    H2 6607   4.331   2.769  16.458 -0.1882 -0.5566  0.7452
  443TMC3    C7 6608   4.428   2.634  16.677  0.2027 -0.1471  0.6666
  443TMC3    C8 6609   4.393   2.661  16.247  0.3088  1.0119  0.6706
  443TMC3    O1 6610   4.466   2.541  16.745 -0.0124 -0.3431 -0.0172
  443TMC3    O2 6611   4.334   2.579  16.312 -0.5935 -0.4158 -0.1224
  444MPD2     C 6612   4.526   1.850  16.811  0.6501  0.2321 -0.6574
  444MPD2    C1 6613   4.532   1.785  16.932  0.1377  0.5678 -0.3627
  444MPD2    C2 6614   4.631   1.694  16.957  0.1310  0.1585  0.2344
  444MPD2    C3 6615   0.013   1.682  16.862 -0.4884 -0.7427 -0.4405
  444MPD2    C4 6616   0.008   1.752  16.745  0.2296  0.4184 -0.4001
  444MPD2    C5 6617   4.617   1.823  16.712  0.3743 -0.1376 -0.1511
  444MPD2     H 6618   4.648   1.659  17.058  0.4294 -1.2232 -0.2860
  444MPD2    H1 6619   0.076   1.730  16.664  0.0036 -0.2715 -0.4038
  444MPD2    H2 6620   4.445   1.918  16.788  0.1404 -0.4091 -0.7648
  444MPD2    H3 6621   4.609   1.857  16.609 -0.9049 -2.4290 -0.8133
  444MPD2     N 6622   0.119   1.597  16.898 -0.4758 -1.1818  0.3799
  444MPD2    H5 6623   0.097   1.551  16.986  1.6664  1.5305  2.3189
  444MPD2    N1 6624   4.432   1.807  17.026 -0.7521  0.2427  0.2369
  444MPD2    H7 6625   4.450   1.758  17.113 -0.9783  0.8071  0.6057
  445TMC3    C1 6626   0.328   1.490  16.882 -0.5354 -0.5343 -0.3625
  445TMC3    C2 6627   0.329   1.475  17.018  0.6835  0.1400  0.4301
  445TMC3    C3 6628   0.408   1.380  17.065 -0.3757 -0.0503  0.5319
  445TMC3    C4 6629   0.399   1.406  16.801  0.3635  0.3173  0.0335
  445TMC3    C5 6630   0.478   1.311  16.858 -0.9739 -0.2475  0.1142
  445TMC3    C6 6631   0.491   1.301  16.992 -0.2216 -0.2190  0.8057
  445TMC3     C 6632   0.229   1.569  16.816  0.2797 -0.4860  0.3432
  445TMC3     O 6633   0.252   1.583  16.698  0.0461 -0.2718  0.2226
  445TMC3     H 6634   0.283   1.553  17.078 -0.4235  0.3798 -0.7167
  445TMC3    H1 6635   0.392   1.409  16.693  0.8825  0.5931  0.0077
  445TMC3    H2 6636   0.554   1.225  17.038  2.2085 -0.2936 -2.6282
  445TMC3    C7 6637   0.558   1.224  16.774 -0.0636 -0.0340  0.5147
  445TMC3    C8 6638   0.412   1.373  17.210 -0.1852  0.1925  0.0539
  445TMC3    O1 6639   0.666   1.192  16.816  0.3589  0.2456  0.0566
  445TMC3    O2 6640   0.401   1.480  17.271  1.0134  0.0736  0.4671
  446MPD2     C 6641   4.064   2.518  11.344 -0.0756 -0.0955 -0.0771
  446MPD2    C1 6642   4.103   2.507  11.212 -0.8285 -0.2380 -0.1190
  446MPD2    C2 6643   4.216   2.578  11.172 -0.3079 -0.0972  0.5412
  446MPD2    C3 6644   4.289   2.655  11.259  0.0920  0.2573 -0.5594
  446MPD2    C4 6645   4.249   2.661  11.387  0.0603  0.1851  0.5885
  446MPD2    C5 6646   4.139   2.596  11.428 -0.7871  0.5387  0.1086
  446MPD2     H 6647   4.251   2.578  11.069 -2.1883  0.5511 -0.0968
  446MPD2    H1 6648   4.298   2.725  11.460  1.1061 -1.3449  1.2428
  446MPD2    H2 6649   3.983   2.462  11.389 -0.3264  0.1052 -0.2806
  446MPD2    H3 6650   4.111   2.624  11.529 -0.8829  1.0647 -0.0626
  446MPD2     N 6651   4.399   2.743  11.216  0.5551  0.4367  0.3165
  446MPD2    H5 6652   4.400   2.768  11.117 -2.3608 -0.3226  0.0861
  446MPD2    N1 6653   4.032   2.429  11.121 -0.3494  0.2610 -0.2604
  446MPD2    H7 6654   4.076   2.415  11.030 -1.9734  0.1973 -1.0336
  447TMC3    C1 6655   4.582   2.904  11.244 -0.1945  0.5972 -0.9633
  447TMC3    C2 6656   4.576   2.933  11.117  0.1645 -0.4896 -0.1977
  447TMC3    C3 6657   4.698   2.992  11.066 -0.1372  0.3824 -0.4679
  447TMC3    C4 6658   4.688   2.926  11.327  0.2074 -0.0663  0.6578
  447TMC3    C5 6659   0.065   3.003  11.277 -0.0261 -0.4166  0.3635
  447TMC3    C6 6660   0.079   3.029  11.149 -0.2968 -1.1189 -0.0188
  447TMC3     C 6661   4.488   2.803  11.299 -0.9185  0.3610  0.0014
  447TMC3     O 6662   4.514   2.761  11.410  0.4476 -0.0512 -0.0858
  447TMC3     H 6663   4.486   2.938  11.057  0.6380  0.9269 -0.8158
  447TMC3    H1 6664   4.691   2.888  11.428  1.1036 -2.3250 -0.2160
  447TMC3    H2 6665   0.150   3.103  11.116 -0.5316  0.3091  2.6956
  447TMC3    C7 6666   0.158   3.066  11.357 -0.3976 -0.2196  0.7847
  447TMC3    C8 6667   4.717   3.041  10.932  0.1032  0.6609  0.6133
  447TMC3    O1 6668   0.268   3.101  11.310 -0.4927 -0.0586  0.4300
  447TMC3    O2 6669   4.615   3.030  10.871 -0.0469  0.0742 -0.2666
  448TMC3    C1 6670   2.927   2.999  16.810 -0.5650  0.3182 -0.5055
  448TMC3    C2 6671   2.976   2.889  16.749 -0.0926  0.2305  0.1622
  448TMC3    C3 6672   2.995   2.777  16.834  0.9649  0.2919 -0.1417
  448TMC3    C4 6673   2.895   3.003  16.939 -0.0672  0.3252 -0.0834
  448TMC3    C5 6674   2.921   2.899  17.016 -0.1122  0.0838  0.2854
  448TMC3    C6 6675   2.969   2.779  16.972 -0.1602  0.3538 -0.0033
  448TMC3     C 6676   2.922   3.115  16.731 -0.5233 -0.3432  0.8889
  448TMC3     O 6677   2.919   3.105  16.610  0.1680  0.2698  0.5054
  448TMC3     H 6678   2.998   2.896  16.643 -3.6777 -2.0819 -0.7357
  448TMC3    H1 6679   2.841   3.088  16.980 -0.6418 -0.8303  1.5505
  448TMC3    H2 6680   2.982   2.694  17.037 -0.1121 -0.0138 -0.4976
  448TMC3    C7 6681   2.871   2.923  17.150 -0.5544 -0.4257 -0.2330
  448TMC3    C8 6682   3.047   2.653  16.772 -0.1095  0.0994  0.1352
  448TMC3    O1 6683   2.872   3.036  17.204  0.1194  0.5911 -0.2760
  448TMC3    O2 6684   3.064   2.553  16.844 -0.3960  0.3744  0.3848
  449MPD2     C 6685   4.194   1.282  13.936 -0.7725 -0.1212 -0.5567
  449MPD2    C1 6686   4.088   1.368  13.974  0.1983  1.1778  0.1960
  449MPD2    C2 6687   3.984   1.309  14.027  0.6439 -0.4471 -0.7071
  449MPD2    C3 6688   3.991   1.175  14.066 -0.0248  0.5776  0.6074
  449MPD2    C4 6689   4.095   1.094  14.033 -0.1189  0.3883  0.4126
  449MPD2    C5 6690   4.198   1.155  13.962  0.7605  0.2137  0.8522
  449MPD2     H 6691   3.888   1.355  14.044  0.5242 -1.4965  1.5580
  449MPD2    H1 6692   4.106   0.989  14.060 -0.8262 -0.1097 -1.2186
  449MPD2    H2 6693   4.279   1.314  13.877 -0.1444  0.9331  0.9167
  449MPD2    H3 6694   4.273   1.091  13.917  0.5833  0.7156 -0.1410
  449MPD2     N 6695   3.873   1.124  14.133 -0.3822  0.3000 -0.1377
  449MPD2    H5 6696   3.793   1.186  14.129 -1.4387 -1.1931 -1.8554
  449MPD2    N1 6697   4.066   1.498  13.928 -0.3117 -0.0170 -0.1659
  449MPD2    H7 6698   3.977   1.540  13.952  0.9101  0.9812  2.5992
  450TMC3    C1 6699   4.076   1.680  13.795  0.0994 -0.2486 -0.2789
  450TMC3    C2 6700   4.076   1.666  13.661  0.5527  0.0527  0.5757
  450TMC3    C3 6701   3.963   1.690  13.593  0.6766 -0.8030  0.1265
  450TMC3    C4 6702   3.964   1.726  13.862 -0.6917 -0.0922  0.5730
  450TMC3    C5 6703   3.846   1.739  13.791 -0.2469 -0.1025 -0.2872
  450TMC3    C6 6704   3.846   1.730  13.653  0.0430 -0.2800 -0.0425
  450TMC3     C 6705   4.151   1.582  13.867 -0.9279  0.2381 -0.7249
  450TMC3     O 6706   4.258   1.546  13.821 -0.0210  0.0204 -0.1763
  450TMC3     H 6707   4.167   1.632  13.612  0.4568  0.2468  0.2634
  450TMC3    H1 6708   3.962   1.730  13.970  0.7308 -0.0602  0.6009
  450TMC3    H2 6709   3.752   1.716  13.602  0.3675 -1.7535 -0.2368
  450TMC3    C7 6710   3.753   1.649  13.854  0.0974 -0.2811 -0.5926
  450TMC3    C8 6711   3.971   1.699  13.454 -0.6886  0.1275  0.7085
  450TMC3    O1 6712   3.797   1.585  13.946 -0.2865  0.2783  0.3262
  450TMC3    O2 6713   3.878   1.761  13.396 -0.1316  0.1508  0.1442
  451MPD2     C 6714   0.910   0.884   2.147 -1.5099 -0.3798  0.1202
  451MPD2    C1 6715   0.936   0.905   2.015 -0.4495  0.9543  0.2634
  451MPD2    C2 6716   1.010   0.807   1.940 -0.5902 -0.1802 -0.1135
  451MPD2    C3 6717   1.070   0.696   2.003 -0.2713  0.4855  0.3159
  451MPD2    C4 6718   1.030   0.673   2.128  0.5121 -0.5657  0.0672
  451MPD2    C5 6719   0.952   0.766   2.196  1.0537  0.6257 -0.3864
  451MPD2     H 6720   1.037   0.818   1.836  0.2715  2.3542  0.3740
  451MPD2    H1 6721   1.080   0.589   2.175  2.1923  0.2113 -0.3336
  451MPD2    H2 6722   0.876   0.957   2.219  0.2881 -1.4911  2.1258
  451MPD2    H3 6723   0.932   0.741   2.300  3.3112  0.9639  0.1248
  451MPD2     N 6724   1.167   0.605   1.941  0.8483 -0.1610  0.5867
  451MPD2    H5 6725   1.219   0.540   1.999  0.7348 -0.6127  0.1844
  451MPD2    N1 6726   0.868   1.009   1.949  0.2024  0.0161  0.3145
  451MPD2    H7 6727   0.806   1.064   2.006 -0.0817 -0.4549  0.4608
  452TMC3    C1 6728   1.313   0.538   1.767 -0.3651 -0.0429  0.3131
  452TMC3    C2 6729   1.320   0.417   1.828  0.2576 -0.4001 -0.0322
  452TMC3    C3 6730   1.395   0.317   1.762 -0.0758 -0.5915 -0.1754
  452TMC3    C4 6731   1.352   0.554   1.637 -0.4713 -0.1990  0.5728
  452TMC3    C5 6732   1.410   0.452   1.577 -0.4152 -0.2682  0.0971
  452TMC3    C6 6733   1.431   0.326   1.632 -0.8332 -0.2078 -0.5002
  452TMC3     C 6734   1.209   0.629   1.810 -0.5532  0.0276  0.4193
  452TMC3     O 6735   1.168   0.709   1.723 -0.1464  0.6124 -0.5327
  452TMC3     H 6736   1.285   0.404   1.930  0.8846  0.1324  0.2557
  452TMC3    H1 6737   1.335   0.648   1.585  0.6103 -1.3781 -1.9030
  452TMC3    H2 6738   1.465   0.238   1.579 -0.4291 -0.0426 -0.5154
  452TMC3    C7 6739   1.429   0.455   1.433  0.5760  0.1837 -0.2595
  452TMC3    C8 6740   1.422   0.194   1.835  0.7041 -0.2541  0.1585
  452TMC3    O1 6741   1.488   0.362   1.379 -0.1745 -0.1022 -0.8403
  452TMC3    O2 6742   1.357   0.153   1.934 -0.0316  0.2360  0.6843
  453TMC3    C1 6743   2.145   1.914  11.731  0.0812  0.1869 -0.6244
  453TMC3    C2 6744   2.155   1.834  11.842 -0.1556  0.3421 -0.7002
  453TMC3    C3 6745   2.082   1.721  11.841  0.6081  0.1657  0.0909
  453TMC3    C4 6746   2.084   1.870  11.621  0.1388 -0.4717  0.3388
  453TMC3    C5 6747   1.996   1.768  11.627 -0.0143  0.0239  0.0427
  453TMC3    C6 6748   2.006   1.686  11.733  0.4708 -0.7414  0.8021
  453TMC3     C 6749   2.191   2.054  11.746  0.2941 -0.5580 -1.1060
  453TMC3     O 6750   2.241   2.112  11.649  0.8373  0.1695 -0.1481
  453TMC3     H 6751   2.222   1.863  11.922 -0.1247 -0.3656 -0.4664
  453TMC3    H1 6752   2.076   1.940  11.538 -1.4056 -0.4487  0.5086
  453TMC3    H2 6753   1.968   1.585  11.735  1.8933 -1.2264  3.6654
  453TMC3    C7 6754   1.936   1.727  11.509 -0.6307 -0.3039 -0.0689
  453TMC3    C8 6755   2.062   1.661  11.973  0.5588 -0.0007 -0.8333
  453TMC3    O1 6756   1.982   1.785  11.411 -0.2653  0.0019 -0.2451
  453TMC3    O2 6757   2.141   1.700  12.058  0.1204  0.2622  0.0137
  454MPD2     C 6758   0.931   1.331  16.272 -0.2415  0.7013  0.7363
  454MPD2    C1 6759   0.867   1.399  16.167  0.4754  0.4238 -0.3680
  454MPD2    C2 6760   0.833   1.537  16.180 -0.6385  0.3267  0.5029
  454MPD2    C3 6761   0.871   1.603  16.289  0.3867 -0.4913  0.6499
  454MPD2    C4 6762   0.943   1.530  16.389 -0.6395  0.5021 -0.0643
  454MPD2    C5 6763   0.974   1.401  16.374  0.1480 -0.1079  0.2983
  454MPD2     H 6764   0.770   1.577  16.101 -3.7921  0.5820  3.1527
  454MPD2    H1 6765   0.969   1.587  16.478  0.3247  0.2449 -0.1737
  454MPD2    H2 6766   0.932   1.225  16.294 -2.3287  0.5927  0.2791
  454MPD2    H3 6767   1.023   1.345  16.454 -2.2192  1.4462  2.8551
  454MPD2     N 6768   0.816   1.733  16.324  0.1556  0.2557 -0.2900
  454MPD2    H5 6769   0.836   1.753  16.421  1.5950  0.2929 -0.5842
  454MPD2    N1 6770   0.826   1.332  16.050 -0.3207 -0.2903 -0.1385
  454MPD2    H7 6771   0.779   1.390  15.981  0.2342 -0.3720 -0.5831
  455TMC3    C1 6772   0.606   1.824  16.313  0.1050  0.3382 -0.3902
  455TMC3    C2 6773   0.612   1.854  16.450  0.1463 -0.9372 -0.3119
  455TMC3    C3 6774   0.499   1.833  16.522  0.8289  0.3222 -0.5925
  455TMC3    C4 6775   0.495   1.766  16.259 -0.0893  0.4462  0.1215
  455TMC3    C5 6776   0.392   1.730  16.343  0.3576 -0.4835  0.2801
  455TMC3    C6 6777   0.388   1.773  16.473  0.2096 -0.3199 -0.9332
  455TMC3     C 6778   0.733   1.801  16.245 -0.0599 -0.2709 -0.0235
  455TMC3     O 6779   0.728   1.787  16.124  0.0558 -0.1623  0.5896
  455TMC3     H 6780   0.691   1.913  16.495 -0.3903 -0.5748  0.1504
  455TMC3    H1 6781   0.500   1.730  16.157 -0.7422 -1.7317  0.8802
  455TMC3    H2 6782   0.305   1.745  16.537 -1.7710  1.7833 -2.5846
  455TMC3    C7 6783   0.315   1.616  16.298  0.3627 -0.4354 -0.2723
  455TMC3    C8 6784   0.499   1.892  16.652 -0.2151 -0.0485  0.0748
  455TMC3    O1 6785   0.322   1.595  16.175 -0.5436  0.5276 -0.5832
  455TMC3    O2 6786   0.609   1.910  16.701 -0.1420 -0.1035  0.9654
  456MPD2     C 6787   3.562   1.465  16.023 -0.4545  0.6474 -0.8904
  456MPD2    C1 6788   3.550   1.387  16.139  0.4439 -0.0717  0.2955
  456MPD2    C2 6789   3.507   1.445  16.256  0.5240 -0.2514  0.3171
  456MPD2    C3 6790   3.464   1.579  16.254 -0.0303  0.7732  0.1011
  456MPD2    C4 6791   3.489   1.652  16.142 -0.6543 -0.1891  0.0212
  456MPD2    C5 6792   3.532   1.595  16.029 -0.1579 -0.0650 -0.1706
  456MPD2     H 6793   3.498   1.392  16.350  1.0126  0.4629  0.7600
  456MPD2    H1 6794   3.458   1.755  16.133  0.0146  0.1451  1.4472
  456MPD2    H2 6795   3.577   1.421  15.925 -0.6377 -1.0565 -0.1569
  456MPD2    H3 6796   3.539   1.654  15.938  1.8378  2.4488  1.6176
  456MPD2     N 6797   3.411   1.633  16.376  0.1946  0.0805  0.3616
  456MPD2    H5 6798   3.421   1.581  16.462  1.3903 -0.2447  0.0317
  456MPD2    N1 6799   3.598   1.254  16.140  0.0804 -0.0333  0.9639
  456MPD2    H7 6800   3.636   1.218  16.054 -1.1778  0.7543  0.0790
  457TMC3    C1 6801   3.300   1.811  16.508  0.1689  0.0994  0.4514
  457TMC3    C2 6802   3.253   1.938  16.513  0.2371  0.8714 -0.0915
  457TMC3    C3 6803   3.182   1.992  16.618  0.3172 -0.5304  0.4259
  457TMC3    C4 6804   3.286   1.734  16.622 -0.0933 -0.0670 -0.5824
  457TMC3    C5 6805   3.208   1.787  16.719  0.9632 -0.1859  0.2789
  457TMC3    C6 6806   3.151   1.915  16.725  0.2896  0.2320 -0.0378
  457TMC3     C 6807   3.345   1.757  16.379  0.6575  0.0171  0.1230
  457TMC3     O 6808   3.322   1.827  16.283 -0.1142 -0.5409 -0.2689
  457TMC3     H 6809   3.290   2.010  16.440 -0.6254 -0.2083 -1.5921
  457TMC3    H1 6810   3.323   1.632  16.631 -0.2516 -0.3229 -2.9345
  457TMC3    H2 6811   3.117   1.961  16.817  1.1580  0.8908 -0.0440
  457TMC3    C7 6812   3.237   1.724  16.848 -0.2893  0.0050  0.6980
  457TMC3    C8 6813   3.154   2.132  16.631  0.5718  0.4112 -0.0670
  457TMC3    O1 6814   3.342   1.663  16.871 -0.5576 -0.1548  0.5120
  457TMC3    O2 6815   3.152   2.175  16.745 -1.0285 -0.6748 -0.2184
  458MPD2     C 6816   0.948   1.302  12.436  0.2004 -0.7929  0.1073
  458MPD2    C1 6817   0.933   1.238  12.554 -0.2769  0.0619  0.4707
  458MPD2    C2 6818   0.819   1.160  12.575  1.2417 -0.1240 -0.5612
  458MPD2    C3 6819   0.733   1.138  12.468 -0.8805  0.4421  0.1862
  458MPD2    C4 6820   0.752   1.196  12.348 -0.7420 -1.1342  0.0927
  458MPD2    C5 6821   0.865   1.272  12.332  0.3270  0.7280 -0.2601
  458MPD2     H 6822   0.791   1.122  12.672  0.8397  0.1335 -0.5773
  458MPD2    H1 6823   0.687   1.186  12.262 -2.0566  2.1527  0.6882
  458MPD2    H2 6824   1.029   1.373  12.422  0.4686 -1.0814  0.1898
  458MPD2    H3 6825   0.888   1.314  12.235 -3.1372 -3.1175 -2.7365
  458MPD2     N 6826   0.610   1.066  12.500 -0.8064  0.5867  0.5991
  458MPD2    H5 6827   0.606   1.032  12.595  1.6231  1.1783  0.9263
  458MPD2    N1 6828   1.033   1.264  12.648 -0.2421  0.1303  0.3462
  458MPD2    H7 6829   1.110   1.326  12.625  2.1931 -2.9098  0.3740
  459TMC3    C1 6830   1.161   1.238  12.849  0.8298  0.0288 -0.4343
  459TMC3    C2 6831   1.271   1.283  12.782 -0.0612  0.0741  0.4460
  459TMC3    C3 6832   1.396   1.275  12.845  0.2093  0.1924 -0.7977
  459TMC3    C4 6833   1.177   1.189  12.975  0.0106 -0.7298 -0.2629
  459TMC3    C5 6834   1.302   1.190  13.036  1.0858  1.0302  0.9196
  459TMC3    C6 6835   1.413   1.224  12.969 -0.7381 -0.2568  0.0589
  459TMC3     C 6836   1.040   1.203  12.776 -0.8604 -0.8122  0.0186
  459TMC3     O 6837   0.957   1.124  12.816  0.9311  0.5669 -0.3664
  459TMC3     H 6838   1.270   1.323  12.682  1.7541 -0.8577  0.0596
  459TMC3    H1 6839   1.091   1.165  13.037 -0.9296 -0.6676 -1.5591
  459TMC3    H2 6840   1.511   1.196  13.006 -1.4416 -1.8835  0.6880
  459TMC3    C7 6841   1.313   1.131  13.172  0.2388 -0.8299 -0.7213
  459TMC3    C8 6842   1.513   1.290  12.765 -0.1222 -0.0618 -0.1544
  459TMC3    O1 6843   1.221   1.060  13.214 -0.1011  0.1137  0.0552
  459TMC3    O2 6844   1.503   1.277  12.646  0.0814 -0.4446 -0.1868
  460MPD2     C 6845   0.300   3.038  10.733  0.6638  0.3998  0.7791
  460MPD2    C1 6846   0.171   3.073  10.753 -0.3990  0.1487  0.4351
  460MPD2    C2 6847   0.095   3.123  10.646  0.2019 -0.4278  0.8664
  460MPD2    C3 6848   0.154   3.135  10.519 -0.3422 -0.5275  0.3182
  460MPD2    C4 6849   0.283   3.098  10.501  0.2804 -0.1866  0.3518
  460MPD2    C5 6850   0.354   3.049  10.608 -0.5643 -0.8111  0.0079
  460MPD2     H 6851   4.712   3.151  10.666  0.4707  1.6191 -0.5933
  460MPD2    H1 6852   0.341   3.119  10.411  2.3104 -2.1342  1.2040
  460MPD2    H2 6853   0.369   3.014  10.813  1.4276  2.6638  0.7938
  460MPD2    H3 6854   0.462   3.043  10.602 -0.5254 -0.9144  0.7828
  460MPD2     N 6855   0.073   3.172  10.409 -0.0213 -0.4313  0.3087
  460MPD2    H5 6856   4.696   3.198  10.426 -0.2008 -1.0380  0.2103
  460MPD2    N1 6857   0.126   3.056  10.882 -0.5190 -0.1503 -0.4989
  460MPD2    H7 6858   0.205   3.038  10.944  1.1309 -0.5923 -2.7446
  461TMC3    C1 6859   0.008   3.203  10.189  0.5030  0.0953 -0.3156
  461TMC3    C2 6860   4.697   3.120  10.086  0.0606  0.8408 -0.1749
  461TMC3    C3 6861   4.634   3.178   9.979 -0.2670  0.4012 -0.2326
  461TMC3    C4 6862   4.695   3.332  10.198  0.8917 -0.0812 -0.6016
  461TMC3    C5 6863   4.642   3.390  10.082 -0.1722 -0.4895  0.2199
  461TMC3    C6 6864   4.608   3.314   9.970 -0.3676  0.0598  0.5849
  461TMC3     C 6865   0.104   3.143  10.276  0.0469 -0.4424  0.3660
  461TMC3     O 6866   0.203   3.090  10.226  0.0613  0.1443  0.2020
  461TMC3     H 6867   4.718   3.014  10.096  0.6615  0.9801  0.0698
  461TMC3    H1 6868   4.716   3.390  10.288 -0.2941  1.7894 -1.5240
  461TMC3    H2 6869   4.582   3.357   9.874 -1.3723 -2.5400 -0.3251
  461TMC3    C7 6870   4.590   3.530  10.084 -0.3782  0.1133 -0.4791
  461TMC3    C8 6871   4.612   3.090   9.868 -0.4736 -0.1511 -0.0616
  461TMC3    O1 6872   4.522   3.567   9.986 -0.1375 -0.3409 -0.1814
  461TMC3    O2 6873   4.671   2.980   9.869  0.0932 -0.5703  0.1041
  462TMC3    C1 6874   4.694   4.365  17.410  0.4998  0.7998 -0.3415
  462TMC3    C2 6875   4.652   4.272  17.315  0.1300  0.1472  0.3025
  462TMC3    C3 6876   4.612   4.147  17.361  0.7867  0.0657  0.2489
  462TMC3    C4 6877   4.679   4.342  17.546  0.0877 -0.4681 -0.0544
  462TMC3    C5 6878   4.628   4.224  17.579  0.4667 -0.0113  0.2261
  462TMC3    C6 6879   4.608   4.117  17.493 -0.0334 -0.6305  0.0261
  462TMC3     C 6880   0.006   4.496  17.357 -0.7144  0.4181  0.0678
  462TMC3     O 6881   0.030   4.512  17.237 -0.3894  0.1969  0.5443
  462TMC3     H 6882   4.668   4.291  17.209 -1.8502  3.8494  0.6604
  462TMC3    H1 6883   4.708   4.414  17.621  1.0715 -1.5290  0.5828
  462TMC3    H2 6884   4.552   4.030  17.525  0.2111 -1.2655 -1.2651
  462TMC3    C7 6885   4.595   4.186   0.035 -0.2066  0.1336  0.2888
  462TMC3    C8 6886   4.621   4.053  17.257  0.1436  0.4795 -0.0222
  462TMC3    O1 6887   4.508   4.102   0.064 -0.6007 -0.0563  0.0921
  462TMC3    O2 6888   4.571   4.074  17.144 -0.4818 -0.8711  0.1349
  463MPD2     C 6889   0.969   2.631   3.174  0.4185 -0.0403 -1.0351
  463MPD2    C1 6890   1.023   2.647   3.049  0.3599 -0.0948  0.3650
  463MPD2    C2 6891   1.113   2.748   3.030  0.5662  0.4059 -0.1802
  463MPD2    C3 6892   1.143   2.839   3.133  0.3369 -0.4421 -0.1460
  463MPD2    C4 6893   1.079   2.826   3.255 -1.0515 -0.1217 -0.6756
  463MPD2    C5 6894   0.989   2.720   3.274 -0.4164  0.4525 -0.0292
  463MPD2     H 6895   1.146   2.750   2.927 -2.7973  3.1291 -1.2398
  463MPD2    H1 6896   1.092   2.900   3.334 -0.9603 -1.0015  0.1395
  463MPD2    H2 6897   0.903   2.552   3.209 -0.6345  1.7998  1.1375
  463MPD2    H3 6898   0.944   2.710   3.372 -0.6241 -2.2638 -0.3971
  463MPD2     N 6899   1.213   2.958   3.105 -0.1743  0.5856  0.7556
  463MPD2    H5 6900   1.216   3.034   3.172  1.0936  1.4237 -0.2631
  463MPD2    N1 6901   0.973   2.573   2.937  0.1815  0.4364  0.1800
  463MPD2    H7 6902   1.007   2.592   2.843 -0.6529  1.4433  0.0874
  464TMC3    C1 6903   0.860   2.425   2.800  0.6653  0.1835 -0.4516
  464TMC3    C2 6904   0.930   2.474   2.693 -0.1563  0.1855  0.1509
  464TMC3    C3 6905   0.864   2.489   2.579 -0.0988  0.1612 -0.4738
  464TMC3    C4 6906   0.741   2.367   2.785  0.1511 -0.2410 -0.6181
  464TMC3    C5 6907   0.686   2.365   2.657  0.0171  0.4029 -0.1034
  464TMC3    C6 6908   0.750   2.426   2.549 -0.0646  0.3833  0.4010
  464TMC3     C 6909   0.888   2.466   2.934  0.6943  0.5002  0.4752
  464TMC3     O 6910   0.819   2.422   3.027 -0.0752  0.0277  0.4223
  464TMC3     H 6911   1.024   2.525   2.708 -0.9754  1.5209  0.7705
  464TMC3    H1 6912   0.692   2.325   2.872  0.0914  0.0776 -0.4980
  464TMC3    H2 6913   0.702   2.441   2.453 -0.6746  0.6762  0.7500
  464TMC3    C7 6914   0.561   2.300   2.633 -0.7592  0.1304 -0.1621
  464TMC3    C8 6915   0.925   2.590   2.490  0.5022 -0.1609 -0.1140
  464TMC3    O1 6916   0.495   2.245   2.720  0.4258 -0.0993 -0.2500
  464TMC3    O2 6917   0.848   2.659   2.420 -0.6171 -0.0199  0.0055
  465MPD2     C 6918   2.433   1.361  16.113 -1.2755  1.3709 -0.4442
  465MPD2    C1 6919   2.434   1.459  16.210 -0.2803  0.4165 -0.0837
  465MPD2    C2 6920   2.337   1.551  16.223  0.2918  0.6907 -0.3435
  465MPD2    C3 6921   2.230   1.545  16.131 -0.1755 -0.0427 -0.2718
  465MPD2    C4 6922   2.225   1.444  16.041  0.3263 -0.5104  0.1795
  465MPD2    C5 6923   2.326   1.349  16.029 -0.6642  0.1316  0.2168
  465MPD2     H 6924   2.342   1.637  16.289 -0.9519  3.4677 -3.8577
  465MPD2    H1 6925   2.134   1.423  15.987  0.4686 -1.2908  0.2396
  465MPD2    H2 6926   2.509   1.285  16.100 -0.9738  2.1565 -3.1370
  465MPD2    H3 6927   2.321   1.273  15.952 -2.6474 -0.3618  0.8160
  465MPD2     N 6928   2.122   1.630  16.161 -0.8454 -0.0195 -0.3441
  465MPD2    H5 6929   2.137   1.707  16.226  1.1708 -1.4805  0.8786
  465MPD2    N1 6930   2.538   1.447  16.307 -0.0378 -0.4504 -0.5152
  465MPD2    H7 6931   2.598   1.366  16.301  0.3962 -0.0341 -1.7520
  466TMC3    C1 6932   1.798   1.670  16.417  0.0723  0.4755  0.4169
  466TMC3    C2 6933   1.866   1.775  16.473  0.0069 -0.0962 -1.0018
  466TMC3    C3 6934   1.949   1.846  16.390 -0.2310 -0.5947  0.0107
  466TMC3    C4 6935   1.819   1.630  16.284  0.1745 -0.1356  0.7001
  466TMC3    C5 6936   1.903   1.699  16.202  0.4358 -0.0029  0.3295
  466TMC3    C6 6937   1.968   1.808  16.256  0.6580 -0.0353 -0.0901
  466TMC3     C 6938   1.741   1.576  16.515 -0.5649 -0.7755 -0.0971
  466TMC3     O 6939   1.723   1.618  16.630  0.7095  0.5668 -0.0121
  466TMC3     H 6940   1.855   1.810  16.575 -0.2807 -0.8488 -0.7721
  466TMC3    H1 6941   1.761   1.549  16.240 -0.5487  0.9091 -0.2831
  466TMC3    H2 6942   2.035   1.863  16.190 -0.8993 -0.6767 -2.1853
  466TMC3    C7 6943   1.993   1.614  16.122  0.2304 -0.0902 -0.8540
  466TMC3    C8 6944   2.056   1.928  16.436 -0.2806  0.0427  0.3753
  466TMC3    O1 6945   1.943   1.513  16.071  0.9137  0.2953 -0.3481
  466TMC3    O2 6946   2.162   1.925  16.376 -0.6261 -0.0751  0.9979
  467TMC3    C1 6947   2.634   0.220  14.049  0.0240  0.1877  0.0155
  467TMC3    C2 6948   2.551   0.318  13.992 -0.1892 -0.9281 -0.1666
  467TMC3    C3 6949   2.423   0.341  14.040 -0.6025 -1.2718  0.1827
  467TMC3    C4 6950   2.584   0.154  14.161 -1.0608 -0.2071  0.5901
  467TMC3    C5 6951   2.452   0.168  14.196 -0.6690  0.3554  0.3197
  467TMC3    C6 6952   2.369   0.259  14.139 -1.0942 -0.6633  0.2506
  467TMC3     C 6953   2.780   0.213  14.019  0.0287 -0.0433 -0.8840
  467TMC3     O 6954   2.819   0.246  13.910 -0.0396 -0.4390  0.5417
  467TMC3     H 6955   2.587   0.370  13.904  0.0332 -3.1289 -1.3541
  467TMC3    H1 6956   2.645   0.073  14.200 -1.6183 -0.1702  1.5323
  467TMC3    H2 6957   2.272   0.285  14.179 -1.6073 -0.2648 -1.2868
  467TMC3    C7 6958   2.411   0.073  14.300 -0.2041  0.5487 -0.1916
  467TMC3    C8 6959   2.358   0.465  14.002  0.1369 -0.0435  0.0427
  467TMC3    O1 6960   2.494   4.709  14.332 -0.4871 -0.6531 -0.0102
  467TMC3    O2 6961   2.235   0.471  14.007  0.5728 -0.1496  0.4193
  468MPD2     C 6962   1.687   2.964  11.520  0.2925 -0.0093  0.4805
  468MPD2    C1 6963   1.757   2.942  11.407 -0.2935  0.5682  0.1079
  468MPD2    C2 6964   1.819   2.821  11.387 -0.3183 -0.2841 -0.3467
  468MPD2    C3 6965   1.796   2.716  11.472 -0.5315 -0.2371 -0.4649
  468MPD2    C4 6966   1.712   2.731  11.582  0.3117  0.1040  0.1834
  468MPD2    C5 6967   1.658   2.856  11.606  0.8671 -0.9016  0.9671
  468MPD2     H 6968   1.892   2.809  11.308 -0.4998  0.3446 -0.6195
  468MPD2    H1 6969   1.690   2.645  11.644 -0.2621 -0.2104 -0.4660
  468MPD2    H2 6970   1.640   3.057  11.551 -0.4568  0.5917 -2.4325
  468MPD2    H3 6971   1.597   2.879  11.693 -0.6213  0.7109 -0.5285
  468MPD2     N 6972   1.822   2.584  11.436  0.3025 -0.2873  0.3928
  468MPD2    H5 6973   1.785   2.512  11.497 -1.9518  2.1295  1.8638
  468MPD2    N1 6974   1.789   3.045  11.310  0.0131 -0.1428  0.0349
  468MPD2    H7 6975   1.871   3.036  11.251 -0.2403  0.5221 -0.4221
  469TMC3    C1 6976   1.775   3.267  11.211 -0.2012  0.7037 -0.9296
  469TMC3    C2 6977   1.913   3.279  11.202  0.5540  0.4256  0.6847
  469TMC3    C3 6978   1.972   3.395  11.165 -0.3260  0.3194 -0.2973
  469TMC3    C4 6979   1.705   3.381  11.174 -0.9004 -0.4829 -1.0887
  469TMC3    C5 6980   1.769   3.481  11.100 -0.6160  0.0974  0.1244
  469TMC3    C6 6981   1.905   3.492  11.100  0.2934  0.1321 -0.2924
  469TMC3     C 6982   1.720   3.170  11.305 -0.2395 -0.7446  0.5335
  469TMC3     O 6983   1.606   3.191  11.347 -0.1158 -0.4780 -0.0033
  469TMC3     H 6984   1.973   3.206  11.256  1.5186  1.1706  0.6064
  469TMC3    H1 6985   1.598   3.384  11.190 -0.1819  1.2155  3.5835
  469TMC3    H2 6986   1.957   3.576  11.055  0.9395 -0.1339 -0.0351
  469TMC3    C7 6987   1.689   3.605  11.086 -0.0600  0.2957 -0.0630
  469TMC3    C8 6988   2.123   3.398  11.164  0.1579  0.5731  0.5543
  469TMC3    O1 6989   1.595   3.609  11.162  0.1099 -0.5095  0.2982
  469TMC3    O2 6990   2.189   3.302  11.128  0.1538  0.1361 -0.1225
  470TMC3    C1 6991   4.243   4.585   1.487  0.3934  0.2453  0.5931
  470TMC3    C2 6992   4.267   0.002   1.486  0.4434 -0.2843 -0.2887
  470TMC3    C3 6993   4.343   0.059   1.396  0.2708 -0.2428 -0.6520
  470TMC3    C4 6994   4.284   4.511   1.376  0.2540 -0.3012  0.7102
  470TMC3    C5 6995   4.348   4.577   1.273  0.2367  0.0739 -0.0474
  470TMC3    C6 6996   4.379   4.708   1.281 -0.1076  0.9443  0.5072
  470TMC3     C 6997   4.217   4.519   1.617 -0.0388  0.5007  0.1847
  470TMC3     O 6998   4.238   4.594   1.716 -0.3652 -0.4606  0.3776
  470TMC3     H 6999   4.225   0.068   1.561  1.3620  0.1823 -0.1943
  470TMC3    H1 7000   4.274   4.403   1.377 -1.7881 -0.1160  0.3448
  470TMC3    H2 7001   4.429   0.039   1.199  0.5534 -0.1358  0.2544
  470TMC3    C7 7002   4.336   4.516   1.137  0.2740  0.2489  0.5043
  470TMC3    C8 7003   4.366   0.202   1.418 -0.0615  0.7487 -0.1004
  470TMC3    O1 7004   4.378   4.587   1.044  0.1374  0.2323  0.2344
  470TMC3    O2 7005   4.275   0.271   1.459 -0.3973 -0.6026 -0.3292
  471MPD2     C 7006   3.957   0.170  16.557  0.0739 -0.0368  0.1441
  471MPD2    C1 7007   4.076   0.212  16.503 -0.7313  1.0253 -0.3303
  471MPD2    C2 7008   4.185   0.222  16.578  0.0335  0.0176 -1.3115
  471MPD2    C3 7009   4.182   0.195  16.715 -0.7409 -0.5209  0.7365
  471MPD2    C4 7010   4.057   0.169  16.773  0.2890  0.3208 -0.2148
  471MPD2    C5 7011   3.950   0.155  16.693  0.1591 -0.4517 -0.3157
  471MPD2     H 7012   4.266   0.268  16.522  1.4064  0.4504  1.0396
  471MPD2    H1 7013   4.034   0.151  16.878 -3.9148  1.6055 -0.8936
  471MPD2    H2 7014   3.871   0.158  16.492 -1.1410 -0.3349  1.7884
  471MPD2    H3 7015   3.859   0.133  16.747 -0.2095  0.0717 -0.7340
  471MPD2     N 7016   4.300   0.206  16.802  0.3808 -0.7999  0.2837
  471MPD2    H5 7017   4.283   0.213  16.902  0.4912 -1.9378  0.3806
  471MPD2    N1 7018   4.090   0.253  16.368  0.7363 -0.4443  0.3904
  471MPD2    H7 7019   4.184   0.264  16.332  1.1298 -1.6978  1.0315
  472TMC3    C1 7020   4.052   0.258  16.138  0.3636 -0.4512  0.3870
  472TMC3    C2 7021   4.036   0.150  16.053 -0.4322  0.1399  0.7322
  472TMC3    C3 7022   4.140   0.112  15.983  0.0275 -0.3470  0.7382
  472TMC3    C4 7023   4.170   0.325  16.144  0.2745  0.1855 -0.2895
  472TMC3    C5 7024   4.276   0.267  16.078  0.0467  0.2919 -0.0672
  472TMC3    C6 7025   4.266   0.160  15.989 -0.0399 -0.3305 -0.7379
  472TMC3     C 7026   3.989   0.242  16.268  0.3707 -0.0023  0.1759
  472TMC3     O 7027   3.878   0.197  16.276 -0.6211  0.1261 -0.5027
  472TMC3     H 7028   3.937   0.113  16.030  0.6735 -0.5059 -2.9455
  472TMC3    H1 7029   4.178   0.419  16.198  0.4161  1.1560 -1.9874
  472TMC3    H2 7030   4.348   0.108  15.941 -0.4315 -1.1132 -0.5653
  472TMC3    C7 7031   4.391   0.262  16.176 -0.1171  0.3153 -0.0395
  472TMC3    C8 7032   4.117   4.699  15.934  0.3652  1.0974 -0.0869
  472TMC3    O1 7033   4.370   0.306  16.289 -0.3940  0.5067 -0.5440
  472TMC3    O2 7034   4.159   4.660  15.823 -0.1676 -0.2834  0.7257
  473MPD2     C 7035   4.462   2.521  13.730 -0.0240  0.1775  0.2123
  473MPD2    C1 7036   4.440   2.654  13.729  0.7577 -0.3472 -0.1792
  473MPD2    C2 7037   4.497   2.730  13.823  0.0161  0.2845  0.3772
  473MPD2    C3 7038   4.584   2.679  13.921 -0.4716 -0.1188 -0.2474
  473MPD2    C4 7039   4.608   2.543  13.924 -1.3079 -0.6160  0.1069
  473MPD2    C5 7040   4.549   2.469  13.829  0.2617  0.3011  0.4579
  473MPD2     H 7041   4.487   2.837  13.811 -0.3034  0.2781  0.5943
  473MPD2    H1 7042   4.683   2.497  13.988  0.1142 -0.0370 -1.1580
  473MPD2    H2 7043   4.418   2.460  13.653  1.1140 -1.4524  0.8654
  473MPD2    H3 7044   4.574   2.364  13.820  2.2387  0.7455  0.9297
  473MPD2     N 7045   4.656   2.765  14.002 -0.2915  0.0759 -0.1378
  473MPD2    H5 7046   0.024   2.724  14.034 -0.0476 -0.0683 -1.0012
  473MPD2    N1 7047   4.364   2.721  13.630  0.2574  0.0151  0.3720
  473MPD2    H7 7048   4.360   2.822  13.640  0.2484  0.1192 -0.6940
  474TMC3    C1 7049   0.049   2.947  14.088 -0.2730 -0.1669 -0.6315
  474TMC3    C2 7050   0.088   3.075  14.074  0.1836  0.9713  0.2829
  474TMC3    C3 7051   0.203   3.113  14.134  0.1354  0.4362  0.8825
  474TMC3    C4 7052   0.120   2.863  14.171  0.1424  0.0241 -0.4842
  474TMC3    C5 7053   0.243   2.900  14.209 -0.2900  0.3602 -0.4869
  474TMC3    C6 7054   0.288   3.026  14.195 -0.3168  0.1092 -0.0186
  474TMC3     C 7055   4.650   2.899  14.013  0.3221  0.3832 -0.8409
  474TMC3     O 7056   4.581   2.981  13.957 -0.2354  0.2723  0.3990
  474TMC3     H 7057   0.036   3.142  14.007 -1.4861  0.4713  1.0803
  474TMC3    H1 7058   0.087   2.764  14.200  1.3700 -0.6231 -1.3327
  474TMC3    H2 7059   0.391   3.057  14.215 -0.6402  1.3768 -0.3301
  474TMC3    C7 7060   0.303   2.818  14.317  0.0098 -0.1697 -0.2125
  474TMC3    C8 7061   0.266   3.221  14.059 -0.0877 -0.0818  0.1591
  474TMC3    O1 7062   0.295   2.697  14.309  0.3249 -0.3461  0.1730
  474TMC3    O2 7063   0.380   3.204  14.019 -0.3872  0.3432 -0.4508
  475MPD2     C 7064   1.609   1.375  10.589  0.2527  0.2919 -0.6659
  475MPD2    C1 7065   1.632   1.326  10.461 -0.3958 -0.2860 -0.4097
  475MPD2    C2 7066   1.535   1.313  10.372 -0.2237 -0.0061  0.1214
  475MPD2    C3 7067   1.406   1.339  10.402  0.0771  0.2827  0.3758
  475MPD2    C4 7068   1.383   1.380  10.537  1.1050 -0.0865  0.2225
  475MPD2    C5 7069   1.481   1.393  10.628  0.7819  0.0772  0.0149
  475MPD2     H 7070   1.562   1.284  10.271  0.0335  4.7130 -1.1681
  475MPD2    H1 7071   1.286   1.406  10.576  0.7158  0.6550 -1.2162
  475MPD2    H2 7072   1.694   1.393  10.654  0.2111  0.0736 -0.5523
  475MPD2    H3 7073   1.467   1.421  10.731  0.4845  0.7225 -0.1986
  475MPD2     N 7074   1.310   1.331  10.297 -0.0617  0.0511 -0.1209
  475MPD2    H5 7075   1.344   1.296  10.208 -0.4245 -0.3417 -0.1049
  475MPD2    N1 7076   1.768   1.294  10.435  0.5848 -0.7350  0.3630
  475MPD2    H7 7077   1.826   1.309  10.517 -0.1232  0.2367  0.7003
  476TMC3    C1 7078   1.954   1.188  10.363 -0.4042 -0.2886 -0.4798
  476TMC3    C2 7079   2.032   1.207  10.253 -0.5101  0.1968  0.1145
  476TMC3    C3 7080   2.169   1.207  10.265 -0.4811  0.0381  1.0312
  476TMC3    C4 7081   2.011   1.179  10.488  1.3242  0.1793  0.0912
  476TMC3    C5 7082   2.151   1.170  10.497 -0.4691 -0.0941 -0.0725
  476TMC3    C6 7083   2.228   1.201  10.391  0.0521 -0.4141 -0.1400
  476TMC3     C 7084   1.817   1.222  10.333 -0.4586 -0.4870 -0.6757
  476TMC3     O 7085   1.764   1.179  10.231 -0.3713  0.7751  0.1253
  476TMC3     H 7086   1.986   1.218  10.155  1.3230  2.0322 -0.5344
  476TMC3    H1 7087   1.953   1.157  10.578  0.8553 -1.8298 -0.6884
  476TMC3    H2 7088   2.333   1.201  10.415  0.4862 -2.5492 -2.0530
  476TMC3    C7 7089   2.215   1.176  10.631 -0.0047  0.0558  0.9028
  476TMC3    C8 7090   2.243   1.205  10.143  0.2226 -0.4081 -0.3118
  476TMC3    O1 7091   2.183   1.084  10.714 -0.3282  0.7891 -0.3683
  476TMC3    O2 7092   2.205   1.278  10.050 -0.1890  0.0822 -0.3597
  477MPD2     C 7093   0.486   2.488  11.840  0.6498  0.1620 -0.9789
  477MPD2    C1 7094   0.410   2.379  11.832 -0.4184 -1.3883 -0.3131
  477MPD2    C2 7095   0.440   2.268  11.907  0.4090  0.2532  0.2396
  477MPD2    C3 7096   0.538   2.277  12.003  0.0317 -0.3561 -0.2403
  477MPD2    C4 7097   0.618   2.389  12.006 -0.1160  0.1049 -0.4671
  477MPD2    C5 7098   0.592   2.496  11.926  0.7412 -0.2016 -0.7344
  477MPD2     H 7099   0.384   2.176  11.900 -1.2475  1.0858  2.7000
  477MPD2    H1 7100   0.699   2.382  12.078  0.4614 -0.3182 -1.1649
  477MPD2    H2 7101   0.464   2.579  11.786  0.4052  0.5306 -0.2664
  477MPD2    H3 7102   0.656   2.583  11.926 -0.5944  0.7787  1.8426
  477MPD2     N 7103   0.538   2.173  12.098 -0.7199 -0.5583 -0.7038
  477MPD2    H5 7104   0.489   2.087  12.077  0.3088 -1.0451 -1.1249
  477MPD2    N1 7105   0.306   2.375  11.738 -0.6291 -0.3778 -0.5425
  477MPD2    H7 7106   0.289   2.461  11.688 -1.2509  0.6931  1.5423
  478TMC3    C1 7107   0.099   2.326  11.635 -0.2403 -0.3884  0.5131
  478TMC3    C2 7108   4.691   2.341  11.682  0.0118 -0.2650 -0.9358
  478TMC3    C3 7109   4.608   2.420  11.608  0.0297  0.2919 -0.3777
  478TMC3    C4 7110   0.143   2.380  11.518 -0.5971  0.6484 -0.2160
  478TMC3    C5 7111   0.056   2.448  11.441 -0.0181 -0.0010  0.0132
  478TMC3    C6 7112   4.649   2.476  11.490 -0.2159 -0.2305 -0.0682
  478TMC3     C 7113   0.201   2.285  11.731 -0.5615 -0.5703 -0.2495
  478TMC3     O 7114   0.157   2.209  11.820  0.2172  0.4873 -0.5185
  478TMC3     H 7115   4.656   2.301  11.777  2.5805  1.1176  0.5802
  478TMC3    H1 7116   0.242   2.357  11.479 -1.5011 -2.6652 -0.5414
  478TMC3    H2 7117   4.581   2.545  11.441  1.0514  1.1130  0.0501
  478TMC3    C7 7118   0.112   2.530  11.331 -0.4546 -0.1970  0.5604
  478TMC3    C8 7119   4.500   2.487  11.689  0.2796 -0.0961 -0.9039
  478TMC3    O1 7120   0.238   2.544  11.329 -0.3248  0.4414  0.3028
  478TMC3    O2 7121   4.463   2.427  11.790  0.2128 -0.3507 -0.6464
  479MPD2     C 7122   4.519   0.058  14.767 -0.3040  0.2005 -0.1018
  479MPD2    C1 7123   4.459   4.682  14.848 -0.7058 -0.1668  0.0488
  479MPD2    C2 7124   4.500   4.679  14.980  0.8956 -0.9165  0.5074
  479MPD2    C3 7125   4.584   0.056  15.034  0.1647 -0.0918  0.9135
  479MPD2    C4 7126   4.642   0.147  14.950  0.4022  0.3403  0.5318
  479MPD2    C5 7127   4.608   0.144  14.818 -0.6942  0.0240  0.2982
  479MPD2     H 7128   4.457   4.607  15.049  0.3906 -1.2589 -0.1586
  479MPD2    H1 7129   4.705   0.231  14.978  0.3180  1.1888 -1.7981
  479MPD2    H2 7130   4.486   0.083  14.667  0.5704 -2.1976 -1.0051
  479MPD2    H3 7131   4.650   0.221  14.754 -0.8213 -0.0117  0.1716
  479MPD2     N 7132   4.622   0.061  15.176  0.2113 -0.5717  0.1723
  479MPD2    H5 7133   4.666   0.146  15.207  1.0138  0.0104 -2.5241
  479MPD2    N1 7134   4.372   4.601  14.789  0.1646  0.2228  0.6438
  479MPD2    H7 7135   4.331   4.635  14.703 -0.2165 -0.9096  0.3836
  480TMC3    C1 7136   4.405   4.605  15.516  0.5221 -0.1858  0.6039
  480TMC3    C2 7137   4.322   4.713  15.519  0.4647 -0.0516 -1.2135
  480TMC3    C3 7138   4.364   0.099  15.444  0.3555 -0.1581 -0.6125
  480TMC3    C4 7139   4.535   4.614  15.476 -0.1016 -0.0130 -0.2943
  480TMC3    C5 7140   4.568   0.006  15.403  0.1609  0.0871  0.4532
  480TMC3    C6 7141   4.489   0.116  15.396 -0.5843  0.3176  0.3613
  480TMC3     C 7142   4.347   4.466  15.544 -0.0885  0.3574  0.3755
  480TMC3     O 7143   4.420   4.374  15.572  0.2115 -0.0197  0.4792
  480TMC3     H 7144   4.230   4.713  15.576  1.0714  0.9098 -0.2319
  480TMC3    H1 7145   4.588   4.521  15.462 -0.8831 -0.5167  0.1387
  480TMC3    H2 7146   4.517   0.206  15.343 -1.7777 -0.6671 -1.9586
  480TMC3    C7 7147   4.583   4.684  15.269 -0.1520  0.1615  0.5547
  480TMC3    C8 7148   4.257   0.104  15.339  0.3542 -0.0243 -0.2368
  480TMC3    O1 7149   4.543   4.572  15.244 -0.2933  0.0998 -0.0572
  480TMC3    O2 7150   4.160   0.035  15.366 -0.6892  0.1858  0.5836
  481MPD2     C 7151   1.574   4.456  14.369 -0.1715  0.3140  0.0021
  481MPD2    C1 7152   1.471   4.369  14.354 -0.3477  0.1307  0.3747
  481MPD2    C2 7153   1.457   4.277  14.453 -0.9502 -0.8889 -0.6237
  481MPD2    C3 7154   1.527   4.272  14.570 -0.2396 -0.5270 -0.8520
  481MPD2    C4 7155   1.625   4.364  14.582  0.2827 -0.3727  0.4819
  481MPD2    C5 7156   1.646   4.454  14.485 -0.3464 -0.4038 -0.9158
  481MPD2     H 7157   1.379   4.202  14.444  1.1137 -3.0576 -0.4745
  481MPD2    H1 7158   1.693   4.368  14.666  1.8444  1.9679 -0.8641
  481MPD2    H2 7159   1.603   4.523  14.288 -1.4842 -1.8169 -2.2265
  481MPD2    H3 7160   1.739   4.511  14.484 -0.0407 -0.9029 -1.1995
  481MPD2     N 7161   1.501   4.186  14.680  0.2201  0.1568  0.5417
  481MPD2    H5 7162   1.555   4.204  14.765 -1.6877 -0.8349  1.9762
  481MPD2    N1 7163   1.390   4.371  14.238 -0.5667 -0.5492  0.1410
  481MPD2    H7 7164   1.411   4.446  14.172  2.1228 -0.7435  0.7669
  482TMC3    C1 7165   1.262   4.299  14.059 -0.1367 -0.3409 -0.4319
  482TMC3    C2 7166   1.218   4.186  13.991 -0.6261 -0.4276  1.4843
  482TMC3    C3 7167   1.148   4.206  13.875 -0.5190 -0.3860  0.1043
  482TMC3    C4 7168   1.239   4.426  14.007  0.9458  0.3818 -0.3498
  482TMC3    C5 7169   1.176   4.439  13.884  0.3942  0.0721 -0.3114
  482TMC3    C6 7170   1.122   4.326  13.822  0.4708  0.1564 -0.3731
  482TMC3     C 7171   1.301   4.278  14.199  0.9138  0.1876 -0.2107
  482TMC3     O 7172   1.263   4.171  14.247  0.0189  0.3642  0.3298
  482TMC3     H 7173   1.233   4.085  14.027  1.8878 -1.0092 -1.1839
  482TMC3    H1 7174   1.268   4.516  14.060  0.3467  1.0360 -1.1360
  482TMC3    H2 7175   1.074   4.329  13.725 -0.4003  0.4309  0.0712
  482TMC3    C7 7176   1.148   4.572  13.827 -0.8786  0.1310  0.4304
  482TMC3    C8 7177   1.094   4.086  13.823 -0.6516 -0.3075 -0.5356
  482TMC3    O1 7178   1.183   4.669  13.889 -0.3214 -0.2890  0.1162
  482TMC3    O2 7179   1.158   3.986  13.837 -0.4303  0.1821  0.2904
  483TMC3    C1 7180   3.611   3.010   1.013 -0.5933 -0.1560  0.4272
  483TMC3    C2 7181   3.683   3.133   1.015  0.3937 -0.4538 -0.1994
  483TMC3    C3 7182   3.783   3.133   1.103  0.7945 -0.2572  0.2957
  483TMC3    C4 7183   3.651   2.895   1.081 -0.2539  0.5273 -0.1023
  483TMC3    C5 7184   3.763   2.901   1.155  0.7270 -0.4470  0.1679
  483TMC3    C6 7185   3.823   3.022   1.175 -0.2151 -0.5351 -0.3617
  483TMC3     C 7186   3.503   3.000   0.917 -0.1510 -0.8549  0.1087
  483TMC3     O 7187   3.470   3.100   0.856 -0.3448 -0.4459 -0.1261
  483TMC3     H 7188   3.648   3.226   0.971 -1.0929 -1.3513 -0.9125
  483TMC3    H1 7189   3.594   2.803   1.091  0.6164  0.1486  1.3536
  483TMC3    H2 7190   3.918   3.035   1.227 -1.3150 -1.6472  1.9302
  483TMC3    C7 7191   3.824   2.783   1.209  0.5712  0.0069  0.2478
  483TMC3    C8 7192   3.871   3.249   1.097 -0.0895 -0.0049 -0.1237
  483TMC3    O1 7193   3.907   2.804   1.297  0.3620 -0.1597 -0.2690
  483TMC3    O2 7194   3.872   3.304   0.990  0.2259  0.2784  0.4255
  484MPD2     C 7195   1.852   1.419  12.864  0.0588 -0.3070  0.3151
  484MPD2    C1 7196   1.759   1.342  12.795  0.2151 -0.6204 -0.3848
  484MPD2    C2 7197   1.800   1.277  12.682  0.3273 -0.2923  0.9161
  484MPD2    C3 7198   1.930   1.288  12.632 -0.1120  0.5178  0.3664
  484MPD2    C4 7199   2.015   1.379  12.696 -0.0800 -0.1704  0.1472
  484MPD2    C5 7200   1.976   1.438  12.809  0.6031  0.0727 -0.5006
  484MPD2     H 7201   1.732   1.216  12.623  1.3297  1.7940 -2.3553
  484MPD2    H1 7202   2.116   1.398  12.662  0.3664 -2.9423 -0.0853
  484MPD2    H2 7203   1.827   1.454  12.963  0.3108 -0.8904  0.5805
  484MPD2    H3 7204   2.043   1.508  12.858 -1.0388  0.7713  0.7743
  484MPD2     N 7205   1.979   1.221  12.515 -0.1977  0.4627 -0.5172
  484MPD2    H5 7206   2.077   1.243  12.496 -0.0578 -0.9957 -1.4848
  484MPD2    N1 7207   1.626   1.328  12.841  0.0165  0.0024 -0.4474
  484MPD2    H7 7208   1.604   1.358  12.935 -3.5223  0.9550 -1.5743
  485TMC3    C1 7209   1.974   1.104  12.306 -0.1010  0.8313 -0.4356
  485TMC3    C2 7210   1.924   0.983  12.248  0.8945 -0.0562 -0.4908
  485TMC3    C3 7211   1.985   0.959  12.136 -0.8324  0.5780 -0.6958
  485TMC3    C4 7212   2.068   1.190  12.249 -0.0201 -0.3219 -0.3229
  485TMC3    C5 7213   2.129   1.149  12.131 -0.4059 -0.3555 -0.5971
  485TMC3    C6 7214   2.085   1.033  12.080  0.7740  0.8740 -0.0744
  485TMC3     C 7215   1.914   1.136  12.430 -0.3275 -0.1062  0.5034
  485TMC3     O 7216   1.805   1.083  12.443 -0.1634 -0.5570 -0.7995
  485TMC3     H 7217   1.839   0.930  12.289  0.7073  1.2935  0.8728
  485TMC3    H1 7218   2.089   1.290  12.284  1.3696 -0.7819  0.1381
  485TMC3    H2 7219   2.141   0.982  12.002  1.8697 -1.1666  2.0394
  485TMC3    C7 7220   2.143   1.248  12.028  0.9075 -0.1545 -0.3542
  485TMC3    C8 7221   1.905   0.912  12.030 -0.5529 -0.6122  0.3331
  485TMC3    O1 7222   2.230   1.328  12.045  0.2306 -0.0189  0.7624
  485TMC3    O2 7223   1.923   0.942  11.912  0.3139 -0.2509 -0.3595
  486MPD2     C 7224   2.900   0.394  13.312  0.0423  0.2276  0.2329
  486MPD2    C1 7225   2.986   0.415  13.206  0.1741 -0.9158  0.1739
  486MPD2    C2 7226   2.971   0.533  13.139  0.9814  0.0303 -0.2025
  486MPD2    C3 7227   2.871   0.619  13.168 -0.3703 -0.1359 -0.2873
  486MPD2    C4 7228   2.780   0.592  13.277  0.3371  0.9117 -0.3387
  486MPD2    C5 7229   2.793   0.476  13.349  0.7005  0.0252  0.0087
  486MPD2     H 7230   3.042   0.558  13.061  1.9531 -0.7166  0.4554
  486MPD2    H1 7231   2.712   0.671  13.306  1.1448  1.1963  0.7952
  486MPD2    H2 7232   2.898   0.299  13.364 -0.7056  1.1048  1.8129
  486MPD2    H3 7233   2.729   0.453  13.433 -0.4173  1.3759 -0.4749
  486MPD2     N 7234   2.865   0.741  13.093  0.4356 -0.6642  0.2241
  486MPD2    H5 7235   2.941   0.759  13.028  1.4704 -1.0112  1.3425
  486MPD2    N1 7236   3.095   0.329  13.176 -0.0599  0.1621  0.2354
  486MPD2    H7 7237   3.101   0.254  13.244 -0.6277  0.9616  1.1663
  487TMC3    C1 7238   3.296   0.248  13.087  0.3964 -0.0849  0.4834
  487TMC3    C2 7239   3.387   0.255  12.986  0.1331  0.1267 -0.1530
  487TMC3    C3 7240   3.522   0.234  13.010  1.0015 -0.7488 -0.1113
  487TMC3    C4 7241   3.340   0.216  13.214 -0.0606 -0.2245  0.7127
  487TMC3    C5 7242   3.469   0.174  13.233  0.3759  0.0160 -0.4014
  487TMC3    C6 7243   3.565   0.191  13.134 -0.3013 -0.0233 -0.4518
  487TMC3     C 7244   3.182   0.338  13.076  0.4507  0.2180 -0.3368
  487TMC3     O 7245   3.196   0.418  12.984 -0.8806 -0.7964  0.0537
  487TMC3     H 7246   3.346   0.269  12.886  0.7823 -0.9602 -0.5647
  487TMC3    H1 7247   3.274   0.236  13.297  1.5735  0.1528  1.9220
  487TMC3    H2 7248   3.647   0.119  13.139  0.4521  0.8295 -0.5132
  487TMC3    C7 7249   3.517   0.120  13.359 -0.7696  0.5488  0.5598
  487TMC3    C8 7250   3.600   0.194  12.899  0.0157  0.3019 -0.3479
  487TMC3    O1 7251   3.636   0.115  13.382  0.1654  0.4766  0.2075
  487TMC3    O2 7252   3.537   0.132  12.813 -0.6151  0.1473 -0.3421
  488MPD2     C 7253   4.086   1.617  16.481  1.0336 -0.4711  0.0093
  488MPD2    C1 7254   4.126   1.747  16.470  0.6576  0.0722 -0.1193
  488MPD2    C2 7255   4.107   1.831  16.575  0.6052  0.5310 -0.9318
  488MPD2    C3 7256   4.049   1.783  16.694  0.1292  0.2866 -0.6996
  488MPD2    C4 7257   4.027   1.648  16.709 -0.2769 -0.3933 -0.3784
  488MPD2    C5 7258   4.035   1.569  16.598 -0.0255  0.1405 -0.2266
  488MPD2     H 7259   4.151   1.930  16.578 -0.9361  1.1480  1.2914
  488MPD2    H1 7260   3.992   1.609  16.805 -0.9418 -0.6323 -0.7134
  488MPD2    H2 7261   4.099   1.537  16.409 -1.4955 -0.6983 -0.1782
  488MPD2    H3 7262   4.017   1.463  16.589 -2.4910  0.6707 -1.6372
  488MPD2     N 7263   4.023   1.879  16.793 -0.2199 -0.8064 -0.0889
  488MPD2    H5 7264   4.050   1.976  16.784  0.0079 -0.8525  0.1041
  488MPD2    N1 7265   4.195   1.793  16.359  0.3746  0.2134  0.2865
  488MPD2    H7 7266   4.223   1.890  16.349  1.0854  0.0390  0.6633
  489TMC3    C1 7267   3.965   1.985  16.987  0.4905  0.4937 -0.1129
  489TMC3    C2 7268   4.038   2.093  16.946  0.2812 -0.3081  0.1772
  489TMC3    C3 7269   4.029   2.213  17.017 -0.3007  0.2315 -0.4056
  489TMC3    C4 7270   3.877   2.001  17.092  0.3196  0.7534  0.5785
  489TMC3    C5 7271   3.865   2.118  17.159 -0.0462  0.9368  0.3625
  489TMC3    C6 7272   3.934   2.231  17.116  0.1458  0.3999  0.2604
  489TMC3     C 7273   3.952   1.867  16.905  0.6850  0.4937 -0.6232
  489TMC3     O 7274   3.868   1.784  16.935  0.8069 -0.1684 -0.2645
  489TMC3     H 7275   4.124   2.093  16.880 -0.4321 -1.2305 -0.7328
  489TMC3    H1 7276   3.811   1.917  17.116  1.2464  0.4150  1.9496
  489TMC3    H2 7277   3.933   2.324  17.171  0.5368  1.3995 -1.4121
  489TMC3    C7 7278   3.746   2.148  17.232  0.0829 -0.6191 -0.3601
  489TMC3    C8 7279   4.106   2.322  16.978  0.0581 -0.4042 -0.2046
  489TMC3    O1 7280   3.740   2.263  17.281  0.3397 -0.3368 -0.0893
  489TMC3    O2 7281   4.212   2.305  16.918  0.0736  0.1643  0.1176
  490MPD2     C 7282   0.022   1.746  17.317  0.3501  0.2835 -0.1894
  490MPD2    C1 7283   0.024   1.633  17.396 -0.5017  0.1682  0.0710
  490MPD2    C2 7284   0.135   1.619  17.475 -0.3940  0.0639  0.5537
  490MPD2    C3 7285   0.246   1.693  17.455  0.1048 -0.5572 -0.4884
  490MPD2    C4 7286   0.251   1.796  17.361  0.6249 -0.2222  0.1275
  490MPD2    C5 7287   0.133   1.819  17.294  0.4284 -0.1562  0.0730
  490MPD2     H 7288   0.141   1.538  17.546 -1.9304 -0.4806  0.0764
  490MPD2    H1 7289   0.337   1.860  17.345  0.5832  0.0464  0.9775
  490MPD2    H2 7290   4.653   1.778  17.262  0.1640  0.2031  0.0618
  490MPD2    H3 7291   0.131   1.900  17.222 -0.3771 -0.4583 -0.2402
  490MPD2     N 7292   0.366   1.679  17.529  0.6192  0.3944  0.4342
  490MPD2    H5 7293   0.444   1.735  17.498  0.9160  0.2652  0.9535
  490MPD2    N1 7294   4.634   1.548  17.407 -0.1920 -0.2871  0.4378
  490MPD2    H7 7295   4.652   1.472  17.472 -1.8392 -0.7238  0.3642
  491TMC3    C1 7296   4.415   1.469  17.406  0.5783 -0.7960  0.0968
  491TMC3    C2 7297   4.430   1.415  17.532  0.5565  0.5791 -0.4519
  491TMC3    C3 7298   4.373   1.295  17.559 -0.0723 -0.6227 -0.2432
  491TMC3    C4 7299   4.349   1.397  17.310  0.3516 -0.2383 -0.8064
  491TMC3    C5 7300   4.294   1.274  17.342 -0.5040  0.6493  0.1781
  491TMC3    C6 7301   4.304   1.220  17.469  0.1543  0.5762 -0.8880
  491TMC3     C 7302   4.515   1.557  17.345 -0.9291 -0.7173 -0.5022
  491TMC3     O 7303   4.484   1.613  17.244  0.1819 -0.6722  0.0387
  491TMC3     H 7304   4.493   1.467  17.604  1.3910 -1.9093  0.6155
  491TMC3    H1 7305   4.324   1.453  17.221  1.5242  4.1212  1.5477
  491TMC3    H2 7306   4.251   1.126  17.484 -0.1049  0.9287  0.3760
  491TMC3    C7 7307   4.218   1.194  17.251  0.7187 -0.8805  0.1298
  491TMC3    C8 7308   4.419   1.223  17.672 -0.7936  1.2218 -0.4964
  491TMC3    O1 7309   4.228   1.074  17.265  0.3778  0.0209  0.1991
  491TMC3    O2 7310   4.422   1.281   0.101 -0.6236  0.1575 -0.0162
  492MPD2     C 7311   4.451   1.237  11.275  0.4843  1.3514 -0.3144
  492MPD2    C1 7312   4.357   1.135  11.257 -0.4762  0.5624 -0.3329
  492MPD2    C2 7313   4.325   1.057  11.367 -0.4058 -0.1407 -0.0118
  492MPD2    C3 7314   4.396   1.053  11.487 -0.5150  0.7931 -0.9393
  492MPD2    C4 7315   4.479   1.163  11.502 -0.7119  0.5399  0.7398
  492MPD2    C5 7316   4.503   1.252  11.402 -0.2625 -0.5073  0.4940
  492MPD2     H 7317   4.263   0.969  11.349 -0.2040 -0.3313  0.2324
  492MPD2    H1 7318   4.533   1.175  11.595  1.3186  0.0707 -0.3700
  492MPD2    H2 7319   4.473   1.310  11.199  0.2530 -1.0393 -2.6616
  492MPD2    H3 7320   4.582   1.324  11.421 -0.8027  0.8774 -2.5831
  492MPD2     N 7321   4.383   0.966  11.596  0.0430  0.0704  0.4514
  492MPD2    H5 7322   4.439   0.981  11.680  0.1898  2.6227 -0.1247
  492MPD2    N1 7323   4.292   1.125  11.137 -0.0081  0.2984  0.0130
  492MPD2    H7 7324   4.309   1.202  11.073  0.3994 -1.1809 -1.6655
  493TMC3    C1 7325   4.167   1.035  10.944  0.0635 -0.0351  0.1568
  493TMC3    C2 7326   4.198   1.148  10.869 -0.0746 -0.4837  0.7478
  493TMC3    C3 7327   4.127   1.168  10.755  0.0373  0.4288  0.2451
  493TMC3    C4 7328   4.075   0.946  10.896  0.2209 -0.2260 -0.3773
  493TMC3    C5 7329   4.016   0.965  10.769  0.2137 -0.6774  0.5040
  493TMC3    C6 7330   4.045   1.078  10.694  0.0885  0.3269  0.6648
  493TMC3     C 7331   4.223   1.019  11.080 -0.1338 -0.2657  0.0289
  493TMC3     O 7332   4.221   0.904  11.126  0.8510  0.3576  0.1011
  493TMC3     H 7333   4.270   1.221  10.906 -1.5157  1.0965  0.4568
  493TMC3    H1 7334   4.064   0.848  10.941 -0.4034  0.0678  0.1045
  493TMC3    H2 7335   4.010   1.100  10.594 -0.4205  1.3758  1.0773
  493TMC3    C7 7336   3.898   0.905  10.724 -0.1879 -0.1102  0.1430
  493TMC3    C8 7337   4.147   1.288  10.678 -0.0787  0.3444 -0.9328
  493TMC3    O1 7338   3.853   0.950  10.622 -0.2606 -0.0930 -0.2026
  493TMC3    O2 7339   4.036   1.321  10.638  0.2162  0.5755 -0.5160
  494TMC3    C1 7340   1.260   2.925   1.066 -0.3391  0.6130  0.2089
  494TMC3    C2 7341   1.255   2.792   1.099 -1.1196  0.2552  0.0198
  494TMC3    C3 7342   1.234   2.696   1.003  0.4723 -0.2229 -0.4675
  494TMC3    C4 7343   1.243   2.971   0.932 -0.2417 -0.2072 -0.7607
  494TMC3    C5 7344   1.206   2.872   0.840 -0.3830  1.0498 -0.0960
  494TMC3    C6 7345   1.196   2.740   0.880 -0.8795 -0.0466 -0.1490
  494TMC3     C 7346   1.280   3.014   1.173  0.1987 -0.0020  0.4436
  494TMC3     O 7347   1.325   2.969   1.279 -0.1833  0.2893 -0.1871
  494TMC3     H 7348   1.286   2.762   1.198  2.9780  0.9474 -1.0540
  494TMC3    H1 7349   1.277   3.071   0.906  0.8212  0.3224  2.7689
  494TMC3    H2 7350   1.164   2.661   0.813 -1.8803 -0.4787  0.8216
  494TMC3    C7 7351   1.190   2.894   0.702  0.3060 -0.4849  0.0830
  494TMC3    C8 7352   1.205   2.559   1.050  1.5755  0.3657  0.4515
  494TMC3    O1 7353   1.193   2.797   0.628 -0.4985 -0.4593  0.4857
  494TMC3    O2 7354   1.195   2.473   0.967 -0.0933  0.2631 -0.3443
  495TMC3    C1 7355   4.531   0.524  14.453 -0.8768 -0.0488  0.2328
  495TMC3    C2 7356   4.424   0.574  14.379 -0.6465  0.6756  0.5048
  495TMC3    C3 7357   4.300   0.540  14.418  0.0240 -0.1336 -0.3131
  495TMC3    C4 7358   4.516   0.478  14.580 -0.3308 -0.6309 -0.2249
  495TMC3    C5 7359   4.389   0.461  14.624  0.6800  0.3698  0.5125
  495TMC3    C6 7360   4.278   0.486  14.540 -0.2300  0.0214  0.1831
  495TMC3     C 7361   4.622   0.443  14.384 -0.0744 -0.3436  0.0300
  495TMC3     O 7362   4.659   0.339  14.436 -1.0411 -0.4454  0.3952
  495TMC3     H 7363   4.433   0.607  14.276 -0.1673  0.5274  0.5002
  495TMC3    H1 7364   4.595   0.426  14.634  0.5908 -0.0129 -1.0046
  495TMC3    H2 7365   4.175   0.458  14.556 -0.4830 -0.4420 -2.2017
  495TMC3    C7 7366   4.366   0.397  14.755  0.4885  0.6835 -0.1078
  495TMC3    C8 7367   4.194   0.545  14.325 -0.7982 -0.4368 -0.0699
  495TMC3    O1 7368   4.452   0.420  14.841 -0.2646 -0.2304  0.5710
  495TMC3    O2 7369   4.209   0.629  14.241  0.0168  0.0226  0.2255
  496MPD2     C 7370   1.208   4.710  16.163  0.1820  0.6599 -0.2290
  496MPD2    C1 7371   1.235   4.581  16.141 -0.2802 -0.1409  0.7598
  496MPD2    C2 7372   1.266   4.500  16.249 -0.0434  0.8182 -0.9186
  496MPD2    C3 7373   1.255   4.549  16.379  0.3871 -0.9504 -0.7479
  496MPD2    C4 7374   1.217   4.677  16.404  0.1298  0.3769  0.3318
  496MPD2    C5 7375   1.197   0.033  16.289  0.1260  0.5202 -0.0255
  496MPD2     H 7376   1.298   4.399  16.226 -0.2145  0.4842  0.3515
  496MPD2    H1 7377   1.192   0.001  16.500 -2.6570  1.4769 -0.8705
  496MPD2    H2 7378   1.202   0.066  16.085  0.6473 -0.5784 -1.4662
  496MPD2    H3 7379   1.167   0.137  16.286 -0.5533  0.3822  2.2376
  496MPD2     N 7380   1.279   4.470  16.494 -0.0993  0.0964  0.4098
  496MPD2    H5 7381   1.289   4.520  16.582 -3.1553 -2.4621  2.2361
  496MPD2    N1 7382   1.272   4.544  16.008  0.3983 -0.8369 -0.4871
  496MPD2    H7 7383   1.282   4.626  15.949  0.0933 -1.1500 -0.9646
  497TMC3    C1 7384   1.380   4.294  16.609 -0.1233 -0.1110  0.2628
  497TMC3    C2 7385   1.448   4.172  16.609 -0.1955 -0.4829 -0.3951
  497TMC3    C3 7386   1.517   4.129  16.719 -0.3020 -0.6042  0.2253
  497TMC3    C4 7387   1.376   4.368  16.726  0.6616 -0.4219  0.3824
  497TMC3    C5 7388   1.448   4.318  16.830 -0.0812  0.2679 -0.2101
  497TMC3    C6 7389   1.518   4.199  16.834 -0.9032 -0.1664  0.3999
  497TMC3     C 7390   1.307   4.337  16.491  0.0182 -0.4094 -0.1225
  497TMC3     O 7391   1.302   4.251  16.406 -0.0561 -0.1994  0.0676
  497TMC3     H 7392   1.454   4.109  16.521 -0.3742  1.2168 -1.6243
  497TMC3    H1 7393   1.324   4.464  16.727  2.3396  0.4993 -1.6190
  497TMC3    H2 7394   1.588   4.171  16.911  1.1463  1.4548 -0.8816
  497TMC3    C7 7395   1.442   4.386  16.955 -0.2586 -0.4963 -0.1656
  497TMC3    C8 7396   1.617   4.026  16.703 -0.7387  0.9545 -0.8411
  497TMC3    O1 7397   1.335   4.427  16.997  0.1538 -0.3067  0.0155
  497TMC3    O2 7398   1.648   3.951  16.793 -0.6795 -0.2241 -0.0449
  498MPD2     C 7399   2.429   1.494   9.582 -0.0682  0.5347  0.1293
  498MPD2    C1 7400   2.420   1.504   9.717 -0.8744  0.5747  0.4503
  498MPD2    C2 7401   2.321   1.430   9.777  0.6258 -0.9472 -0.0116
  498MPD2    C3 7402   2.228   1.353   9.709 -0.4403 -1.2106 -0.2403
  498MPD2    C4 7403   2.248   1.337   9.573 -0.3499 -0.2559 -0.0062
  498MPD2    C5 7404   2.352   1.409   9.517  0.9877 -0.8253 -0.5320
  498MPD2     H 7405   2.313   1.429   9.886  2.4490  0.6009  0.1258
  498MPD2    H1 7406   2.185   1.273   9.512 -0.2500 -0.5778  0.2257
  498MPD2    H2 7407   2.495   1.556   9.523 -0.3775  1.3039  0.5818
  498MPD2    H3 7408   2.380   1.387   9.415  2.7521 -0.3719 -0.1423
  498MPD2     N 7409   2.126   1.279   9.780 -0.0333  0.4154  0.0378
  498MPD2    H5 7410   2.138   1.267   9.880  0.0954  0.8034  0.0687
  498MPD2    N1 7411   2.498   1.599   9.782  0.3567 -0.1282 -0.2758
  498MPD2    H7 7412   2.555   1.646   9.713  1.2962 -1.6505 -0.5487
  499TMC3    C1 7413   2.570   1.747   9.948  0.1737  0.7580  0.3343
  499TMC3    C2 7414   2.642   1.773  10.064 -0.2968  0.1921 -0.6641
  499TMC3    C3 7415   2.706   1.889  10.074  0.0119  0.4808 -0.5095
  499TMC3    C4 7416   2.564   1.851   9.854 -0.8681  0.3037 -0.0488
  499TMC3    C5 7417   2.616   1.980   9.868  0.8835 -0.8795  0.0356
  499TMC3    C6 7418   2.694   1.995   9.986  0.1655  0.4810 -0.2671
  499TMC3     C 7419   2.504   1.622   9.919  0.4371  0.4686  0.3890
  499TMC3     O 7420   2.461   1.561  10.015 -0.4197 -0.7917  0.2154
  499TMC3     H 7421   2.671   1.690  10.127  1.1719  1.2214  0.0076
  499TMC3    H1 7422   2.521   1.830   9.757  1.6835 -0.3167 -1.0384
  499TMC3    H2 7423   2.712   2.098  10.015  0.0370 -0.1135  1.8974
  499TMC3    C7 7424   2.561   2.094   9.801 -0.3088  0.7112  0.2472
  499TMC3    C8 7425   2.801   1.897  10.187 -0.2137 -0.2317 -0.5703
  499TMC3    O1 7426   2.635   2.173   9.744 -0.0965  0.5135 -0.3208
  499TMC3    O2 7427   2.782   1.817  10.278 -0.0692 -0.3231  0.2928
  500MPD2     C 7428   3.721   2.174  10.384 -0.2437 -0.3000  0.2865
  500MPD2    C1 7429   3.751   2.186  10.251  0.1985  0.0382  0.2174
  500MPD2    C2 7430   3.657   2.253  10.173  0.8735  0.8059 -0.1260
  500MPD2    C3 7431   3.526   2.296  10.220 -0.5579 -1.1145  0.6577
  500MPD2    C4 7432   3.508   2.282  10.356  0.4459 -0.0889  0.1888
  500MPD2    C5 7433   3.606   2.217  10.433  0.2653 -0.5191  0.6379
  500MPD2     H 7434   3.688   2.276  10.071 -0.6506  0.4387 -0.6703
  500MPD2    H1 7435   3.416   2.312  10.406  1.2691  2.1259  0.3447
  500MPD2    H2 7436   3.790   2.123  10.451  1.2067  1.2856 -0.0111
  500MPD2    H3 7437   3.583   2.196  10.537  0.7905  2.7206  1.4158
  500MPD2     N 7438   3.424   2.352  10.145 -0.1600  0.1636  0.4145
  500MPD2    H5 7439   3.338   2.368  10.196 -0.3498 -0.4060  0.2818
  500MPD2    N1 7440   3.878   2.151  10.202 -0.0205  0.6245  0.2908
  500MPD2    H7 7441   3.896   2.184  10.107 -1.1147  1.8427  0.4981
  501TMC3    C1 7442   4.107   2.088  10.204 -0.7297  0.1785 -0.0146
  501TMC3    C2 7443   4.144   2.205  10.139 -0.4842  0.1113 -0.0254
  501TMC3    C3 7444   4.285   2.224  10.129  0.1911  0.3918 -0.2097
  501TMC3    C4 7445   4.201   1.997  10.244 -0.2457  0.3021 -0.0550
  501TMC3    C5 7446   4.332   2.014  10.215 -0.2232 -0.4246 -0.0486
  501TMC3    C6 7447   4.376   2.128  10.157 -0.2478 -0.0506  0.7309
  501TMC3     C 7448   3.981   2.087  10.272  0.0368 -0.0184 -1.0760
  501TMC3     O 7449   3.975   2.034  10.385  0.1404 -0.4587 -0.2865
  501TMC3     H 7450   4.075   2.289  10.135  3.2861  3.1809 -0.4828
  501TMC3    H1 7451   4.167   1.904  10.289 -1.0725 -0.5381 -2.4275
  501TMC3    H2 7452   4.483   2.142  10.148 -0.8142  3.0270 -1.2695
  501TMC3    C7 7453   4.420   1.947  10.291  0.1944  0.3789  0.0959
  501TMC3    C8 7454   4.339   2.359  10.152 -0.1294 -0.0799 -0.0075
  501TMC3    O1 7455   4.376   1.908  10.395 -0.3213 -0.1696 -0.3818
  501TMC3    O2 7456   4.443   2.365  10.211 -0.1471  0.2355  0.3927
  502TMC3    C1 7457   3.943   1.047  14.882 -0.6770  0.4894  0.2053
  502TMC3    C2 7458   3.909   1.174  14.919 -0.1919 -0.1100  0.1402
  502TMC3    C3 7459   3.782   1.199  14.974  0.5652 -0.3718 -0.2959
  502TMC3    C4 7460   3.847   0.954  14.883  0.0121 -0.2842 -0.0003
  502TMC3    C5 7461   3.716   0.978  14.925  0.2604  0.0950 -0.6186
  502TMC3    C6 7462   3.684   1.103  14.966 -0.7389  0.6317  0.5216
  502TMC3     C 7463   4.065   1.005  14.948  0.3149 -0.4110 -0.4396
  502TMC3     O 7464   4.167   1.066  14.919  0.4157 -0.1950  0.0783
  502TMC3     H 7465   3.990   1.243  14.942 -0.3163 -0.1000  0.5663
  502TMC3    H1 7466   3.866   0.852  14.852 -2.9525 -0.1531 -2.2418
  502TMC3    H2 7467   3.585   1.122  15.005 -0.0745  0.2048  2.3900
  502TMC3    C7 7468   3.640   0.870  14.999 -0.5160 -0.1820 -0.9639
  502TMC3    C8 7469   3.749   1.322  15.036  0.3496 -0.9015 -0.0670
  502TMC3    O1 7470   3.699   0.780  15.055 -0.1517  0.3984  0.3448
  502TMC3    O2 7471   3.784   1.431  14.990  0.5133 -0.6520 -0.4802
  503MPD2     C 7472   1.057   1.687  17.140  0.2500  0.3874 -0.1745
  503MPD2    C1 7473   1.056   1.674  17.273 -0.0920  0.4396  0.4495
  503MPD2    C2 7474   1.079   1.548  17.334 -0.1190 -0.1098 -0.5785
  503MPD2    C3 7475   1.107   1.434  17.260 -0.0319 -0.2198  0.6248
  503MPD2    C4 7476   1.111   1.449  17.124 -0.4488  0.1564 -0.3589
  503MPD2    C5 7477   1.075   1.572  17.066  0.8744 -0.4261  0.3484
  503MPD2     H 7478   1.078   1.541  17.443 -1.6074  1.6404 -0.4741
  503MPD2    H1 7479   1.137   1.368  17.057 -0.8521  1.0964 -1.6413
  503MPD2    H2 7480   1.035   1.781  17.091 -0.2699 -0.4149 -1.5053
  503MPD2    H3 7481   1.076   1.573  16.958  0.8367  0.7114  0.3589
  503MPD2     N 7482   1.148   1.317  17.323  0.1453  0.6110 -0.2011
  503MPD2    H5 7483   1.176   1.319  17.421  1.4740 -0.8952 -0.5531
  503MPD2    N1 7484   1.035   1.780  17.358  0.6508 -0.4787 -0.0383
  503MPD2    H7 7485   1.044   1.757  17.456  1.4336 -1.4021 -0.3290
  504TMC3    C1 7486   1.221   1.092  17.334 -0.6482 -0.1846  0.6209
  504TMC3    C2 7487   1.197   1.079  17.470  0.2808  0.4441 -0.8318
  504TMC3    C3 7488   1.278   0.992  17.539  0.0510  0.2262  0.1882
  504TMC3    C4 7489   1.321   1.027  17.269  0.4461  0.0541 -0.6282
  504TMC3    C5 7490   1.402   0.951  17.342  0.1761  0.1005  0.9355
  504TMC3    C6 7491   1.385   0.929  17.475  0.2443 -0.1907  0.9979
  504TMC3     C 7492   1.160   1.195  17.256  0.4126 -0.0180 -0.0413
  504TMC3     O 7493   1.147   1.163  17.138  0.0693 -0.5418  0.5086
  504TMC3     H 7494   1.104   1.105  17.517 -0.7584 -0.1124 -2.5639
  504TMC3    H1 7495   1.338   1.033  17.162 -1.7270  2.1431 -0.8632
  504TMC3    H2 7496   1.451   0.861  17.528  0.0256 -2.0004 -1.0873
  504TMC3    C7 7497   1.495   0.863  17.272 -0.2764  0.5484  0.1309
  504TMC3    C8 7498   1.224   0.925  17.660 -0.3676  0.5691 -0.0080
  504TMC3    O1 7499   1.561   0.920  17.184 -0.0369 -0.5135 -0.6284
  504TMC3    O2 7500   1.103   0.908  17.655 -0.3736 -0.2060 -0.2047
  505MPD2     C 7501   1.664   1.245  10.871  0.0281  0.6159  0.5323
  505MPD2    C1 7502   1.630   1.111  10.836  0.5074 -0.6630 -0.2238
  505MPD2    C2 7503   1.731   1.017  10.820  0.1234 -0.4207 -0.5590
  505MPD2    C3 7504   1.863   1.049  10.838 -0.5676 -0.1357  0.7630
  505MPD2    C4 7505   1.894   1.179  10.873 -0.1483 -0.3951 -0.1320
  505MPD2    C5 7506   1.796   1.272  10.890  0.0002  0.3882  0.0285
  505MPD2     H 7507   1.711   0.916  10.788 -0.9076 -0.4379  0.1368
  505MPD2    H1 7508   1.992   1.214  10.902 -0.6125  1.5860 -0.9189
  505MPD2    H2 7509   1.579   1.311  10.885  0.4742  1.3208 -0.1414
  505MPD2    H3 7510   1.816   1.368  10.936 -1.2402  0.0747  1.2380
  505MPD2     N 7511   1.961   0.947  10.828 -0.0216  0.2916  0.0011
  505MPD2    H5 7512   2.060   0.965  10.822 -0.0397  0.3561 -0.1208
  505MPD2    N1 7513   1.493   1.081  10.806 -0.1160  0.6677  0.0580
  505MPD2    H7 7514   1.438   1.164  10.787 -0.7139  0.3782  0.5170
  506TMC3    C1 7515   1.290   0.958  10.794 -0.0298 -0.1172  0.1901
  506TMC3    C2 7516   1.248   1.012  10.678 -0.4818 -0.1692 -0.8387
  506TMC3    C3 7517   1.158   0.939  10.603 -0.4798  0.2513  0.2347
  506TMC3    C4 7518   1.243   0.834  10.837 -0.2077 -0.0979 -0.0067
  506TMC3    C5 7519   1.171   0.760  10.754 -0.7832 -0.5588 -0.2965
  506TMC3    C6 7520   1.128   0.810  10.635 -0.0759  0.0059 -0.1359
  506TMC3     C 7521   1.430   0.959  10.813 -0.0754  0.1685 -0.3773
  506TMC3     O 7522   1.479   0.851  10.845 -0.4237  0.5037  0.2594
  506TMC3     H 7523   1.276   1.115  10.656 -1.4479  0.7331  2.2181
  506TMC3    H1 7524   1.274   0.801  10.936 -4.3155 -0.5919  1.1028
  506TMC3    H2 7525   1.060   0.748  10.576  1.2195 -0.4280 -1.1733
  506TMC3    C7 7526   1.213   0.620  10.743 -0.3363 -0.4820 -0.0370
  506TMC3    C8 7527   1.138   0.973  10.460  0.2199  0.2464  0.8714
  506TMC3    O1 7528   1.141   0.528  10.714  0.4723 -0.8262  0.4528
  506TMC3    O2 7529   1.026   0.972  10.417 -0.4188  0.4878 -0.6736
  507TMC3    C1 7530   2.464   2.310  15.786 -1.1014  0.3464  0.6926
  507TMC3    C2 7531   2.543   2.381  15.695 -0.3322 -0.3806  0.7392
  507TMC3    C3 7532   2.497   2.505  15.652 -1.1472  0.5232  0.0146
  507TMC3    C4 7533   2.331   2.349  15.813 -0.3526 -0.2405 -0.4277
  507TMC3    C5 7534   2.290   2.470  15.756  0.0311  0.0838  1.2331
  507TMC3    C6 7535   2.376   2.556  15.687 -0.6024 -0.3557 -0.4238
  507TMC3     C 7536   2.479   2.162  15.764 -0.3631  0.1743 -0.0970
  507TMC3     O 7537   2.581   2.105  15.803 -0.1363 -0.1257 -0.0600
  507TMC3     H 7538   2.637   2.336  15.666 -0.8521 -1.3591  0.5396
  507TMC3    H1 7539   2.259   2.297  15.875 -0.8859 -0.8847 -1.5808
  507TMC3    H2 7540   2.336   2.649  15.650 -1.3309 -0.7286 -0.5688
  507TMC3    C7 7541   2.164   2.443  15.686  0.0282 -0.1226  0.6601
  507TMC3    C8 7542   2.529   2.555  15.518  0.3390  0.4041  0.0517
  507TMC3    O1 7543   2.146   2.327  15.659  0.4199 -0.1236 -0.0993
  507TMC3    O2 7544   2.431   2.605  15.459 -0.1523  0.2887  0.5542
  508MPD2     C 7545   2.827   3.858  16.172  0.3314  0.8834 -0.5016
  508MPD2    C1 7546   2.952   3.802  16.152 -0.8432  0.4651 -0.0452
  508MPD2    C2 7547   2.976   3.721  16.046  0.2216  0.1883 -0.0988
  508MPD2    C3 7548   2.868   3.695  15.953 -0.3913  0.0900 -0.1993
  508MPD2    C4 7549   2.746   3.741  15.987 -0.0999 -0.1343  0.1914
  508MPD2    C5 7550   2.727   3.819  16.094  0.7574 -0.1521  0.7327
  508MPD2     H 7551   3.073   3.673  16.038 -0.4149 -1.1876  0.5690
  508MPD2    H1 7552   2.654   3.717  15.934 -0.2859 -0.4217  0.6405
  508MPD2    H2 7553   2.800   3.901  16.268 -2.0609 -0.7018 -0.4620
  508MPD2    H3 7554   2.630   3.858  16.119  0.8382 -0.3362  1.3396
  508MPD2     N 7555   2.892   3.638  15.826  0.1116  0.0747  0.6909
  508MPD2    H5 7556   2.988   3.625  15.796 -0.7274 -2.0946 -1.0970
  508MPD2    N1 7557   3.058   3.833  16.244 -0.1502 -0.2289 -0.2956
  508MPD2    H7 7558   3.153   3.801  16.230  0.0068 -1.0992  2.7543
  509TMC3    C1 7559   2.821   3.714  15.406  0.1708  0.0910  0.2710
  509TMC3    C2 7560   2.960   3.711  15.386  0.5972 -0.0764  0.0021
  509TMC3    C3 7561   3.029   3.635  15.472 -0.2576  0.6317  0.2658
  509TMC3    C4 7562   2.767   3.648  15.509  0.6870  0.4686 -0.4484
  509TMC3    C5 7563   2.846   3.575  15.594  0.2908 -0.0291 -0.0844
  509TMC3    C6 7564   2.977   3.566  15.579 -0.1593 -0.4853  0.1085
  509TMC3     C 7565   2.728   3.780  15.311  0.0523 -0.5226  0.3811
  509TMC3     O 7566   2.616   3.733  15.300 -0.1180  0.3049  0.3349
  509TMC3     H 7567   2.998   3.774  15.307 -0.4653  0.6148  0.0464
  509TMC3    H1 7568   2.659   3.648  15.516  0.5639 -0.4200 -2.2313
  509TMC3    H2 7569   3.047   3.520  15.648 -1.0923  0.7398  1.8636
  509TMC3    C7 7570   2.798   3.602  15.729 -0.5309  0.7237 -0.2835
  509TMC3    C8 7571   3.172   3.656  15.492  0.4163 -0.1787 -0.6364
  509TMC3    O1 7572   2.677   3.613  15.724 -0.1586  0.3012 -0.6295
  509TMC3    O2 7573   3.243   3.572  15.543  0.6049 -0.2140 -0.1415
  510MPD2     C 7574   0.830   0.816  14.812 -0.5340 -0.3678 -0.6318
  510MPD2    C1 7575   0.898   0.708  14.866  0.2659  0.3050 -0.0420
  510MPD2    C2 7576   1.027   0.694  14.838  0.5332 -0.1037  0.6625
  510MPD2    C3 7577   1.088   0.773  14.742  0.3018 -0.0259 -0.4117
  510MPD2    C4 7578   1.020   0.859  14.665 -0.4302 -0.3664 -0.0633
  510MPD2    C5 7579   0.891   0.878  14.703 -0.1277  0.1203 -0.1814
  510MPD2     H 7580   1.089   0.618  14.884 -0.2345 -1.2064 -0.1575
  510MPD2    H1 7581   1.064   0.911  14.580 -0.6201  1.8274  1.1841
  510MPD2    H2 7582   0.722   0.815  14.822 -0.4498  1.6739  0.4915
  510MPD2    H3 7583   0.830   0.940  14.638  0.9038  0.5353 -0.7591
  510MPD2     N 7584   1.225   0.753  14.733 -0.7404  0.2810 -0.4216
  510MPD2    H5 7585   1.270   0.682  14.789 -1.1910  0.6173  0.3659
  510MPD2    N1 7586   0.826   0.624  14.948 -0.0774  0.1234  0.0695
  510MPD2    H7 7587   0.733   0.651  14.977  0.3414 -0.5481  2.0446
  511TMC3    C1 7588   0.766   0.414  15.037  0.3485  0.2858 -0.3278
  511TMC3    C2 7589   0.663   0.465  15.123 -0.6085  0.0138  0.2632
  511TMC3    C3 7590   0.572   0.371  15.168 -0.4402  0.3236  0.4565
  511TMC3    C4 7591   0.779   0.286  15.009  0.6802  0.0650 -0.6946
  511TMC3    C5 7592   0.688   0.200  15.050  0.5539 -0.1306 -0.6277
  511TMC3    C6 7593   0.590   0.234  15.143  0.1729  0.1885 -0.2373
  511TMC3     C 7594   0.862   0.494  14.967  0.0818  0.0330 -0.0672
  511TMC3     O 7595   0.962   0.437  14.924 -0.5715  0.5083  0.0862
  511TMC3     H 7596   0.650   0.570  15.143 -2.3077  0.3226 -2.4201
  511TMC3    H1 7597   0.840   0.261  14.923 -1.4260 -1.2957 -1.7899
  511TMC3    H2 7598   0.521   0.159  15.179  2.1107 -1.2904  0.4571
  511TMC3    C7 7599   0.652   0.098  14.954 -0.1640 -0.1853 -0.3383
  511TMC3    C8 7600   0.480   0.409  15.273 -0.7274  0.1696 -0.2207
  511TMC3    O1 7601   0.692   0.111  14.842 -0.9769  0.2184 -0.7959
  511TMC3    O2 7602   0.457   0.525  15.285  0.1532  0.3251 -0.2089
  512TMC3    C1 7603   4.600   4.036  12.778  0.4022  0.6225 -0.1226
  512TMC3    C2 7604   4.623   4.140  12.867 -0.1492 -0.0014  0.2383
  512TMC3    C3 7605   4.615   4.114  12.997  0.1556 -0.1780 -0.0227
  512TMC3    C4 7606   4.578   3.911  12.822  0.0824 -0.9821  0.4074
  512TMC3    C5 7607   4.564   3.897  12.954 -0.4604 -0.7161  0.5755
  512TMC3    C6 7608   4.588   3.994  13.050  0.6597  0.1434  0.0483
  512TMC3     C 7609   4.660   4.045  12.648  0.8905 -0.7961  0.8844
  512TMC3     O 7610   4.611   4.124  12.564 -0.0860 -0.2960 -0.2307
  512TMC3     H 7611   4.657   4.239  12.840 -0.1234 -0.7156 -2.4131
  512TMC3    H1 7612   4.584   3.830  12.751  0.7091 -0.8938  0.3655
  512TMC3    H2 7613   4.570   3.983  13.156 -1.2157  3.2154  0.0394
  512TMC3    C7 7614   4.519   3.765  12.996 -0.8144 -0.4418  0.1005
  512TMC3    C8 7615   4.632   4.218  13.098 -0.0976 -0.3686 -0.1547
  512TMC3    O1 7616   4.484   3.698  12.905 -0.2019 -0.4786  0.8417
  512TMC3    O2 7617   4.599   4.333  13.067 -0.7417  0.5933 -0.4507
  513MPD2     C 7618   1.366   4.430  13.276  0.6179 -0.5947 -0.8017
  513MPD2    C1 7619   1.448   4.538  13.246  0.4609 -0.3433 -0.5349
  513MPD2    C2 7620   1.478   4.624  13.344 -0.8639  0.4972  0.1425
  513MPD2    C3 7621   1.431   4.608  13.472 -0.5694  0.7065  0.0832
  513MPD2    C4 7622   1.354   4.508  13.502 -0.0441  0.2015  0.4942
  513MPD2    C5 7623   1.314   4.423  13.404  0.0995  0.2919 -0.0975
  513MPD2     H 7624   1.534   4.714  13.320  0.1093 -0.5382 -1.3982
  513MPD2    H1 7625   1.325   4.484  13.604 -0.3884  0.4452  0.4549
  513MPD2    H2 7626   1.342   4.361  13.196  0.4138  0.4492 -1.6236
  513MPD2    H3 7627   1.252   4.341  13.439 -1.7762  1.2325 -1.2553
  513MPD2     N 7628   1.487   4.695  13.568  0.4236 -0.5907 -0.2920
  513MPD2    H5 7629   1.539   0.052  13.527 -2.3008  1.6555  0.4035
  513MPD2    N1 7630   1.503   4.550  13.117 -0.8391  0.3115  0.4551
  513MPD2    H7 7631   1.562   4.632  13.106 -0.8692  0.4477  1.3632
  514TMC3    C1 7632   1.539   4.521  12.896 -0.8879 -0.2882 -0.9591
  514TMC3    C2 7633   1.487   4.556  12.780  0.7157 -0.0447  0.4992
  514TMC3    C3 7634   1.559   4.611  12.681  0.2969  0.1148 -0.4993
  514TMC3    C4 7635   1.662   4.557  12.930 -0.1989  0.3456  0.0008
  514TMC3    C5 7636   1.737   4.608  12.829  0.4877  0.6778 -0.4667
  514TMC3    C6 7637   1.689   4.639  12.706  0.5156  0.2130  0.5173
  514TMC3     C 7638   1.453   4.497  13.008 -0.1875  0.3560  0.0720
  514TMC3     O 7639   1.333   4.475  12.991  0.3157 -0.0623 -0.0388
  514TMC3     H 7640   1.380   4.540  12.778  0.3774  2.5267 -1.4364
  514TMC3    H1 7641   1.708   4.504  13.013 -1.5817  0.5716  0.9142
  514TMC3    H2 7642   1.742   4.703  12.636  1.5443 -1.9675 -0.6801
  514TMC3    C7 7643   1.857   4.673  12.877  0.4681 -0.6265  0.1143
  514TMC3    C8 7644   1.482   4.716  12.604  0.4501  0.4177 -0.1374
  514TMC3    O1 7645   1.945   4.710  12.797 -0.2166 -0.3852 -0.7337
  514TMC3    O2 7646   1.370   0.030  12.642  0.3639 -0.6588 -0.1355
  515MPD2     C 7647   0.145   1.190  14.528  0.1762 -0.3541 -0.0815
  515MPD2    C1 7648   0.030   1.254  14.571 -0.9253 -0.3692 -0.2510
  515MPD2    C2 7649   0.030   1.309  14.697  0.5160 -0.5061 -0.0197
  515MPD2    C3 7650   0.139   1.299  14.779  0.8738  0.3740  0.1988
  515MPD2    C4 7651   0.250   1.232  14.742 -0.0185  0.1397 -0.6749
  515MPD2    C5 7652   0.256   1.187  14.610  0.5925 -1.0220  0.6232
  515MPD2     H 7653   4.660   1.363  14.728 -0.6180 -3.1536  1.3187
  515MPD2    H1 7654   0.340   1.233  14.801  0.8446 -0.3093 -1.9838
  515MPD2    H2 7655   0.151   1.149  14.428  2.3056 -1.0119  0.3063
  515MPD2    H3 7656   0.353   1.153  14.576  0.3065 -0.3664 -0.8637
  515MPD2     N 7657   0.153   1.361  14.906  0.1234 -0.6407  0.1443
  515MPD2    H5 7658   0.236   1.348  14.964 -0.7417 -1.1313  1.2816
  515MPD2    N1 7659   4.631   1.250  14.499 -0.2265  0.0338  0.4653
  515MPD2    H7 7660   4.554   1.302  14.540 -0.1904  1.5731 -1.3888
  516TMC3    C1 7661   4.462   1.131  14.397  0.1154  0.0136 -0.4064
  516TMC3    C2 7662   4.384   1.243  14.403  0.3816 -0.2174 -0.0607
  516TMC3    C3 7663   4.253   1.220  14.366  0.2969 -0.0593 -0.0043
  516TMC3    C4 7664   4.418   1.004  14.363 -0.8203 -0.0081  0.2157
  516TMC3    C5 7665   4.282   0.981  14.357  0.9911 -0.6861  0.9912
  516TMC3    C6 7666   4.201   1.094  14.359  0.2059  0.0456 -0.3043
  516TMC3     C 7667   4.606   1.147  14.410 -0.6002 -0.2304  0.1398
  516TMC3     O 7668   4.679   1.058  14.362  0.1327 -0.6005 -0.0212
  516TMC3     H 7669   4.424   1.343  14.416  0.5426 -0.4084  0.8992
  516TMC3    H1 7670   4.482   0.917  14.369 -2.0940 -0.8987  0.9800
  516TMC3    H2 7671   4.093   1.088  14.351  0.3311 -1.6330 -0.6681
  516TMC3    C7 7672   4.244   0.886  14.455  0.0143 -0.1272  0.0536
  516TMC3    C8 7673   4.161   1.329  14.364  0.6985 -0.6293 -0.7465
  516TMC3    O1 7674   4.333   0.851  14.527 -0.0230 -1.0664 -0.7349
  516TMC3    O2 7675   4.057   1.303  14.420 -0.6693 -0.0473  0.3195
  517MPD2     C 7676   4.324   3.410  17.651  0.7480  0.3327  0.3484
  517MPD2    C1 7677   4.397   3.345   0.064  0.4219  1.2861 -0.0112
  517MPD2    C2 7678   4.414   3.400   0.193  0.3328  0.0406 -0.1123
  517MPD2    C3 7679   4.361   3.527   0.221 -0.7682 -0.1908 -0.3224
  517MPD2    C4 7680   4.286   3.596   0.126  0.1990  0.4105  1.2645
  517MPD2    C5 7681   4.269   3.531   0.004 -0.1025 -0.6118  0.5802
  517MPD2     H 7682   4.464   3.344   0.272  0.1100  0.6849  0.4893
  517MPD2    H1 7683   4.231   3.686   0.147 -2.5019 -0.8553 -0.5174
  517MPD2    H2 7684   4.306   3.375  17.550  1.2540 -1.2295  0.7996
  517MPD2    H3 7685   4.201   3.579  17.615 -1.9476 -0.8725  2.1931
  517MPD2     N 7686   4.374   3.601   0.341  0.1585  0.1117  0.0022
  517MPD2    H5 7687   4.372   3.701   0.323 -1.3177  0.3052  1.2069
  517MPD2    N1 7688   4.461   3.224   0.041 -0.1254  0.1819 -0.3084
  517MPD2    H7 7689   4.523   3.187   0.112 -0.0204  2.7163  0.9435
  518TMC3    C1 7690   4.503   3.022  17.599  0.2051  0.1991 -0.3262
  518TMC3    C2 7691   4.442   2.914  17.561  0.0245 -0.0225  0.4425
  518TMC3    C3 7692   4.519   2.801  17.549 -0.4125  0.0240 -0.1016
  518TMC3    C4 7693   4.636   3.014  17.646 -0.3893 -0.6572 -0.7581
  518TMC3    C5 7694   4.711   2.903  17.631 -0.4491 -0.0230 -0.0164
  518TMC3    C6 7695   4.653   2.793  17.584 -0.6067 -0.2821  0.0418
  518TMC3     C 7696   4.431   3.146  17.615  0.1322 -0.2169 -0.0376
  518TMC3     O 7697   4.347   3.168  17.530 -0.3194 -0.3416  0.3732
  518TMC3     H 7698   4.347   2.931  17.513 -0.2405 -0.8830  0.6770
  518TMC3    H1 7699   4.682   3.107  17.676  0.8195 -0.9360 -1.7352
  518TMC3    H2 7700   4.702   2.699  17.562  0.0567 -0.1354  0.9020
  518TMC3    C7 7701   0.124   2.902   0.003 -0.1662 -0.4193  0.2111
  518TMC3    C8 7702   4.455   2.680  17.508 -0.4353 -0.4894  0.6430
  518TMC3    O1 7703   0.154   2.987   0.084 -0.0977 -0.6691  0.5992
  518TMC3    O2 7704   4.523   2.580  17.475 -0.1162  0.8152 -0.1166
  519MPD2     C 7705   1.237   1.427  14.569 -0.1991 -0.1030 -0.2058
  519MPD2    C1 7706   1.228   1.499  14.448 -0.2870  0.0576 -0.3680
  519MPD2    C2 7707   1.339   1.506  14.371 -0.2042  0.1980 -0.0087
  519MPD2    C3 7708   1.459   1.441  14.406  0.4299  0.0167 -0.0297
  519MPD2    C4 7709   1.467   1.372  14.527 -0.0605 -0.9968  0.6174
  519MPD2    C5 7710   1.354   1.368  14.605  0.4598  0.1488  0.4206
  519MPD2     H 7711   1.327   1.564  14.280  0.5992 -1.4868 -1.1665
  519MPD2    H1 7712   1.553   1.315  14.560  1.0493  0.0905 -0.3890
  519MPD2    H2 7713   1.143   1.422  14.623  0.4401  0.8637  0.9666
  519MPD2    H3 7714   1.355   1.310  14.696 -1.6408  0.5384  0.6784
  519MPD2     N 7715   1.574   1.439  14.325 -0.0234 -0.2929 -0.1962
  519MPD2    H5 7716   1.646   1.371  14.345  1.6663  2.2421  2.2667
  519MPD2    N1 7717   1.102   1.558  14.415 -0.9779 -0.1445  0.4029
  519MPD2    H7 7718   1.022   1.541  14.474 -0.7902 -2.5239 -0.0398
  520TMC3    C1 7719   1.703   1.479  14.131  0.1810  0.0934  0.0408
  520TMC3    C2 7720   1.710   1.545  14.015  0.3016  0.3095 -0.0668
  520TMC3    C3 7721   1.813   1.521  13.930 -0.7684 -0.9785  0.0593
  520TMC3    C4 7722   1.799   1.400  14.170 -1.0135  0.3358  0.3062
  520TMC3    C5 7723   1.909   1.375  14.084  0.0275 -0.1143 -0.8311
  520TMC3    C6 7724   1.917   1.442  13.963 -0.1621  0.6141 -0.0683
  520TMC3     C 7725   1.590   1.515  14.212 -0.5980  0.5457  0.1656
  520TMC3     O 7726   1.513   1.599  14.170  0.2435 -0.2117  0.0996
  520TMC3     H 7727   1.645   1.630  13.997 -1.1182 -1.2214 -2.2204
  520TMC3    H1 7728   1.784   1.346  14.263 -2.2032 -1.0253 -0.6669
  520TMC3    H2 7729   1.998   1.421  13.894 -0.2797  0.9207 -0.2967
  520TMC3    C7 7730   1.961   1.240  14.084  0.6388  0.3513 -0.4960
  520TMC3    C8 7731   1.801   1.551  13.792  0.9236 -0.4431  0.3287
  520TMC3    O1 7732   2.057   1.225  14.010  0.2562  0.3869 -0.1056
  520TMC3    O2 7733   1.906   1.548  13.727 -0.2515 -0.0150 -0.1990
  521MPD2     C 7734   2.115   4.275   0.199  0.6555 -0.0344 -0.7969
  521MPD2    C1 7735   2.095   4.165   0.115 -0.1128  0.1479  0.3453
  521MPD2    C2 7736   2.200   4.134   0.035  0.5303 -0.0735  0.2444
  521MPD2    C3 7737   2.311   4.207   0.032  0.2365 -0.1172  0.3224
  521MPD2    C4 7738   2.327   4.312   0.114 -0.8472  0.2753 -0.5517
  521MPD2    C5 7739   2.230   4.348   0.206  0.1016  0.6858  0.2323
  521MPD2     H 7740   2.194   4.054  17.643 -3.4465  0.7950 -0.4055
  521MPD2    H1 7741   2.427   4.355   0.120 -1.5401  1.9826 -1.3964
  521MPD2    H2 7742   2.035   4.318   0.258  0.0442  0.2898 -1.8664
  521MPD2    H3 7743   2.242   4.426   0.280  0.1997 -0.4568  1.4088
  521MPD2     N 7744   2.405   4.164  17.616  0.2513  0.5107 -0.3546
  521MPD2    H5 7745   2.386   4.074  17.572  0.8930 -0.4431  1.2930
  521MPD2    N1 7746   1.966   4.102   0.117  0.5829 -0.5926 -0.5440
  521MPD2    H7 7747   1.899   4.123   0.190  1.1906  0.3029 -0.2418
  522TMC3    C1 7748   2.590   4.170  17.463 -0.6615 -0.1867  0.6951
  522TMC3    C2 7749   2.726   4.183  17.465  0.2438  0.2099 -0.2316
  522TMC3    C3 7750   2.796   4.096  17.390  0.2549 -0.2386 -0.3016
  522TMC3    C4 7751   2.525   4.075  17.392 -0.3946  0.0212  0.3266
  522TMC3    C5 7752   2.598   3.995  17.310 -0.6344 -0.0111  0.1588
  522TMC3    C6 7753   2.740   4.007  17.301  0.3043 -0.5015  0.1342
  522TMC3     C 7754   2.522   4.234  17.570  0.6763 -0.1796  0.0487
  522TMC3     O 7755   2.567   4.334  17.607  0.1612 -0.3408  0.0621
  522TMC3     H 7756   2.772   4.244  17.541  0.4089  0.2229 -0.3416
  522TMC3    H1 7757   2.418   4.062  17.383 -0.4592  1.6400 -1.3283
  522TMC3    H2 7758   2.791   3.930  17.245 -0.4553 -1.0963  0.2683
  522TMC3    C7 7759   2.545   3.859  17.295  0.6143 -0.5072  0.1577
  522TMC3    C8 7760   2.941   4.100  17.392  0.2271 -0.0743 -0.5338
  522TMC3    O1 7761   2.633   3.774  17.295  0.3484  0.1592  0.1428
  522TMC3    O2 7762   3.005   4.129  17.494 -0.1448  0.2825  0.0264
  523MPD2     C 7763   4.692   3.819  10.274 -0.1125 -1.1395 -0.0440
  523MPD2    C1 7764   4.603   3.748  10.199 -0.0882 -0.1764 -0.3149
  523MPD2    C2 7765   4.496   3.812  10.138  0.3196  0.4945 -0.2932
  523MPD2    C3 7766   4.480   3.948  10.135 -0.0076  0.2586 -0.0018
  523MPD2    C4 7767   4.572   4.014  10.214  0.2716 -0.0202  0.5712
  523MPD2    C5 7768   4.673   3.951  10.285 -0.7835  0.6054  0.0592
  523MPD2     H 7769   4.416   3.748  10.104  0.9367 -0.6082  0.3322
  523MPD2    H1 7770   4.560   4.122  10.219  0.0192  0.0480 -1.3243
  523MPD2    H2 7771   0.051   3.778  10.336  1.9519  1.2858 -1.0330
  523MPD2    H3 7772   0.011   4.007  10.357  0.0256  0.3412 -0.3821
  523MPD2     N 7773   4.378   4.025  10.080  0.9806  0.6203  0.8065
  523MPD2    H5 7774   4.360   4.118  10.114  1.2825  0.3814  1.6120
  523MPD2    N1 7775   4.626   3.605  10.194  0.4658 -0.3369  0.4176
  523MPD2    H7 7776   4.694   3.577  10.264  1.6078  1.8209  0.1818
  524TMC3    C1 7777   4.196   4.071   9.949  0.3416 -0.0673  0.2697
  524TMC3    C2 7778   4.162   4.105   9.822 -0.3249 -0.5486  0.1124
  524TMC3    C3 7779   4.107   4.232   9.801 -0.2210 -0.3891 -0.3924
  524TMC3    C4 7780   4.149   4.139  10.055 -0.6182  0.0513 -0.4096
  524TMC3    C5 7781   4.086   4.255  10.032 -0.4769 -0.1457 -0.4195
  524TMC3    C6 7782   4.059   4.304   9.908  0.9432 -0.1752  0.2010
  524TMC3     C 7783   4.294   3.972   9.982 -0.1946  0.4394 -0.5260
  524TMC3     O 7784   4.306   3.877   9.909 -0.0106  0.0833  0.2480
  524TMC3     H 7785   4.210   4.054   9.739 -0.3356  0.2264 -0.3756
  524TMC3    H1 7786   4.160   4.116  10.161 -2.3064  1.1940  0.0191
  524TMC3    H2 7787   4.008   4.398   9.892  0.9635 -0.2596 -0.3657
  524TMC3    C7 7788   4.000   4.300  10.136 -0.3532 -0.0371 -0.1301
  524TMC3    C8 7789   4.160   4.307   9.687 -0.0590 -0.8079  0.0847
  524TMC3    O1 7790   3.963   4.212  10.211  0.7310 -0.3662 -0.0150
  524TMC3    O2 7791   4.243   4.252   9.616  0.6372 -0.5278 -0.4866
  525MPD2     C 7792   2.260   0.912  14.540 -0.0087  0.5075 -1.0373
  525MPD2    C1 7793   2.388   0.948  14.564 -0.4702 -0.7363 -0.3208
  525MPD2    C2 7794   2.439   1.074  14.549  0.0016 -0.7495  0.4355
  525MPD2    C3 7795   2.351   1.181  14.532 -0.4564 -0.8401  0.0502
  525MPD2    C4 7796   2.228   1.142  14.489  0.0739  0.8649  0.3955
  525MPD2    C5 7797   2.181   1.014  14.497  0.3397  0.3965 -0.1759
  525MPD2     H 7798   2.541   1.094  14.580  1.0252 -0.4762 -3.0693
  525MPD2    H1 7799   2.164   1.223  14.457 -1.4144 -0.1838  0.7295
  525MPD2    H2 7800   2.221   0.811  14.538  2.5519 -0.5061 -1.0211
  525MPD2    H3 7801   2.077   1.001  14.469  0.3154  1.9161 -0.8266
  525MPD2     N 7802   2.381   1.317  14.547  0.0137 -0.3228  0.0508
  525MPD2    H5 7803   2.305   1.384  14.546 -0.9967 -1.4464  0.8120
  525MPD2    N1 7804   2.482   0.854  14.609  0.5925 -0.2911 -0.3077
  525MPD2    H7 7805   2.569   0.895  14.639  0.5164 -2.1163  2.3628
  526TMC3    C1 7806   2.561   0.656  14.720 -0.6673 -1.1425 -0.8969
  526TMC3    C2 7807   2.531   0.566  14.817 -0.0076 -0.4492 -0.6196
  526TMC3    C3 7808   2.622   0.486  14.872  0.2910  0.1616 -0.3889
  526TMC3    C4 7809   2.696   0.681  14.693 -0.0356 -0.3967 -0.0652
  526TMC3    C5 7810   2.786   0.587  14.742  0.1171  0.4468 -0.6207
  526TMC3    C6 7811   2.752   0.487  14.825  0.6887  0.1869  0.4485
  526TMC3     C 7812   2.451   0.726  14.666 -0.0954 -0.7455  0.1456
  526TMC3     O 7813   2.339   0.683  14.692  0.2882  0.3363  0.4976
  526TMC3     H 7814   2.428   0.544  14.840  0.6634 -1.5629  1.3167
  526TMC3    H1 7815   2.725   0.771  14.640  0.2814 -2.0397 -2.6627
  526TMC3    H2 7816   2.827   0.430  14.878 -2.0797 -1.2632  2.7373
  526TMC3    C7 7817   2.931   0.598  14.722  0.0115 -0.4055  0.8724
  526TMC3    C8 7818   2.633   0.477  15.017  0.1709  0.3464 -0.2775
  526TMC3    O1 7819   2.968   0.713  14.743 -0.5580 -0.2205  0.5703
  526TMC3    O2 7820   2.730   0.442  15.078 -0.2605  0.4233 -0.8027
  527MPD2     C 7821   1.869   2.824   2.184  0.1754 -0.2621 -0.3356
  527MPD2    C1 7822   1.787   2.916   2.123  0.4245  0.4954 -0.6723
  527MPD2    C2 7823   1.801   2.922   1.986 -0.7480 -0.5148 -0.1661
  527MPD2    C3 7824   1.899   2.852   1.913  0.5125  0.2357 -0.5166
  527MPD2    C4 7825   1.981   2.766   1.980 -0.4072  0.2369 -0.5172
  527MPD2    C5 7826   1.966   2.754   2.111 -0.1385 -0.3446  1.0521
  527MPD2     H 7827   1.730   2.991   1.941 -0.0757  1.9135  2.4834
  527MPD2    H1 7828   2.070   2.722   1.937 -0.4620 -0.9872  0.6211
  527MPD2    H2 7829   1.872   2.799   2.289  0.2462 -0.3489 -0.3582
  527MPD2    H3 7830   2.045   2.705   2.167  2.4022  2.7101  0.1482
  527MPD2     N 7831   1.903   2.855   1.770 -0.1538  0.4772  0.5946
  527MPD2    H5 7832   1.834   2.916   1.728 -0.5423  0.9507  1.9326
  527MPD2    N1 7833   1.677   2.978   2.182  0.4055  0.0117 -0.6901
  527MPD2    H7 7834   1.624   3.040   2.122  1.2205 -0.3271 -1.7387
  528TMC3    C1 7835   1.531   3.066   2.341 -0.9753  0.4353  0.8480
  528TMC3    C2 7836   1.507   3.174   2.251  0.2794 -0.0614  0.7199
  528TMC3    C3 7837   1.404   3.262   2.274 -0.2948 -0.0634 -0.9421
  528TMC3    C4 7838   1.458   3.046   2.455 -0.8392 -0.6024  0.6977
  528TMC3    C5 7839   1.355   3.139   2.474 -0.6900  0.0130  0.1423
  528TMC3    C6 7840   1.329   3.244   2.385 -0.2965  0.0056  0.6047
  528TMC3     C 7841   1.639   2.977   2.313  0.0009  0.0307 -0.6602
  528TMC3     O 7842   1.681   2.904   2.404  0.0159  0.0883  0.2620
  528TMC3     H 7843   1.579   3.202   2.175 -3.4332  0.2583 -2.6187
  528TMC3    H1 7844   1.475   2.964   2.524 -0.9071 -0.0291  1.3945
  528TMC3    H2 7845   1.246   3.308   2.412  1.3170  2.1448  0.4877
  528TMC3    C7 7846   1.264   3.108   2.581  0.6427 -0.2601  0.3995
  528TMC3    C8 7847   1.383   3.380   2.197 -0.9743  0.2766  0.4280
  528TMC3    O1 7848   1.255   2.995   2.618 -0.3362 -0.4250  0.5441
  528TMC3    O2 7849   1.298   3.456   2.236 -0.2574  0.1489 -0.7640
  529MPD2     C 7850   2.733   2.272   0.811  0.0465 -0.6730 -0.1974
  529MPD2    C1 7851   2.777   2.156   0.758 -0.1682  0.0924 -0.1737
  529MPD2    C2 7852   2.747   2.129   0.624 -0.5386  0.2250  0.5529
  529MPD2    C3 7853   2.685   2.228   0.549 -0.0417  0.2683 -0.5394
  529MPD2    C4 7854   2.652   2.349   0.601  0.0442  0.4274  0.6126
  529MPD2    C5 7855   2.677   2.368   0.734 -0.0236 -0.4353 -0.4067
  529MPD2     H 7856   2.777   2.037   0.576  0.6282  0.8592  0.0469
  529MPD2    H1 7857   2.588   2.420   0.551 -0.2712 -0.6271 -0.4757
  529MPD2    H2 7858   2.747   2.299   0.915 -1.9100  2.4675 -0.7699
  529MPD2    H3 7859   2.637   2.450   0.792 -4.4051 -0.9695 -2.6535
  529MPD2     N 7860   2.672   2.219   0.411 -0.1873 -0.1984  0.0274
  529MPD2    H5 7861   2.622   2.295   0.366 -0.2273 -1.3516 -1.8765
  529MPD2    N1 7862   2.840   2.064   0.831  0.4514 -0.4615 -0.5559
  529MPD2    H7 7863   2.858   1.976   0.785  0.3341 -0.4142 -0.6883
  530TMC3    C1 7864   2.949   1.951   1.014 -0.1595 -0.6372 -0.1673
  530TMC3    C2 7865   2.978   1.951   1.148 -0.7809 -0.2893  0.1873
  530TMC3    C3 7866   3.061   1.847   1.189 -0.0430  0.0920 -0.0988
  530TMC3    C4 7867   3.013   1.860   0.922  0.0211  0.2852 -0.0554
  530TMC3    C5 7868   3.081   1.751   0.974 -0.3979 -0.1242  0.1465
  530TMC3    C6 7869   3.103   1.744   1.109  0.1146  0.1009 -0.3015
  530TMC3     C 7870   2.889   2.077   0.961 -0.6012  0.5734  0.6124
  530TMC3     O 7871   2.894   2.170   1.043  0.1839 -0.4864  0.4929
  530TMC3     H 7872   2.948   2.029   1.218 -1.2664 -2.0611  1.9530
  530TMC3    H1 7873   2.988   1.870   0.817 -0.2389 -0.0880 -0.0283
  530TMC3    H2 7874   3.151   1.655   1.148 -2.1563 -1.1743 -0.4432
  530TMC3    C7 7875   3.076   1.632   0.897 -0.0667  0.4023  0.4990
  530TMC3    C8 7876   3.089   1.838   1.334  0.0153 -0.7136  0.1575
  530TMC3    O1 7877   3.068   1.652   0.777  0.3182 -0.5997 -0.3152
  530TMC3    O2 7878   3.010   1.904   1.399 -0.1761  0.7495  0.1386
  531MPD2     C 7879   2.062   0.242  13.253 -0.0018  0.3563 -0.1598
  531MPD2    C1 7880   1.942   0.195  13.302 -0.3986 -0.4371  0.8541
  531MPD2    C2 7881   1.872   0.114  13.220  0.8371 -0.3287  0.4045
  531MPD2    C3 7882   1.909   0.087  13.086  0.0330  0.4782 -0.1475
  531MPD2    C4 7883   2.025   0.143  13.042 -0.3903 -0.9528 -0.3020
  531MPD2    C5 7884   2.102   0.219  13.127 -0.8070 -0.7280 -0.3798
  531MPD2     H 7885   1.784   0.062  13.257  0.4870 -1.0278 -1.3943
  531MPD2    H1 7886   2.058   0.138  12.939  0.8346 -0.1170  0.0389
  531MPD2    H2 7887   2.125   0.309  13.309 -0.1849 -2.1647  3.0916
  531MPD2    H3 7888   2.187   0.277  13.094 -0.3432  1.1138  4.0310
  531MPD2     N 7889   1.835   4.708  13.010 -0.3551 -0.4676 -0.8690
  531MPD2    H5 7890   1.752   4.674  13.057 -0.5653  1.9841  0.5252
  531MPD2    N1 7891   1.896   0.217  13.436 -0.7104  0.0783 -0.7713
  531MPD2    H7 7892   1.965   0.253  13.501 -1.7853 -0.6581  0.7810
  532TMC3    C1 7893   1.743   0.203  13.615 -0.1936 -0.0993 -0.0997
  532TMC3    C2 7894   1.614   0.162  13.639 -0.3895  0.1910  0.1822
  532TMC3    C3 7895   1.591   0.072  13.740 -0.5895 -0.1438 -0.4752
  532TMC3    C4 7896   1.845   0.178  13.700  0.0747  0.3424 -0.0343
  532TMC3    C5 7897   1.823   0.097  13.809 -0.2085 -0.4113 -0.5565
  532TMC3    C6 7898   1.692   0.035  13.822 -0.1673 -0.8818  0.3144
  532TMC3     C 7899   1.767   0.207  13.472 -1.0008  0.0152 -0.3765
  532TMC3     O 7900   1.673   0.196  13.396 -0.1547 -0.1495 -0.3100
  532TMC3     H 7901   1.531   0.208  13.586  1.2648 -0.8886 -3.3522
  532TMC3    H1 7902   1.944   0.222  13.691  0.7455 -0.5088  3.1832
  532TMC3    H2 7903   1.673   4.681  13.898  1.0567 -1.3172  0.1996
  532TMC3    C7 7904   1.935   0.030  13.884  0.3089 -0.1488 -0.4634
  532TMC3    C8 7905   1.490   4.690  13.709  0.9771 -0.5854  0.4895
  532TMC3    O1 7906   1.906   4.672  13.974 -0.1778  0.8421 -0.3812
  532TMC3    O2 7907   1.469   4.600  13.785 -0.2574 -0.5232  0.6923
  533TMC3    C1 7908   2.512   1.502  14.605  0.3906  0.1292 -0.4961
  533TMC3    C2 7909   2.633   1.558  14.593  0.2921  0.4714  0.4287
  533TMC3    C3 7910   2.661   1.663  14.672 -0.2553 -0.3634  0.1135
  533TMC3    C4 7911   2.417   1.555  14.687 -0.5769 -0.4540  0.3488
  533TMC3    C5 7912   2.444   1.649  14.780 -1.2765 -0.3309  0.1803
  533TMC3    C6 7913   2.564   1.704  14.762  0.0310  0.7907  1.0767
  533TMC3     C 7914   2.505   1.361  14.564 -0.3721 -0.8516  0.2365
  533TMC3     O 7915   2.614   1.304  14.560 -0.3796 -0.2119  0.1890
  533TMC3     H 7916   2.709   1.516  14.528 -1.0325 -2.2031  0.5879
  533TMC3    H1 7917   2.324   1.502  14.703  0.4391 -1.0644  4.4181
  533TMC3    H2 7918   2.585   1.792  14.822 -1.2830  1.9871 -0.2318
  533TMC3    C7 7919   2.439   1.583  14.902 -0.1962  0.2615  0.2703
  533TMC3    C8 7920   2.790   1.714  14.706 -0.3274  0.2055  0.3775
  533TMC3    O1 7921   2.400   1.467  14.901 -0.1049  0.8246 -0.5396
  533TMC3    O2 7922   2.798   1.775  14.811 -0.1657 -0.2010  0.5275
  534MPD2     C 7923   0.287   2.265   2.513  0.3414 -0.4952 -0.1004
  534MPD2    C1 7924   0.403   2.270   2.439 -0.1199  0.1090  0.4128
  534MPD2    C2 7925   0.389   2.266   2.299  0.4532 -0.8411 -0.0567
  534MPD2    C3 7926   0.264   2.270   2.236 -0.3043 -0.3841  0.1012
  534MPD2    C4 7927   0.152   2.262   2.316  0.2353 -0.2761  0.9337
  534MPD2    C5 7928   0.163   2.253   2.449  0.7998  0.8975  0.6891
  534MPD2     H 7929   0.481   2.271   2.241  1.8110 -1.0794  2.0639
  534MPD2    H1 7930   0.055   2.258   2.268  0.9090 -0.8818 -0.3938
  534MPD2    H2 7931   0.286   2.253   2.621 -0.8766 -0.8874 -0.1541
  534MPD2    H3 7932   0.076   2.244   2.513 -1.2101 -0.9857 -2.2871
  534MPD2     N 7933   0.242   2.288   2.099  0.4350  0.5416 -0.3625
  534MPD2    H5 7934   0.144   2.300   2.074  0.2679  1.1097  0.5168
  534MPD2    N1 7935   0.530   2.298   2.496 -0.6185 -0.8321  0.1333
  534MPD2    H7 7936   0.606   2.324   2.433 -0.2878  1.9249  1.6841
  535TMC3    C1 7937   0.282   2.256   1.863 -0.6912  0.5466 -0.1699
  535TMC3    C2 7938   0.153   2.205   1.852  0.0473 -0.0063  0.2919
  535TMC3    C3 7939   0.113   2.168   1.728  0.0397  0.5934 -0.0718
  535TMC3    C4 7940   0.351   2.297   1.751  0.2121  0.1936 -0.6920
  535TMC3    C5 7941   0.293   2.271   1.627 -0.1863 -0.2529 -0.2043
  535TMC3    C6 7942   0.172   2.205   1.612 -0.5016 -0.1902  0.1957
  535TMC3     C 7943   0.335   2.277   1.994 -0.2939  0.0666 -0.0223
  535TMC3     O 7944   0.456   2.248   2.001 -0.0954  0.3121 -0.4587
  535TMC3     H 7945   0.108   2.163   1.942 -0.2463 -1.2035 -0.4188
  535TMC3    H1 7946   0.455   2.327   1.764 -0.1204  0.4882  1.2740
  535TMC3    H2 7947   0.143   2.167   1.514  1.8350  0.8388 -0.8992
  535TMC3    C7 7948   0.391   2.260   1.522  0.4334 -0.4866  0.3698
  535TMC3    C8 7949   4.692   2.117   1.711  0.0206 -0.3590  0.4616
  535TMC3    O1 7950   0.383   2.160   1.448  0.0899 -0.1547 -0.0934
  535TMC3    O2 7951   4.652   2.097   1.599  0.2428 -0.4167  0.2872
  536MPD2     C 7952   4.213   0.674  16.279  0.3315 -0.5510 -0.3277
  536MPD2    C1 7953   4.085   0.638  16.303 -0.2075 -0.1473  0.3479
  536MPD2    C2 7954   3.996   0.632  16.198  0.1794  0.2562 -0.1087
  536MPD2    C3 7955   4.041   0.653  16.062  0.2001  0.4209 -0.2473
  536MPD2    C4 7956   4.178   0.685  16.045  0.8889 -0.0777 -0.1945
  536MPD2    C5 7957   4.259   0.698  16.151 -0.6065 -0.4005  0.1742
  536MPD2     H 7958   3.895   0.597  16.218  0.0714  1.2050  1.0288
  536MPD2    H1 7959   4.217   0.707  15.946  1.1816  0.3866  0.0213
  536MPD2    H2 7960   4.281   0.686  16.362  0.1573  0.0902 -0.2717
  536MPD2    H3 7961   4.364   0.726  16.148 -1.5174  2.9979  0.1397
  536MPD2     N 7962   3.956   0.648  15.951 -0.7801 -0.1957  0.2430
  536MPD2    H5 7963   3.995   0.668  15.860  0.7875 -1.5760  0.6157
  536MPD2    N1 7964   4.055   0.608  16.439 -0.6118 -1.0601 -0.0387
  536MPD2    H7 7965   4.138   0.614  16.498  0.6162 -1.9112 -1.6671
  537TMC3    C1 7966   3.919   0.569  16.637  0.2156 -0.1702 -0.3126
  537TMC3    C2 7967   3.972   0.670  16.707 -0.9352 -0.0740 -0.2177
  537TMC3    C3 7968   3.953   0.678  16.848 -0.3169 -0.4631  0.1222
  537TMC3    C4 7969   3.841   0.478  16.699  0.3818  0.6945  0.2669
  537TMC3    C5 7970   3.832   0.483  16.835  0.0420 -0.2002 -0.3505
  537TMC3    C6 7971   3.890   0.576  16.912  0.2521  0.0452  0.4644
  537TMC3     C 7972   3.941   0.557  16.489 -1.1509 -0.5159 -0.0592
  537TMC3     O 7973   3.844   0.512  16.428  0.0537  0.3855  0.0414
  537TMC3     H 7974   4.011   0.754  16.651 -3.8472  0.9984 -0.6893
  537TMC3    H1 7975   3.801   0.393  16.644 -0.6345  0.3479  1.5342
  537TMC3    H2 7976   3.872   0.591  17.017  1.4067  0.7802  0.5555
  537TMC3    C7 7977   3.770   0.374  16.906 -0.0525 -0.1310 -0.4156
  537TMC3    C8 7978   4.000   0.795  16.924  0.3924 -0.0850 -0.5475
  537TMC3    O1 7979   3.681   0.316  16.847  0.4572 -0.2725  0.3323
  537TMC3    O2 7980   4.033   0.784  17.042  0.0444 -0.2622  0.5738
  538TMC3    C1 7981   0.490   3.493  10.819 -0.8129  1.3040 -0.0004
  538TMC3    C2 7982   0.611   3.562  10.841 -0.5302  0.2420  0.0277
  538TMC3    C3 7983   0.655   3.641  10.736 -0.8514 -1.1203  0.1469
  538TMC3    C4 7984   0.417   3.506  10.704 -0.3126  0.2957  0.6198
  538TMC3    C5 7985   0.466   3.595  10.610  0.2469 -0.0088  0.5717
  538TMC3    C6 7986   0.588   3.659  10.620  0.4974  0.6881  0.1915
  538TMC3     C 7987   0.413   3.443  10.925 -0.2158 -0.0829 -0.9029
  538TMC3     O 7988   0.341   3.345  10.905 -0.4182  0.6322 -0.5308
  538TMC3     H 7989   0.674   3.537  10.926 -0.7218  0.8434  0.3476
  538TMC3    H1 7990   0.329   3.447  10.684 -2.2542  4.2878 -2.5835
  538TMC3    H2 7991   0.631   3.718  10.540  0.6417  0.4379  0.0834
  538TMC3    C7 7992   0.356   3.663  10.558  0.2594 -0.5352 -0.0588
  538TMC3    C8 7993   0.780   3.719  10.752  0.4983 -0.5101 -1.1065
  538TMC3    O1 7994   0.249   3.612  10.528  0.1326 -0.3936  0.0338
  538TMC3    O2 7995   0.825   3.744  10.862  0.2170  0.2537 -0.5190
  539MPD2     C 7996   4.421   2.690  11.886  0.2440 -0.3882  0.0718
  539MPD2    C1 7997   4.460   2.715  11.757  0.1906  0.3575 -0.1381
  539MPD2    C2 7998   4.459   2.850  11.717 -0.1694 -0.5770  0.4041
  539MPD2    C3 7999   4.427   2.956  11.798  0.1590  0.2078 -0.8716
  539MPD2    C4 8000   4.415   2.927  11.929 -0.4945  0.4963  0.8328
  539MPD2    C5 8001   4.404   2.795  11.975  0.3221  0.2811 -0.7765
  539MPD2     H 8002   4.485   2.868  11.613  1.4193 -0.4484  0.8237
  539MPD2    H1 8003   4.395   3.006  12.000 -0.7906  1.5193 -0.3935
  539MPD2    H2 8004   4.413   2.590  11.927  1.4299 -0.5282 -0.0214
  539MPD2    H3 8005   4.396   2.779  12.082  0.2980  0.9356 -0.6792
  539MPD2     N 8006   4.420   3.091  11.758 -0.5385  0.0661 -0.1905
  539MPD2    H5 8007   4.400   3.164  11.825  3.0267  1.2197 -0.3899
  539MPD2    N1 8008   4.487   2.620  11.660  0.2277 -0.0881 -0.4937
  539MPD2    H7 8009   4.530   2.651  11.574 -2.0360  1.5873 -1.0111
  540TMC3    C1 8010   4.416   3.275  11.611  0.4745 -0.2302 -0.5748
  540TMC3    C2 8011   4.467   3.329  11.497 -0.5903  0.2757 -0.1985
  540TMC3    C3 8012   4.454   3.464  11.470  0.1601 -0.1163  0.2034
  540TMC3    C4 8013   4.353   3.349  11.701  0.8631 -0.2409  0.4318
  540TMC3    C5 8014   4.344   3.487  11.670  0.4921 -0.2034 -0.4114
  540TMC3    C6 8015   4.395   3.545  11.555 -0.4316 -0.3051  0.6762
  540TMC3     C 8016   4.432   3.133  11.627  0.4511  0.6353  1.6110
  540TMC3     O 8017   4.502   3.073  11.545  0.6109 -0.4793 -0.0131
  540TMC3     H 8018   4.532   3.273  11.431  0.5925  1.8789 -0.4114
  540TMC3    H1 8019   4.314   3.301  11.790  1.1450  0.1842  0.7869
  540TMC3    H2 8020   4.392   3.653  11.542  1.2679 -0.1430  1.6691
  540TMC3    C7 8021   4.290   3.586  11.762  0.3130  0.4092 -0.0456
  540TMC3    C8 8022   4.466   3.519  11.334  0.2341 -0.8846  0.2158
  540TMC3    O1 8023   4.285   3.700  11.730 -0.4120 -0.0279  0.3322
  540TMC3    O2 8024   4.494   3.635  11.312  0.1169  0.1625 -0.6322
  541MPD2     C 8025   3.301   4.554  13.273  0.2512  1.2861  0.7451
  541MPD2    C1 8026   3.363   4.556  13.154  0.8673  0.2896  0.5881
  541MPD2    C2 8027   3.298   4.623  13.047  0.7009 -0.5204  0.1765
  541MPD2    C3 8028   3.171   4.674  13.060  0.2586  0.1540  0.8007
  541MPD2    C4 8029   3.113   4.671  13.183 -0.2177 -0.0972 -0.1533
  541MPD2    C5 8030   3.178   4.611  13.284  0.3441  0.1681 -0.4068
  541MPD2     H 8031   3.350   4.642  12.953  0.0855 -2.4488 -0.5604
  541MPD2    H1 8032   3.010   4.702  13.199  0.9193  4.0309 -1.0402
  541MPD2    H2 8033   3.339   4.488  13.350 -0.4400  2.2145  1.8732
  541MPD2    H3 8034   3.116   4.593  13.372  0.6651 -2.6034 -0.7448
  541MPD2     N 8035   3.093   0.021  12.964 -0.2448  0.0235  0.3612
  541MPD2    H5 8036   3.007   0.069  12.993 -0.1078  0.3123  0.2938
  541MPD2    N1 8037   3.488   4.488  13.143 -0.4988 -0.9966  0.0500
  541MPD2    H7 8038   3.515   4.437  13.226 -1.1310 -0.2109  0.7464
  542TMC3    C1 8039   3.054   0.127  12.754 -1.0469  0.2992 -0.3391
  542TMC3    C2 8040   3.092   0.129  12.622  0.4578 -0.1837  0.1425
  542TMC3    C3 8041   3.067   0.241  12.546  0.0838 -0.5882  0.4156
  542TMC3    C4 8042   3.004   0.241  12.808  0.1519 -0.4932  1.0977
  542TMC3    C5 8043   2.990   0.355  12.729  0.4395 -0.9033  0.3802
  542TMC3    C6 8044   3.007   0.349  12.595 -0.3561  0.1562  0.0388
  542TMC3     C 8045   3.132   0.032  12.834  0.5559  0.4241 -0.3005
  542TMC3     O 8046   3.205   4.677  12.774  0.4608 -0.4219 -0.0691
  542TMC3     H 8047   3.129   0.037  12.578 -0.4267 -0.3882 -0.1759
  542TMC3    H1 8048   2.980   0.242  12.913 -0.8976 -2.8848  0.8940
  542TMC3    H2 8049   2.987   0.425  12.521 -1.7206 -0.4670 -0.2246
  542TMC3    C7 8050   2.882   0.445  12.763 -0.1885  0.3007  0.1285
  542TMC3    C8 8051   3.074   0.232  12.400 -0.3638 -0.0186 -0.1257
  542TMC3    O1 8052   2.790   0.390  12.821  0.1520  0.2522  0.5323
  542TMC3    O2 8053   2.994   0.293  12.325 -0.0073  0.2648 -0.8332
  543TMC3    C1 8054   2.611   1.382  17.170 -0.1562 -0.8710  0.5550
  543TMC3    C2 8055   2.571   1.256  17.184 -0.3897  0.4695 -0.1642
  543TMC3    C3 8056   2.492   1.230  17.285 -0.4943  0.5397  0.5621
  543TMC3    C4 8057   2.568   1.485  17.245 -0.0246  0.2709  0.6040
  543TMC3    C5 8058   2.490   1.452  17.353 -0.1008  0.4220  0.6296
  543TMC3    C6 8059   2.456   1.324  17.382 -0.0446 -0.5223 -0.3839
  543TMC3     C 8060   2.715   1.405  17.074 -0.5163  0.1994  0.3071
  543TMC3     O 8061   2.794   1.311  17.062 -0.3244 -0.2317  0.2455
  543TMC3     H 8062   2.594   1.176  17.114  2.7789  0.5630  0.7682
  543TMC3    H1 8063   2.598   1.587  17.226  0.8176  0.1053  1.0235
  543TMC3    H2 8064   2.418   1.294  17.479  2.7053  0.5931  1.0311
  543TMC3    C7 8065   2.497   1.546  17.464  0.2971 -0.0597  0.7529
  543TMC3    C8 8066   2.471   1.088  17.311  0.2376 -0.1460  0.3885
  543TMC3    O1 8067   2.603   1.609  17.473  0.1429 -0.1551  0.6596
  543TMC3    O2 8068   2.543   1.008  17.254  0.6382  0.5305  0.2598
  544MPD2     C 8069   2.254   0.702  17.568 -0.1225  0.6195  0.1435
  544MPD2    C1 8070   2.380   0.706  17.502  0.4946 -0.0204  0.3029
  544MPD2    C2 8071   2.422   0.823  17.441  0.7614 -0.8312  0.4150
  544MPD2    C3 8072   2.342   0.941  17.465 -0.2406  0.2889  0.0472
  544MPD2    C4 8073   2.224   0.937  17.540 -0.6854 -0.2285 -0.3721
  544MPD2    C5 8074   2.185   0.820  17.598 -0.0303 -0.4928 -0.5538
  544MPD2     H 8075   2.519   0.826  17.392 -0.7657 -0.3326 -2.5540
  544MPD2    H1 8076   2.169   1.027  17.562 -1.4387 -0.2704 -2.0707
  544MPD2    H2 8077   2.211   0.614  17.615  0.4905 -1.0682 -2.3979
  544MPD2    H3 8078   2.093   0.818  17.656  0.1142 -1.7992 -0.3674
  544MPD2     N 8079   2.371   1.070  17.403 -0.5445 -0.0048 -0.1142
  544MPD2    H5 8080   2.312   1.150  17.424  0.1504 -0.0127  1.8036
  544MPD2    N1 8081   2.443   0.581  17.485 -0.0200  0.3184  0.7542
  544MPD2    H7 8082   2.394   0.505  17.532  0.1218 -0.2740 -0.0569
  545TMC3    C1 8083   2.601   0.407  17.431  0.5745 -0.5366 -0.0402
  545TMC3    C2 8084   2.714   0.363  17.362 -0.0039  0.8329  0.4448
  545TMC3    C3 8085   2.761   0.236  17.394  0.4817  0.1487  0.1578
  545TMC3    C4 8086   2.552   0.330  17.532 -0.5033 -0.8317  0.8167
  545TMC3    C5 8087   2.610   0.204  17.568  0.2710  0.4477 -0.0001
  545TMC3    C6 8088   2.722   0.160  17.500 -0.0392 -0.4147 -0.3016
  545TMC3     C 8089   2.563   0.550  17.426 -0.3830  0.3368  0.2429
  545TMC3     O 8090   2.640   0.614  17.360  0.1895 -0.6768  0.2374
  545TMC3     H 8091   2.770   0.426  17.294  1.8935 -1.1465  0.1495
  545TMC3    H1 8092   2.483   0.367  17.607  1.1502  1.0454  1.3951
  545TMC3    H2 8093   2.775   0.068  17.521 -1.8920 -1.5927 -0.8501
  545TMC3    C7 8094   2.556   0.143   0.008  0.2804 -0.4068  0.1840
  545TMC3    C8 8095   2.894   0.196  17.338 -0.6526  0.3377  0.8062
  545TMC3    O1 8096   2.447   0.183   0.046 -0.5110 -0.1184 -0.9462
  545TMC3    O2 8097   2.955   0.103  17.390  0.3411 -0.2338  0.1524
  546MPD2     C 8098   4.019   1.300   0.031  1.1550 -0.3350 -0.2860
  546MPD2    C1 8099   3.975   1.299  17.575 -0.5434  0.1036 -0.6359
  546MPD2    C2 8100   4.005   1.409  17.497  0.7511 -0.0380  0.1312
  546MPD2    C3 8101   4.067   1.520  17.558 -0.7119 -0.2714 -0.1760
  546MPD2    C4 8102   4.095   1.526   0.011 -0.4488  0.2879 -0.5765
  546MPD2    C5 8103   4.078   1.409   0.082 -0.2580 -0.3698  0.6021
  546MPD2     H 8104   3.980   1.411  17.392 -1.4947  0.2948  0.6847
  546MPD2    H1 8105   4.148   1.611   0.050 -0.9708 -0.5161  1.8863
  546MPD2    H2 8106   4.006   1.214   0.095 -1.8029 -0.5406 -1.1443
  546MPD2    H3 8107   4.112   1.391   0.184  0.7442  2.0311  0.6875
  546MPD2     N 8108   4.081   1.635  17.483 -0.0999 -0.6385 -0.7311
  546MPD2    H5 8109   4.091   1.721  17.536 -0.1139  0.1068 -1.9431
  546MPD2    N1 8110   3.921   1.184  17.513 -0.5207 -0.3502 -0.9802
  546MPD2    H7 8111   3.903   1.110  17.580  0.5161  1.5022  1.3468
  547TMC3    C1 8112   3.822   1.038  17.360  0.6517  0.4573  0.1848
  547TMC3    C2 8113   3.754   1.034  17.242 -0.2241 -0.4904 -0.6615
  547TMC3    C3 8114   3.705   0.911  17.201 -0.0806  0.0554  0.4232
  547TMC3    C4 8115   3.833   0.935  17.444 -0.6258 -0.5833  0.5250
  547TMC3    C5 8116   3.781   0.815  17.400  0.2659 -0.0589  0.6707
  547TMC3    C6 8117   3.714   0.796  17.282  0.7902  0.2945  0.3397
  547TMC3     C 8118   3.868   1.172  17.390 -0.7309 -0.0882 -0.1463
  547TMC3     O 8119   3.844   1.253  17.305  0.0159 -0.2439  0.2491
  547TMC3     H 8120   3.761   1.116  17.172 -1.8113 -1.0411 -1.4649
  547TMC3    H1 8121   3.900   0.936  17.530 -2.4132 -0.6913  1.9334
  547TMC3    H2 8122   3.637   0.720  17.274  0.7941  0.0700  2.5701
  547TMC3    C7 8123   3.765   0.723  17.512  0.0034 -0.2428 -0.9512
  547TMC3    C8 8124   3.631   0.911  17.077 -0.3883 -0.3003 -0.4221
  547TMC3    O1 8125   3.809   0.761  17.622 -0.5984  0.0193 -0.7087
  547TMC3    O2 8126   3.587   1.021  17.045  0.5208 -0.1115  0.1953
  548MPD2     C 8127   3.674   2.008  12.699  0.3802  0.2189 -0.1780
  548MPD2    C1 8128   3.554   1.947  12.723  0.0892  0.1317 -0.0202
  548MPD2    C2 8129   3.559   1.814  12.770  0.0950 -0.2079 -0.1805
  548MPD2    C3 8130   3.669   1.736  12.747  0.2166 -0.3575 -0.1769
  548MPD2    C4 8131   3.785   1.792  12.708  0.2700 -0.3246 -0.0256
  548MPD2    C5 8132   3.787   1.929  12.693  0.0882 -0.1191  0.0574
  548MPD2     H 8133   3.474   1.762  12.813  0.3908  0.9799  1.8697
  548MPD2    H1 8134   3.877   1.737  12.691  1.4635  1.1461  1.5500
  548MPD2    H2 8135   3.685   2.112  12.674 -0.5965  0.6857  1.3188
  548MPD2    H3 8136   3.875   1.978  12.653  0.1129  0.0377  0.3069
  548MPD2     N 8137   3.652   1.598  12.779  0.3819  0.1796  0.0891
  548MPD2    H5 8138   3.570   1.567  12.829  0.5989  0.5584  0.6744
  548MPD2    N1 8139   3.434   2.023  12.731  1.1035 -0.0732  0.5792
  548MPD2    H7 8140   3.449   2.123  12.732 -0.9990  0.2614 -1.0036
  549TMC3    C1 8141   3.213   2.065  12.754 -0.2962 -0.5460 -0.2007
  549TMC3    C2 8142   3.215   2.184  12.683 -0.2017 -0.3953 -0.2173
  549TMC3    C3 8143   3.092   2.239  12.658 -0.2346 -0.2803 -0.2992
  549TMC3    C4 8144   3.102   2.000  12.795 -0.0914  0.1660 -0.1631
  549TMC3    C5 8145   2.985   2.061  12.771 -0.7652 -0.0063 -0.5040
  549TMC3    C6 8146   2.975   2.181  12.711  0.6751 -0.1714  0.6505
  549TMC3     C 8147   3.315   1.970  12.736  0.2182  0.3707  0.2385
  549TMC3     O 8148   3.284   1.855  12.729  0.1198 -0.1598 -0.3027
  549TMC3     H 8149   3.299   2.222  12.625  1.9513 -0.6953  2.7038
  549TMC3    H1 8150   3.107   1.905  12.847 -0.5881  0.7518  0.9660
  549TMC3    H2 8151   2.879   2.223  12.685  2.0987  2.0495 -1.0151
  549TMC3    C7 8152   2.856   1.990  12.773  0.0993 -0.4352  0.0959
  549TMC3    C8 8153   3.074   2.334  12.548 -0.6048  0.2597  0.0739
  549TMC3    O1 8154   2.756   2.021  12.709  0.3070  0.2295  0.7813
  549TMC3    O2 8155   2.962   2.353  12.509  0.0668  0.2559  0.3581
  550TMC3    C1 8156   2.730   0.056  12.061  0.7468 -0.1215 -0.0902
  550TMC3    C2 8157   2.650   0.089  12.167 -0.3646  0.7087  0.0741
  550TMC3    C3 8158   2.535   0.161  12.137  0.5227 -0.4911  0.5224
  550TMC3    C4 8159   2.699   0.085  11.932 -0.1869 -0.4962  0.0787
  550TMC3    C5 8160   2.575   0.142  11.903  0.6907  0.4249 -0.2312
  550TMC3    C6 8161   2.496   0.182  12.003 -0.8350 -0.1641 -0.0219
  550TMC3     C 8162   2.811   4.658  12.077  0.3811 -0.4650 -0.2464
  550TMC3     O 8163   2.864   4.632  12.184  0.0257 -0.1087  0.2037
  550TMC3     H 8164   2.681   0.067  12.268  1.2352  0.1445 -0.5378
  550TMC3    H1 8165   2.764   0.064  11.849 -0.8678 -2.7853  0.1429
  550TMC3    H2 8166   2.399   0.228  11.990  0.6667  2.9906  0.0610
  550TMC3    C7 8167   2.508   0.100  11.781  0.1212  0.1704 -0.5500
  550TMC3    C8 8168   2.420   0.171  12.226  0.1718  0.7327 -0.0488
  550TMC3    O1 8169   2.570   0.021  11.711 -0.5218  0.1706  0.2540
  550TMC3    O2 8170   2.350   0.271  12.223  0.0439  0.9741  0.5296
  551TMC3    C1 8171   0.341   2.243  13.491 -0.6343 -0.4290 -0.9189
  551TMC3    C2 8172   0.408   2.272  13.376 -0.5530  0.7371 -0.2939
  551TMC3    C3 8173   0.515   2.358  13.389 -0.2829 -0.2157 -0.0934
  551TMC3    C4 8174   0.371   2.296  13.620 -0.2963 -0.2375  0.3015
  551TMC3    C5 8175   0.479   2.377  13.620 -0.7919 -0.3193 -0.2098
  551TMC3    C6 8176   0.545   2.421  13.507 -0.2123 -0.1955 -0.3102
  551TMC3     C 8177   0.207   2.191  13.468 -0.2272  0.7325 -0.0185
  551TMC3     O 8178   0.167   2.167  13.356 -1.1306  0.1485 -0.2860
  551TMC3     H 8179   0.385   2.240  13.275  0.0126 -4.1496  1.1206
  551TMC3    H1 8180   0.319   2.271  13.712 -0.1188 -2.0169 -0.0875
  551TMC3    H2 8181   0.634   2.483  13.505 -0.3414 -0.0705 -2.7583
  551TMC3    C7 8182   0.496   2.438  13.744 -0.6269  0.3233 -0.3893
  551TMC3    C8 8183   0.584   2.391  13.270 -0.3070  0.2785 -0.2959
  551TMC3    O1 8184   0.482   2.368  13.845 -0.2314 -0.0123 -0.1140
  551TMC3    O2 8185   0.634   2.294  13.214  0.0519  0.3152 -0.4999
  552MPD2     C 8186   2.207   4.004  14.484  0.3422  0.0202 -0.0485
  552MPD2    C1 8187   2.318   4.060  14.434  0.1558 -0.0253  0.4596
  552MPD2    C2 8188   2.432   4.048  14.502 -0.4128  0.7237  0.1439
  552MPD2    C3 8189   2.433   4.002  14.629  0.0094  0.1765  0.2400
  552MPD2    C4 8190   2.323   3.938  14.675  0.3897 -0.5429 -0.5019
  552MPD2    C5 8191   2.203   3.940  14.606 -0.4646  0.4575  0.3957
  552MPD2     H 8192   2.531   4.078  14.468  0.3490 -0.0986  1.6285
  552MPD2    H1 8193   2.330   3.880  14.766  0.5258 -1.8100 -1.3248
  552MPD2    H2 8194   2.107   4.010  14.442  0.5079  0.4284 -0.3800
  552MPD2    H3 8195   2.116   3.883  14.636 -0.4110 -0.0266 -0.3806
  552MPD2     N 8196   2.549   3.987  14.709  0.0265  0.8076  0.3302
  552MPD2    H5 8197   2.544   3.909  14.773  1.9034 -0.3583 -0.9591
  552MPD2    N1 8198   2.331   4.100  14.302  0.1958  0.0417 -0.0675
  552MPD2    H7 8199   2.423   4.140  14.286  0.3228  0.6925  2.2770
  553TMC3    C1 8200   2.292   4.117  14.073 -0.1899  0.0868  0.3179
  553TMC3    C2 8201   2.200   4.135  13.974  0.4224  0.2238 -0.4111
  553TMC3    C3 8202   2.244   4.162  13.852 -0.3291 -0.3583 -0.6026
  553TMC3    C4 8203   2.424   4.129  14.046 -0.7605  0.3795  0.1778
  553TMC3    C5 8204   2.466   4.146  13.920 -0.4639 -0.2931 -0.6581
  553TMC3    C6 8205   2.374   4.161  13.814  0.2637 -0.1668  0.5755
  553TMC3     C 8206   2.233   4.110  14.208  0.4578  0.0168 -0.1113
  553TMC3     O 8207   2.113   4.098  14.219  0.2617  0.1597  0.0463
  553TMC3     H 8208   2.095   4.144  14.002  0.1103 -0.4859 -1.3678
  553TMC3    H1 8209   2.501   4.111  14.121 -0.2866 -0.9892 -0.6339
  553TMC3    H2 8210   2.406   4.174  13.711  0.0355  1.7497  0.7566
  553TMC3    C7 8211   2.566   4.254  13.913 -0.1053  0.3114 -0.0237
  553TMC3    C8 8212   2.164   4.266  13.780  0.3455  0.6760  0.1024
  553TMC3    O1 8213   2.541   4.330  13.819 -0.3952  0.4404  0.0064
  553TMC3    O2 8214   2.043   4.289  13.802  0.5045 -0.4612 -0.0267
  554TMC3    C1 8215   3.565   3.112  11.496 -0.1793 -0.1641 -0.4224
  554TMC3    C2 8216   3.567   3.047  11.373 -0.2564 -0.1898  1.3714
  554TMC3    C3 8217   3.656   3.086  11.280  0.5884 -0.0605  0.1183
  554TMC3    C4 8218   3.660   3.209  11.527  0.0524 -0.3047  0.2394
  554TMC3    C5 8219   3.742   3.248  11.425  0.5646  0.3235  0.8048
  554TMC3    C6 8220   3.739   3.188  11.303  0.1998 -0.4211 -0.1449
  554TMC3     C 8221   3.520   3.030  11.601 -0.4756 -0.2714  0.2319
  554TMC3     O 8222   3.445   2.932  11.574  0.2895 -0.4853 -0.4913
  554TMC3     H 8223   3.495   2.969  11.350  1.4079 -0.3858 -3.0354
  554TMC3    H1 8224   3.653   3.253  11.626  0.4143 -2.1905  1.0974
  554TMC3    H2 8225   3.803   3.217  11.221  0.7292  1.5711  0.9774
  554TMC3    C7 8226   3.820   3.371  11.441  0.2928  0.3863 -0.4819
  554TMC3    C8 8227   3.624   3.061  11.139  0.6313  0.9865  0.5202
  554TMC3    O1 8228   3.796   3.435  11.545 -0.0126 -0.4670  0.5249
  554TMC3    O2 8229   3.710   3.053  11.052  0.0229  0.5273 -0.0345
  555TMC3    C1 8230   3.188   2.873  15.041  0.1211 -0.0907 -0.0433
  555TMC3    C2 8231   3.129   2.944  15.139  0.5483  0.0289  0.1835
  555TMC3    C3 8232   3.150   2.894  15.270  0.7537 -0.1445 -0.0010
  555TMC3    C4 8233   3.236   2.749  15.062  0.5342 -0.8020  0.6206
  555TMC3    C5 8234   3.247   2.698  15.191 -0.2474  0.1313  0.2211
  555TMC3    C6 8235   3.204   2.774  15.301 -0.1232  0.4175  0.0170
  555TMC3     C 8236   3.236   2.939  14.918  0.3959  0.1283 -0.1849
  555TMC3     O 8237   3.291   2.868  14.835  0.1878 -0.4703  0.2589
  555TMC3     H 8238   3.075   3.037  15.126  0.8409 -0.1308 -2.3092
  555TMC3    H1 8239   3.260   2.685  14.979 -1.3824 -0.8003  0.0706
  555TMC3    H2 8240   3.204   2.733  15.401  0.8477 -0.4885 -0.3479
  555TMC3    C7 8241   3.250   2.557  15.206  0.0672 -0.2539  0.4345
  555TMC3    C8 8242   3.111   2.991  15.375  0.3794 -1.0930 -0.1717
  555TMC3    O1 8243   3.242   2.512  15.318  0.1056  0.0371  0.1699
  555TMC3    O2 8244   3.012   3.062  15.348 -0.4544  0.0181 -0.3501
  556MPD2     C 8245   0.747   0.163  10.333 -0.5930 -0.4177 -0.2933
  556MPD2    C1 8246   0.793   0.078  10.427  0.1492  0.5332  0.5011
  556MPD2    C2 8247   0.831   4.675  10.381  0.1989 -0.2152 -0.4690
  556MPD2    C3 8248   0.827   4.637  10.248 -0.1556 -0.1397  0.3380
  556MPD2    C4 8249   0.770   0.005  10.153 -0.1651  0.4978 -0.1357
  556MPD2    C5 8250   0.736   0.128  10.198  0.3566  0.6889  0.4045
  556MPD2     H 8251   0.874   4.608  10.454  2.0945 -0.4743 -1.8234
  556MPD2    H1 8252   0.766   4.705  10.047  2.3372  2.1132 -0.5226
  556MPD2    H2 8253   0.695   0.254  10.362 -0.1219  0.1683 -1.3136
  556MPD2    H3 8254   0.717   0.208  10.128 -3.2944 -0.5076  0.0173
  556MPD2     N 8255   0.896   4.519  10.207 -0.8660  0.0034  0.0344
  556MPD2    H5 8256   0.939   4.476  10.288  1.2211  2.3704  0.1828
  556MPD2    N1 8257   0.798   0.114  10.568  0.4669  0.1497 -0.0215
  556MPD2    H7 8258   0.813   0.042  10.638 -3.1480  0.1813  0.7732
  557TMC3    C1 8259   0.969   4.351  10.055 -0.0232 -0.8656 -0.0810
  557TMC3    C2 8260   0.985   4.318   9.923 -0.7984  0.4229 -0.2606
  557TMC3    C3 8261   1.019   4.187   9.889 -0.3905  0.0759  0.0538
  557TMC3    C4 8262   0.960   4.261  10.150 -0.0542 -0.0024  0.2462
  557TMC3    C5 8263   1.000   4.134  10.115 -0.3356 -0.2138 -0.0371
  557TMC3    C6 8264   1.022   4.087   9.991  0.3207  0.6361 -0.3117
  557TMC3     C 8265   0.904   4.479  10.075 -0.1963 -1.3965 -0.0612
  557TMC3     O 8266   0.880   4.542   9.970 -0.1971 -0.2258  0.3264
  557TMC3     H 8267   0.984   4.393   9.845  0.6914 -0.3475 -1.0241
  557TMC3    H1 8268   0.947   4.290  10.254  0.7637 -1.2835  0.7027
  557TMC3    H2 8269   1.071   3.990   9.981  0.6684  0.8814 -1.0178
  557TMC3    C7 8270   1.003   4.045  10.224  0.0020 -0.0222 -0.1024
  557TMC3    C8 8271   1.052   4.165   9.752  0.5441  0.6340  0.1745
  557TMC3    O1 8272   0.979   3.923  10.197  0.1759 -0.4092 -1.0112
  557TMC3    O2 8273   1.102   4.255   9.683 -0.1995  0.5949 -0.1703
  558TMC3    C1 8274   3.297   2.402   9.951  0.3547  0.7021 -0.4855
  558TMC3    C2 8275   3.181   2.406  10.017  0.8191 -0.3626  0.4134
  558TMC3    C3 8276   3.063   2.455   9.961  0.6234 -0.4788  0.1830
  558TMC3    C4 8277   3.295   2.454   9.827  0.1087  0.4288  0.3390
  558TMC3    C5 8278   3.181   2.506   9.773  0.6425 -0.0446 -0.0394
  558TMC3    C6 8279   3.060   2.509   9.836 -0.1505  0.1395  0.3129
  558TMC3     C 8280   3.424   2.367  10.008 -0.1518  0.1949 -0.2508
  558TMC3     O 8281   3.522   2.348   9.935 -0.1510  0.2897 -0.6374
  558TMC3     H 8282   3.184   2.340  10.103 -1.4191  0.2081  0.9261
  558TMC3    H1 8283   3.389   2.455   9.773 -0.6352 -0.7118 -0.9939
  558TMC3    H2 8284   2.967   2.545   9.794 -0.8254 -0.0259  1.6812
  558TMC3    C7 8285   3.190   2.524   9.631  0.2492 -0.3171 -0.0735
  558TMC3    C8 8286   2.934   2.411  10.017  0.0788 -0.5298 -0.2590
  558TMC3    O1 8287   3.297   2.535   9.574 -0.3876  0.1494  0.1529
  558TMC3    O2 8288   2.841   2.391   9.940 -0.1303 -0.4033  0.2427
  559MPD2     C 8289   3.360   2.650  10.510  0.0547  1.0558 -0.1100
  559MPD2    C1 8290   3.312   2.571  10.612  0.2750  0.0208  0.7523
  559MPD2    C2 8291   3.399   2.502  10.693 -0.8998  0.0745 -0.0448
  559MPD2    C3 8292   3.538   2.505  10.664 -1.1577 -0.6318  0.0863
  559MPD2    C4 8293   3.580   2.586  10.564  0.1078 -0.1525 -0.0872
  559MPD2    C5 8294   3.494   2.666  10.494  0.2568 -0.2018 -1.3343
  559MPD2     H 8295   3.363   2.443  10.777  0.7394  0.0711  0.6527
  559MPD2    H1 8296   3.686   2.594  10.546  0.2075  1.2274  1.1155
  559MPD2    H2 8297   3.295   2.715  10.453 -0.9654  0.8054  0.7776
  559MPD2    H3 8298   3.530   2.735  10.418 -0.0735 -1.4035 -2.5756
  559MPD2     N 8299   3.620   2.421  10.744  0.6437  0.1942  0.0325
  559MPD2    H5 8300   3.574   2.376  10.823  2.4893  1.6360  1.9142
  559MPD2    N1 8301   3.175   2.585  10.636  0.2805 -0.1174  0.1608
  559MPD2    H7 8302   3.116   2.632  10.569 -0.6418  0.5599  1.4432
  560TMC3    C1 8303   3.797   2.289  10.804 -0.4685 -0.7564 -0.0318
  560TMC3    C2 8304   3.707   2.188  10.819  0.3709  0.0299 -0.4898
  560TMC3    C3 8305   3.714   2.128  10.940 -0.2373 -0.2650  0.3297
  560TMC3    C4 8306   3.882   2.327  10.900 -0.5242  0.5359  0.2802
  560TMC3    C5 8307   3.873   2.281  11.026 -0.4072  0.7390  0.2501
  560TMC3    C6 8308   3.781   2.180  11.049 -0.5393 -0.0471 -0.5328
  560TMC3     C 8309   3.755   2.392  10.718  0.0603 -0.2317 -0.0274
  560TMC3     O 8310   3.838   2.437  10.639 -0.1794 -0.5023 -0.3001
  560TMC3     H 8311   3.639   2.154  10.741 -0.7715  3.8531 -1.1898
  560TMC3    H1 8312   3.935   2.417  10.872  0.5179  0.1432  1.0067
  560TMC3    H2 8313   3.772   2.143  11.150 -0.8221  1.0212 -0.1701
  560TMC3    C7 8314   3.922   2.349  11.141  0.1362 -0.0073  0.0869
  560TMC3    C8 8315   3.615   2.024  10.961  0.0282 -0.1761 -0.0354
  560TMC3    O1 8316   3.867   2.321  11.244 -0.6386  0.8974 -0.2521
  560TMC3    O2 8317   3.562   1.978  10.863  0.3828  0.1312  0.0082
  561TMC3    C1 8318   0.919   1.585  11.335 -0.2812 -0.0640 -0.3403
  561TMC3    C2 8319   0.862   1.504  11.432  0.5091 -1.0358  0.0983
  561TMC3    C3 8320   0.907   1.538  11.559  1.1123 -0.1227  0.5232
  561TMC3    C4 8321   1.000   1.692  11.365  0.2220  0.0979 -0.5206
  561TMC3    C5 8322   1.046   1.704  11.491 -0.1535  0.0759  0.1612
  561TMC3    C6 8323   1.010   1.623  11.593  0.2774  0.2261  0.4909
  561TMC3     C 8324   0.873   1.563  11.196  0.0958  0.7007  0.0760
  561TMC3     O 8325   0.795   1.470  11.196 -0.0573  0.0819  0.0811
  561TMC3     H 8326   0.811   1.410  11.411  0.9829 -1.5327  1.1826
  561TMC3    H1 8327   1.018   1.769  11.290  0.0601  0.3724 -0.2777
  561TMC3    H2 8328   1.058   1.621  11.691 -1.4194  1.5896  1.3631
  561TMC3    C7 8329   1.078   1.838  11.547 -0.5194 -0.3274 -0.0105
  561TMC3    C8 8330   0.864   1.465  11.681  0.0018 -0.4853 -0.3742
  561TMC3    O1 8331   1.045   1.852  11.667 -0.2198  0.3926  0.5360
  561TMC3    O2 8332   0.862   1.345  11.675  0.3615 -0.2877  0.0572
  562TMC3    C1 8333   3.237   2.988  16.456 -0.0029 -0.3081  0.3260
  562TMC3    C2 8334   3.190   3.104  16.406  0.7093  0.5272  0.0404
  562TMC3    C3 8335   3.180   3.107  16.271  0.2634  0.1275  0.0943
  562TMC3    C4 8336   3.288   2.884  16.383 -0.4154  0.4202  0.0951
  562TMC3    C5 8337   3.280   2.897  16.250 -0.2693 -0.1724  0.0138
  562TMC3    C6 8338   3.215   3.000  16.190 -0.1969 -0.0077 -0.7594
  562TMC3     C 8339   3.268   2.979  16.601 -0.1850 -0.3829 -0.1990
  562TMC3     O 8340   3.303   2.876  16.654  0.3463 -0.4262 -0.0464
  562TMC3     H 8341   3.140   3.178  16.468 -0.1929 -1.5870  1.8392
  562TMC3    H1 8342   3.340   2.802  16.431 -3.0157  0.9579  3.8081
  562TMC3    H2 8343   3.197   3.016  16.084  1.3178  2.1134 -0.7035
  562TMC3    C7 8344   3.357   2.805  16.162  0.6004 -0.1466 -0.1844
  562TMC3    C8 8345   3.092   3.213  16.221 -0.3927 -0.3845 -0.0913
  562TMC3    O1 8346   3.337   2.818  16.043 -0.5977  0.4779 -0.1869
  562TMC3    O2 8347   3.093   3.318  16.285 -0.0635 -0.1370 -0.7035
  563MPD2     C 8348   0.473   4.250  15.894  0.6769 -0.1319  0.5362
  563MPD2    C1 8349   0.480   4.280  16.025 -0.3371  0.3123 -0.1259
  563MPD2    C2 8350   0.572   4.216  16.107  0.3789 -0.5375 -0.2209
  563MPD2    C3 8351   0.657   4.115  16.055 -0.5245  0.0975  0.1295
  563MPD2    C4 8352   0.625   4.064  15.932 -0.2142 -0.6839 -0.3086
  563MPD2    C5 8353   0.540   4.136  15.853  0.2174  0.0351  0.2767
  563MPD2     H 8354   0.591   4.257  16.206  0.9603  1.5283 -1.1950
  563MPD2    H1 8355   0.696   3.999  15.883 -0.1404 -2.4328  2.1227
  563MPD2    H2 8356   0.412   4.310  15.827  0.2174  1.2206  2.1668
  563MPD2    H3 8357   0.532   4.109  15.748  1.4683  1.6596 -0.2415
  563MPD2     N 8358   0.754   4.062  16.153 -0.5351  0.2461  0.4234
  563MPD2    H5 8359   0.756   4.097  16.248  0.2455  1.7482 -0.1430
  563MPD2    N1 8360   0.402   4.383  16.092  0.3500  0.6636 -0.2002
  563MPD2    H7 8361   0.428   4.395  16.190  0.4532  1.9680 -0.3965
  564TMC3    C1 8362   0.206   4.496  16.154 -0.3526  0.4833  0.1193
  564TMC3    C2 8363   0.079   4.450  16.125 -0.1632 -0.4588 -0.3934
  564TMC3    C3 8364   0.027   4.367  16.212  0.4617 -0.0585  0.2918
  564TMC3    C4 8365   0.272   4.475  16.270 -0.8592  0.2351 -0.5455
  564TMC3    C5 8366   0.217   4.379  16.355  0.0850  0.0938 -0.3661
  564TMC3    C6 8367   0.089   4.328  16.329  0.1966  0.0457  0.4030
  564TMC3     C 8368   0.294   4.452  16.046  1.5274  0.7193 -0.4513
  564TMC3     O 8369   0.239   4.432  15.940  0.4231 -0.5533  0.2780
  564TMC3     H 8370   0.012   4.490  16.050 -2.0396  0.3463  1.7226
  564TMC3    H1 8371   0.365   4.524  16.295 -0.3456 -1.4502  0.9092
  564TMC3    H2 8372   0.044   4.259  16.400 -0.0412  1.8058  1.9691
  564TMC3    C7 8373   0.315   4.272  16.380  0.2857  0.4335  0.2872
  564TMC3    C8 8374   4.679   4.256  16.151 -0.2735  0.5754 -0.0005
  564TMC3    O1 8375   0.427   4.302  16.416 -0.4020  0.0540  0.2351
  564TMC3    O2 8376   4.606   4.184  16.221 -0.7013  0.0022 -0.0406
  565TMC3    C1 8377   0.782   1.548   9.898 -0.1720 -0.1735  0.7949
  565TMC3    C2 8378   0.716   1.484   9.993 -0.2561 -0.5941  0.0234
  565TMC3    C3 8379   0.632   1.382   9.945  0.0445 -0.1855  0.3595
  565TMC3    C4 8380   0.768   1.517   9.762  0.7162 -0.3666 -0.2917
  565TMC3    C5 8381   0.681   1.419   9.721 -0.3626  0.4781  0.0089
  565TMC3    C6 8382   0.610   1.356   9.817 -0.7076 -0.3879  0.1338
  565TMC3     C 8383   0.864   1.661   9.927 -0.3998  0.3433  0.1987
  565TMC3     O 8384   0.889   1.727   9.828 -0.7955  0.0901 -0.2430
  565TMC3     H 8385   0.713   1.500  10.100 -0.7987 -0.5772  0.0060
  565TMC3    H1 8386   0.836   1.561   9.691  0.8965  0.3048  0.2932
  565TMC3    H2 8387   0.562   1.263   9.789 -0.5127 -0.6763  0.7634
  565TMC3    C7 8388   0.628   1.421   9.583  0.7295  0.0371 -0.0743
  565TMC3    C8 8389   0.537   1.321  10.040 -0.3760 -0.1692  0.1955
  565TMC3    O1 8390   0.563   1.327   9.551 -0.1026  0.1978 -0.5972
  565TMC3    O2 8391   0.557   1.331  10.159 -0.2039  0.5355 -0.0119
  566MPD2     C 8392   2.508   3.385  14.298  0.2580 -0.3189 -0.2474
  566MPD2    C1 8393   2.554   3.260  14.316  0.4189  0.0709  0.2689
  566MPD2    C2 8394   2.475   3.148  14.302 -0.3172  0.1553  1.1265
  566MPD2    C3 8395   2.342   3.155  14.257  0.1443  0.4949  0.0137
  566MPD2    C4 8396   2.295   3.286  14.247 -0.1002 -0.5554  0.1525
  566MPD2    C5 8397   2.380   3.392  14.261 -0.4674  0.4799 -0.5168
  566MPD2     H 8398   2.518   3.055  14.336 -0.4324 -0.4375 -0.3678
  566MPD2    H1 8399   2.191   3.297  14.217 -0.3353 -2.0377  0.4263
  566MPD2    H2 8400   2.568   3.472  14.324 -0.9367  0.8908 -1.5417
  566MPD2    H3 8401   2.343   3.493  14.247  0.6838  1.0419  0.4957
  566MPD2     N 8402   2.249   3.051  14.238  0.0445 -0.8876 -0.2252
  566MPD2    H5 8403   2.155   3.082  14.212  0.9205  0.1617 -2.1504
  566MPD2    N1 8404   2.685   3.242  14.372 -1.0427  0.0727 -0.0570
  566MPD2    H7 8405   2.717   3.148  14.391  1.4830  0.6096 -1.6451
  567TMC3    C1 8406   2.910   3.264  14.404  0.9661 -0.9205 -0.0953
  567TMC3    C2 8407   3.002   3.266  14.303  0.3285 -0.0547 -0.1499
  567TMC3    C3 8408   3.076   3.155  14.270  0.0698  0.3795  0.0780
  567TMC3    C4 8409   2.903   3.146  14.480 -0.3979 -0.1763 -0.3113
  567TMC3    C5 8410   2.999   3.050  14.462  0.0969 -0.1032 -0.0691
  567TMC3    C6 8411   3.090   3.052  14.356  0.0215  0.4804 -0.7167
  567TMC3     C 8412   2.788   3.331  14.364  0.3614 -0.3207 -0.0790
  567TMC3     O 8413   2.798   3.443  14.314  0.8513  0.5048 -0.1788
  567TMC3     H 8414   3.001   3.343  14.226 -0.2230  0.1888  0.1002
  567TMC3    H1 8415   2.825   3.132  14.554  1.3260 -2.4930  1.0838
  567TMC3    H2 8416   3.164   2.974  14.345  0.1574  0.1853  2.2921
  567TMC3    C7 8417   3.005   2.925  14.543 -0.1284  0.0575  0.7722
  567TMC3    C8 8418   3.106   3.128  14.127 -0.1218 -0.8063  0.3649
  567TMC3    O1 8419   3.079   2.844  14.493  0.4289 -0.6176  0.3891
  567TMC3    O2 8420   3.076   3.208  14.042  0.1674 -0.2056  0.7085
  568MPD2     C 8421   0.650   3.088  16.653  0.3850  0.4731 -0.1919
  568MPD2    C1 8422   0.525   3.098  16.713 -0.7438 -0.2502  0.9730
  568MPD2    C2 8423   0.422   3.174  16.658  0.1180  0.0350  0.0005
  568MPD2    C3 8424   0.450   3.246  16.544 -0.2193  0.3074  0.3808
  568MPD2    C4 8425   0.576   3.240  16.485 -0.1251 -0.7371 -0.1203
  568MPD2    C5 8426   0.675   3.158  16.538  0.0186 -0.0096  0.2776
  568MPD2     H 8427   0.324   3.190  16.700  0.4324 -0.2713  0.8381
  568MPD2    H1 8428   0.595   3.298  16.395  1.7606  0.2486  0.9245
  568MPD2    H2 8429   0.734   3.030  16.691 -1.0397 -1.8070 -0.5029
  568MPD2    H3 8430   0.775   3.151  16.498  0.3877 -1.1843  1.4221
  568MPD2     N 8431   0.346   3.329  16.494  0.3304  0.3472 -0.3741
  568MPD2    H5 8432   0.261   3.338  16.548  0.9462  1.7459  0.3753
  568MPD2    N1 8433   0.525   3.042  16.847  0.2026 -0.4274 -0.3687
  568MPD2    H7 8434   0.617   3.014  16.880  1.4403 -0.3611 -3.7653
  569TMC3    C1 8435   0.239   3.477  16.348  1.0468 -0.3696  1.1495
  569TMC3    C2 8436   0.176   3.544  16.451 -0.3587  0.1434 -0.5651
  569TMC3    C3 8437   0.068   3.624  16.412  0.8303 -0.1462  0.5609
  569TMC3    C4 8438   0.185   3.475  16.223  0.2189 -0.2960  0.3561
  569TMC3    C5 8439   0.070   3.540  16.196  0.7046 -0.1785  1.1332
  569TMC3    C6 8440   0.005   3.619  16.291  0.1545  0.4213  0.3152
  569TMC3     C 8441   0.352   3.392  16.372  0.4884  0.1050 -0.1589
  569TMC3     O 8442   0.426   3.376  16.277 -0.8495 -0.2834 -0.4817
  569TMC3     H 8443   0.228   3.561  16.544 -0.9041  1.6545 -0.5449
  569TMC3    H1 8444   0.215   3.404  16.147  0.1609  0.3529 -0.2680
  569TMC3    H2 8445   4.628   3.665  16.274  0.2013  0.2313 -0.4869
  569TMC3    C7 8446   0.077   3.613  16.069 -1.1038 -0.1086  0.2224
  569TMC3    C8 8447   0.038   3.740  16.491  0.1605 -0.3193  0.0874
  569TMC3    O1 8448   0.145   3.564  15.982  0.2788 -0.2895 -0.4517
  569TMC3    O2 8449   4.643   3.781  16.472 -0.1541 -0.3635 -0.1936
  570TMC3    C1 8450   4.223   1.813  16.132  0.0302 -0.3103  0.1674
  570TMC3    C2 8451   4.311   1.760  16.036 -0.1917 -0.5607 -1.0231
  570TMC3    C3 8452   4.350   1.838  15.930 -0.1948  0.1730 -0.6815
  570TMC3    C4 8453   4.208   1.946  16.141  0.1247 -0.0946 -0.0597
  570TMC3    C5 8454   4.268   2.023  16.050  0.4006 -0.1264  0.0489
  570TMC3    C6 8455   4.345   1.971  15.954  0.5469  0.6020  0.4968
  570TMC3     C 8456   4.214   1.724  16.244 -0.1560  0.9130 -0.2681
  570TMC3     O 8457   4.240   1.606  16.225  0.4702 -0.3185 -0.5012
  570TMC3     H 8458   4.308   1.653  16.019  1.0330 -0.6444 -0.6821
  570TMC3    H1 8459   4.135   1.984  16.211  0.6422  0.9058 -0.0590
  570TMC3    H2 8460   4.404   2.031  15.886  0.2752  0.3563  0.0472
  570TMC3    C7 8461   4.264   2.170  16.071 -0.2338 -0.2301 -0.0297
  570TMC3    C8 8462   4.465   1.808  15.848 -0.2187 -0.1020 -1.0678
  570TMC3    O1 8463   4.239   2.220  16.182 -0.2190  0.0481 -0.3974
  570TMC3    O2 8464   4.573   1.848  15.896  0.1055 -0.0154 -0.9833
  571MPD2     C 8465   1.902   2.796   0.613 -0.5029  0.2801 -0.1384
  571MPD2    C1 8466   1.891   2.821   0.743 -0.0120 -0.0022  0.2723
  571MPD2    C2 8467   1.900   2.957   0.783 -0.0590  0.4125 -0.3874
  571MPD2    C3 8468   1.911   3.063   0.690 -0.1339 -0.2795 -0.2970
  571MPD2    C4 8469   1.927   3.029   0.560 -0.2278  0.2816 -0.7316
  571MPD2    C5 8470   1.920   2.900   0.521  0.3075  0.2326  0.6590
  571MPD2     H 8471   1.888   2.980   0.888 -0.9538 -0.3764 -0.3117
  571MPD2    H1 8472   1.947   3.098   0.478 -0.7540  0.2508 -0.8868
  571MPD2    H2 8473   1.909   2.696   0.573  1.8990  1.4269 -2.6388
  571MPD2    H3 8474   1.944   2.875   0.419  2.1724 -2.2461  1.7129
  571MPD2     N 8475   1.915   3.199   0.722 -0.1667  0.1997 -0.5567
  571MPD2    H5 8476   1.901   3.260   0.642  0.3815  0.7892 -0.1949
  571MPD2    N1 8477   1.868   2.715   0.836  0.2013  0.5787  0.0214
  571MPD2    H7 8478   1.859   2.624   0.792 -2.1293  1.4058 -1.2156
  572TMC3    C1 8479   1.904   3.395   0.845  0.2231  0.2816  0.0099
  572TMC3    C2 8480   1.842   3.454   0.952 -0.3150 -0.0550  0.1674
  572TMC3    C3 8481   1.769   3.567   0.927  0.9526 -0.2186  1.0435
  572TMC3    C4 8482   1.922   3.458   0.723 -0.1238  0.7791  0.6302
  572TMC3    C5 8483   1.853   3.579   0.712 -0.3466  0.0637  0.1091
  572TMC3    C6 8484   1.770   3.634   0.810  0.5862  0.3119  0.8385
  572TMC3     C 8485   1.918   3.256   0.843 -1.0356 -0.0371  0.0984
  572TMC3     O 8486   1.926   3.206   0.953  0.1889 -0.2767 -0.4145
  572TMC3     H 8487   1.807   3.393   1.034 -1.0167  1.6742  1.1634
  572TMC3    H1 8488   1.998   3.426   0.652 -0.1939  1.0158  0.4468
  572TMC3    H2 8489   1.719   3.729   0.798  0.6142 -0.1096 -2.6892
  572TMC3    C7 8490   1.923   3.684   0.635  0.9876  0.2777  0.6568
  572TMC3    C8 8491   1.651   3.596   1.002  0.7687 -0.7798 -0.3384
  572TMC3    O1 8492   2.038   3.668   0.596  0.2403  0.0184  0.0390
  572TMC3    O2 8493   1.549   3.626   0.934  0.0713 -0.2203  0.2373
  573MPD2     C 8494   3.629   4.579   0.953 -0.1941  0.0389  0.4986
  573MPD2    C1 8495   3.522   4.661   0.924 -0.2535  0.4833  0.5164
  573MPD2    C2 8496   3.421   4.614   0.842  0.0976  0.0228 -0.4518
  573MPD2    C3 8497   3.432   4.489   0.782  0.7424 -0.6675 -0.9013
  573MPD2    C4 8498   3.542   4.415   0.821  0.6864  0.5673  0.4104
  573MPD2    C5 8499   3.641   4.457   0.901  0.2157  0.0566 -0.0816
  573MPD2     H 8500   3.326   4.664   0.829  0.5308  0.3500 -2.3335
  573MPD2    H1 8501   3.552   4.313   0.788 -0.1988  1.4590 -2.5733
  573MPD2    H2 8502   3.711   4.614   1.014 -0.4563 -0.6048  1.2132
  573MPD2    H3 8503   3.730   4.398   0.919  0.6378  1.0644  1.1435
  573MPD2     N 8504   3.337   4.428   0.703 -0.2731 -0.1782 -0.8370
  573MPD2    H5 8505   3.359   4.335   0.669 -1.2826 -0.9844  0.7291
  573MPD2    N1 8506   3.520   0.068   0.992  0.1681  0.0853 -0.0657
  573MPD2    H7 8507   3.593   0.080   1.061 -0.1716  0.6780  0.1952
  574TMC3    C1 8508   3.132   4.377   0.616  0.0182 -0.0116 -1.0096
  574TMC3    C2 8509   3.014   4.415   0.548 -0.2009 -0.3147  0.3517
  574TMC3    C3 8510   2.915   4.325   0.536 -0.0765  0.2932 -0.3609
  574TMC3    C4 8511   3.129   4.258   0.688 -0.3946 -0.4412  0.0338
  574TMC3    C5 8512   3.024   4.170   0.672 -0.0854 -0.2082 -0.3472
  574TMC3    C6 8513   2.923   4.198   0.581  1.0165 -0.6020 -1.2169
  574TMC3     C 8514   3.218   4.483   0.657 -0.2736 -0.7825  0.3170
  574TMC3     O 8515   3.154   4.589   0.681  0.0655 -0.0393  0.1680
  574TMC3     H 8516   3.001   4.519   0.524 -0.4444  0.2479  2.9390
  574TMC3    H1 8517   3.203   4.239   0.765  0.6838  1.4568 -0.5435
  574TMC3    H2 8518   2.839   4.131   0.566  1.2347 -1.0813 -0.2927
  574TMC3    C7 8519   3.026   4.037   0.734  0.3202  0.3761  0.1538
  574TMC3    C8 8520   2.782   4.374   0.498 -0.6194  0.2161 -1.0430
  574TMC3    O1 8521   2.985   3.943   0.671  0.3046 -0.3094 -0.0936
  574TMC3    O2 8522   2.684   4.309   0.542 -0.0698  0.0415 -0.3342
  575TMC3    C1 8523   0.174   0.957  10.785 -0.0055  0.0459 -0.0808
  575TMC3    C2 8524   0.137   0.824  10.763  0.6872  0.3009  0.8924
  575TMC3    C3 8525   0.134   0.786  10.637  0.0783  0.4248  0.9729
  575TMC3    C4 8526   0.207   1.041  10.678 -0.9107  0.2941 -0.8046
  575TMC3    C5 8527   0.203   0.994  10.552  0.5869 -0.4578  0.0566
  575TMC3    C6 8528   0.164   0.863  10.526 -0.7515 -0.0244 -0.1686
  575TMC3     C 8529   0.166   0.998  10.921 -0.6004  0.2702  0.0957
  575TMC3     O 8530   0.161   0.911  11.007 -0.6302 -0.0586 -0.4258
  575TMC3     H 8531   0.117   0.755  10.844  0.2677 -2.3463 -1.4485
  575TMC3    H1 8532   0.255   1.136  10.695 -2.0408  0.5991  0.7416
  575TMC3    H2 8533   0.167   0.837  10.421  0.9197  0.9824 -0.3716
  575TMC3    C7 8534   0.248   1.074  10.439  0.4684 -0.2700 -0.5711
  575TMC3    C8 8535   0.063   0.659  10.615 -0.1500 -0.3158  0.5809
  575TMC3    O1 8536   0.347   1.143  10.462  0.2545  0.6129 -0.0233
  575TMC3    O2 8537   4.707   0.622  10.702 -0.0175  0.3832 -0.1857
  576MPD2     C 8538   0.275   2.069  12.896  0.0406  0.1395 -0.2369
  576MPD2    C1 8539   0.336   2.157  12.808  0.4595  0.3142  0.4077
  576MPD2    C2 8540   0.357   2.289  12.838  0.2539  0.8106  0.2147
  576MPD2    C3 8541   0.305   2.331  12.965 -0.1255 -0.1833  0.2961
  576MPD2    C4 8542   0.249   2.248  13.053 -0.2791 -0.3388  0.1922
  576MPD2    C5 8543   0.231   2.116  13.020 -0.7761 -0.2622 -0.0254
  576MPD2     H 8544   0.402   2.353  12.762 -1.2135 -1.1245 -2.2675
  576MPD2    H1 8545   0.200   2.274  13.146 -2.0843 -1.7812 -0.3393
  576MPD2    H2 8546   0.256   1.964  12.880  0.9107 -0.3887  2.1849
  576MPD2    H3 8547   0.189   2.050  13.095 -5.0676  3.2185  0.6417
  576MPD2     N 8548   0.300   2.471  12.992 -0.3773 -0.3441  0.1518
  576MPD2    H5 8549   0.331   2.538  12.923  1.4210  0.3841  1.6813
  576MPD2    N1 8550   0.396   2.117  12.688 -0.1281 -0.3153 -0.3484
  576MPD2    H7 8551   0.426   2.198  12.635 -0.3011 -0.2251 -0.3063
  577TMC3    C1 8552   0.473   1.984  12.510  0.4468 -0.1327 -0.0840
  577TMC3    C2 8553   0.501   1.855  12.471 -0.0694 -0.1032  0.2227
  577TMC3    C3 8554   0.564   1.843  12.356 -0.5366 -0.4226  0.8251
  577TMC3    C4 8555   0.502   2.100  12.433  0.6162  0.2244 -0.8008
  577TMC3    C5 8556   0.562   2.076  12.313  0.0586 -0.1595  0.0756
  577TMC3    C6 8557   0.586   1.947  12.270  0.2920  0.9018 -0.4747
  577TMC3     C 8558   0.416   1.985  12.643 -0.1680  0.0007 -1.0039
  577TMC3     O 8559   0.387   1.878  12.694 -0.4251  0.2162 -0.4279
  577TMC3     H 8560   0.484   1.770  12.537 -0.6869 -0.1872 -0.0423
  577TMC3    H1 8561   0.471   2.202  12.457 -0.2581  0.0709 -1.2553
  577TMC3    H2 8562   0.640   1.925  12.179  0.1902 -2.0889  0.1593
  577TMC3    C7 8563   0.594   2.188  12.223  0.4981 -1.0428 -0.7097
  577TMC3    C8 8564   0.581   1.704  12.307  0.1771  0.2572 -0.1146
  577TMC3    O1 8565   0.629   2.293  12.281  0.2081  0.0406 -0.0570
  577TMC3    O2 8566   0.529   1.615  12.376 -0.4687  0.9600 -0.2559
  578MPD2     C 8567   3.203   2.310   1.262  0.3851  0.1605  0.4492
  578MPD2    C1 8568   3.263   2.233   1.168  0.5295  0.7438  0.1262
  578MPD2    C2 8569   3.370   2.154   1.209 -0.2275 -0.0938  0.2302
  578MPD2    C3 8570   3.411   2.149   1.341 -0.0551  0.3202  0.0570
  578MPD2    C4 8571   3.350   2.231   1.430  0.2145  0.1026  0.5435
  578MPD2    C5 8572   3.239   2.304   1.398 -0.6138  0.1636 -0.3171
  578MPD2     H 8573   3.412   2.097   1.126  0.7328  0.6575  0.1925
  578MPD2    H1 8574   3.379   2.231   1.534 -0.6497 -3.1495  0.7609
  578MPD2    H2 8575   3.117   2.368   1.230 -0.5030  0.8145  3.9859
  578MPD2    H3 8576   3.180   2.365   1.466 -1.9857 -1.1437 -0.3156
  578MPD2     N 8577   3.539   2.085   1.358 -0.1363  0.9785  0.0877
  578MPD2    H5 8578   3.583   2.055   1.271  0.6402 -2.0583  1.5325
  578MPD2    N1 8579   3.207   2.230   1.040  0.4433  0.5473 -0.4315
  578MPD2    H7 8580   3.140   2.305   1.024 -0.2772 -0.0004  0.0233
  579TMC3    C1 8581   3.746   2.014   1.468 -0.6043 -0.2409  0.0469
  579TMC3    C2 8582   3.824   2.025   1.578 -0.3848 -0.1486  0.1053
  579TMC3    C3 8583   3.954   1.988   1.573 -0.1791 -0.6421  0.8004
  579TMC3    C4 8584   3.785   1.939   1.359 -0.1465  0.9238  0.1950
  579TMC3    C5 8585   3.909   1.882   1.368  0.6509 -0.9863 -0.1011
  579TMC3    C6 8586   4.005   1.913   1.467 -0.5094 -0.2285 -0.1563
  579TMC3     C 8587   3.608   2.061   1.481 -0.5787  0.4854 -0.1759
  579TMC3     O 8588   3.573   2.097   1.594 -0.5108 -0.0261  0.0773
  579TMC3     H 8589   3.779   2.073   1.664 -2.4691 -2.2795  0.2060
  579TMC3    H1 8590   3.735   1.937   1.262  0.6141  0.1879 -0.1796
  579TMC3    H2 8591   4.103   1.866   1.465 -0.9821 -1.3003  1.4251
  579TMC3    C7 8592   3.955   1.800   1.253 -0.5402 -0.8277  0.0729
  579TMC3    C8 8593   4.036   2.041   1.678 -0.7958  0.0430 -0.0975
  579TMC3    O1 8594   4.071   1.810   1.210 -0.1138  0.4090 -0.2157
  579TMC3    O2 8595   3.974   2.101   1.767  0.0404  0.3685 -0.1315
  580TMC3    C1 8596   3.509   1.816  12.401  0.7183  0.2519  0.5991
  580TMC3    C2 8597   3.587   1.799  12.292 -0.9021 -0.0942 -0.3525
  580TMC3    C3 8598   3.623   1.673  12.249  0.6599  0.0596  0.1422
  580TMC3    C4 8599   3.468   1.702  12.477  0.4376  0.5945 -0.0509
  580TMC3    C5 8600   3.507   1.580  12.431 -0.2491  0.2860 -0.3389
  580TMC3    C6 8601   3.586   1.563  12.319  0.3137 -0.2492  0.6275
  580TMC3     C 8602   3.406   1.917  12.379  0.7855  0.4917 -0.0280
  580TMC3     O 8603   3.442   2.020  12.325  0.3554 -0.2156 -0.1351
  580TMC3     H 8604   3.622   1.885  12.235  1.3449 -0.0528  1.0840
  580TMC3    H1 8605   3.414   1.717  12.570  1.6677  0.5923  0.6735
  580TMC3    H2 8606   3.607   1.465  12.276  0.1958 -0.2908  0.6653
  580TMC3    C7 8607   3.449   1.472  12.513 -0.0622 -0.3903  0.0154
  580TMC3    C8 8608   3.705   1.652  12.133 -0.2758  0.2473  0.0450
  580TMC3    O1 8609   3.397   1.506  12.614 -0.1274 -0.3257 -0.3175
  580TMC3    O2 8610   3.676   1.549  12.069  0.3298 -0.0718  0.8013
  581MPD2     C 8611   1.372   1.006  15.238  0.5273 -0.0498 -0.3854
  581MPD2    C1 8612   1.316   0.902  15.168 -0.1639 -0.1360 -0.0319
  581MPD2    C2 8613   1.232   0.941  15.056 -0.2028  0.2137  0.0936
  581MPD2    C3 8614   1.205   1.077  15.021 -0.6073  0.8013  0.1849
  581MPD2    C4 8615   1.265   1.177  15.096 -0.5401 -0.2973  0.2586
  581MPD2    C5 8616   1.344   1.141  15.202  0.7688 -0.7046 -0.0605
  581MPD2     H 8617   1.175   0.874  14.992 -1.8492  0.5174  1.2436
  581MPD2    H1 8618   1.268   1.282  15.069 -0.8601  0.2875  2.4921
  581MPD2    H2 8619   1.437   0.988  15.323  0.7937  0.7829 -0.4095
  581MPD2    H3 8620   1.391   1.222  15.256  1.1618 -0.4917 -0.7303
  581MPD2     N 8621   1.112   1.105  14.915 -0.0933 -0.2747 -0.0975
  581MPD2    H5 8622   1.075   1.031  14.856  1.0121 -0.3443 -0.6922
  581MPD2    N1 8623   1.326   0.768  15.221  0.2882  0.7345  0.4017
  581MPD2    H7 8624   1.350   0.775  15.320 -0.0542 -0.3405  0.5626
  582TMC3    C1 8625   1.286   0.534  15.233 -1.1556  0.3723 -0.0227
  582TMC3    C2 8626   1.321   0.533  15.370  0.8473 -0.0649 -0.3138
  582TMC3    C3 8627   1.237   0.461  15.452  0.2250  0.4974 -0.2975
  582TMC3    C4 8628   1.164   0.489  15.196 -0.2254 -0.5510  0.6187
  582TMC3    C5 8629   1.074   0.451  15.292  0.1270  0.2908  0.0542
  582TMC3    C6 8630   1.107   0.420  15.418 -0.0833 -0.1907  0.0067
  582TMC3     C 8631   1.312   0.653  15.151 -0.0323 -0.5935 -0.2808
  582TMC3     O 8632   1.303   0.641  15.027  0.2494  0.1900  0.6594
  582TMC3     H 8633   1.406   0.577  15.421  0.0287 -0.3434  1.2972
  582TMC3    H1 8634   1.128   0.518  15.098  2.4015 -0.4670 -0.3455
  582TMC3    H2 8635   1.033   0.397  15.494 -1.0506  1.4767 -0.4336
  582TMC3    C7 8636   0.945   0.516  15.294 -0.2295 -0.2047 -0.6801
  582TMC3    C8 8637   1.249   0.501  15.590  0.7345 -0.2265  0.0688
  582TMC3    O1 8638   0.859   0.479  15.375  0.2446  0.0874 -0.1362
  582TMC3    O2 8639   1.148   0.548  15.638  0.0478 -0.2186 -0.1973
  583MPD2     C 8640   1.557   2.214  17.208 -0.0672  0.5611  0.0834
  583MPD2    C1 8641   1.608   2.340  17.166 -0.0464  0.8283  0.0957
  583MPD2    C2 8642   1.554   2.449  17.235 -1.0311 -0.0137 -0.2583
  583MPD2    C3 8643   1.467   2.435  17.339  0.0777 -0.5052 -0.4747
  583MPD2    C4 8644   1.431   2.316  17.384 -0.4976  0.3530  0.4258
  583MPD2    C5 8645   1.480   2.206  17.318 -0.1896  0.5606  0.5405
  583MPD2     H 8646   1.595   2.546  17.213  0.0825 -0.2039  0.9645
  583MPD2    H1 8647   1.368   2.294  17.470 -0.6485 -1.3695 -0.1350
  583MPD2    H2 8648   1.586   2.123  17.156  0.3193  0.6940  0.0711
  583MPD2    H3 8649   1.459   2.109  17.361 -1.1072 -0.0119 -1.2032
  583MPD2     N 8650   1.414   2.562  17.388 -0.5322 -0.8029  0.0981
  583MPD2    H5 8651   1.448   2.646  17.342  0.8282 -1.4586 -0.0664
  583MPD2    N1 8652   1.691   2.364  17.047  0.0497  0.0296 -0.3377
  583MPD2    H7 8653   1.695   2.463  17.026 -0.3003  0.2113  0.4317
  584TMC3    C1 8654   1.290   2.717  17.528  0.5251 -0.3354  0.2884
  584TMC3    C2 8655   1.361   2.817  17.462  0.6034  0.0368  0.1787
  584TMC3    C3 8656   1.343   2.947  17.505 -0.2993 -0.3141 -0.5279
  584TMC3    C4 8657   1.226   2.730  17.643 -0.5874 -0.8759  0.0931
  584TMC3    C5 8658   1.229   2.859   0.004 -0.1970 -0.3237 -0.1179
  584TMC3    C6 8659   1.280   2.969  17.618  0.0286 -0.3206  0.4203
  584TMC3     C 8660   1.320   2.580  17.490  0.6503 -0.3364 -0.5086
  584TMC3     O 8661   1.270   2.496  17.563  0.5217 -0.4629  0.3221
  584TMC3     H 8662   1.415   2.806  17.369  0.2295 -0.0441 -0.0299
  584TMC3    H1 8663   1.199   2.651   0.031  1.1388 -1.0327  0.5727
  584TMC3    H2 8664   1.280   3.067  17.666  0.4003 -0.4312  0.6530
  584TMC3    C7 8665   1.211   2.871   0.148  0.7446  0.1636 -0.1026
  584TMC3    C8 8666   1.362   3.067  17.416 -0.3042 -0.2453 -0.3493
  584TMC3    O1 8667   1.245   2.784   0.223  0.1709 -0.4154  0.5692
  584TMC3    O2 8668   1.384   3.041  17.298  0.7977  0.0188  0.9340
  585MPD2     C 8669   0.429   1.605   0.825 -0.1856 -0.2956 -0.1028
  585MPD2    C1 8670   0.555   1.638   0.784 -0.5105 -0.1512  0.4882
  585MPD2    C2 8671   0.586   1.641   0.651 -0.3917 -0.2843 -0.0789
  585MPD2    C3 8672   0.484   1.599   0.564 -0.2614  0.3404  0.0906
  585MPD2    C4 8673   0.365   1.550   0.612  0.1545  0.0432 -0.3718
  585MPD2    C5 8674   0.335   1.553   0.739  0.1266  0.2505  0.4294
  585MPD2     H 8675   0.675   1.687   0.610  1.4793 -3.9218  0.0209
  585MPD2    H1 8676   0.283   1.511   0.553  0.3229 -0.1448 -0.4825
  585MPD2    H2 8677   0.408   1.606   0.931 -0.2332  1.3144 -0.1223
  585MPD2    H3 8678   0.240   1.519   0.778 -1.6182  0.1438 -4.0320
  585MPD2     N 8679   0.504   1.596   0.425  0.0575  0.3621 -0.0062
  585MPD2    H5 8680   0.423   1.568   0.371 -0.2068  0.4438  0.3461
  585MPD2    N1 8681   0.637   1.691   0.882 -0.5073  0.3903  0.1420
  585MPD2    H7 8682   0.594   1.721   0.969 -0.5501 -0.2168  0.3327
  586TMC3    C1 8683   0.616   1.585   0.225  0.0411 -0.3334  0.0660
  586TMC3    C2 8684   0.716   1.515   0.161  0.3211 -0.0554  0.6358
  586TMC3    C3 8685   0.706   1.493   0.027 -0.5009 -0.3026 -0.7070
  586TMC3    C4 8686   0.514   1.641   0.151  0.6966  0.1439 -0.2832
  586TMC3    C5 8687   0.518   1.631   0.019 -0.8320 -0.0694 -0.5237
  586TMC3    C6 8688   0.604   1.549  17.633 -0.2863 -0.5448 -0.7670
  586TMC3     C 8689   0.629   1.592   0.364 -0.2852 -0.1768  0.5947
  586TMC3     O 8690   0.744   1.586   0.403  0.4869 -0.4294 -0.2560
  586TMC3     H 8691   0.798   1.472   0.217  1.1583 -0.4242 -0.9017
  586TMC3    H1 8692   0.430   1.696   0.192  0.9694 -1.1207  1.9580
  586TMC3    H2 8693   0.586   1.533  17.527 -0.5540  0.4072 -0.8713
  586TMC3    C7 8694   0.384   1.621  17.654  0.3863 -0.0385  0.1845
  586TMC3    C8 8695   0.788   1.388  17.649  0.6606 -0.5280  0.2181
  586TMC3    O1 8696   0.301   1.563   0.040 -0.0215  0.0349  0.2979
  586TMC3    O2 8697   0.861   1.320   0.035 -0.0871 -0.4452  0.2612
  587TMC3    C1 8698   3.018   4.646  16.884 -0.2250 -0.0625  0.5327
  587TMC3    C2 8699   2.958   0.019  16.803  0.4114 -0.7148  0.6069
  587TMC3    C3 8700   3.031   0.064  16.699  1.3050  0.2722  0.0906
  587TMC3    C4 8701   3.140   4.598  16.865 -0.1868  0.3252 -0.1426
  587TMC3    C5 8702   3.210   4.642  16.755  0.4412  0.3348  0.3815
  587TMC3    C6 8703   3.159   0.023  16.675  0.5033  0.0987 -0.3512
  587TMC3     C 8704   2.948   4.591  17.005 -0.1703  0.1647 -0.2953
  587TMC3     O 8705   3.006   4.498  17.057 -0.0973  0.2158  0.1250
  587TMC3     H 8706   2.850   0.021  16.796  0.3280 -1.0468  1.7371
  587TMC3    H1 8707   3.185   4.527  16.933 -2.0467  1.2559  2.0479
  587TMC3    H2 8708   3.209   0.051  16.583  0.4697  1.8925  0.1701
  587TMC3    C7 8709   3.355   4.620  16.757  0.3204  0.4221 -0.1641
  587TMC3    C8 8710   2.976   0.177  16.621  0.3210  0.2794  0.2385
  587TMC3    O1 8711   3.394   4.574  16.861 -0.1068 -0.1857  0.1932
  587TMC3    O2 8712   3.033   0.187  16.515 -0.1036 -0.0410  0.0620
  588TMC3    C1 8713   0.200   2.612   9.771  0.4510 -0.2038 -0.1568
  588TMC3    C2 8714   0.173   2.500   9.700  0.3348 -0.4612  0.8319
  588TMC3    C3 8715   0.236   2.380   9.738  0.3895  0.0096 -0.4672
  588TMC3    C4 8716   0.296   2.609   9.867  0.2442  0.9714  0.9251
  588TMC3    C5 8717   0.368   2.495   9.895 -0.1917  0.2691  0.7593
  588TMC3    C6 8718   0.336   2.381   9.827 -0.1860  0.5158 -0.0042
  588TMC3     C 8719   0.172   2.743   9.705 -0.3938 -1.0782 -0.0205
  588TMC3     O 8720   0.085   2.730   9.618 -0.0971 -0.6826  0.2632
  588TMC3     H 8721   0.093   2.499   9.627  0.1969  0.0683  0.9813
  588TMC3    H1 8722   0.307   2.695   9.932 -0.7320 -0.1373  2.5695
  588TMC3    H2 8723   0.399   2.296   9.852 -0.5878 -0.1556 -1.2697
  588TMC3    C7 8724   0.480   2.503   9.988  0.2045 -0.0584 -0.3788
  588TMC3    C8 8725   0.172   2.250   9.691  0.7452 -0.3186 -0.5587
  588TMC3    O1 8726   0.486   2.430  10.088  0.1562 -0.2697  0.5381
  588TMC3    O2 8727   0.093   2.253   9.594 -0.5809  0.1953  0.4544
  589TMC3    C1 8728   4.171   1.065   1.420  0.3126  0.8290 -0.0973
  589TMC3    C2 8729   4.230   1.129   1.518  1.4275  0.3986 -0.3727
  589TMC3    C3 8730   4.339   1.059   1.567  0.1863  0.0240 -0.2645
  589TMC3    C4 8731   4.205   0.951   1.357 -0.6393  0.4138 -0.1239
  589TMC3    C5 8732   4.326   0.894   1.401 -0.2589 -0.4034 -0.0606
  589TMC3    C6 8733   4.389   0.939   1.507 -0.6492  0.2233 -0.2779
  589TMC3     C 8734   4.065   1.135   1.359 -0.3466  0.3381  0.2271
  589TMC3     O 8735   4.064   1.126   1.235  0.3032 -0.2940  0.1350
  589TMC3     H 8736   4.190   1.216   1.568  1.5312  0.3397 -0.1849
  589TMC3    H1 8737   4.141   0.897   1.288 -0.9155  2.8777 -1.8020
  589TMC3    H2 8738   4.478   0.891   1.547 -1.5239 -2.2342 -1.2967
  589TMC3    C7 8739   4.350   0.753   1.395 -0.2727 -0.4410 -0.2600
  589TMC3    C8 8740   4.409   1.115   1.684  0.0250  0.5872  0.0480
  589TMC3    O1 8741   4.260   0.674   1.366 -0.2645 -0.2121  0.1450
  589TMC3    O2 8742   4.342   1.201   1.746 -0.6036  0.1175 -0.3779
  590MPD2     C 8743   3.838   3.784  16.623  1.5901 -0.2350  0.1547
  590MPD2    C1 8744   3.758   3.799  16.514  0.7173  0.3264  0.0435
  590MPD2    C2 8745   3.816   3.803  16.387  0.3947 -0.0860  1.0303
  590MPD2    C3 8746   3.950   3.767  16.374 -1.3397 -0.2006  0.3750
  590MPD2    C4 8747   4.028   3.750  16.491  0.3860 -0.4807  1.0315
  590MPD2    C5 8748   3.969   3.754  16.616 -0.0290  0.2501 -0.2780
  590MPD2     H 8749   3.753   3.807  16.299  0.7375  0.2519  0.7996
  590MPD2    H1 8750   4.132   3.723  16.500  1.1606  2.6500  1.2614
  590MPD2    H2 8751   3.800   3.777  16.724  0.0020  0.2675 -0.4084
  590MPD2    H3 8752   4.020   3.719  16.706 -1.6158  0.6794  0.7889
  590MPD2     N 8753   4.000   3.756  16.243 -0.6747 -0.8255 -0.3603
  590MPD2    H5 8754   3.935   3.764  16.167 -0.6094  0.3573 -0.2879
  590MPD2    N1 8755   3.624   3.828  16.540  0.3174 -0.2368  0.2200
  590MPD2    H7 8756   3.593   3.802  16.633 -0.5405  2.4995  0.6998
  591TMC3    C1 8757   4.143   3.719  16.059  0.5253 -0.0811 -0.3602
  591TMC3    C2 8758   4.254   3.660  16.005 -0.1411 -0.0602 -0.5832
  591TMC3    C3 8759   4.297   3.706  15.885 -0.0505 -0.0624  1.0272
  591TMC3    C4 8760   4.078   3.822  15.993  0.7316 -0.5429  0.1291
  591TMC3    C5 8761   4.124   3.860  15.870 -0.5608  0.0389 -0.3188
  591TMC3    C6 8762   4.236   3.804  15.812  0.2618 -0.2076 -0.3450
  591TMC3     C 8763   4.128   3.727  16.201  0.6526 -0.0131  0.3754
  591TMC3     O 8764   4.232   3.720  16.265 -0.0564  0.2459 -0.3379
  591TMC3     H 8765   4.302   3.589  16.071  1.1548  1.5239  0.1788
  591TMC3    H1 8766   3.978   3.858  16.014  0.9337 -0.0521  0.2530
  591TMC3    H2 8767   4.277   3.832  15.715  0.2986 -0.7841 -0.4941
  591TMC3    C7 8768   4.037   3.930  15.776  0.8132 -0.7524  0.6928
  591TMC3    C8 8769   4.428   3.660  15.835  0.6413 -0.8079 -0.4923
  591TMC3    O1 8770   3.916   3.912  15.781  0.0413 -0.1466 -0.0782
  591TMC3    O2 8771   4.464   3.558  15.888  0.6678  0.1935  0.4674
  592MPD2     C 8772   4.000   0.731  11.573  0.2440 -1.1068 -1.0910
  592MPD2    C1 8773   3.985   0.806  11.679  0.4329 -0.2924  0.8017
  592MPD2    C2 8774   3.927   0.745  11.795 -0.0125  0.4082 -0.7716
  592MPD2    C3 8775   3.894   0.610  11.801 -0.4928  0.5226 -0.0655
  592MPD2    C4 8776   3.914   0.538  11.686 -0.4457 -0.4416 -0.5151
  592MPD2    C5 8777   3.977   0.600  11.578 -0.2313  0.0036  0.1510
  592MPD2     H 8778   3.919   0.795  11.891  0.7296 -1.5430  0.3004
  592MPD2    H1 8779   3.889   0.435  11.667 -1.6421  0.0360 -1.4970
  592MPD2    H2 8780   4.032   0.775  11.480 -1.2761  2.4242  0.0454
  592MPD2    H3 8781   3.973   0.541  11.488  1.0467 -1.7228  1.2431
  592MPD2     N 8782   3.840   0.547  11.919 -0.2949  0.3097 -0.2319
  592MPD2    H5 8783   3.836   0.599  12.006 -2.5403 -0.7669  0.3113
  592MPD2    N1 8784   4.006   0.945  11.664  0.6063 -0.0064 -0.1185
  592MPD2    H7 8785   4.024   0.975  11.568  1.9507  0.9078  0.4170
  593TMC3    C1 8786   4.085   1.154  11.744  0.3901 -0.3597 -0.0726
  593TMC3    C2 8787   4.074   1.245  11.845 -0.2696  0.0499  0.0045
  593TMC3    C3 8788   4.095   1.378  11.814 -0.6017 -0.0990 -0.5870
  593TMC3    C4 8789   4.102   1.196  11.614  0.0046  0.0589 -0.0949
  593TMC3    C5 8790   4.116   1.331  11.595  0.2625  0.0903 -0.2278
  593TMC3    C6 8791   4.113   1.430  11.687 -0.1985  0.5902  0.0637
  593TMC3     C 8792   4.023   1.030  11.772 -0.5628  0.0787 -0.8708
  593TMC3     O 8793   4.013   0.999  11.888  0.1752 -0.2264  0.0759
  593TMC3     H 8794   4.066   1.214  11.948 -1.2544 -0.7204 -0.3097
  593TMC3    H1 8795   4.126   1.129  11.532 -1.7133 -2.3619  1.3570
  593TMC3    H2 8796   4.126   1.535  11.665  1.9487  0.0108 -1.4781
  593TMC3    C7 8797   4.173   1.379  11.472  0.1932 -0.0893 -0.3600
  593TMC3    C8 8798   4.099   1.472  11.928 -0.5361 -0.1385  0.4914
  593TMC3    O1 8799   4.270   1.456  11.487 -0.4953 -0.8352 -0.1092
  593TMC3    O2 8800   4.013   1.460  12.011 -0.1177 -0.1704 -0.0417
  594MPD2     C 8801   3.459   4.064  14.846 -0.3959  0.0752  0.0698
  594MPD2    C1 8802   3.353   4.148  14.820  0.2104 -0.0207  0.1083
  594MPD2    C2 8803   3.371   4.258  14.739 -0.4614  0.4957 -0.4335
  594MPD2    C3 8804   3.493   4.278  14.677  0.2365  0.3805 -0.6846
  594MPD2    C4 8805   3.600   4.206  14.724 -0.0459  0.3613  0.1128
  594MPD2    C5 8806   3.582   4.104  14.809  0.1728  0.3931 -0.0049
  594MPD2     H 8807   3.290   4.323  14.708 -0.3660  1.2546  0.9199
  594MPD2    H1 8808   3.697   4.224  14.678  0.3455  0.7583  1.1123
  594MPD2    H2 8809   3.455   3.996  14.930  0.8198 -1.4550 -1.1204
  594MPD2    H3 8810   3.673   4.060  14.850  0.5940  0.8055 -0.4920
  594MPD2     N 8811   3.500   4.377  14.574  0.0426  0.2112 -0.8652
  594MPD2    H5 8812   3.409   4.412  14.546 -0.4929 -1.0781 -0.7247
  594MPD2    N1 8813   3.227   4.101  14.861 -0.7065  0.6054 -0.1905
  594MPD2    H7 8814   3.229   4.010  14.905  0.8526  1.0038  0.5543
  595TMC3    C1 8815   3.638   0.015  14.302  0.7146  0.1953  0.2561
  595TMC3    C2 8816   3.658   4.614  14.365 -0.7432 -0.0722 -0.2891
  595TMC3    C3 8817   3.573   4.569  14.462  1.0144 -0.5664  0.6528
  595TMC3    C4 8818   3.522   0.088  14.333 -0.3219 -0.1235  0.1347
  595TMC3    C5 8819   3.443   0.042  14.438 -0.3828  0.2800  0.5132
  595TMC3    C6 8820   3.463   4.638  14.499 -0.0809  0.5391 -0.0002
  595TMC3     C 8821   3.756   0.093  14.286  0.2193 -0.4008 -0.0721
  595TMC3     O 8822   3.849   0.069  14.367  0.0307  0.3600  0.0285
  595TMC3     H 8823   3.748   4.558  14.339  0.2885  1.2225  0.4650
  595TMC3    H1 8824   3.502   0.192  14.310 -2.0236 -0.5449 -0.2778
  595TMC3    H2 8825   3.392   4.609  14.576  1.1713  1.2436  1.3954
  595TMC3    C7 8826   3.348   0.131  14.507  0.9053  0.4602 -0.1540
  595TMC3    C8 8827   3.609   4.443  14.525  0.5347  0.6030  0.0303
  595TMC3    O1 8828   3.245   0.074  14.545  0.4034 -0.3374  0.1325
  595TMC3    O2 8829   3.725   4.418  14.540 -0.0921  0.4977  0.1727
  596MPD2     C 8830   2.478   2.314  17.195  0.0616 -0.0253 -0.4765
  596MPD2    C1 8831   2.482   2.433  17.132  0.4259  0.0733 -0.9188
  596MPD2    C2 8832   2.538   2.446  17.005 -0.2941  0.1216  0.1217
  596MPD2    C3 8833   2.601   2.341  16.942 -0.1845  0.2469 -0.7734
  596MPD2    C4 8834   2.597   2.221  17.011  0.6645  0.1015 -0.7355
  596MPD2    C5 8835   2.538   2.209  17.132  0.6188  0.2920  0.2025
  596MPD2     H 8836   2.530   2.544  16.959 -0.9659 -0.1992 -0.4546
  596MPD2    H1 8837   2.647   2.132  16.974 -0.5403  0.0683 -2.2803
  596MPD2    H2 8838   2.425   2.310  17.289  1.5125 -0.2685  0.3343
  596MPD2    H3 8839   2.543   2.118  17.191 -0.6893  0.7206  0.9914
  596MPD2     N 8840   2.660   2.346  16.815  0.6939 -0.1130 -0.3362
  596MPD2    H5 8841   2.700   2.257  16.786 -1.8974 -1.7181  0.9188
  596MPD2    N1 8842   2.432   2.547  17.190  0.5837  0.1133 -0.9086
  596MPD2    H7 8843   2.445   2.629  17.132  0.4745 -1.6178 -3.3441
  597TMC3    C1 8844   2.313   2.695  17.331 -0.1987  0.6016 -0.1339
  597TMC3    C2 8845   2.405   2.799  17.300 -0.3120 -0.0488 -0.1024
  597TMC3    C3 8846   2.374   2.922  17.345  0.1673 -0.2045 -0.1211
  597TMC3    C4 8847   2.208   2.715  17.410  0.2924  0.1254  0.4205
  597TMC3    C5 8848   2.174   2.847  17.437  0.2567  0.4302  0.0755
  597TMC3    C6 8849   2.256   2.950  17.405 -0.4992 -0.2569 -0.8075
  597TMC3     C 8850   2.345   2.555  17.297  0.2442  0.4680  0.7075
  597TMC3     O 8851   2.296   2.475  17.378  0.2090  0.3142 -0.2671
  597TMC3     H 8852   2.506   2.767  17.277  0.0640  1.1994 -0.1854
  597TMC3    H1 8853   2.146   2.633  17.445  0.9344  0.1291  1.5448
  597TMC3    H2 8854   2.231   3.055  17.418 -0.5852 -0.6409  2.2408
  597TMC3    C7 8855   2.052   2.870  17.511 -0.2525  0.2300 -0.1296
  597TMC3    C8 8856   2.445   3.033  17.293  0.2841  0.3645  0.4639
  597TMC3    O1 8857   2.026   2.780  17.595 -0.2971  0.4210 -0.7145
  597TMC3    O2 8858   2.442   3.137  17.362  0.1920  0.5489  0.2625
  598TMC3    C1 8859   0.401   3.889  15.238 -0.1010  0.3223  0.2481
  598TMC3    C2 8860   0.285   3.820  15.217 -0.5228  0.0480  0.5107
  598TMC3    C3 8861   0.193   3.857  15.123 -0.1115 -0.7139  0.5900
  598TMC3    C4 8862   0.429   4.006  15.168 -0.3467  0.4273 -0.2756
  598TMC3    C5 8863   0.331   4.047  15.078  0.5942  0.1700  0.3906
  598TMC3    C6 8864   0.220   3.967  15.046  0.5124 -1.0498  0.8184
  598TMC3     C 8865   0.465   3.881  15.368  1.0228 -0.4043 -0.6760
  598TMC3     O 8866   0.491   3.983  15.429 -0.1369 -0.4626 -0.2292
  598TMC3     H 8867   0.255   3.745  15.289 -0.1302 -0.9933 -0.4069
  598TMC3    H1 8868   0.524   4.057  15.179  1.1462 -2.4642  0.2875
  598TMC3    H2 8869   0.154   3.986  14.963  1.8579  1.4878  0.3564
  598TMC3    C7 8870   0.353   4.155  14.988 -0.4208 -0.9049 -0.3304
  598TMC3    C8 8871   0.055   3.806  15.122 -0.5372 -0.7223  0.1135
  598TMC3    O1 8872   0.280   4.168  14.889  0.2066  0.0349 -0.3029
  598TMC3    O2 8873   4.684   3.883  15.100 -0.0177  0.3466 -0.2921
  599MPD2     C 8874   0.366   1.589  15.717  0.3073 -0.3478  0.0493
  599MPD2    C1 8875   0.340   1.477  15.790 -0.1987  0.6590  0.4014
  599MPD2    C2 8876   0.216   1.467  15.848 -0.9821 -0.6035  0.1130
  599MPD2    C3 8877   0.128   1.567  15.838  0.7315  0.2230  0.3200
  599MPD2    C4 8878   0.152   1.675  15.759 -0.1718  0.1024 -0.2681
  599MPD2    C5 8879   0.270   1.677  15.688 -0.7097 -0.2484  0.6745
  599MPD2     H 8880   0.194   1.372  15.896  2.1009 -2.0989 -1.4207
  599MPD2    H1 8881   0.094   1.766  15.758 -0.4001 -0.0138  1.4997
  599MPD2    H2 8882   0.462   1.592  15.668 -0.8408  1.1694 -2.1305
  599MPD2    H3 8883   0.293   1.772  15.640 -0.6880 -0.9823 -0.7613
  599MPD2     N 8884   0.011   1.575  15.919  1.1730  0.4386  0.3608
  599MPD2    H5 8885   4.680   1.662  15.913 -0.3638 -0.5911 -1.5662
  599MPD2    N1 8886   0.444   1.380  15.803  0.1891 -0.3564  1.0580
  599MPD2    H7 8887   0.530   1.405  15.756  0.2237 -1.4569  0.5190
  600TMC3    C1 8888   4.638   1.556  16.132 -0.3616  0.3707 -0.8355
  600TMC3    C2 8889   4.573   1.489  16.231  0.6244 -0.1048  0.3133
  600TMC3    C3 8890   4.545   1.553  16.348  0.3199 -0.5061  0.1490
  600TMC3    C4 8891   4.661   1.692  16.146  0.4835  0.2507  0.1416
  600TMC3    C5 8892   4.622   1.748  16.264 -0.0350 -0.3231 -0.6635
  600TMC3    C6 8893   4.570   1.685  16.369 -0.4847 -0.0625  0.8531
  600TMC3     C 8894   4.691   1.488  16.016  0.0300  0.1218  0.4543
  600TMC3     O 8895   4.693   1.367  16.014  0.1385  0.4610 -0.2080
  600TMC3     H 8896   4.564   1.382  16.234 -1.2284  0.0755  1.1052
  600TMC3    H1 8897   0.015   1.743  16.085  1.1200 -1.9040 -0.8686
  600TMC3    H2 8898   4.535   1.737  16.458  0.9016 -0.2005  1.4902
  600TMC3    C7 8899   4.635   1.894  16.277  0.5767 -0.4256 -0.4654
  600TMC3    C8 8900   4.494   1.474  16.455  0.3720  0.7052  0.2292
  600TMC3    O1 8901   4.628   1.949  16.383 -0.2375  0.1296  0.7158
  600TMC3    O2 8902   4.533   1.492  16.571 -0.1109 -0.1320 -0.3001
  601MPD2     C 8903   1.937   4.189   0.513 -0.4694  0.3892  0.1491
  601MPD2    C1 8904   1.807   4.138   0.521  0.4608 -1.0349 -0.0394
  601MPD2    C2 8905   1.780   4.008   0.558  0.2014 -0.2285  0.4259
  601MPD2    C3 8906   1.881   3.926   0.585 -0.1135  0.6202  0.1782
  601MPD2    C4 8907   2.013   3.970   0.580  0.1633  0.0918 -0.0893
  601MPD2    C5 8908   2.036   4.097   0.542  0.3633 -0.7637 -0.5520
  601MPD2     H 8909   1.679   3.976   0.578  0.3345 -0.4020  0.8150
  601MPD2    H1 8910   2.097   3.907   0.605 -1.3346 -2.1917 -0.7092
  601MPD2    H2 8911   1.968   4.283   0.470  1.6272 -0.8791 -1.1485
  601MPD2    H3 8912   2.139   4.131   0.537  0.7980 -1.9345  0.3792
  601MPD2     N 8913   1.840   3.791   0.604  0.1813  0.2107  0.6109
  601MPD2    H5 8914   1.740   3.772   0.605  0.2861 -0.3323  1.2235
  601MPD2    N1 8915   1.694   4.215   0.483  0.2430 -0.1052  0.6364
  601MPD2    H7 8916   1.604   4.171   0.465  0.3007 -0.0218  0.1573
  602TMC3    C1 8917   1.546   4.400   0.451 -0.0025  0.0992 -0.4054
  602TMC3    C2 8918   1.491   4.490   0.530  0.4304  0.1052 -0.8011
  602TMC3    C3 8919   1.351   4.484   0.528  0.2562 -0.4934 -0.7008
  602TMC3    C4 8920   1.471   4.314   0.371  0.5508  0.6266  0.0930
  602TMC3    C5 8921   1.338   4.300   0.385 -0.1081  0.9180 -0.5004
  602TMC3    C6 8922   1.272   4.389   0.465 -0.0363  0.4855 -0.2614
  602TMC3     C 8923   1.687   4.353   0.482  0.6691  0.1451  0.5126
  602TMC3     O 8924   1.776   4.437   0.505 -0.0044  0.3087  0.1741
  602TMC3     H 8925   1.548   4.555   0.595 -1.4791  0.3979  0.5865
  602TMC3    H1 8926   1.525   4.261   0.294 -1.0587 -1.6605  0.5494
  602TMC3    H2 8927   1.166   4.403   0.452 -0.3869  0.7916  3.0577
  602TMC3    C7 8928   1.270   4.294   0.263 -0.3194  0.5327 -0.1140
  602TMC3    C8 8929   1.275   4.611   0.533 -0.6255 -0.0029 -0.0003
  602TMC3    O1 8930   1.155   4.262   0.273  0.1575 -0.7877  0.3609
  602TMC3    O2 8931   1.169   4.608   0.592 -0.0020 -0.4127 -0.4086
  603TMC3    C1 8932   4.182   0.543  11.129 -0.1331 -0.4213 -0.6198
  603TMC3    C2 8933   4.248   0.527  11.244  0.6702  0.1660 -0.9512
  603TMC3    C3 8934   4.376   0.578  11.246  0.3937  0.2170 -0.1136
  603TMC3    C4 8935   4.236   0.587  11.012 -0.0064  0.1996 -0.4314
  603TMC3    C5 8936   4.370   0.632  11.020 -0.1963 -0.5696 -0.4635
  603TMC3    C6 8937   4.439   0.631  11.139  0.1780  0.1946  0.4649
  603TMC3     C 8938   4.040   0.548  11.128  0.2702  0.1550 -0.6034
  603TMC3     O 8939   3.984   0.615  11.037  0.7995  0.0286 -0.6339
  603TMC3     H 8940   4.183   0.527  11.330 -1.2640 -1.7528 -2.4120
  603TMC3    H1 8941   4.178   0.576  10.921  1.1194 -0.2470 -1.0850
  603TMC3    H2 8942   4.547   0.635  11.132  0.2730 -0.2537  1.8344
  603TMC3    C7 8943   4.433   0.722  10.924 -0.1857 -0.0559  0.0126
  603TMC3    C8 8944   4.453   0.552  11.365 -0.0659 -0.9944  0.5737
  603TMC3    O1 8945   4.533   0.781  10.957 -0.7310 -0.3600  0.4154
  603TMC3    O2 8946   4.413   0.468  11.441 -0.0061 -0.0831  0.4478
  604MPD2     C 8947   1.217   3.255  16.612 -0.3243  0.2999  0.0756
  604MPD2    C1 8948   1.179   3.358  16.536  0.6517 -0.7298  0.2133
  604MPD2    C2 8949   1.239   3.379  16.412 -0.1733  0.1778  0.8095
  604MPD2    C3 8950   1.336   3.290  16.371  0.1663 -0.1612 -0.4394
  604MPD2    C4 8951   1.377   3.178  16.446 -0.2045 -0.0830 -0.6749
  604MPD2    C5 8952   1.320   3.165  16.573 -0.4659  0.3127 -0.0452
  604MPD2     H 8953   1.202   3.460  16.350  2.2671 -0.4862 -1.4689
  604MPD2    H1 8954   1.453   3.105  16.421 -0.0467  0.0136 -0.4698
  604MPD2    H2 8955   1.170   3.226  16.705  1.0625 -2.3781 -0.0514
  604MPD2    H3 8956   1.337   3.072  16.627 -2.3174  0.7348  1.2539
  604MPD2     N 8957   1.395   3.316  16.244 -0.7315 -0.4854 -1.1403
  604MPD2    H5 8958   1.359   3.397  16.195 -2.9983 -1.2216 -0.6850
  604MPD2    N1 8959   1.067   3.431  16.585 -0.2691 -0.0206 -0.0729
  604MPD2    H7 8960   1.043   3.415  16.682  0.8048 -1.9366 -0.1116
  605TMC3    C1 8961   0.920   3.615  16.599 -0.4934 -0.1122  0.8330
  605TMC3    C2 8962   0.928   3.608  16.736  0.3127 -0.0952 -0.3969
  605TMC3    C3 8963   0.894   3.727  16.804 -0.3518 -0.3962  0.4016
  605TMC3    C4 8964   0.858   3.726  16.531 -0.5493 -0.3876  0.5156
  605TMC3    C5 8965   0.824   3.830  16.606 -0.3251 -0.0702  0.4107
  605TMC3    C6 8966   0.845   3.838  16.739  0.5868 -0.2500 -0.2772
  605TMC3     C 8967   0.995   3.528  16.515  0.0402  0.3702  0.4749
  605TMC3     O 8968   0.985   3.540  16.394  0.4465  0.6350 -0.1358
  605TMC3     H 8969   0.987   3.533  16.788 -0.5874  0.3878  1.3145
  605TMC3    H1 8970   0.875   3.738  16.424 -0.7683  0.1674  0.5459
  605TMC3    H2 8971   0.802   3.919  16.797 -1.5838 -0.5140 -1.4962
  605TMC3    C7 8972   0.714   3.909  16.567 -0.4975 -1.7121  0.3576
  605TMC3    C8 8973   0.973   3.741  16.926 -0.0835  0.0741  0.2430
  605TMC3    O1 8974   0.673   4.013  16.625 -0.1407 -0.6472 -0.3497
  605TMC3    O2 8975   1.029   3.641  16.971  0.2018 -0.4165 -0.7100
  606TMC3    C1 8976   2.425   1.849  16.728  0.4705 -0.4028  0.4114
  606TMC3    C2 8977   2.456   1.866  16.858  0.0337 -0.3467  0.4254
  606TMC3    C3 8978   2.390   1.791  16.942 -0.1009 -0.0733 -0.1928
  606TMC3    C4 8979   2.324   1.761  16.689 -0.0680 -0.0999 -0.1134
  606TMC3    C5 8980   2.250   1.700  16.785 -0.3048 -0.3534 -0.3486
  606TMC3    C6 8981   2.287   1.705  16.914 -0.4421 -0.1290  0.0984
  606TMC3     C 8982   2.504   1.925  16.642  0.4231 -0.3800  0.2335
  606TMC3     O 8983   2.582   2.011  16.682  0.1319  0.2546 -0.8457
  606TMC3     H 8984   2.533   1.932  16.898  2.2269 -1.2939 -2.2382
  606TMC3    H1 8985   2.286   1.763  16.587  0.4417 -0.9540 -0.3239
  606TMC3    H2 8986   2.246   1.643  16.993 -2.8689  1.5449  0.1624
  606TMC3    C7 8987   2.165   1.594  16.736  0.2688  0.6216  0.7922
  606TMC3    C8 8988   2.419   1.812  17.089 -0.4633  0.5781  0.3824
  606TMC3    O1 8989   2.163   1.578  16.616  0.3471 -0.2444  0.1340
  606TMC3    O2 8990   2.537   1.833  17.118  0.3978 -0.2467 -0.6496
  607MPD2     C 8991   4.073   0.243  11.953 -0.2389  0.6243  0.1072
  607MPD2    C1 8992   4.175   0.307  12.015  0.0347  0.4078  0.2632
  607MPD2    C2 8993   4.216   0.280  12.140  0.5000 -0.3494  0.1042
  607MPD2    C3 8994   4.154   0.186  12.220  0.1196 -0.5125 -0.3491
  607MPD2    C4 8995   4.050   0.115  12.165 -0.2988 -0.1574 -0.3246
  607MPD2    C5 8996   4.014   0.144  12.035  0.0183 -0.5000 -0.2685
  607MPD2     H 8997   4.312   0.320  12.171 -0.2494 -2.3191  5.0389
  607MPD2    H1 8998   4.002   0.033  12.217 -1.3932  1.2153  0.8322
  607MPD2    H2 8999   4.046   0.261  11.849  1.1759  0.2749 -0.3261
  607MPD2    H3 9000   3.944   0.082  11.981  0.2148 -1.2032  0.2764
  607MPD2     N 9001   4.197   0.171  12.354  0.7307 -0.5333  0.4789
  607MPD2    H5 9002   4.260   0.246  12.380  1.3066 -0.6969 -0.4419
  607MPD2    N1 9003   4.247   0.415  11.961 -0.5055 -0.2809  0.1547
  607MPD2    H7 9004   4.314   0.470  12.015 -0.5006 -0.1208 -0.0169
  608TMC3    C1 9005   4.297   0.592  11.827 -0.5240  0.2907  0.1978
  608TMC3    C2 9006   4.265   0.662  11.932 -0.1556 -0.0484  1.2615
  608TMC3    C3 9007   4.311   0.790  11.937  0.3614 -0.2759  0.2819
  608TMC3    C4 9008   4.331   0.645  11.709 -0.3757  0.3997 -0.2781
  608TMC3    C5 9009   4.345   0.777  11.711 -0.4939 -0.2232 -0.3649
  608TMC3    C6 9010   4.346   0.856  11.824  0.1711 -0.1598  0.4611
  608TMC3     C 9011   4.229   0.463  11.830  0.6234  0.2220 -0.4307
  608TMC3     O 9012   4.187   0.409  11.725 -0.0275 -0.2266  0.5711
  608TMC3     H 9013   4.185   0.638  12.001 -1.0417  0.5305  0.4290
  608TMC3    H1 9014   4.328   0.581  11.622 -0.6755 -2.2338  1.6728
  608TMC3    H2 9015   4.371   0.961  11.832  3.0312 -0.8697  0.9920
  608TMC3    C7 9016   4.333   0.843  11.588 -0.0778 -0.2465 -0.2440
  608TMC3    C8 9017   4.313   0.847  12.066  0.5944  0.0227 -0.0620
  608TMC3    O1 9018   4.286   0.792  11.485  0.0660 -0.1023  0.0239
  608TMC3    O2 9019   4.290   0.969  12.085 -0.4825 -0.7070 -0.3813
  609TMC3    C1 9020   2.721   4.258   9.369 -0.0334 -0.3628  0.5465
  609TMC3    C2 9021   2.734   4.389   9.346 -0.9508 -0.4489  0.3464
  609TMC3    C3 9022   2.839   4.428   9.269  0.1539 -0.3132  0.7630
  609TMC3    C4 9023   2.812   4.165   9.320  0.1179  0.0531  0.0003
  609TMC3    C5 9024   2.903   4.217   9.228 -0.1241  0.7344  0.2845
  609TMC3    C6 9025   2.925   4.344   9.200 -0.1449 -0.7520 -0.0344
  609TMC3     C 9026   2.608   4.214   9.451 -0.0347 -0.1598  0.2953
  609TMC3     O 9027   2.508   4.278   9.438 -0.4941 -0.3526 -0.5249
  609TMC3     H 9028   2.672   4.466   9.392  0.1871 -0.2506  1.5604
  609TMC3    H1 9029   2.779   4.062   9.324 -0.5126  0.2141 -1.3702
  609TMC3    H2 9030   3.005   4.377   9.135 -1.0599  0.7140 -0.4080
  609TMC3    C7 9031   2.999   4.121   9.180 -1.1418 -0.1525 -0.4279
  609TMC3    C8 9032   2.838   4.563   9.230  0.1857  0.0130 -1.0029
  609TMC3    O1 9033   3.034   4.030   9.257  0.1892  0.4817  0.2554
  609TMC3    O2 9034   2.737   4.632   9.253  0.3176  0.4151  0.0106
  610TMC3    C1 9035   4.563   0.707  12.732 -0.0599 -0.0102  0.0164
  610TMC3    C2 9036   4.592   0.737  12.600 -0.3281 -0.5564  0.1861
  610TMC3    C3 9037   4.683   0.652  12.537  0.3402 -0.8283  0.2607
  610TMC3    C4 9038   4.627   0.608  12.802 -0.0136  0.9565  0.6344
  610TMC3    C5 9039   4.717   0.530  12.731  0.3248 -0.1806  0.7894
  610TMC3    C6 9040   0.017   0.549  12.600 -0.0654  0.0520 -0.0547
  610TMC3     C 9041   4.462   0.792  12.795 -0.4259 -0.9508  0.2071
  610TMC3     O 9042   4.390   0.756  12.889  0.0957  0.3108 -0.6569
  610TMC3     H 9043   4.540   0.801  12.529 -0.2331  1.8014  2.2426
  610TMC3    H1 9044   4.609   0.595  12.908 -2.7952 -0.2432  0.0141
  610TMC3    H2 9045   0.096   0.490  12.557  1.4379 -0.4484  3.4151
  610TMC3    C7 9046   0.088   0.433  12.807  0.1677  0.1034 -0.4761
  610TMC3    C8 9047   0.001   0.686  12.396 -0.1010  0.2814 -0.8989
  610TMC3    O1 9048   0.185   0.382  12.758 -0.4635 -0.1098 -0.1350
  610TMC3    O2 9049   4.712   0.804  12.356  0.5943 -0.0468  0.2597
  611MPD2     C 9050   3.471   0.564  10.295 -0.0083  0.0765  1.0128
  611MPD2    C1 9051   3.436   0.676  10.237  0.1006  0.9867  1.4395
  611MPD2    C2 9052   3.530   0.778  10.227  0.3283 -0.1622  0.1636
  611MPD2    C3 9053   3.659   0.763  10.280  0.4832  0.1450 -0.1538
  611MPD2    C4 9054   3.680   0.652  10.361 -0.5096  0.3025  0.4779
  611MPD2    C5 9055   3.589   0.550  10.364  0.2126  0.0325  0.1410
  611MPD2     H 9056   3.500   0.880  10.206 -0.7422 -0.4933  0.0733
  611MPD2    H1 9057   3.772   0.658  10.419 -0.7136 -0.6406  0.8964
  611MPD2    H2 9058   3.400   0.485  10.314  1.3938 -1.7993 -1.5829
  611MPD2    H3 9059   3.591   0.457  10.419 -3.1275  0.0572  0.3043
  611MPD2     N 9060   3.767   0.858  10.258 -0.4423 -0.0649 -0.1551
  611MPD2    H5 9061   3.853   0.849  10.310  1.9920 -0.3810 -4.2522
  611MPD2    N1 9062   3.302   0.694  10.195  0.5668 -0.1887  0.0623
  611MPD2    H7 9063   3.236   0.618  10.210  0.6963  0.1622  2.3878
  612TMC3    C1 9064   3.863   1.067  10.182  0.8276  0.3031 -0.2397
  612TMC3    C2 9065   3.954   1.053  10.280  0.0140 -0.0066  0.2317
  612TMC3    C3 9066   4.075   1.115  10.270  0.2421 -0.0786  0.6582
  612TMC3    C4 9067   3.876   1.143  10.068 -0.3197 -0.0506  0.3075
  612TMC3    C5 9068   3.990   1.215  10.070  0.4173 -0.4141  0.3347
  612TMC3    C6 9069   4.092   1.199  10.159 -0.2277 -0.0187  0.2613
  612TMC3     C 9070   3.762   0.967  10.166  1.1589 -0.1906  0.6453
  612TMC3     O 9071   3.694   0.975  10.069 -0.3085 -0.2412 -0.1132
  612TMC3     H 9072   3.929   1.001  10.372 -0.9583 -0.3773 -0.2369
  612TMC3    H1 9073   3.800   1.159   9.992  0.1344 -0.5095 -0.2351
  612TMC3    H2 9074   4.178   1.265  10.154 -0.6018  0.4012 -0.5746
  612TMC3    C7 9075   4.004   1.304   9.958  0.1910 -0.7692 -0.0651
  612TMC3    C8 9076   4.195   1.102  10.347 -0.0323  0.2678 -0.7388
  612TMC3    O1 9077   3.899   1.357   9.916 -0.7324 -0.0953  0.1020
  612TMC3    O2 9078   4.292   1.170  10.315 -0.6534 -0.4662 -0.1344
  613MPD2     C 9079   3.616   2.921  16.676  0.1592  0.1473 -0.3646
  613MPD2    C1 9080   3.690   2.903  16.560 -0.5134 -0.0735  0.3637
  613MPD2    C2 9081   3.766   2.792  16.545  0.5082  0.2116 -0.5544
  613MPD2    C3 9082   3.765   2.698  16.648 -0.6973  0.6324 -0.9612
  613MPD2    C4 9083   3.701   2.724  16.768 -0.0484 -0.0108 -0.7376
  613MPD2    C5 9084   3.623   2.835  16.780  0.1722 -0.5032 -0.6792
  613MPD2     H 9085   3.829   2.782  16.458  0.7509  2.1339 -0.5864
  613MPD2    H1 9086   3.712   2.652  16.849  1.6997 -0.4726 -1.3965
  613MPD2    H2 9087   3.545   3.003  16.687 -0.0705 -0.1374  0.2964
  613MPD2    H3 9088   3.578   2.863  16.874  1.8051 -1.3871  0.3735
  613MPD2     N 9089   3.858   2.593  16.625  0.0161  0.6591  0.2472
  613MPD2    H5 9090   3.902   2.590  16.534 -0.1148  2.1121  0.1374
  613MPD2    N1 9091   3.685   2.990  16.447 -0.1300 -0.1059 -0.3014
  613MPD2    H7 9092   3.745   2.974  16.366  0.7964 -2.2759  0.8051
  614TMC3    C1 9093   3.634   3.157  16.300  0.2052  0.4534  0.3456
  614TMC3    C2 9094   3.752   3.118  16.251  0.1805 -0.0842  0.4775
  614TMC3    C3 9095   3.748   3.075  16.118 -0.3969 -0.4765 -0.7724
  614TMC3    C4 9096   3.521   3.171  16.221 -1.0914  0.1609 -0.2819
  614TMC3    C5 9097   3.520   3.129  16.095 -0.4810  0.3082  0.1688
  614TMC3    C6 9098   3.632   3.072  16.041 -0.3750  0.1087 -0.5323
  614TMC3     C 9099   3.605   3.096  16.429  0.6536 -0.5982 -0.0597
  614TMC3     O 9100   3.520   3.147  16.502 -0.4005 -0.5698  0.0462
  614TMC3     H 9101   3.846   3.128  16.304  1.8929 -0.5663 -2.4592
  614TMC3    H1 9102   3.430   3.205  16.271 -0.1336 -1.2248  2.3976
  614TMC3    H2 9103   3.644   3.077  15.933 -1.6848  2.5832 -0.5604
  614TMC3    C7 9104   3.410   3.187  16.022  0.4284  0.4896  0.0288
  614TMC3    C8 9105   3.820   2.949  16.113  0.3540  0.2731 -0.2094
  614TMC3    O1 9106   3.345   3.283  16.069 -0.0782 -0.1541 -0.0977
  614TMC3    O2 9107   3.886   2.916  16.212  0.1080 -0.1410 -0.3353
  615MPD2     C 9108   2.635   3.676  16.636  0.6113 -0.0593  0.7977
  615MPD2    C1 9109   2.636   3.792  16.566  0.7914  0.5222 -0.2023
  615MPD2    C2 9110   2.570   3.800  16.444 -0.0926 -0.0883 -0.8779
  615MPD2    C3 9111   2.511   3.692  16.383 -0.5593 -0.7433  0.1879
  615MPD2    C4 9112   2.524   3.569  16.445  0.5834  0.3711  0.0399
  615MPD2    C5 9113   2.576   3.568  16.575  0.4824 -0.5548 -0.1988
  615MPD2     H 9114   2.559   3.898  16.400 -2.2356 -0.2033 -0.5869
  615MPD2    H1 9115   2.495   3.476  16.398 -1.6371 -0.0399  2.2087
  615MPD2    H2 9116   2.658   3.657  16.740  0.0875 -0.1676  0.8916
  615MPD2    H3 9117   2.584   3.482  16.640  0.1334  0.8116  1.6616
  615MPD2     N 9118   2.442   3.710  16.259  0.5313 -0.2327  0.1686
  615MPD2    H5 9119   2.442   3.803  16.219 -0.7762 -0.6571 -0.8033
  615MPD2    N1 9120   2.684   3.912  16.633 -0.5747 -0.0992 -0.0770
  615MPD2    H7 9121   2.686   4.000  16.581 -0.3573 -0.6918 -1.0714
  616TMC3    C1 9122   2.715   4.061  16.806 -0.0997 -0.1739 -0.1173
  616TMC3    C2 9123   2.785   4.152  16.733 -0.1633 -0.1521  0.3488
  616TMC3    C3 9124   2.759   4.287  16.744 -0.3115  0.0832 -0.1975
  616TMC3    C4 9125   2.612   4.103  16.887  0.2422 -0.0466 -0.4741
  616TMC3    C5 9126   2.588   4.240  16.891  1.1029  0.6279 -0.1437
  616TMC3    C6 9127   2.660   4.340  16.825  0.0574  0.0267 -0.7191
  616TMC3     C 9128   2.703   3.924  16.765  0.7228  0.4501  0.6690
  616TMC3     O 9129   2.671   3.850  16.857 -0.3698  0.4434 -0.3876
  616TMC3     H 9130   2.868   4.116  16.673 -0.9549 -1.6678  0.1691
  616TMC3    H1 9131   2.583   4.041  16.971 -0.0547 -0.9083 -1.2148
  616TMC3    H2 9132   2.634   4.445  16.836 -1.6745 -0.4552 -0.2083
  616TMC3    C7 9133   2.498   4.290  16.995  0.1175  0.1655  0.6432
  616TMC3    C8 9134   2.856   4.377  16.680 -0.6169  0.2584  0.4702
  616TMC3    O1 9135   2.535   4.388  17.058 -0.3849  0.6255  0.3530
  616TMC3    O2 9136   2.824   4.497  16.671  0.7983 -0.0687  0.3560
  617MPD2     C 9137   1.044   2.404  14.040 -0.2821 -0.0901  0.0500
  617MPD2    C1 9138   1.025   2.291  14.109 -0.0912 -0.1600  0.3594
  617MPD2    C2 9139   0.904   2.228  14.103  0.9323 -0.0981 -0.6161
  617MPD2    C3 9140   0.796   2.282  14.047  0.2400  0.3957  0.5087
  617MPD2    C4 9141   0.816   2.390  13.957  0.9546  0.5291 -0.1032
  617MPD2    C5 9142   0.942   2.446  13.955  0.8677 -0.7773  1.0424
  617MPD2     H 9143   0.895   2.134  14.157  1.5282  0.2267  0.0447
  617MPD2    H1 9144   0.740   2.443  13.902 -1.2640  0.3126  2.7778
  617MPD2    H2 9145   1.140   2.453  14.029  0.0317 -1.4863 -3.2473
  617MPD2    H3 9146   0.958   2.538  13.900  0.0859 -0.3338  1.5585
  617MPD2     N 9147   0.664   2.220  14.051  0.8598  0.1626  0.4359
  617MPD2    H5 9148   0.590   2.277  14.010  1.3171 -0.2328 -0.9359
  617MPD2    N1 9149   1.138   2.243  14.177  0.1402 -0.1853  0.1924
  617MPD2    H7 9150   1.221   2.302  14.179 -1.8213  2.7537 -3.2895
  618TMC3    C1 9151   1.275   2.098  14.293 -0.4111 -0.5707  0.0923
  618TMC3    C2 9152   1.327   1.985  14.235  0.5196 -0.1449 -0.0684
  618TMC3    C3 9153   1.457   1.960  14.243 -0.4328  0.5358 -0.5261
  618TMC3    C4 9154   1.360   2.198  14.338  1.4901  0.6504 -0.5733
  618TMC3    C5 9155   1.491   2.175  14.332 -0.0816 -0.0605  0.1305
  618TMC3    C6 9156   1.546   2.055  14.289  0.1538  0.0102 -0.3575
  618TMC3     C 9157   1.148   2.124  14.245 -0.9862  0.1235  0.1491
  618TMC3     O 9158   1.066   2.036  14.267 -0.2844  0.2757 -0.3753
  618TMC3     H 9159   1.268   1.899  14.208 -0.8827  0.5254  0.8391
  618TMC3    H1 9160   1.333   2.299  14.366  0.9562 -0.3428  2.4463
  618TMC3    H2 9161   1.647   2.031  14.319 -0.0631  0.3241  0.6047
  618TMC3    C7 9162   1.574   2.265  14.414  0.1334  1.1409 -0.1633
  618TMC3    C8 9163   1.502   1.904  14.111  0.0330 -0.0991  0.6468
  618TMC3    O1 9164   1.518   2.295  14.517 -0.2702  0.2066  0.2212
  618TMC3    O2 9165   1.412   1.878  14.028  0.6100  0.2318  0.3212
  619MPD2     C 9166   2.689   4.082  13.622 -0.0134  0.4100 -0.4130
  619MPD2    C1 9167   2.628   4.162  13.533  1.0413 -0.5604 -0.7575
  619MPD2    C2 9168   2.508   4.128  13.469 -0.0659 -0.0421 -0.0301
  619MPD2    C3 9169   2.458   4.003  13.491  0.3059 -0.2549  0.2612
  619MPD2    C4 9170   2.528   3.919  13.577 -0.6363 -0.0914  0.0689
  619MPD2    C5 9171   2.639   3.959  13.656  0.3866  0.4358  0.7981
  619MPD2     H 9172   2.461   4.202  13.407 -0.2585  1.2918  1.7086
  619MPD2    H1 9173   2.488   3.822  13.605  0.3733 -0.4772  0.1977
  619MPD2    H2 9174   2.772   4.121  13.681  1.0566 -0.5833 -1.2478
  619MPD2    H3 9175   2.694   3.889  13.718 -0.6545 -2.5426 -1.5784
  619MPD2     N 9176   2.338   3.954  13.428 -0.6190  0.5048  0.0952
  619MPD2    H5 9177   2.297   3.865  13.453 -1.6522  0.3476 -2.1944
  619MPD2    N1 9178   2.671   4.295  13.505  0.9544 -0.9879  0.1666
  619MPD2    H7 9179   2.613   4.357  13.450  2.3456  1.6960  1.7401
  620TMC3    C1 9180   2.771   4.497  13.510  0.6700 -0.0485  0.3558
  620TMC3    C2 9181   2.724   4.513  13.377  0.0488 -0.2514 -0.0506
  620TMC3    C3 9182   2.637   4.622  13.357  0.1509 -0.0304 -0.3966
  620TMC3    C4 9183   2.737   4.577  13.616  0.0368 -0.3926  1.0883
  620TMC3    C5 9184   2.666   4.694  13.586  1.1205 -0.6241 -0.6446
  620TMC3    C6 9185   2.625   4.715  13.452 -0.0695  0.9248 -0.2016
  620TMC3     C 9186   2.779   4.361  13.554 -0.6104 -0.7328  0.1798
  620TMC3     O 9187   2.856   4.332  13.647  0.4204 -0.0190  0.1342
  620TMC3     H 9188   2.750   4.442  13.300  0.5272 -0.2358  0.0976
  620TMC3    H1 9189   2.764   4.555  13.719 -0.7612 -0.5589  1.2670
  620TMC3    H2 9190   2.567   0.085  13.434  0.3282  1.3786  0.7614
  620TMC3    C7 9191   2.560   0.023  13.672  0.2287  0.4620 -0.7818
  620TMC3    C8 9192   2.511   4.562  13.325  0.1408 -0.1410  0.8969
  620TMC3    O1 9193   2.518   0.136  13.653  0.0286 -0.6086  0.1383
  620TMC3    O2 9194   2.521   4.442  13.302  0.0070  0.8881  0.0362
  621MPD2     C 9195   2.490   3.165  10.125  0.7104 -0.2051  0.1181
  621MPD2    C1 9196   2.464   3.285  10.061 -0.2388 -0.1940 -0.3318
  621MPD2    C2 9197   2.562   3.360  10.007 -0.2858  0.3830 -0.2723
  621MPD2    C3 9198   2.689   3.326  10.024 -0.3579  0.3424 -0.6691
  621MPD2    C4 9199   2.721   3.200  10.077  0.0368 -0.6525  0.6456
  621MPD2    C5 9200   2.620   3.120  10.128  0.5199  0.1256 -0.0203
  621MPD2     H 9201   2.538   3.447   9.947  1.4208  1.0726  0.0312
  621MPD2    H1 9202   2.818   3.156  10.096  1.0982  0.0126 -3.4250
  621MPD2    H2 9203   2.415   3.101  10.170  2.8071 -1.8382  1.3023
  621MPD2    H3 9204   2.634   3.020  10.167  1.6289 -0.6338 -2.3800
  621MPD2     N 9205   2.795   3.402   9.972  0.1053 -0.5078  1.1235
  621MPD2    H5 9206   2.773   3.502   9.971  1.6415 -0.1575  1.6976
  621MPD2    N1 9207   2.336   3.326  10.033 -0.5232 -0.2633 -0.0018
  621MPD2    H7 9208   2.323   3.395   9.959 -2.4278  0.3151  0.8749
  622TMC3    C1 9209   2.094   3.336  10.038  0.2135  0.3059 -0.0072
  622TMC3    C2 9210   1.975   3.319  10.103  0.3823 -0.0602  0.7662
  622TMC3    C3 9211   1.856   3.346  10.038 -0.9083  0.0437  0.8370
  622TMC3    C4 9212   2.094   3.374   9.906  0.6986  1.0260  0.2140
  622TMC3    C5 9213   1.978   3.412   9.852 -0.7510  0.1339  0.5498
  622TMC3    C6 9214   1.861   3.389   9.907 -1.2033  0.1556  0.8998
  622TMC3     C 9215   2.221   3.275  10.085 -0.0892 -0.2610 -0.1988
  622TMC3     O 9216   2.211   3.201  10.182  0.0928  0.5178  0.2115
  622TMC3     H 9217   1.977   3.272  10.201 -1.5459 -1.0849  0.3278
  622TMC3    H1 9218   2.186   3.374   9.849  0.6555  0.6585  0.1458
  622TMC3    H2 9219   1.764   3.400   9.859 -0.7232  0.0861 -0.0814
  622TMC3    C7 9220   1.997   3.467   9.717  0.4116 -0.0042  0.3379
  622TMC3    C8 9221   1.733   3.325  10.108 -0.2840  0.2244  0.4585
  622TMC3    O1 9222   2.095   3.421   9.652  0.1688 -0.4842  0.2296
  622TMC3    O2 9223   1.638   3.291  10.042 -0.2570 -0.4745  0.0910
  623MPD2     C 9224   1.521   3.629  16.284  0.5760 -0.6029 -0.3451
  623MPD2    C1 9225   1.431   3.643  16.390 -0.3231  0.7483 -0.6858
  623MPD2    C2 9226   1.474   3.599  16.519  0.2863  0.3602 -0.4566
  623MPD2    C3 9227   1.601   3.538  16.531 -0.5557 -0.4208  0.1741
  623MPD2    C4 9228   1.681   3.505  16.426 -0.6373  0.3651 -0.7956
  623MPD2    C5 9229   1.641   3.559  16.303  0.2794  0.0299  0.0840
  623MPD2     H 9230   1.420   3.620  16.611  0.8806  1.9185 -0.4700
  623MPD2    H1 9231   1.765   3.435  16.427  0.7742  2.0678 -0.7311
  623MPD2    H2 9232   1.513   3.685  16.192 -0.8802  0.6018  0.5147
  623MPD2    H3 9233   1.700   3.537  16.215  1.4643  1.6458  0.4843
  623MPD2     N 9234   1.643   3.538  16.667  0.5312  0.0734  0.1567
  623MPD2    H5 9235   1.571   3.569  16.732  0.4029  0.5503 -0.2137
  623MPD2    N1 9236   1.320   3.733  16.386  0.0903  0.6084  0.4131
  623MPD2    H7 9237   1.275   3.758  16.473  1.5424 -0.2774  1.4298
  624TMC3    C1 9238   1.863   3.696  16.976 -0.8338  0.8102  0.0913
  624TMC3    C2 9239   1.741   3.735  17.021 -0.3580  0.0227 -0.5503
  624TMC3    C3 9240   1.639   3.662  16.979  0.4701 -0.8980  0.8386
  624TMC3    C4 9241   1.885   3.595  16.891  0.3433  0.7487  0.4700
  624TMC3    C5 9242   1.773   3.512  16.856  0.0473  0.3567  0.2897
  624TMC3    C6 9243   1.647   3.546  16.909 -0.4144  0.0014  0.6882
  624TMC3     C 9244   1.973   3.730  17.064 -0.3781  0.0818 -0.6819
  624TMC3     O 9245   1.955   3.823  17.141 -0.0633 -0.3507  0.0093
  624TMC3     H 9246   1.738   3.821  17.088 -1.3026 -0.4561  0.0292
  624TMC3    H1 9247   1.982   3.594  16.842 -0.1533  0.2085 -0.5152
  624TMC3    H2 9248   1.565   3.483  16.877 -1.1882  1.9955 -1.2825
  624TMC3    C7 9249   1.763   3.488  16.714 -0.6044  0.0986 -0.1459
  624TMC3    C8 9250   1.504   3.717  16.982  0.5185  0.2391 -0.0976
  624TMC3    O1 9251   1.864   3.462  16.650 -0.1761  0.4364  0.1092
  624TMC3    O2 9252   1.420   3.656  16.914  0.2567  0.0932 -0.2721
  625MPD2     C 9253   2.053   0.379   0.867 -0.5566 -0.0754  0.0342
  625MPD2    C1 9254   2.058   0.498   0.800 -0.0198  0.2426 -0.7144
  625MPD2    C2 9255   2.168   0.554   0.750 -0.1441  0.2179 -0.2630
  625MPD2    C3 9256   2.283   0.483   0.761  0.1638  0.3070  0.5624
  625MPD2    C4 9257   2.284   0.363   0.820 -0.5809  0.4902  0.7286
  625MPD2    C5 9258   2.167   0.317   0.874 -0.3689 -0.4388 -0.9216
  625MPD2     H 9259   2.163   0.654   0.711 -0.0058  1.1510  2.1147
  625MPD2    H1 9260   2.368   0.296   0.840  0.0429  1.2098  0.5167
  625MPD2    H2 9261   1.977   0.322   0.920 -1.4748  0.7256 -0.4175
  625MPD2    H3 9262   2.167   0.215   0.911 -0.9893 -0.8653 -2.0827
  625MPD2     N 9263   2.400   0.543   0.712  0.0711 -0.2662 -0.1189
  625MPD2    H5 9264   2.387   0.634   0.671  2.2195  0.6902  1.3181
  625MPD2    N1 9265   1.933   0.566   0.782 -0.1283 -0.2650  0.5463
  625MPD2    H7 9266   1.921   0.653   0.731 -2.6485  0.6238  2.6825
  626TMC3    C1 9267   1.716   0.645   0.823 -0.1995  0.2669 -1.1452
  626TMC3    C2 9268   1.704   0.682   0.693  0.1464 -0.0352 -0.0054
  626TMC3    C3 9269   1.609   0.774   0.671 -0.5905 -0.4099  0.0498
  626TMC3    C4 9270   1.645   0.702   0.930 -0.0821  1.1848  0.2255
  626TMC3    C5 9271   1.561   0.804   0.902 -1.0839  0.2040  0.4393
  626TMC3    C6 9272   1.540   0.842   0.767 -0.6550 -0.0572 -0.2920
  626TMC3     C 9273   1.821   0.552   0.865 -0.4152 -0.0519 -0.6140
  626TMC3     O 9274   1.799   0.478   0.960 -0.3993 -0.0589  0.1897
  626TMC3     H 9275   1.746   0.621   0.614 -1.4675  0.3516 -1.1637
  626TMC3    H1 9276   1.665   0.680   1.034 -0.3902 -0.8343 -0.1517
  626TMC3    H2 9277   1.477   0.925   0.739  0.0230  0.5890  0.0887
  626TMC3    C7 9278   1.494   0.880   1.002 -0.5168  0.5612  0.7975
  626TMC3    C8 9279   1.564   0.792   0.536  0.7204  0.1521  0.3580
  626TMC3    O1 9280   1.550   0.872   1.106 -0.4973  0.1379 -0.3703
  626TMC3    O2 9281   1.643   0.786   0.439  0.2511  0.7159 -0.2783
  627MPD2     C 9282   0.941   1.037  14.140 -0.5021 -0.9021  0.2459
  627MPD2    C1 9283   0.841   1.038  14.238  0.4567  0.1329  0.5782
  627MPD2    C2 9284   0.727   0.956  14.217  0.2540 -0.2444  0.2917
  627MPD2    C3 9285   0.695   0.891  14.102 -0.6006 -0.0673 -0.4880
  627MPD2    C4 9286   0.788   0.902  13.997  0.2822 -0.1024  0.3893
  627MPD2    C5 9287   0.907   0.972  14.026 -0.3590  0.1594  0.5830
  627MPD2     H 9288   0.656   0.953  14.299 -2.9011 -1.2403 -2.4754
  627MPD2    H1 9289   0.772   0.865  13.897 -3.1074 -0.1671  0.9682
  627MPD2    H2 9290   1.026   1.103  14.147 -1.5748  0.5216 -0.0404
  627MPD2    H3 9291   0.987   0.977  13.952  0.2413  0.8682  1.2726
  627MPD2     N 9292   0.584   0.805  14.105 -0.1655 -0.0685 -0.0805
  627MPD2    H5 9293   0.525   0.808  14.188  1.1998  0.4077  0.8701
  627MPD2    N1 9294   0.855   1.094  14.367 -0.1391  0.1410 -0.3652
  627MPD2    H7 9295   0.772   1.083  14.424  2.2966 -1.8557  2.8193
  628TMC3    C1 9296   0.924   1.208  14.552  0.6436  0.5617  0.3563
  628TMC3    C2 9297   1.011   1.197  14.658 -0.4689 -0.4279 -0.4806
  628TMC3    C3 9298   0.960   1.227  14.782 -0.3762  0.2568  0.0087
  628TMC3    C4 9299   0.800   1.251  14.573  0.0478 -0.1267 -0.4226
  628TMC3    C5 9300   0.750   1.269  14.698  0.5708  0.1804 -0.0816
  628TMC3    C6 9301   0.834   1.270  14.811 -0.6986  0.3639  0.3081
  628TMC3     C 9302   0.966   1.153  14.424 -0.6376  0.4292  0.8281
  628TMC3     O 9303   1.079   1.170  14.384  0.3218 -0.0543 -0.3655
  628TMC3     H 9304   1.105   1.146  14.643 -1.5571 -2.2611 -1.1127
  628TMC3    H1 9305   0.731   1.249  14.489  0.7556 -2.0730 -0.9616
  628TMC3    H2 9306   0.803   1.271  14.915 -1.1850  0.9215  0.1565
  628TMC3    C7 9307   0.629   1.351  14.718  0.0406  0.3847  0.4212
  628TMC3    C8 9308   1.063   1.232  14.885 -0.2345 -0.2506 -0.1849
  628TMC3    O1 9309   0.605   1.370  14.836 -0.6195  0.0907  0.3775
  628TMC3    O2 9310   1.070   1.340  14.942 -0.8821  0.1779  0.4988
  629MPD2     C 9311   3.269   4.430  16.388 -1.2959  0.3405 -0.3595
  629MPD2    C1 9312   3.295   4.340  16.487  0.4749 -0.0448  0.1200
  629MPD2    C2 9313   3.200   4.304  16.581 -0.1485 -0.3930  1.0730
  629MPD2    C3 9314   3.069   4.347  16.567 -0.5472  0.5861  0.2576
  629MPD2    C4 9315   3.042   4.446  16.478  0.7079  0.1694  0.2610
  629MPD2    C5 9316   3.141   4.479  16.385  0.6530 -0.4670  0.5942
  629MPD2     H 9317   3.228   4.232  16.656 -0.4388 -1.0172  0.5827
  629MPD2    H1 9318   2.943   4.489  16.466 -0.1960 -2.1158 -0.5116
  629MPD2    H2 9319   3.340   4.451  16.309 -0.8356 -1.1884 -0.3605
  629MPD2    H3 9320   3.109   4.546  16.306  0.2660 -1.9172 -0.4810
  629MPD2     N 9321   2.977   4.319  16.673  0.1119  0.2334  0.1937
  629MPD2    H5 9322   2.998   4.239  16.732 -0.3854 -0.4220 -0.5189
  629MPD2    N1 9323   3.434   4.297  16.492 -0.0839 -0.1932 -0.6642
  629MPD2    H7 9324   3.486   4.322  16.409  0.0585 -1.6001 -0.9973
  630TMC3    C1 9325   3.643   4.197  16.578  0.0153  0.1762 -0.0504
  630TMC3    C2 9326   3.696   4.200  16.446 -0.3982  0.1954  0.0454
  630TMC3    C3 9327   3.822   4.165  16.428 -0.2912  0.6449  0.1213
  630TMC3    C4 9328   3.714   4.134  16.677  0.1590 -0.7158  0.1339
  630TMC3    C5 9329   3.847   4.132  16.666 -0.1861 -0.7354 -0.1311
  630TMC3    C6 9330   3.900   4.142  16.538  0.1757 -0.5068  1.0374
  630TMC3     C 9331   3.494   4.234  16.600 -0.2947  0.2512  0.9561
  630TMC3     O 9332   3.453   4.215  16.712  0.3980 -0.0772 -0.6694
  630TMC3     H 9333   3.638   4.230  16.360 -0.7966 -0.9802 -0.0949
  630TMC3    H1 9334   3.669   4.141  16.776 -0.8995 -1.9966 -0.2556
  630TMC3    H2 9335   4.003   4.109  16.526  0.3594 -0.1341  1.5577
  630TMC3    C7 9336   3.916   4.196  16.774  0.1289 -0.3897  0.8240
  630TMC3    C8 9337   3.892   4.245  16.332  0.3223  0.5166 -0.3426
  630TMC3    O1 9338   3.859   4.191  16.882  1.0046 -0.0830 -0.5734
  630TMC3    O2 9339   3.984   4.299  16.389 -0.0970  0.2928  0.2644
  631MPD2     C 9340   1.459   3.792  15.835  0.1691  0.4569  0.2123
  631MPD2    C1 9341   1.539   3.903  15.829  0.0156 -0.1490  0.1267
  631MPD2    C2 9342   1.673   3.898  15.869  0.3042  0.1038  0.0665
  631MPD2    C3 9343   1.724   3.778  15.921 -0.5105  1.3400 -0.1683
  631MPD2    C4 9344   1.637   3.668  15.936 -0.2743  0.4051  0.5502
  631MPD2    C5 9345   1.507   3.676  15.890 -0.3793 -0.3581  0.1189
  631MPD2     H 9346   1.741   3.982  15.871  0.8012 -0.3051  1.1071
  631MPD2    H1 9347   1.670   3.573  15.978  0.1133  0.6757  0.8583
  631MPD2    H2 9348   1.354   3.783  15.811 -0.7296  2.7453  3.2451
  631MPD2    H3 9349   1.436   3.598  15.913  0.2771 -1.2304 -0.8406
  631MPD2     N 9350   1.862   3.768  15.951  0.0307 -0.4251 -0.2503
  631MPD2    H5 9351   1.916   3.850  15.926 -0.2735 -0.3174 -0.5586
  631MPD2    N1 9352   1.486   4.027  15.788 -0.0483 -0.0729  0.4338
  631MPD2    H7 9353   1.385   4.031  15.779 -0.0702 -0.3846  0.5351
  632TMC3    C1 9354   1.479   4.258  15.719  0.7507 -0.3689 -0.6688
  632TMC3    C2 9355   1.363   4.278  15.790 -0.5598  0.7269  0.0853
  632TMC3    C3 9356   1.334   4.409  15.823  0.0069 -0.1693  0.4982
  632TMC3    C4 9357   1.545   4.364  15.679  0.6464  0.0486 -0.2346
  632TMC3    C5 9358   1.498   4.487  15.690 -0.7439 -0.1526 -0.3314
  632TMC3    C6 9359   1.390   4.516  15.761  0.3232  0.3155  0.0281
  632TMC3     C 9360   1.562   4.138  15.749  0.8105  0.1407 -0.5926
  632TMC3     O 9361   1.682   4.155  15.734 -0.4205  0.4057  0.0108
  632TMC3     H 9362   1.304   4.196  15.829  3.3857 -2.5384 -0.8114
  632TMC3    H1 9363   1.629   4.342  15.614 -0.2233 -0.6305 -1.1336
  632TMC3    H2 9364   1.360   4.619  15.773  0.4917  0.3898 -0.1774
  632TMC3    C7 9365   1.552   4.583  15.595  0.4785 -0.0142  0.3086
  632TMC3    C8 9366   1.276   4.422  15.957 -0.0724 -0.1233  0.1437
  632TMC3    O1 9367   1.477   4.667  15.544  0.0668  0.0675  0.8216
  632TMC3    O2 9368   1.249   4.322  16.022  0.7959 -0.0613 -0.5705
  633MPD2     C 9369   1.676   1.907  17.603 -0.1790  0.6379  0.9666
  633MPD2    C1 9370   1.706   1.896  17.470  0.4296 -0.1910 -0.1481
  633MPD2    C2 9371   1.648   1.793  17.402 -0.1002  0.9458  0.6918
  633MPD2    C3 9372   1.579   1.689  17.464 -0.6070 -0.6523 -0.0468
  633MPD2    C4 9373   1.553   1.698  17.597  0.4686 -0.4548 -0.0494
  633MPD2    C5 9374   1.597   1.811  17.660  0.6468 -0.0677  0.5448
  633MPD2     H 9375   1.665   1.785  17.295 -0.7772 -1.4271  0.7624
  633MPD2    H1 9376   1.484   1.624  17.636 -0.1661 -0.2463 -0.7890
  633MPD2    H2 9377   1.707   1.989  17.666 -0.7422  0.1877  1.8248
  633MPD2    H3 9378   1.570   1.836   0.081  1.1084 -0.0617  0.6663
  633MPD2     N 9379   1.522   1.580  17.395 -0.1069  0.1834 -0.0289
  633MPD2    H5 9380   1.482   1.499  17.440 -0.4709 -0.3867 -1.3630
  633MPD2    N1 9381   1.795   1.984  17.401  0.0580 -0.4208 -0.3172
  633MPD2    H7 9382   1.818   1.971  17.303  0.2975 -0.3421 -0.2726
  634TMC3    C1 9383   1.924   2.173  17.356  0.1114  0.2913  0.4646
  634TMC3    C2 9384   2.007   2.098  17.280  0.1939  0.2990 -0.0187
  634TMC3    C3 9385   2.101   2.161  17.207 -0.4159 -0.8187 -0.2314
  634TMC3    C4 9386   1.925   2.306  17.361 -0.2698  0.1605 -0.8523
  634TMC3    C5 9387   2.025   2.368  17.287  0.3292  0.6411 -1.0773
  634TMC3    C6 9388   2.116   2.298  17.220  0.0690 -0.7693  0.0583
  634TMC3     C 9389   1.848   2.101  17.454  0.1004 -0.1005 -0.1028
  634TMC3     O 9390   1.840   2.150  17.568  0.2337  0.6930  0.1543
  634TMC3     H 9391   1.986   1.993  17.262 -1.8051  0.3753  1.8399
  634TMC3    H1 9392   1.849   2.355  17.421 -0.5340 -2.5111  0.9670
  634TMC3    H2 9393   2.182   2.356  17.155 -0.4780 -0.6377 -0.3768
  634TMC3    C7 9394   1.985   2.496  17.226 -0.3523  0.4778  0.8331
  634TMC3    C8 9395   2.122   2.105  17.076 -0.0125  0.6997  0.2604
  634TMC3    O1 9396   2.036   2.522  17.120 -0.0362  0.0858 -0.0387
  634TMC3    O2 9397   2.104   1.985  17.063  0.0744  0.5701  0.3699
  635TMC3    C1 9398   1.843   2.594   1.045 -0.1207 -0.3404  0.3316
  635TMC3    C2 9399   1.868   2.477   0.982 -0.5824 -0.2637  0.2268
  635TMC3    C3 9400   1.845   2.364   1.060  0.4040  0.3439 -0.3663
  635TMC3    C4 9401   1.802   2.608   1.174 -1.0488 -0.2488  0.2391
  635TMC3    C5 9402   1.786   2.487   1.242 -0.0151 -0.6486 -0.0034
  635TMC3    C6 9403   1.802   2.366   1.188  0.0996 -0.1427  0.7325
  635TMC3     C 9404   1.859   2.720   0.975  0.4048  0.1373 -0.3962
  635TMC3     O 9405   1.862   2.820   1.042  0.0982  0.2255  0.0300
  635TMC3     H 9406   1.921   2.472   0.888 -0.2928 -0.4401  0.4004
  635TMC3    H1 9407   1.778   2.705   1.215  1.3407 -0.1886  1.4742
  635TMC3    H2 9408   1.773   2.277   1.242 -0.0738 -0.4529  0.1244
  635TMC3    C7 9409   1.784   2.490   1.386 -0.3248 -0.3024  0.0611
  635TMC3    C8 9410   1.876   2.233   1.001  0.2669  0.2809 -0.5195
  635TMC3    O1 9411   1.826   2.394   1.442 -0.0993  0.4355  0.4292
  635TMC3    O2 9412   1.881   2.132   1.070  0.0111 -0.1010 -0.5440
  636MPD2     C 9413   3.459   2.554  16.062 -0.4528 -0.7363  0.4317
  636MPD2    C1 9414   3.499   2.611  16.184 -0.1402  0.4193 -0.4984
  636MPD2    C2 9415   3.578   2.539  16.267  0.4361 -0.0827  0.5187
  636MPD2    C3 9416   3.619   2.414  16.237  0.6052 -0.0715 -0.1328
  636MPD2    C4 9417   3.587   2.358  16.117 -0.8727 -0.5749  0.6504
  636MPD2    C5 9418   3.514   2.431  16.026  0.1727 -0.4614  0.0041
  636MPD2     H 9419   3.601   2.579  16.365  0.7482  2.9816 -0.8250
  636MPD2    H1 9420   3.609   2.256  16.086 -0.2778 -0.1838 -0.1957
  636MPD2    H2 9421   3.402   2.610  15.989 -1.2150 -1.0616  0.7797
  636MPD2    H3 9422   3.490   2.380  15.933  3.2499 -1.1184 -0.4521
  636MPD2     N 9423   3.704   2.352  16.329  0.3007 -0.3211 -0.3428
  636MPD2    H5 9424   3.733   2.412  16.407  2.0692 -0.2509 -1.0502
  636MPD2    N1 9425   3.445   2.730  16.237 -0.1908  0.3422 -0.4988
  636MPD2    H7 9426   3.466   2.751  16.334  0.9381  0.2372 -0.7286
  637TMC3    C1 9427   3.887   2.238  16.417 -0.1803  0.9693 -0.2748
  637TMC3    C2 9428   3.854   2.292  16.540  0.1365  0.3459  0.3918
  637TMC3    C3 9429   3.938   2.388  16.591  0.1387  0.1416  0.3013
  637TMC3    C4 9430   4.004   2.277  16.354 -0.3495 -0.2615  0.0255
  637TMC3    C5 9431   4.058   2.394  16.391  0.0046 -0.1600 -0.0770
  637TMC3    C6 9432   4.030   2.441  16.513  0.7208 -0.1141  0.3257
  637TMC3     C 9433   3.785   2.243  16.313 -0.2340 -0.8482 -0.6463
  637TMC3     O 9434   3.801   2.175  16.215 -0.2075 -0.0226 -0.6863
  637TMC3     H 9435   3.757   2.268  16.583  0.7943  0.0434  1.7308
  637TMC3    H1 9436   4.028   2.231  16.259 -0.2490  1.5509 -0.8409
  637TMC3    H2 9437   4.083   2.526  16.555  0.6984  0.0551  0.0106
  637TMC3    C7 9438   4.026   2.502  16.299 -0.1784  0.0444 -0.3555
  637TMC3    C8 9439   3.875   2.474  16.692  0.1195 -1.0504  1.0282
  637TMC3    O1 9440   4.000   2.616  16.345 -0.2645  0.3773  0.2452
  637TMC3    O2 9441   3.804   2.424  16.775  0.0738  0.4069  0.1915
  638MPD2     C 9442   2.587   1.698  15.225 -1.0429  0.5952 -0.3030
  638MPD2    C1 9443   2.538   1.606  15.131  0.1144  0.1880  0.1819
  638MPD2    C2 9444   2.562   1.471  15.156 -0.5461 -0.4801  0.1106
  638MPD2    C3 9445   2.637   1.429  15.271  0.1736  0.6583  0.1200
  638MPD2    C4 9446   2.674   1.526  15.362  0.8066 -0.4912 -0.6220
  638MPD2    C5 9447   2.653   1.657  15.340 -0.2724 -0.3153  0.5995
  638MPD2     H 9448   2.529   1.398  15.083 -1.7368 -2.5199  2.6680
  638MPD2    H1 9449   2.712   1.489  15.456  0.3380 -0.2496 -0.3393
  638MPD2    H2 9450   2.566   1.804  15.213 -1.3165  0.5964  0.1624
  638MPD2    H3 9451   2.701   1.728  15.406 -0.2091 -1.0314  1.3262
  638MPD2     N 9452   2.663   1.289  15.276 -1.0936  0.6908 -0.0855
  638MPD2    H5 9453   2.622   1.239  15.198 -0.8789  1.6887 -0.8222
  638MPD2    N1 9454   2.489   1.658  15.010 -0.6504 -0.5827  0.2262
  638MPD2    H7 9455   2.492   1.759  14.998  1.2681 -0.7979 -1.1389
  639TMC3    C1 9456   2.725   1.072  15.350  0.4556 -0.0000 -0.4173
  639TMC3    C2 9457   2.619   1.043  15.269 -0.0127 -1.7928 -0.9248
  639TMC3    C3 9458   2.637   0.945  15.174  0.2213  1.0375  0.6788
  639TMC3    C4 9459   2.847   1.011  15.340 -0.5675  0.8225 -0.2129
  639TMC3    C5 9460   2.861   0.916  15.245  0.3750 -0.1665  0.3585
  639TMC3    C6 9461   2.755   0.877  15.167 -0.1949 -0.1795  0.2122
  639TMC3     C 9462   2.733   1.220  15.370 -0.6282 -0.4309  0.6896
  639TMC3     O 9463   2.817   1.259  15.454  0.7291  0.5765 -0.5185
  639TMC3     H 9464   2.523   1.092  15.276  0.4848 -0.9526 -0.0320
  639TMC3    H1 9465   2.932   1.051  15.394 -0.8141  1.6812 -0.4618
  639TMC3    H2 9466   2.767   0.793  15.100 -2.1633 -0.8231  0.6587
  639TMC3    C7 9467   2.967   0.818  15.252  0.6101  0.1028 -0.4336
  639TMC3    C8 9468   2.523   0.881  15.110 -0.3530  1.1406 -0.3998
  639TMC3    O1 9469   2.961   0.719  15.318  0.6284  0.0306 -0.0835
  639TMC3    O2 9470   2.562   0.805  15.022 -0.6458  0.4034  0.2731
  640MPD2     C 9471   3.115   4.652   9.940  1.1834 -0.6849 -0.3693
  640MPD2    C1 9472   3.161   0.039   9.870  0.4908 -0.2552 -0.0222
  640MPD2    C2 9473   3.070   0.131   9.822  0.3709 -0.0800  0.1263
  640MPD2    C3 9474   2.934   0.116   9.849  0.9322  0.8498 -0.1855
  640MPD2    C4 9475   2.898   0.009   9.929 -0.0183 -0.4862 -0.6117
  640MPD2    C5 9476   2.980   4.629   9.962 -0.4651  0.0015  0.1177
  640MPD2     H 9477   3.114   0.210   9.762 -0.0066 -0.7647 -1.0521
  640MPD2    H1 9478   2.794   4.712   9.956  0.2039 -0.1975  0.4140
  640MPD2    H2 9479   3.188   4.588   9.988  1.6394 -0.3659 -0.6362
  640MPD2    H3 9480   2.943   4.538  10.008 -0.3078 -0.4004 -0.5415
  640MPD2     N 9481   2.836   0.214   9.811  0.0604  0.6754  0.2720
  640MPD2    H5 9482   2.748   0.188   9.853  0.0414 -0.7222 -0.6631
  640MPD2    N1 9483   3.302   0.036   9.845 -0.2996  0.1735 -0.0867
  640MPD2    H7 9484   3.361   4.680   9.878 -2.2874 -0.0308  2.9508
  641TMC3    C1 9485   3.518   0.091   9.779  0.1723  0.1111  0.1339
  641TMC3    C2 9486   3.556   4.685   9.809 -0.5533 -0.2319 -0.1599
  641TMC3    C3 9487   3.691   4.655   9.828 -0.4730 -0.2392  0.0515
  641TMC3    C4 9488   3.611   0.191   9.765  0.0838 -0.7864  0.0408
  641TMC3    C5 9489   3.741   0.166   9.795  0.4642 -0.2104  0.3254
  641TMC3    C6 9490   3.785   0.037   9.831 -0.6179  0.2245 -0.8190
  641TMC3     C 9491   3.377   0.134   9.789  0.3396 -0.3016 -0.1759
  641TMC3     O 9492   3.341   0.244   9.743 -0.1514  0.0891  0.0613
  641TMC3     H 9493   3.493   4.597   9.801 -0.3265 -0.3108 -1.0463
  641TMC3    H1 9494   3.586   0.292   9.734  2.1347 -0.7757 -1.6373
  641TMC3    H2 9495   3.888   0.007   9.813 -0.2013  1.3526 -0.3271
  641TMC3    C7 9496   3.838   0.269   9.786 -0.0831  0.5287  0.5966
  641TMC3    C8 9497   3.733   4.523   9.814 -0.2657 -0.2600 -0.3268
  641TMC3    O1 9498   3.946   0.244   9.840 -0.1176 -0.2758 -0.6282
  641TMC3    O2 9499   3.813   4.499   9.721  0.3896 -0.0649  0.5235
  642TMC3    C1 9500   3.694   1.361  12.772 -0.2996 -0.6427 -0.0238
  642TMC3    C2 9501   3.587   1.335  12.856 -0.3314 -0.3161  0.5816
  642TMC3    C3 9502   3.547   1.207  12.889  0.0282  0.0212  0.2825
  642TMC3    C4 9503   3.778   1.256  12.732 -0.7589 -0.5013 -0.0780
  642TMC3    C5 9504   3.737   1.126  12.766  0.0675  1.1865 -0.4402
  642TMC3    C6 9505   3.629   1.101  12.850 -0.3051 -0.3154 -0.9452
  642TMC3     C 9506   3.724   1.492  12.724  0.9696  0.9636  0.6471
  642TMC3     O 9507   3.819   1.500  12.644  0.2696 -0.0064  0.1178
  642TMC3     H 9508   3.527   1.419  12.887 -1.3130 -0.9554  0.4357
  642TMC3    H1 9509   3.860   1.268  12.663 -0.8311 -1.6835 -0.3558
  642TMC3    H2 9510   3.603   0.999  12.875  0.9842 -0.6955 -1.1721
  642TMC3    C7 9511   3.789   1.019  12.694  0.4114 -0.0502  0.1362
  642TMC3    C8 9512   3.428   1.181  12.971 -0.3426  0.2364  0.6447
  642TMC3    O1 9513   3.811   1.027  12.573  0.0045 -0.2874 -0.0859
  642TMC3    O2 9514   3.362   1.287  12.986  0.4432 -0.1322 -0.3032
  643TMC3    C1 9515   3.536   0.726   0.536  0.7188  0.1886 -0.1277
  643TMC3    C2 9516   3.408   0.708   0.487  0.1570  0.0521 -0.1755
  643TMC3    C3 9517   3.382   0.595   0.420  0.3826  0.9675  0.7052
  643TMC3    C4 9518   3.643   0.640   0.505  0.1044 -0.3299  0.2056
  643TMC3    C5 9519   3.609   0.532   0.425 -0.1873  0.2835 -0.1340
  643TMC3    C6 9520   3.476   0.496   0.403  0.2472  0.1434  0.5107
  643TMC3     C 9521   3.551   0.841   0.628  0.5479  1.0155  0.5364
  643TMC3     O 9522   3.460   0.922   0.630 -0.1456  0.4595  0.4993
  643TMC3     H 9523   3.331   0.784   0.497  0.8933  0.6954  0.5996
  643TMC3    H1 9524   3.741   0.688   0.512 -0.0660  0.1708 -0.9149
  643TMC3    H2 9525   3.453   0.424   0.325 -0.0867 -1.5259  2.1472
  643TMC3    C7 9526   3.686   0.529   0.302 -0.4043  0.3931 -0.9521
  643TMC3    C8 9527   3.317   0.631   0.294 -0.1084  0.3440 -0.2376
  643TMC3    O1 9528   3.749   0.631   0.277  0.3618 -0.0202  0.0639
  643TMC3    O2 9529   3.285   0.540   0.213 -0.3250 -0.3011  0.0376
  644MPD2     C 9530   3.532   0.776   9.696 -0.0628  0.2969  0.4039
  644MPD2    C1 9531   3.524   0.656   9.761 -0.1092 -0.1626  0.0589
  644MPD2    C2 9532   3.431   0.562   9.720  0.4793  0.4348 -0.0270
  644MPD2    C3 9533   3.354   0.584   9.614 -0.3686  0.2038 -0.1502
  644MPD2    C4 9534   3.370   0.699   9.540  0.7034  0.3651 -0.1265
  644MPD2    C5 9535   3.459   0.795   9.581 -0.3845  0.1916 -0.2535
  644MPD2     H 9536   3.425   0.469   9.775  0.6907  0.0427 -0.6623
  644MPD2    H1 9537   3.327   0.725   9.444  0.2555  0.9180  0.2269
  644MPD2    H2 9538   3.589   0.863   9.727 -1.7459  1.9903 -1.2845
  644MPD2    H3 9539   3.464   0.882   9.517  1.0780  0.2045 -0.1143
  644MPD2     N 9540   3.255   0.495   9.577 -0.1170  0.2659  0.1512
  644MPD2    H5 9541   3.251   0.408   9.629  2.4230  0.2445  0.3199
  644MPD2    N1 9542   3.612   0.631   9.867  0.5016  0.0603 -0.4918
  644MPD2    H7 9543   3.694   0.691   9.876 -0.4738  1.0764  1.7240
  645TMC3    C1 9544   3.087   0.387   9.451 -0.4009 -0.5524  0.6112
  645TMC3    C2 9545   2.953   0.403   9.417  0.0753  0.4502  0.0292
  645TMC3    C3 9546   2.878   0.288   9.416 -0.1882  0.0988  0.1897
  645TMC3    C4 9547   3.146   0.265   9.493  0.9499  0.5237 -0.4836
  645TMC3    C5 9548   3.060   0.154   9.483 -0.1472  0.0033 -0.4025
  645TMC3    C6 9549   2.921   0.164   9.460  0.5360  0.5614 -0.3481
  645TMC3     C 9550   3.171   0.507   9.472  0.2298 -0.4825  0.2597
  645TMC3     O 9551   3.141   0.603   9.400  0.1915 -0.2268  0.5241
  645TMC3     H 9552   2.921   0.497   9.374 -0.0047  0.4152  0.0118
  645TMC3    H1 9553   3.249   0.257   9.524  0.1069 -0.8020  1.9781
  645TMC3    H2 9554   2.862   0.074   9.447  0.9572  0.1837  0.3326
  645TMC3    C7 9555   3.099   0.021   9.514 -0.4515  0.5119  0.2010
  645TMC3    C8 9556   2.737   0.310   9.403  0.7371  0.7707 -0.0509
  645TMC3    O1 9557   3.018   4.652   9.542  0.6637 -0.0364  0.4088
  645TMC3    O2 9558   2.709   0.417   9.353 -0.2497 -0.0290  0.7433
  646MPD2     C 9559   2.804   0.243  14.546 -0.0873 -0.2583  0.4848
  646MPD2    C1 9560   2.738   0.200  14.658 -0.2273  0.0555  0.1161
  646MPD2    C2 9561   2.610   0.236  14.672  1.0065  0.0451 -0.7688
  646MPD2    C3 9562   2.543   0.306  14.578 -0.5991  0.0837  1.3104
  646MPD2    C4 9563   2.616   0.359  14.474 -0.4190 -0.3887  0.8117
  646MPD2    C5 9564   2.744   0.326  14.455  0.6595  0.2817  0.6176
  646MPD2     H 9565   2.549   0.201  14.755  3.2372 -1.5166  0.2069
  646MPD2    H1 9566   2.582   0.435  14.405  0.8940  0.1933  0.7979
  646MPD2    H2 9567   2.896   0.192  14.520  0.2964 -0.1021  1.5227
  646MPD2    H3 9568   2.795   0.347  14.361 -2.1229  0.0977 -0.9331
  646MPD2     N 9569   2.402   0.335  14.593 -0.4020 -0.1802 -0.4851
  646MPD2    H5 9570   2.356   0.293  14.673  0.5879  1.1856  0.8272
  646MPD2    N1 9571   2.818   0.119  14.748 -0.0720 -0.3438  0.4005
  646MPD2    H7 9572   2.895   0.077  14.698 -1.3613 -0.9144 -1.1169
  647TMC3    C1 9573   2.878   4.691  14.920  0.2920  0.0117  0.1234
  647TMC3    C2 9574   2.827   4.594  14.999  0.0919 -0.1727 -0.2924
  647TMC3    C3 9575   2.917   4.502  15.043 -0.8003  0.4418 -0.5805
  647TMC3    C4 9576   3.010   4.710  14.889  0.0971 -0.3659  0.7010
  647TMC3    C5 9577   3.096   4.614  14.944 -0.5773 -0.5463 -0.1537
  647TMC3    C6 9578   3.050   4.512  15.016  0.1718 -1.0147 -0.7845
  647TMC3     C 9579   2.789   0.076  14.874 -0.1224  0.0358  0.1611
  647TMC3     O 9580   2.702   0.120  14.944  0.4110  0.4575 -0.2719
  647TMC3     H 9581   2.722   4.600  15.024 -0.4314 -1.7279 -2.0462
  647TMC3    H1 9582   3.044   0.068  14.822 -2.7694 -1.8498 -2.4567
  647TMC3    H2 9583   3.117   4.434  15.052 -0.5697 -0.3371  2.0542
  647TMC3    C7 9584   3.241   4.614  14.912 -0.5053  0.4399 -0.3958
  647TMC3    C8 9585   2.866   4.386  15.113 -0.1144  0.7930  0.7056
  647TMC3    O1 9586   3.301   4.509  14.913 -0.0989  0.3661  0.8139
  647TMC3    O2 9587   2.948   4.323  15.178 -0.2797 -0.6050  0.0709
  648TMC3    C1 9588   2.729   2.438  16.611  0.1182  0.1181  0.1109
  648TMC3    C2 9589   2.791   2.320  16.571 -0.6142  0.5967  0.3149
  648TMC3    C3 9590   2.813   2.290  16.440  0.2809 -0.4236  0.1380
  648TMC3    C4 9591   2.681   2.519  16.518 -0.1159  0.0247 -0.7087
  648TMC3    C5 9592   2.698   2.485  16.389  0.1518  0.7355  0.6870
  648TMC3    C6 9593   2.757   2.371  16.343 -0.5759 -0.3462 -0.5625
  648TMC3     C 9594   2.686   2.462  16.749  0.0298  0.6027  0.6197
  648TMC3     O 9595   2.651   2.579  16.770  0.2753 -0.1291 -0.2995
  648TMC3     H 9596   2.831   2.258  16.651 -0.2251 -0.5258 -0.7396
  648TMC3    H1 9597   2.632   2.609  16.552  0.3400 -0.7478  1.9321
  648TMC3    H2 9598   2.773   2.353  16.237  1.8082  0.5084 -0.3365
  648TMC3    C7 9599   2.598   2.536  16.294 -0.2513  0.1357 -0.6174
  648TMC3    C8 9600   2.858   2.160  16.402  0.4944  0.2347  0.5299
  648TMC3    O1 9601   2.614   2.529  16.170 -0.5448  0.1482 -0.4489
  648TMC3    O2 9602   2.866   2.089  16.503  0.0322  0.4004  0.3749
  649TMC3    C1 9603   1.138   3.967  12.659  0.0528  0.1535 -0.4490
  649TMC3    C2 9604   1.265   4.002  12.615 -0.2161  0.2535  0.1045
  649TMC3    C3 9605   1.374   3.983  12.700  0.5418  0.5251 -0.5793
  649TMC3    C4 9606   1.132   3.896  12.778  0.3519  0.8764 -0.0076
  649TMC3    C5 9607   1.248   3.850  12.837 -0.0096  0.0466  0.2566
  649TMC3    C6 9608   1.373   3.890  12.797 -0.7823  0.1796  0.5046
  649TMC3     C 9609   1.013   4.005  12.592 -0.8166 -0.3980 -0.1562
  649TMC3     O 9610   0.916   3.975  12.658 -0.1893 -0.0985 -0.1379
  649TMC3     H 9611   1.281   4.062  12.526 -2.4868 -1.5685 -1.5239
  649TMC3    H1 9612   1.042   3.860  12.826  0.5054  1.2120  0.5261
  649TMC3    H2 9613   1.461   3.890  12.860  0.2972 -0.4273 -0.9979
  649TMC3    C7 9614   1.228   3.761  12.955  0.4250 -0.3501  0.1909
  649TMC3    C8 9615   1.504   4.023  12.654 -0.1140  0.4392  0.0657
  649TMC3    O1 9616   1.119   3.768  13.015 -0.4338  0.3028 -0.3337
  649TMC3    O2 9617   1.591   3.939  12.669 -0.2784  0.0744 -0.3489
  650TMC3    C1 9618   2.812   0.951  13.026 -0.8064  0.0769 -0.0820
  650TMC3    C2 9619   2.786   1.072  13.066 -0.2371 -0.6875 -0.2827
  650TMC3    C3 9620   2.842   1.180  13.009 -0.3032  0.9656 -0.0188
  650TMC3    C4 9621   2.918   0.931  12.938 -0.3106 -0.0640 -0.0679
  650TMC3    C5 9622   2.995   1.035  12.898 -0.3797 -0.2272  0.2977
  650TMC3    C6 9623   2.956   1.162  12.925  0.1664 -0.1642 -0.5547
  650TMC3     C 9624   2.763   0.831  13.090  0.6083  1.3152 -0.3481
  650TMC3     O 9625   2.658   0.830  13.150  0.3097  0.2737  0.7311
  650TMC3     H 9626   2.698   1.088  13.127  1.9811  2.7680  2.0047
  650TMC3    H1 9627   2.933   0.838  12.884  0.4638 -1.1031  1.9462
  650TMC3    H2 9628   3.002   1.248  12.880  0.7644  0.5777  1.4626
  650TMC3    C7 9629   3.093   0.998  12.796  0.6816  0.0186 -0.5130
  650TMC3    C8 9630   2.761   1.300  12.982  0.7241 -0.2030  0.2501
  650TMC3    O1 9631   3.110   0.884  12.755  0.1661 -0.2822  0.4588
  650TMC3    O2 9632   2.642   1.289  13.008  0.7932  0.1453 -0.2831
  651MPD2     C 9633   2.366   2.034  11.129 -0.0997  0.6966 -0.0914
  651MPD2    C1 9634   2.305   2.154  11.096  0.3606 -0.1340 -0.5306
  651MPD2    C2 9635   2.380   2.236  11.015 -0.6088 -0.4501 -0.2171
  651MPD2    C3 9636   2.516   2.208  10.986 -0.0639  0.6370 -0.4336
  651MPD2    C4 9637   2.568   2.089  11.024  1.0884  0.2489  1.5490
  651MPD2    C5 9638   2.497   2.000  11.098  0.4557 -0.2772  0.3080
  651MPD2     H 9639   2.345   2.334  10.986  0.6342  0.4271  1.2121
  651MPD2    H1 9640   2.665   2.056  10.990 -0.9379 -3.4480 -0.6661
  651MPD2    H2 9641   2.312   1.960  11.187  1.5987  1.8260  2.9433
  651MPD2    H3 9642   2.537   1.900  11.104 -0.2041 -0.5568  0.0864
  651MPD2     N 9643   2.591   2.296  10.902  0.0019 -0.0598  0.6387
  651MPD2    H5 9644   2.536   2.376  10.871 -0.2927 -0.2052  0.7783
  651MPD2    N1 9645   2.175   2.188  11.131  0.5614  0.4987 -0.9498
  651MPD2    H7 9646   2.145   2.277  11.094  0.7422  1.2544  0.6986
  652TMC3    C1 9647   2.958   2.511  10.704  0.2434 -0.1286  0.6288
  652TMC3    C2 9648   2.893   2.400  10.752  0.5214 -0.0011  0.0464
  652TMC3    C3 9649   2.764   2.412  10.793  0.2812  0.1914 -0.2349
  652TMC3    C4 9650   2.897   2.634  10.714  0.4245 -0.0313 -0.3002
  652TMC3    C5 9651   2.776   2.649  10.774 -0.0400  0.0400 -0.4128
  652TMC3    C6 9652   2.699   2.539  10.805 -0.1622 -0.3275  0.6040
  652TMC3     C 9653   3.107   2.502  10.721 -0.1069 -0.8813  0.3784
  652TMC3     O 9654   3.138   2.421  10.810 -0.0093 -0.1361  0.4971
  652TMC3     H 9655   2.949   2.308  10.754  0.1774 -0.2522 -1.6898
  652TMC3    H1 9656   2.948   2.724  10.681 -0.6684  0.7306  0.1064
  652TMC3    H2 9657   2.604   2.549  10.856  0.5772  0.2043  1.8704
  652TMC3    C7 9658   2.736   2.771  10.842 -0.0189 -0.0103 -0.0140
  652TMC3    C8 9659   2.720   2.291  10.856  0.1470  0.2641 -0.0479
  652TMC3    O1 9660   2.661   2.759  10.941 -0.5791 -0.0444 -0.2954
  652TMC3    O2 9661   2.803   2.201  10.867 -0.3733  0.0783 -0.4564
  653MPD2     C 9662   1.559   2.299   0.373  0.0071 -0.5294 -0.1792
  653MPD2    C1 9663   1.495   2.398   0.303 -0.5863 -0.4255  0.1826
  653MPD2    C2 9664   1.424   2.363   0.194  0.0687  0.0546  0.4802
  653MPD2    C3 9665   1.417   2.235   0.150  0.5306  0.0150  0.0518
  653MPD2    C4 9666   1.479   2.135   0.224 -0.5784 -0.6771 -0.1672
  653MPD2    C5 9667   1.551   2.166   0.336 -1.0066 -0.6830 -0.4293
  653MPD2     H 9668   1.360   2.438   0.148  1.3935  0.4495 -0.7246
  653MPD2    H1 9669   1.477   2.032   0.190 -0.3973 -0.3149 -1.2628
  653MPD2    H2 9670   1.628   2.317   0.454  1.3518 -0.4719 -1.3386
  653MPD2    H3 9671   1.604   2.090   0.393  1.8561 -0.4531 -2.7920
  653MPD2     N 9672   1.328   2.216   0.043  0.0085  0.1352 -0.4213
  653MPD2    H5 9673   1.296   2.302  17.680 -0.6877  0.1354  0.0962
  653MPD2    N1 9674   1.502   2.535   0.336 -0.3730 -0.3357  0.1607
  653MPD2    H7 9675   1.476   2.593   0.256  0.5615  0.6392  0.5505
  654TMC3    C1 9676   1.172   2.115  17.587 -0.5740 -0.5458  0.7308
  654TMC3    C2 9677   1.106   2.232  17.574  0.3818 -0.7855  0.8065
  654TMC3    C3 9678   1.001   2.242  17.493  0.6121 -0.2774 -0.3233
  654TMC3    C4 9679   1.127   2.002  17.521  0.8863 -0.2359 -0.1292
  654TMC3    C5 9680   1.024   2.010  17.432 -0.6107 -0.2869  0.4591
  654TMC3    C6 9681   0.961   2.130  17.421  0.3496  0.2533  0.2900
  654TMC3     C 9682   1.281   2.093   0.001 -0.3669  0.6093  0.2929
  654TMC3     O 9683   1.308   1.981   0.048  0.2599 -0.3849 -0.2661
  654TMC3     H 9684   1.142   2.320  17.626  2.2042  0.0959 -1.9851
  654TMC3    H1 9685   1.171   1.907  17.549 -0.7461 -0.6092  1.1503
  654TMC3    H2 9686   0.876   2.129  17.354 -1.3439 -1.1375  2.4698
  654TMC3    C7 9687   1.008   1.909  17.328  0.3183  0.0034 -0.0156
  654TMC3    C8 9688   0.939   2.368  17.457  0.4292 -0.7476  0.5033
  654TMC3    O1 9689   0.942   1.946  17.229  0.4062 -0.1234 -0.2904
  654TMC3    O2 9690   0.870   2.369  17.354 -0.3788  0.1849 -0.0433
  655MPD2     C 9691   2.995   2.728  16.103 -0.6359  0.4051  1.0538
  655MPD2    C1 9692   2.914   2.837  16.085 -0.5534 -0.7048 -0.0761
  655MPD2    C2 9693   2.892   2.890  15.956  0.0297 -0.1984  0.1503
  655MPD2    C3 9694   2.947   2.833  15.849  0.0769 -0.4610  0.4366
  655MPD2    C4 9695   3.035   2.730  15.865  0.2645  1.0009 -0.4415
  655MPD2    C5 9696   3.053   2.676  15.988 -0.3574  0.3613 -0.5117
  655MPD2     H 9697   2.810   2.960  15.944 -0.5420 -0.6463  1.5378
  655MPD2    H1 9698   3.086   2.677  15.786 -1.1064 -0.3915 -0.3864
  655MPD2    H2 9699   3.015   2.680  16.198 -0.9864  1.9534  1.9033
  655MPD2    H3 9700   3.116   2.589  16.001 -1.4067 -0.5020 -1.2589
  655MPD2     N 9701   2.902   2.869  15.720 -0.3545 -0.6201  0.1192
  655MPD2    H5 9702   2.834   2.943  15.715  0.3541 -0.0161 -0.5480
  655MPD2    N1 9703   2.835   2.893  16.188 -0.1386 -0.3117  0.1712
  655MPD2    H7 9704   2.760   2.948  16.147 -0.5320  0.1720  1.5393
  656TMC3    C1 9705   2.739   2.972  16.378  0.1896 -0.3646 -0.3050
  656TMC3    C2 9706   2.669   2.908  16.487 -0.1434 -0.0638  0.0804
  656TMC3    C3 9707   2.540   2.944  16.497  0.3734  0.9803  0.5586
  656TMC3    C4 9708   2.674   3.053  16.292 -0.2966  0.0866  0.1667
  656TMC3    C5 9709   2.546   3.072  16.303  0.0970 -0.8068 -0.7505
  656TMC3    C6 9710   2.473   3.024  16.413 -0.2351  0.1352  0.1465
  656TMC3     C 9711   2.847   2.890  16.323 -0.1986  0.8386 -0.3068
  656TMC3     O 9712   2.917   2.822  16.397  0.0529 -0.2219  0.3060
  656TMC3     H 9713   2.723   2.833  16.544 -0.4865 -0.5449 -0.2356
  656TMC3    H1 9714   2.727   3.119  16.223 -3.4185  0.5455 -1.7683
  656TMC3    H2 9715   2.367   3.044  16.422  0.1524  2.1481  0.1597
  656TMC3    C7 9716   2.482   3.089  16.176  0.4690  0.3650  0.7984
  656TMC3    C8 9717   2.461   2.880  16.599 -0.1732 -0.2390  0.1014
  656TMC3    O1 9718   2.548   3.044  16.088  0.5846 -0.3485 -0.4515
  656TMC3    O2 9719   2.504   2.772  16.637 -0.6114 -0.1554  0.0730
  657TMC3    C1 9720   1.548   2.358  14.980  0.4476  0.2363 -0.5026
  657TMC3    C2 9721   1.535   2.406  15.107  0.4533  0.1468  0.0842
  657TMC3    C3 9722   1.479   2.531  15.120 -0.1717 -0.9165  0.2530
  657TMC3    C4 9723   1.496   2.419  14.869 -0.2417 -0.0679  0.3363
  657TMC3    C5 9724   1.428   2.536  14.891  0.6744  0.6785  1.2036
  657TMC3    C6 9725   1.423   2.593  15.014  0.2288 -0.0189  0.2612
  657TMC3     C 9726   1.603   2.229  14.952 -1.0409  0.2568 -0.7735
  657TMC3     O 9727   1.638   2.206  14.835 -0.5225  0.4159 -0.2774
  657TMC3     H 9728   1.590   2.362  15.189 -1.3715 -1.5011  0.4094
  657TMC3    H1 9729   1.512   2.383  14.767  2.1412  1.3563  0.2093
  657TMC3    H2 9730   1.365   2.683  15.030  0.5456  0.1485  0.4528
  657TMC3    C7 9731   1.359   2.599  14.784 -0.4639  0.3084 -0.0606
  657TMC3    C8 9732   1.469   2.595  15.250 -0.0394  0.1194  0.0893
  657TMC3    O1 9733   1.339   2.722  14.798  0.4032  0.3996 -0.3179
  657TMC3    O2 9734   1.404   2.701  15.247  0.1343 -0.3372  0.3791
  658MPD2     C 9735   2.935   2.623  14.951 -0.0855  0.5177  0.0122
  658MPD2    C1 9736   2.876   2.744  14.981 -0.5168  0.4302  0.1513
  658MPD2    C2 9737   2.886   2.844  14.886 -0.1385  1.4409  0.8556
  658MPD2    C3 9738   2.947   2.825  14.762  0.6381  0.2646 -0.1425
  658MPD2    C4 9739   3.002   2.699  14.733 -0.1379 -0.5813  0.1071
  658MPD2    C5 9740   2.989   2.604  14.826  0.2147  0.1992 -0.6783
  658MPD2     H 9741   2.850   2.945  14.900  0.9206  1.7823  1.1720
  658MPD2    H1 9742   3.035   2.664  14.636 -0.8839  1.6737 -0.9782
  658MPD2    H2 9743   2.939   2.537  15.017 -1.9216 -0.8552 -1.6688
  658MPD2    H3 9744   3.014   2.502  14.797 -0.5523 -0.8268  2.2746
  658MPD2     N 9745   2.952   2.934  14.666 -0.3548  0.9479 -0.6308
  658MPD2    H5 9746   2.904   3.019  14.693 -0.1982  0.7594  0.2304
  658MPD2    N1 9747   2.823   2.759  15.109  0.4770 -0.3156  0.5544
  658MPD2    H7 9748   2.822   2.680  15.173  3.5735 -2.0522 -1.5778
  659TMC3    C1 9749   2.724   2.859  15.302 -0.4736  0.3121 -0.1884
  659TMC3    C2 9750   2.823   2.806  15.381  0.5583 -0.2948 -0.4125
  659TMC3    C3 9751   2.810   2.817  15.515  0.3820 -0.0618 -0.1259
  659TMC3    C4 9752   2.610   2.909  15.352 -0.3224  0.3218  0.6281
  659TMC3    C5 9753   2.593   2.908  15.491  0.1958  0.3442 -1.0967
  659TMC3    C6 9754   2.692   2.861  15.567 -0.1471  0.3375  0.5479
  659TMC3     C 9755   2.752   2.863  15.158  0.4996 -0.1547  0.6086
  659TMC3     O 9756   2.720   2.972  15.112  0.0054  0.1209  0.5460
  659TMC3     H 9757   2.923   2.812  15.339  0.6797 -0.2488 -0.1160
  659TMC3    H1 9758   2.534   2.923  15.276 -0.2326  2.3214  0.9271
  659TMC3    H2 9759   2.674   2.845  15.673 -0.8242  2.5063  0.7634
  659TMC3    C7 9760   2.461   2.913  15.551  0.3200 -0.2210  0.1527
  659TMC3    C8 9761   2.918   2.803  15.601  0.3199  0.2791 -0.4303
  659TMC3    O1 9762   2.450   2.900  15.670  0.1373  0.1992 -0.3829
  659TMC3    O2 9763   3.013   2.733  15.565  0.2552  0.4567 -0.3214
  660MPD2     C 9764   0.461   1.378  12.609 -0.9997 -0.0493  0.3702
  660MPD2    C1 9765   0.334   1.413  12.582 -0.3571 -0.4592  0.3669
  660MPD2    C2 9766   0.228   1.360  12.660  0.0568  0.0173  0.1545
  660MPD2    C3 9767   0.249   1.273  12.765  0.0170 -0.1056 -0.0636
  660MPD2    C4 9768   0.376   1.235  12.793  0.4961 -0.6707  0.0652
  660MPD2    C5 9769   0.473   1.295  12.715 -0.1255  0.1707 -0.3220
  660MPD2     H 9770   0.130   1.377  12.616 -0.0307  0.4205  0.5033
  660MPD2    H1 9771   0.395   1.164  12.872  0.1287 -0.9120 -0.0608
  660MPD2    H2 9772   0.550   1.404  12.553 -1.5346 -1.1310 -0.9711
  660MPD2    H3 9773   0.579   1.274  12.728 -0.1716  0.2354  0.1633
  660MPD2     N 9774   0.141   1.212  12.836 -0.5869 -0.7926  0.5517
  660MPD2    H5 9775   0.168   1.154  12.914  0.4943 -0.0949  0.6904
  660MPD2    N1 9776   0.316   1.498  12.472  0.6645 -0.4409 -0.1394
  660MPD2    H7 9777   0.395   1.523  12.415  1.7339 -0.7512  1.2124
  661TMC3    C1 9778   0.213   1.667  12.342 -0.2156 -0.4802  0.8611
  661TMC3    C2 9779   0.271   1.606  12.224  0.3600 -0.2436 -0.3008
  661TMC3    C3 9780   0.199   1.642  12.114  0.1661 -0.1872  0.1997
  661TMC3    C4 9781   0.118   1.769  12.339  1.2220  0.7441  0.0426
  661TMC3    C5 9782   0.059   1.794  12.223  0.0405 -0.4461  0.0987
  661TMC3    C6 9783   0.092   1.726  12.112 -0.0873  0.1792 -0.2089
  661TMC3     C 9784   0.205   1.577  12.454  0.0428  0.5047 -0.0005
  661TMC3     O 9785   0.112   1.595  12.529  0.9336  0.2139 -0.3621
  661TMC3     H 9786   0.358   1.542  12.218  1.1121  0.9062 -1.6456
  661TMC3    H1 9787   0.088   1.815  12.433  0.6245 -1.0346  0.7316
  661TMC3    H2 9788   0.046   1.747  12.016 -1.3607 -1.7701 -0.0085
  661TMC3    C7 9789   4.638   1.839  12.234 -0.8246 -0.9650 -0.0704
  661TMC3    C8 9790   0.248   1.605  11.981  0.6830 -0.0344 -0.5473
  661TMC3    O1 9791   4.601   1.880  12.343  0.3501  0.5819  0.4410
  661TMC3    O2 9792   0.220   1.682  11.891 -0.1428  0.3364  0.4563
  662MPD2     C 9793   0.841   1.080  17.239 -0.3014  0.5282  0.0177
  662MPD2    C1 9794   0.839   1.053  17.372  0.3199  0.1502  0.6011
  662MPD2    C2 9795   0.833   1.162  17.461 -0.4652 -0.5871  0.0395
  662MPD2    C3 9796   0.811   1.291  17.419 -0.3401  0.2282  0.4917
  662MPD2    C4 9797   0.800   1.310  17.281  0.0784 -0.1436  0.3225
  662MPD2    C5 9798   0.819   1.208  17.197  0.4731  0.1072 -0.3256
  662MPD2     H 9799   0.827   1.140  17.567 -1.2303 -0.7110 -0.0283
  662MPD2    H1 9800   0.786   1.409  17.239 -0.5089 -0.5999 -0.5546
  662MPD2    H2 9801   0.851   1.007  17.160 -3.2328  0.9303 -0.7243
  662MPD2    H3 9802   0.826   1.230  17.091 -0.7361  0.3932 -0.3466
  662MPD2     N 9803   0.770   1.391  17.511  0.2060 -0.2558 -0.6525
  662MPD2    H5 9804   0.731   1.472  17.463  1.7591  0.2194 -1.1121
  662MPD2    N1 9805   0.844   0.922  17.422  0.4552 -0.0771 -0.1121
  662MPD2    H7 9806   0.827   0.913  17.521 -0.7884 -2.1310 -0.5199
  663TMC3    C1 9807   0.812   0.685  17.425  0.0443 -0.6979  0.0512
  663TMC3    C2 9808   0.699   0.621  17.402 -0.7082  0.3564  0.1864
  663TMC3    C3 9809   0.639   0.555  17.505 -0.2035  0.0460 -0.2181
  663TMC3    C4 9810   0.894   0.667  17.532 -0.0503  0.4993  0.4133
  663TMC3    C5 9811   0.837   0.576  17.623 -0.0333  0.5721  1.0307
  663TMC3    C6 9812   0.709   0.539  17.618 -0.8068  0.3148  0.6100
  663TMC3     C 9813   0.836   0.804  17.346 -0.2033  0.6153  0.5531
  663TMC3     O 9814   0.817   0.787  17.227 -0.1468 -0.2072  0.1505
  663TMC3     H 9815   0.635   0.678  17.336 -1.8704 -1.4985 -0.2826
  663TMC3    H1 9816   0.998   0.699  17.541  0.0230  0.0947  1.0347
  663TMC3    H2 9817   0.661   0.467   0.002 -2.1219  1.1740  0.5897
  663TMC3    C7 9818   0.924   0.482  17.681  0.1109 -0.8247 -0.2700
  663TMC3    C8 9819   0.504   0.608  17.525 -0.1614 -0.5771 -0.3265
  663TMC3    O1 9820   1.036   0.525   0.029  0.2533  0.5245 -0.1919
  663TMC3    O2 9821   0.425   0.632  17.433 -0.2096  0.6305  0.1012
  664MPD2     C 9822   3.840   4.327   0.261  0.4531 -0.0064  0.9114
  664MPD2    C1 9823   3.922   4.440   0.252  0.0072 -0.7609 -0.3054
  664MPD2    C2 9824   3.963   4.493   0.374 -0.5983 -0.1694 -0.7024
  664MPD2    C3 9825   3.918   4.450   0.502 -0.0774  0.4515  0.3205
  664MPD2    C4 9826   3.827   4.345   0.502  0.3759 -0.9274  0.0408
  664MPD2    C5 9827   3.795   4.284   0.380  0.3738  0.3796 -0.2124
  664MPD2     H 9828   4.025   4.581   0.358  0.0413 -0.7611 -1.4313
  664MPD2    H1 9829   3.789   4.305   0.596 -3.0717  1.4892 -0.3194
  664MPD2    H2 9830   3.810   4.279   0.169  0.2113 -0.5357  1.2701
  664MPD2    H3 9831   3.737   4.192   0.376  0.1177  0.5291  0.0634
  664MPD2     N 9832   3.973   4.520   0.607 -0.5945 -0.2031  0.0564
  664MPD2    H5 9833   4.046   4.590   0.596 -0.1575 -0.7709 -0.5900
  664MPD2    N1 9834   3.973   4.487   0.128 -0.4474 -0.1863  0.0224
  664MPD2    H7 9835   4.032   4.569   0.122 -0.9632  0.2849  1.2747
  665TMC3    C1 9836   3.997   4.586   0.829 -0.6522  0.8021  0.7744
  665TMC3    C2 9837   4.009   4.558   0.962  0.1248  0.6678  0.1458
  665TMC3    C3 9838   4.002   4.658   1.052 -0.0161  0.3811  0.5785
  665TMC3    C4 9839   3.985   4.714   0.779  0.2953  0.1846 -0.6111
  665TMC3    C5 9840   3.988   0.092   0.867  0.1630  0.1829 -0.2158
  665TMC3    C6 9841   3.993   0.064   1.004  0.4660  0.4364 -0.1783
  665TMC3     C 9842   3.950   4.485   0.738  0.4394 -0.1899  0.2913
  665TMC3     O 9843   3.908   4.383   0.786 -0.0369 -0.3388 -0.0404
  665TMC3     H 9844   4.003   4.457   1.003  0.7974  1.0920  1.2941
  665TMC3    H1 9845   3.960   0.020   0.676 -1.8073 -2.7813 -0.8309
  665TMC3    H2 9846   3.965   0.146   1.070  0.0053 -0.6876  1.0152
  665TMC3    C7 9847   3.886   0.195   0.833  0.0273  0.0046 -0.2960
  665TMC3    C8 9848   3.977   4.632   1.190 -0.6165 -0.4498 -0.6023
  665TMC3    O1 9849   3.814   0.166   0.739 -0.3119  0.1513 -0.3960
  665TMC3    O2 9850   3.964   4.515   1.226  0.2133  0.2713 -0.5606
  666TMC3    C1 9851   3.004   3.475   9.896  0.2034  0.0773  0.2109
  666TMC3    C2 9852   3.137   3.472   9.919 -0.0027  0.1420 -0.0636
  666TMC3    C3 9853   3.219   3.548   9.844 -0.4057  0.6207 -0.0449
  666TMC3    C4 9854   2.948   3.557   9.807  0.3157 -0.2997  0.2366
  666TMC3    C5 9855   3.033   3.654   9.761 -0.5963 -0.1942  1.0077
  666TMC3    C6 9856   3.170   3.658   9.770  0.2762  0.6122  1.1187
  666TMC3     C 9857   2.925   3.364   9.952  0.4274  0.2663  0.5515
  666TMC3     O 9858   2.977   3.254   9.960  0.2739  0.5854 -0.5002
  666TMC3     H 9859   3.171   3.379   9.965  0.6845  1.0312  1.2251
  666TMC3    H1 9860   2.841   3.565   9.791  0.3975  1.3435  0.5169
  666TMC3    H2 9861   3.233   3.744   9.748  0.2116  0.5678  0.7638
  666TMC3    C7 9862   2.958   3.779   9.739 -1.0578  0.2413 -0.9161
  666TMC3    C8 9863   3.344   3.573   9.903  0.0068  0.3563  0.3071
  666TMC3    O1 9864   2.857   3.790   9.803  0.5382 -0.3570  0.1226
  666TMC3    O2 9865   3.429   3.632   9.841 -0.0972 -0.9015 -0.0859
  667MPD2     C 9866   0.210   4.345  14.533 -0.3323 -0.3100 -0.3878
  667MPD2    C1 9867   0.106   4.361  14.624 -0.0318 -0.3972  0.0811
  667MPD2    C2 9868   4.715   4.276  14.616  0.0973 -0.4255  0.3819
  667MPD2    C3 9869   4.697   4.189  14.503 -0.9746 -0.3439  1.1908
  667MPD2    C4 9870   0.087   4.174  14.417 -0.3201  0.2261 -0.1665
  667MPD2    C5 9871   0.193   4.251  14.439  0.1010 -0.2058 -0.2410
  667MPD2     H 9872   4.633   4.294  14.685 -0.9611  1.6226 -1.4182
  667MPD2    H1 9873   0.085   4.103  14.335 -1.6216 -1.1291  1.0653
  667MPD2    H2 9874   0.306   4.390  14.555  0.6798 -1.6972 -2.0554
  667MPD2    H3 9875   0.280   4.228  14.378  0.6295  2.5863 -0.5317
  667MPD2     N 9876   4.585   4.110  14.474 -0.2115 -0.7200 -0.1561
  667MPD2    H5 9877   4.596   4.045  14.397  2.3286 -1.7444  1.0552
  667MPD2    N1 9878   0.117   4.446  14.732 -0.2120 -1.1693  0.5988
  667MPD2    H7 9879   0.051   4.435  14.808 -1.8250  2.2065 -0.2993
  668TMC3    C1 9880   0.188   4.628  14.856  0.2473 -1.0770  0.5808
  668TMC3    C2 9881   0.227   0.036  14.853  0.0663  0.3596  0.5594
  668TMC3    C3 9882   0.254   0.105  14.965 -0.5487 -0.1950 -0.0477
  668TMC3    C4 9883   0.186   4.562  14.974  1.1932  0.8998 -0.5724
  668TMC3    C5 9884   0.206   4.642  15.091 -0.2882  0.0721 -0.1359
  668TMC3    C6 9885   0.246   0.052  15.089 -0.3394 -0.1714  0.1044
  668TMC3     C 9886   0.203   4.552  14.733 -0.3136 -0.0054 -0.0951
  668TMC3     O 9887   0.266   4.607  14.641  0.0147 -0.1589  0.2399
  668TMC3     H 9888   0.224   0.090  14.758 -0.6939 -1.0675 -0.2256
  668TMC3    H1 9889   0.184   4.454  14.968 -1.3548  0.8905  0.4027
  668TMC3    H2 9890   0.284   0.102  15.178  1.3836 -2.1125  0.4695
  668TMC3    C7 9891   0.207   4.570  15.224  0.8159  0.2960  0.4383
  668TMC3    C8 9892   0.318   0.239  14.946 -0.3133 -0.3632  0.0300
  668TMC3    O1 9893   0.240   4.634  15.324 -0.0058 -0.2200  0.2993
  668TMC3    O2 9894   0.310   0.319  15.040 -0.0840  0.2882  0.1909
  669TMC3    C1 9895   2.892   3.871  14.903 -0.2789  0.4155  0.2613
  669TMC3    C2 9896   2.779   3.897  14.827  0.3773  0.2486  0.2879
  669TMC3    C3 9897   2.773   4.022  14.767 -0.0014 -0.0169  0.3601
  669TMC3    C4 9898   2.996   3.959  14.915  0.0618  0.3758  0.7088
  669TMC3    C5 9899   2.991   4.081  14.852  0.1454  0.3469 -0.3953
  669TMC3    C6 9900   2.872   4.114  14.785 -0.3198  0.6164 -0.0486
  669TMC3     C 9901   2.901   3.737  14.971 -1.0127  0.1251 -0.2848
  669TMC3     O 9902   2.793   3.678  14.980  0.0198  0.2276 -0.0023
  669TMC3     H 9903   2.700   3.822  14.826 -0.4649  1.1400 -0.3948
  669TMC3    H1 9904   3.086   3.948  14.975  2.2523 -0.4238 -2.6991
  669TMC3    H2 9905   2.867   4.195  14.713 -0.0979  2.8277  2.4285
  669TMC3    C7 9906   3.109   4.167  14.824 -0.0993 -0.2297  0.4203
  669TMC3    C8 9907   2.663   4.064  14.688 -0.1205 -0.2646 -0.6530
  669TMC3    O1 9908   3.090   4.278  14.774  0.3080  0.0232 -0.5463
  669TMC3    O2 9909   2.667   4.172  14.633  0.0517 -0.0497  0.2455
  670MPD2     C 9910   0.866   2.140  13.634  0.0929  0.2122 -0.0759
  670MPD2    C1 9911   0.969   2.134  13.718  0.7385 -0.0843  0.1604
  670MPD2    C2 9912   0.960   2.054  13.826 -1.0871 -0.1360 -0.2093
  670MPD2    C3 9913   0.851   1.974  13.847 -0.2346 -0.0884  0.4690
  670MPD2    C4 9914   0.750   1.973  13.758  0.0174 -0.0386 -0.0809
  670MPD2    C5 9915   0.751   2.062  13.654 -0.8042 -0.4077 -0.1737
  670MPD2     H 9916   1.048   2.035  13.887 -1.3985  2.8468  1.1742
  670MPD2    H1 9917   0.663   1.911  13.777 -0.7901  0.5496 -1.8644
  670MPD2    H2 9918   0.853   2.216  13.558 -0.3168 -0.2776 -0.4912
  670MPD2    H3 9919   0.664   2.079  13.592  0.1669  0.3501 -1.3356
  670MPD2     N 9920   0.858   1.889  13.956 -0.4547  0.0006 -0.1920
  670MPD2    H5 9921   0.940   1.897  14.015 -0.4528  0.3265 -0.2377
  670MPD2    N1 9922   1.093   2.201  13.700  0.3432 -0.6369 -0.5613
  670MPD2    H7 9923   1.165   2.183  13.769 -0.6309 -1.8762  0.1460
  671TMC3    C1 9924   0.792   1.717  14.106 -0.3733  0.0703 -0.6441
  671TMC3    C2 9925   0.913   1.737  14.172 -0.0596  0.2878 -0.6056
  671TMC3    C3 9926   0.938   1.668  14.285 -0.0023  0.2933  1.0065
  671TMC3    C4 9927   0.707   1.622  14.148 -0.0704 -0.4918  0.3567
  671TMC3    C5 9928   0.738   1.545  14.258 -0.5658  0.7095  0.0077
  671TMC3    C6 9929   0.861   1.557  14.315 -1.0568  0.6372  1.2878
  671TMC3     C 9930   0.757   1.798  13.990 -0.1148  0.2070  0.5544
  671TMC3     O 9931   0.652   1.759  13.948  0.3061 -0.1403 -0.2435
  671TMC3     H 9932   0.967   1.830  14.158 -1.4970  0.9793 -1.5462
  671TMC3    H1 9933   0.617   1.601  14.092 -0.2102 -0.2058  0.4750
  671TMC3    H2 9934   0.876   1.481  14.391 -0.6173  0.7582  1.3255
  671TMC3    C7 9935   0.704   1.406  14.239 -0.1239 -0.0127 -0.3293
  671TMC3    C8 9936   1.082   1.638  14.299  0.4184  0.3952  0.4772
  671TMC3    O1 9937   0.620   1.350  14.304 -0.1950 -0.4526  0.1348
  671TMC3    O2 9938   1.150   1.667  14.204 -0.2721  0.0368  0.1008
  672MPD2     C 9939   1.900   1.766   1.561  0.1524  0.5766 -1.0459
  672MPD2    C1 9940   1.857   1.754   1.428 -0.3213  0.0617 -0.0921
  672MPD2    C2 9941   1.949   1.781   1.329  0.1655  0.8266 -0.7684
  672MPD2    C3 9942   2.079   1.815   1.352  0.0523  0.0188 -0.0109
  672MPD2    C4 9943   2.119   1.813   1.487 -0.5366 -0.1002  0.0091
  672MPD2    C5 9944   2.034   1.786   1.592 -0.2650 -0.4020 -0.3584
  672MPD2     H 9945   1.912   1.770   1.228 -1.2154 -2.4172  0.0992
  672MPD2    H1 9946   2.223   1.825   1.516 -0.4012 -1.2660  0.0198
  672MPD2    H2 9947   1.827   1.738   1.637  1.3329 -0.4607 -0.2825
  672MPD2    H3 9948   2.075   1.786   1.692 -1.3143 -0.6568  0.0710
  672MPD2     N 9949   2.172   1.845   1.255  0.3571 -0.0155 -0.7631
  672MPD2    H5 9950   2.258   1.885   1.293 -0.0413 -0.4199  0.5411
  672MPD2    N1 9951   1.724   1.714   1.384  0.5260  0.1161 -0.3589
  672MPD2    H7 9952   1.713   1.719   1.283 -0.2393 -1.6286 -0.3567
  673TMC3    C1 9953   1.491   1.716   1.378 -0.9118 -0.1606  0.1123
  673TMC3    C2 9954   1.501   1.684   1.246  0.0863 -0.3202  0.6778
  673TMC3    C3 9955   1.399   1.739   1.167  0.0993 -0.2784 -0.6056
  673TMC3    C4 9956   1.398   1.808   1.422  0.2366 -0.3071 -0.0550
  673TMC3    C5 9957   1.309   1.874   1.337 -0.1557 -0.2287  1.0926
  673TMC3    C6 9958   1.311   1.838   1.207  0.4154  0.4849  0.2121
  673TMC3     C 9959   1.609   1.709   1.465 -0.0571 -0.1636  0.0135
  673TMC3     O 9960   1.597   1.745   1.584  0.2059  1.0794 -0.1655
  673TMC3     H 9961   1.566   1.604   1.212 -1.1261 -1.4648  1.0177
  673TMC3    H1 9962   1.399   1.841   1.525 -0.9418  0.7768 -0.3792
  673TMC3    H2 9963   1.232   1.875   1.143 -0.0941 -2.1269 -0.6435
  673TMC3    C7 9964   1.233   1.987   1.386 -0.7436  0.4484 -0.4138
  673TMC3    C8 9965   1.347   1.662   1.056  0.0485  0.4735  0.7611
  673TMC3    O1 9966   1.237   2.003   1.509  0.0589 -0.0004 -0.4242
  673TMC3    O2 9967   1.228   1.646   1.051  0.1079  0.5928 -0.5060
  674MPD2     C 9968   1.584   1.888   0.659 -0.4044  0.2520  0.4861
  674MPD2    C1 9969   1.478   1.809   0.627 -0.0241  0.8044  0.9552
  674MPD2    C2 9970   1.353   1.822   0.686  0.8221 -0.9840  0.3607
  674MPD2    C3 9971   1.335   1.915   0.786  0.6638  0.3567  1.0481
  674MPD2    C4 9972   1.442   1.993   0.818 -0.3122 -0.3252 -0.2003
  674MPD2    C5 9973   1.561   1.979   0.763  0.2009  0.2645  0.7161
  674MPD2     H 9974   1.274   1.756   0.652  0.7521  0.1115 -1.5750
  674MPD2    H1 9975   1.427   2.069   0.894 -0.7304 -0.5063 -0.1052
  674MPD2    H2 9976   1.687   1.866   0.635 -0.9134  0.6785 -2.0581
  674MPD2    H3 9977   1.651   2.024   0.801 -0.1704  0.8018  0.9528
  674MPD2     N 9978   1.202   1.931   0.834  0.2307 -0.1238 -0.5336
  674MPD2    H5 9979   1.129   1.873   0.793 -2.9358  2.4857  1.3322
  674MPD2    N1 9980   1.483   1.728   0.508 -0.0783  0.4976 -0.0370
  674MPD2    H7 9981   1.401   1.669   0.494 -0.5195  1.2142 -0.4473
  675TMC3    C1 9982   1.592   1.589   0.341 -0.5099  0.3585  0.5538
  675TMC3    C2 9983   1.473   1.522   0.329 -0.0615  0.8370 -0.7960
  675TMC3    C3 9984   1.457   1.432   0.223 -0.2040  0.0464 -0.0701
  675TMC3    C4 9985   1.698   1.565   0.257  0.6950 -0.2683 -0.0061
  675TMC3    C5 9986   1.684   1.466   0.160  0.0447  0.7710  0.6864
  675TMC3    C6 9987   1.567   1.404   0.138  0.1294  0.3792  0.6660
  675TMC3     C 9988   1.598   1.699   0.437 -0.4602 -0.6878 -0.5427
  675TMC3     O 9989   1.714   1.732   0.461  0.3288 -0.4594 -0.3664
  675TMC3     H 9990   1.396   1.522   0.405 -0.1146  0.5947 -0.8492
  675TMC3    H1 9991   1.798   1.606   0.272  1.1251 -1.6357  0.9075
  675TMC3    H2 9992   1.556   1.327   0.063  0.5465 -1.1728  2.1998
  675TMC3    C7 9993   1.806   1.390   0.148  0.6432 -0.0797 -0.7570
  675TMC3    C8 9994   1.357   1.329   0.218  0.7114 -0.2361  0.6662
  675TMC3    O1 9995   1.910   1.451   0.147 -0.2570  0.8408  0.2071
  675TMC3    O2 9996   1.388   1.220   0.169 -0.6909  0.0530  0.2858
  676MPD2     C 9997   3.131   0.731  11.039  0.5155  0.2093  0.2614
  676MPD2    C1 9998   3.062   0.665  11.137 -0.7440  1.0930 -0.1377
  676MPD2    C2 9999   3.014   0.536  11.112  0.0178 -0.3219  0.1591
  676MPD2    C310000   3.022   0.480  10.986 -0.3861  0.3912 -0.8342
  676MPD2    C410001   3.096   0.550  10.891  0.4283  0.5718  0.2513
  676MPD2    C510002   3.148   0.672  10.915 -0.0166  0.7448  0.4108
  676MPD2     H10003   2.951   0.485  11.184  0.2094 -1.4004 -0.4407
  676MPD2    H110004   3.109   0.518  10.788  2.2953  1.9017  0.0637
  676MPD2    H210005   3.169   0.831  11.057 -0.2358  0.2102  1.8764
  676MPD2    H310006   3.196   0.726  10.834 -2.9623  2.2970 -0.3007
  676MPD2     N10007   2.971   0.358  10.943 -0.2438 -0.7059  0.3060
  676MPD2    H510008   2.990   0.327  10.849  0.4620  2.2464 -0.5197
  676MPD2    N110009   3.042   0.722  11.263  0.0571 -0.0589  0.3866
  676MPD2    H710010   3.006   0.662  11.336  0.6587  0.0376  0.7616
  677TMC3    C110011   3.008   0.886  11.421 -0.2025 -0.6565 -0.3763
  677TMC3    C210012   3.033   0.798  11.517  0.1550  0.0693  0.9193
  677TMC3    C310013   3.008   0.843  11.648  0.3046  0.5290 -0.6633
  677TMC3    C410014   2.965   1.010  11.453 -0.4872  0.2817  1.0959
  677TMC3    C510015   2.943   1.051  11.584  0.3576 -0.2873  0.3185
  677TMC3    C610016   2.968   0.968  11.690  0.3925  1.0001  0.0379
  677TMC3     C10017   3.041   0.858  11.288 -0.4116 -0.2421  0.6379
  677TMC3     O10018   3.075   0.957  11.221 -0.5183  0.6488  0.1249
  677TMC3     H10019   3.102   0.715  11.511 -0.7283 -0.5969  0.1235
  677TMC3    H110020   2.953   1.081  11.372  0.7954  0.5496  1.1377
  677TMC3    H210021   2.969   0.998  11.795  0.8650 -0.8724  0.5716
  677TMC3    C710022   2.964   1.190  11.621 -0.0616  0.1985  0.0523
  677TMC3    C810023   3.079   0.767  11.747  0.2399  0.3849 -0.1490
  677TMC3    O110024   2.912   1.223  11.724  0.0646 -0.4244 -0.1959
  677TMC3    O210025   3.168   0.693  11.710 -0.5662  0.0560 -0.4401
  678MPD2     C10026   0.127   1.212   1.954  0.4091  0.4997  0.2296
  678MPD2    C110027   0.162   1.153   1.835  0.3288 -0.7096  0.6258
  678MPD2    C210028   0.057   1.092   1.763 -0.5766 -0.4556 -0.2032
  678MPD2    C310029   4.641   1.129   1.787  0.1202 -0.2577 -0.1303
  678MPD2    C410030   4.607   1.184   1.905  0.1526  0.1702 -0.0146
  678MPD2    C510031   4.714   1.225   1.985 -0.9429 -0.6137 -0.0069
  678MPD2     H10032   0.082   1.046   1.668  0.6595 -0.6037  0.1990
  678MPD2    H110033   4.505   1.211   1.929  0.4372  0.7798  0.5001
  678MPD2    H210034   0.212   1.237   2.017 -0.0937 -1.9287  1.8790
  678MPD2    H310035   4.692   1.263   2.084  1.5217  0.9711 -0.0576
  678MPD2     N10036   4.544   1.079   1.693 -0.6520 -0.5234 -0.1564
  678MPD2    H510037   4.590   1.030   1.617 -1.3506 -0.9971 -0.2726
  678MPD2    N110038   0.296   1.144   1.784  0.1472  0.2191 -0.0423
  678MPD2    H710039   0.303   1.095   1.696 -0.8515 -0.7578  0.4188
  679TMC3    C110040   0.757   1.119   1.758  0.3833  0.9019  0.2203
  679TMC3    C210041   0.647   1.141   1.835  0.1220  0.1855  0.2596
  679TMC3    C310042   0.531   1.161   1.765  0.5948 -0.7194 -0.1288
  679TMC3    C410043   0.752   1.128   1.621 -1.0514 -0.1409  0.2266
  679TMC3    C510044   0.638   1.157   1.554 -0.4272 -0.2293 -0.3211
  679TMC3    C610045   0.520   1.178   1.628  0.9982  0.2005  0.1801
  679TMC3     C10046   0.860   1.028   1.810 -0.2670  1.2833  0.1782
  679TMC3     O10047   0.949   1.000   1.734 -0.1352  0.1003  0.1015
  679TMC3     H10048   0.657   1.124   1.942 -0.5308  0.3931  0.3529
  679TMC3    H110049   0.843   1.118   1.563 -2.6733  1.1505 -2.5949
  679TMC3    H210050   0.425   1.191   1.579  0.0591 -1.7080  1.4940
  679TMC3    C710051   0.621   1.108   1.416 -0.5632  0.7214 -0.4652
  679TMC3    C810052   0.410   1.196   1.837  0.5923 -0.7202  0.1100
  679TMC3    O110053   0.512   1.058   1.391  0.1636  0.6609 -0.1212
  679TMC3    O210054   0.424   1.241   1.949 -0.3438 -0.4101 -0.2430
  680MPD2     C10055   0.693   3.794  13.674  0.6679 -0.0726  0.5994
  680MPD2    C110056   0.824   3.759  13.696  0.2001  0.0939  0.1720
  680MPD2    C210057   0.918   3.860  13.723  0.0350 -0.1881 -0.5528
  680MPD2    C310058   0.879   3.992  13.731 -0.2295  0.3904  0.4414
  680MPD2    C410059   0.749   4.024  13.709  0.3319 -0.0807  0.3708
  680MPD2    C510060   0.663   3.929  13.674 -0.2193 -0.4130  0.4417
  680MPD2     H10061   1.023   3.837  13.733 -0.1279 -0.4255  0.6112
  680MPD2    H110062   0.721   4.129  13.710 -0.9137 -0.4146 -0.5875
  680MPD2    H210063   0.614   3.722  13.654  0.8571  0.2111 -1.1500
  680MPD2    H310064   0.564   3.956  13.638  0.7111 -0.1199 -1.9395
  680MPD2     N10065   0.964   4.099  13.774  0.3720  0.1787 -0.1281
  680MPD2    H510066   0.927   4.194  13.774 -0.8612 -0.3032  0.6664
  680MPD2    N110067   0.877   3.629  13.688 -0.1440 -0.3633 -0.0994
  680MPD2    H710068   0.978   3.620  13.679 -0.0291 -1.6133  2.5061
  681TMC3    C110069   0.880   3.408  13.643  0.2097  0.0117  0.3139
  681TMC3    C210070   0.840   3.286  13.679 -0.2148 -0.1955  0.7064
  681TMC3    C310071   0.895   3.179  13.624  0.1927  0.6090 -0.7256
  681TMC3    C410072   0.993   3.422  13.564  0.4864 -0.2988 -0.1938
  681TMC3    C510073   1.039   3.310  13.506  0.9966  0.2569 -0.1449
  681TMC3    C610074   0.994   3.188  13.534 -0.2825  0.1964 -0.3474
  681TMC3     C10075   0.803   3.518  13.682  0.4983 -0.4391  0.6875
  681TMC3     O10076   0.689   3.497  13.712 -0.0859 -0.0338  0.1252
  681TMC3     H10077   0.756   3.285  13.748 -1.5098  1.5638 -0.8327
  681TMC3    H110078   1.033   3.522  13.551  1.2070 -0.6485 -0.6855
  681TMC3    H210079   1.021   3.099  13.478 -1.3780 -0.8708  0.7988
  681TMC3    C710080   1.161   3.318  13.439  0.0800 -0.1795  0.4218
  681TMC3    C810081   0.885   3.053  13.704 -0.0578  0.3849  0.2511
  681TMC3    O110082   1.235   3.217  13.447  0.0198 -0.0338  0.3763
  681TMC3    O210083   0.923   2.945  13.662 -0.4987  0.3533  0.2259
  682MPD2     C10084   2.237   0.116  10.230 -0.0983  0.2316 -0.1440
  682MPD2    C110085   2.283   0.018  10.316  0.2286  0.4767  0.0702
  682MPD2    C210086   2.262   0.025  10.450  0.5137  0.1823 -0.1928
  682MPD2    C310087   2.171   0.118  10.498  0.1243  0.4604 -0.6109
  682MPD2    C410088   2.112   0.208  10.411  0.1244 -0.1102 -0.8216
  682MPD2    C510089   2.141   0.200  10.279  0.3997  0.1783  0.3463
  682MPD2     H10090   2.313   4.675  10.516  0.7776  0.5035 -0.0529
  682MPD2    H110091   2.034   0.280  10.436 -1.9938 -2.2466 -1.2723
  682MPD2    H210092   2.266   0.133  10.127 -1.8743  1.5299 -0.4371
  682MPD2    H310093   2.081   0.265  10.216  2.5442  1.9918  0.1825
  682MPD2     N10094   2.125   0.116  10.632  0.2540 -0.3922 -0.2946
  682MPD2    H510095   2.041   0.170  10.646  0.5503  0.4917 -1.9546
  682MPD2    N110096   2.376   4.635  10.270  0.3256  0.7492  0.3220
  682MPD2    H710097   2.424   4.578  10.340  0.0029  1.4134  1.0820
  683TMC3    C110098   2.132   0.150  11.047  0.4919  0.3462 -0.2796
  683TMC3    C210099   2.132   0.034  11.116 -0.2162 -0.1928 -0.0445
  683TMC3    C310100   2.104   4.635  11.043 -0.7819  0.7284  0.0016
  683TMC3    C410101   2.098   0.154  10.913  0.3432 -0.7174 -0.4320
  683TMC3    C510102   2.071   0.038  10.851 -1.0480 -0.1796  0.5533
  683TMC3    C610103   2.071   4.635  10.914  0.0809 -0.1296 -0.1417
  683TMC3     C10104   2.125   0.275  11.118 -0.4839  0.3119 -0.1972
  683TMC3     O10105   2.058   0.365  11.069  0.5008  0.6668 -0.4728
  683TMC3     H10106   2.171   0.039  11.217  0.0852 -1.9089 -0.0765
  683TMC3    H110107   2.127   0.243  10.858 -0.4877  1.6272  2.9131
  683TMC3    H210108   2.034   4.547  10.863 -1.4183 -1.0470  2.5489
  683TMC3    C710109   2.142   0.015  10.726 -0.3606  0.3115  0.1234
  683TMC3    C810110   2.198   4.525  11.074 -0.5271 -0.1300  0.1599
  683TMC3    O110111   2.196   4.627  10.710 -0.3704  0.1736 -0.4956
  683TMC3    O210112   2.231   4.516  11.191  0.5427  0.0769 -0.1201
  684MPD2     C10113   1.048   4.285  16.783  0.3893  0.5695  0.6015
  684MPD2    C110114   1.007   4.309  16.655  0.2491  0.8415 -0.4971
  684MPD2    C210115   0.960   4.438  16.629 -0.0048  0.0003 -0.2342
  684MPD2    C310116   0.957   4.535  16.728  0.6607  0.5839  0.3454
  684MPD2    C410117   1.007   4.505  16.853 -0.7107 -0.0309 -0.2172
  684MPD2    C510118   1.055   4.383  16.876 -0.0616  0.1835 -0.4933
  684MPD2     H10119   0.923   4.459  16.529 -1.6438  1.4292  0.6654
  684MPD2    H110120   1.012   4.582  16.929  0.1412  0.0331 -0.3341
  684MPD2    H210121   1.091   4.194  16.823  1.7361  0.3759 -1.2815
  684MPD2    H310122   1.087   4.359  16.977 -0.9324 -0.4427 -0.3609
  684MPD2     N10123   0.908   4.668  16.709 -0.4167  0.1001 -0.4462
  684MPD2    H510124   0.907   4.717  16.798 -1.9444 -0.8069  0.0526
  684MPD2    N110125   1.002   4.210  16.550 -0.0702 -0.0598 -0.3960
  684MPD2    H710126   0.965   4.243  16.462 -1.2294  1.2144  0.5782
  685TMC3    C110127   1.045   4.012  16.440 -0.0497 -0.3536 -0.3170
  685TMC3    C210128   0.940   4.027  16.352 -0.5805 -0.2179  0.4024
  685TMC3    C310129   0.951   3.953  16.233 -0.5409 -0.0295  0.1302
  685TMC3    C410130   1.158   3.940  16.409  0.3891  0.2359 -0.2241
  685TMC3    C510131   1.158   3.870  16.292  1.0804 -0.2089 -0.0272
  685TMC3    C610132   1.056   3.876  16.197 -0.2520 -0.8465 -0.7258
  685TMC3     C10133   1.049   4.080  16.564  0.5005  0.0416 -0.4369
  685TMC3     O10134   1.104   4.031  16.662  0.0121  0.2205  0.2905
  685TMC3     H10135   0.864   4.098  16.384 -0.8113  0.3302 -1.3823
  685TMC3    H110136   1.246   3.941  16.473  1.1187  0.3342 -1.2196
  685TMC3    H210137   1.072   3.823  16.103  1.1796  0.8649 -1.4632
  685TMC3    C710138   1.273   3.779  16.273  0.1572  0.1079  0.2302
  685TMC3    C810139   0.857   3.975  16.122 -0.0615  0.1484 -0.0640
  685TMC3    O110140   1.274   3.734  16.153  0.2550  0.5782 -0.4797
  685TMC3    O210141   0.896   3.924  16.017 -0.1759 -0.5917  0.3196
  686MPD2     C10142   2.656   4.158  16.030 -0.3207  0.4792  0.0118
  686MPD2    C110143   2.528   4.121  16.071  0.1683 -0.5503 -0.5412
  686MPD2    C210144   2.445   4.052  15.983  0.3935  0.4337  0.6004
  686MPD2    C310145   2.497   3.995  15.864 -1.0806  0.0753 -0.6689
  686MPD2    C410146   2.628   4.028  15.830 -0.3148 -0.9616 -0.1579
  686MPD2    C510147   2.703   4.111  15.910 -0.3128  0.4656 -0.0861
  686MPD2     H10148   2.343   4.028  16.007  0.2757 -0.9787 -1.2592
  686MPD2    H110149   2.674   3.990  15.739  0.2823  0.6666 -0.5208
  686MPD2    H210150   2.722   4.212  16.096 -0.1726  0.8699 -0.4569
  686MPD2    H310151   2.802   4.147  15.882 -0.2696 -0.6803 -1.4314
  686MPD2     N10152   2.428   3.920  15.766 -0.6602 -0.1665  0.3499
  686MPD2    H510153   2.455   3.923  15.668  0.4955 -1.4116  0.6434
  686MPD2    N110154   2.493   4.150  16.197  0.7787  0.3529  0.3120
  686MPD2    H710155   2.550   4.213  16.251  3.6479 -0.3653 -1.8486
  687TMC3    C110156   2.256   3.805  15.913  0.8094  0.1311  0.2685
  687TMC3    C210157   2.124   3.777  15.915 -0.4505  0.4031  0.1363
  687TMC3    C310158   2.070   3.696  16.012 -0.5767  0.0013 -0.4095
  687TMC3    C410159   2.337   3.755  16.012  0.3618  0.0710  0.0713
  687TMC3    C510160   2.278   3.671  16.106 -0.2214  0.5344  0.3479
  687TMC3    C610161   2.151   3.627  16.105 -0.3032 -0.1111  0.4446
  687TMC3     C10162   2.309   3.857  15.785  0.7347  0.5345  0.7496
  687TMC3     O10163   2.248   3.811  15.691  0.0565  0.4659 -0.0346
  687TMC3     H10164   2.063   3.809  15.831 -1.7453 -0.7815  0.6222
  687TMC3    H110165   2.444   3.773  16.008  0.1909  1.0343 -0.1017
  687TMC3    H210166   2.099   3.576  16.185 -0.0917 -2.0810 -0.6912
  687TMC3    C710167   2.358   3.611  16.205  0.6217 -0.4404  0.2250
  687TMC3    C810168   1.930   3.671  16.012 -0.3027 -0.8417  0.1422
  687TMC3    O110169   2.330   3.499  16.241 -0.4977  0.2067 -0.2216
  687TMC3    O210170   1.886   3.584  16.086 -0.0944 -0.3797 -0.4975
  688MPD2     C10171   1.672   3.171  17.677 -0.6611  0.1629  0.2792
  688MPD2    C110172   1.717   3.049   0.039  0.8064  0.3981 -0.0585
  688MPD2    C210173   1.827   2.995  17.657  0.1502 -0.4824  0.4472
  688MPD2    C310174   1.885   3.050  17.546  0.1050  0.1637  0.1569
  688MPD2    C410175   1.838   3.173  17.501  0.2003  0.3886  0.1722
  688MPD2    C510176   1.732   3.238  17.571 -0.0838  0.0382 -0.3406
  688MPD2     H10177   1.861   2.898   0.011  1.0153 -1.7353 -3.8053
  688MPD2    H110178   1.898   3.225  17.426 -1.6469 -1.1482 -2.3715
  688MPD2    H210179   1.594   3.226   0.047 -1.2810 -1.0085  0.5734
  688MPD2    H310180   1.694   3.329  17.525  0.4542  0.2634 -0.3434
  688MPD2     N10181   1.991   2.989  17.481 -0.5533 -0.2312  0.3095
  688MPD2    H510182   2.024   3.042  17.401  0.1757  0.6131  1.1645
  688MPD2    N110183   1.662   2.977   0.151  0.6059 -0.6677 -0.1353
  688MPD2    H710184   1.686   2.879   0.150  0.8653 -0.5982 -0.7584
  689TMC3    C110185   1.557   2.947   0.365 -0.6883 -0.8223  0.0728
  689TMC3    C210186   1.537   3.006   0.491  0.7629  0.2453  0.0754
  689TMC3    C310187   1.529   2.918   0.600  0.2385  0.4162  0.0356
  689TMC3    C410188   1.546   2.813   0.343 -0.5103  0.3293 -0.2006
  689TMC3    C510189   1.545   2.729   0.455  0.1858  0.1293 -0.2754
  689TMC3    C610190   1.526   2.780   0.580  0.8996 -0.0262  0.1970
  689TMC3     C10191   1.600   3.038   0.263 -0.4439 -1.1696  0.7298
  689TMC3     O10192   1.574   3.157   0.281 -0.2915 -0.3619  0.0718
  689TMC3     H10193   1.538   3.113   0.510 -0.5742  0.7066 -2.3898
  689TMC3    H110194   1.564   2.775   0.243  2.6758 -0.6897  0.7439
  689TMC3    H210195   1.511   2.707   0.659 -1.9388  1.8345  1.4017
  689TMC3    C710196   1.560   2.587   0.449 -0.4246  0.1094 -0.2565
  689TMC3    C810197   1.554   2.958   0.741  0.4421 -0.2510 -0.3914
  689TMC3    O110198   1.600   2.532   0.550 -0.6143  0.7638  0.4043
  689TMC3    O210199   1.569   2.863   0.815  0.2221 -0.7009  0.1403
  690MPD2     C10200   3.820   0.225  15.751 -0.0702 -0.1284  0.5811
  690MPD2    C110201   3.809   0.173  15.623 -0.0491  0.1839 -0.2386
  690MPD2    C210202   3.877   0.232  15.528 -0.5006  0.1885  0.5856
  690MPD2    C310203   3.959   0.338  15.555  0.1285 -0.0773 -0.7528
  690MPD2    C410204   3.973   0.387  15.681  0.1361 -0.9804 -0.6776
  690MPD2    C510205   3.897   0.334  15.778  0.2747 -0.2028 -0.0546
  690MPD2     H10206   3.876   0.180  15.432 -3.6419 -1.7148  1.6679
  690MPD2    H110207   4.046   0.464  15.701 -1.5896  0.2468  0.8874
  690MPD2    H210208   3.769   0.179  15.835 -1.4419  0.2864 -0.0331
  690MPD2    H310209   3.902   0.374  15.878  3.1655 -1.2232  0.1928
  690MPD2     N10210   4.032   0.388  15.444 -0.0617  0.2194  0.1155
  690MPD2    H510211   4.013   0.348  15.352  1.7407  2.2971 -1.1542
  690MPD2    N110212   3.725   0.063  15.594 -0.5997 -0.0811 -0.1780
  690MPD2    H710213   3.709   0.041  15.497  3.0656 -0.7402 -0.6385
  691TMC3    C110214   3.576   4.611  15.632  0.4000 -0.0521 -1.1060
  691TMC3    C210215   3.490   4.669  15.540  0.5710  0.2578  0.0231
  691TMC3    C310216   3.416   4.574  15.471  0.3326  0.2233  1.2557
  691TMC3    C410217   3.586   4.480  15.662 -0.0222 -0.2526 -0.5397
  691TMC3    C510218   3.527   4.393  15.576 -0.1644 -0.3068  0.3043
  691TMC3    C610219   3.441   4.436  15.482  0.4413  0.1012  0.5810
  691TMC3     C10220   3.678   4.695  15.686  0.2443 -0.1682  0.2094
  691TMC3     O10221   3.710   4.668  15.803 -0.4398  0.5205  0.1160
  691TMC3     H10222   3.493   0.053  15.507 -0.4304  0.5428  0.8198
  691TMC3    H110223   3.662   4.439  15.728  0.2618  0.6426 -0.3165
  691TMC3    H210224   3.390   4.371  15.413 -0.4644 -0.7554  2.0666
  691TMC3    C710225   3.551   4.251  15.599  0.1495 -0.4144 -0.6676
  691TMC3    C810226   3.294   4.616  15.398 -0.4201  0.1197  0.6134
  691TMC3    O110227   3.639   4.223  15.675 -0.0736  0.1645 -0.4066
  691TMC3    O210228   3.239   4.551  15.315 -0.0515 -0.9811 -0.2242
  692TMC3    C110229   0.553   1.167  15.859 -0.0389  0.3337 -0.1516
  692TMC3    C210230   0.670   1.229  15.895  0.2761 -0.4821  0.1184
  692TMC3    C310231   0.772   1.146  15.926  0.1100  0.2316  0.0312
  692TMC3    C410232   0.532   1.043  15.894  0.4061  0.5528  0.3933
  692TMC3    C510233   0.631   0.972  15.946  0.0143 -0.1914 -0.3457
  692TMC3    C610234   0.751   1.023  15.968 -0.4282  0.4754  0.0286
  692TMC3     C10235   0.432   1.252  15.855 -0.1126  0.3302 -0.3501
  692TMC3     O10236   0.337   1.204  15.911 -0.1567 -0.4717  0.3975
  692TMC3     H10237   0.688   1.325  15.848  0.9013 -0.9793 -0.6698
  692TMC3    H110238   0.436   1.001  15.867  1.0337 -1.1894  0.8538
  692TMC3    H210239   0.840   0.965  15.989 -0.7951 -0.3713 -0.7747
  692TMC3    C710240   0.596   0.834  15.953 -1.2270  0.2779  0.3950
  692TMC3    C810241   0.859   1.205  16.019 -0.5584 -0.2691  0.0890
  692TMC3    O110242   0.532   0.790  15.858  0.3061  0.1910  0.4090
  692TMC3    O210243   0.950   1.138  16.060  0.2350  0.1962  0.5253
  693MPD2     C10244   0.087   4.056  10.750  0.0060 -0.1675 -0.0698
  693MPD2    C110245   0.046   3.944  10.694  0.3662 -0.1706 -0.6381
  693MPD2    C210246   0.140   3.854  10.639  0.3506  0.1822  0.6949
  693MPD2    C310247   0.272   3.887  10.627  0.2415 -0.7935  0.2628
  693MPD2    C410248   0.304   4.010  10.671 -0.3274  0.1948  0.7681
  693MPD2    C510249   0.212   4.096  10.727 -0.9636 -0.3329  0.0684
  693MPD2     H10250   0.112   3.752  10.615  2.8119 -0.2423 -0.4289
  693MPD2    H110251   0.407   4.035  10.650 -0.0607 -1.4719  0.0413
  693MPD2    H210252   0.018   4.128  10.793  0.8055 -0.3706  1.5443
  693MPD2    H310253   0.248   4.190  10.766  0.4544 -0.9919  0.3757
  693MPD2     N10254   0.373   3.790  10.597  0.0866  0.3925 -0.4264
  693MPD2    H510255   0.469   3.818  10.614 -0.4469  0.7074  2.0516
  693MPD2    N110256   4.626   3.919  10.712  0.3098  0.2659  0.0706
  693MPD2    H710257   4.570   3.992  10.755  0.2199 -1.1038  2.2424
  694TMC3    C110258   4.425   3.827  10.677  0.7821  0.3306  0.7453
  694TMC3    C210259   4.340   3.759  10.587  0.6078  0.0722  0.3194
  694TMC3    C310260   4.227   3.704  10.642  0.6538 -0.0079 -0.7896
  694TMC3    C410261   4.386   3.851  10.813  0.3754  0.2261  0.2868
  694TMC3    C510262   4.274   3.778  10.865  0.6233 -0.4853  0.0698
  694TMC3    C610263   4.196   3.711  10.776 -0.5302  0.0648 -0.4202
  694TMC3     C10264   4.558   3.827  10.646 -0.2038  0.7766  0.3774
  694TMC3     O10265   4.601   3.747  10.565 -0.3060  0.5909 -0.0985
  694TMC3     H10266   4.369   3.741  10.484  2.5019 -2.1735  1.2337
  694TMC3    H110267   4.457   3.889  10.886 -0.8524  1.3475  0.9016
  694TMC3    H210268   4.103   3.669  10.812 -0.3124 -0.8104 -0.8580
  694TMC3    C710269   4.245   3.779  11.008  0.6678 -0.3249  0.3854
  694TMC3    C810270   4.145   3.611  10.567  0.6428  0.4816 -0.0444
  694TMC3    O110271   4.308   3.858  11.080 -0.2099  0.3575  0.3961
  694TMC3    O210272   4.084   3.523  10.630 -0.3461 -0.3317  0.2305
  695MPD2     C10273   1.685   1.625  13.533  0.7898 -0.8513 -0.7028
  695MPD2    C110274   1.613   1.568  13.631  0.1687 -0.1438  0.2897
  695MPD2    C210275   1.484   1.521  13.599  0.1949 -1.0475  0.1097
  695MPD2    C310276   1.430   1.537  13.476 -0.1230  0.2198  0.1969
  695MPD2    C410277   1.508   1.607  13.383  0.0257 -0.1608  0.1902
  695MPD2    C510278   1.636   1.648  13.407  0.4156  0.8087 -0.6837
  695MPD2     H10279   1.418   1.474  13.672 -1.9859  0.6139 -0.8025
  695MPD2    H110280   1.464   1.638  13.289  0.0449 -2.2599 -0.4967
  695MPD2    H210281   1.791   1.644  13.550  0.7924 -0.1886 -1.4706
  695MPD2    H310282   1.694   1.708  13.337  0.4640  0.9079 -0.5577
  695MPD2     N10283   1.297   1.490  13.454  0.0158 -0.4413 -0.3181
  695MPD2    H510284   1.245   1.455  13.535  0.3618  0.8640  0.4715
  695MPD2    N110285   1.668   1.538  13.755  0.0504 -0.2618 -0.0941
  695MPD2    H710286   1.603   1.496  13.821 -3.2723  3.4150 -1.0212
  696TMC3    C110287   1.084   1.451  13.377  0.6840 -0.3572 -0.3556
  696TMC3    C210288   1.064   1.349  13.465 -0.7266  0.1312 -0.1201
  696TMC3    C310289   0.936   1.312  13.498  0.0680  0.1368 -0.3445
  696TMC3    C410290   0.984   1.521  13.327 -0.8581 -1.2699 -0.2565
  696TMC3    C510291   0.856   1.480  13.355  0.6032  0.6618  0.5161
  696TMC3    C610292   0.829   1.377  13.440  0.2925 -0.4544  0.1411
  696TMC3     C10293   1.216   1.506  13.348  0.2023 -0.6737 -0.6432
  696TMC3     O10294   1.227   1.583  13.254 -0.0485  0.1128  0.1226
  696TMC3     H10295   1.145   1.288  13.504 -2.4348 -2.2854 -0.4000
  696TMC3    H110296   0.995   1.608  13.263 -0.6605 -0.1882  1.2290
  696TMC3    H210297   0.728   1.353  13.469  0.0657 -1.5515 -1.5526
  696TMC3    C710298   0.755   1.576  13.339 -0.0888 -0.1741  0.2299
  696TMC3    C810299   0.916   1.266  13.640 -0.3219  0.5312 -0.0411
  696TMC3    O110300   0.736   1.622  13.226 -0.0850 -0.2521 -0.2360
  696TMC3    O210301   1.021   1.272  13.708 -0.1238 -0.1253 -0.7075
  697MPD2     C10302   0.379   2.771  15.673 -0.2903  0.2065  0.5861
  697MPD2    C110303   0.370   2.730  15.544 -0.2274  0.5327  0.0316
  697MPD2    C210304   0.421   2.812  15.451  0.4902 -0.3589 -0.5236
  697MPD2    C310305   0.466   2.938  15.483 -0.0994  0.0849  0.5151
  697MPD2    C410306   0.474   2.984  15.615  0.1287 -0.0862  0.1787
  697MPD2    C510307   0.426   2.890  15.709  0.4351 -0.1873 -0.3104
  697MPD2     H10308   0.425   2.791  15.344  3.3314  0.1679 -0.5327
  697MPD2    H110309   0.496   3.086  15.645 -1.2632 -0.0516  1.0762
  697MPD2    H210310   0.343   2.705  15.752  1.5303 -1.1059  0.3266
  697MPD2    H310311   0.431   2.916  15.814 -0.7229 -1.4391  0.0621
  697MPD2     N10312   0.508   3.023  15.374 -0.1909 -0.0560  0.0841
  697MPD2    H510313   0.503   2.981  15.282 -1.3174  1.4185 -0.5318
  697MPD2    N110314   0.313   2.612  15.492 -0.0876 -0.9236 -0.6746
  697MPD2    H710315   0.309   2.617  15.390 -3.1850  0.8395 -0.4569
  698TMC3    C110316   0.581   3.197  15.233 -0.4165 -0.3789 -0.3240
  698TMC3    C210317   0.678   3.297  15.219 -0.1889  0.0066 -0.9414
  698TMC3    C310318   0.704   3.341  15.091  0.3353  0.3246  0.1594
  698TMC3    C410319   0.509   3.146  15.124 -0.1458 -0.1762  0.7500
  698TMC3    C510320   0.546   3.193  14.997  0.3136 -0.1694  0.2919
  698TMC3    C610321   0.626   3.304  14.982  0.8112  0.6347 -0.1040
  698TMC3     C10322   0.555   3.151  15.368  0.7206  0.6015  0.8161
  698TMC3     O10323   0.589   3.220  15.465  0.8378 -0.9275  0.1493
  698TMC3     H10324   0.755   3.299  15.297 -1.7736  0.0025  0.6261
  698TMC3    H110325   0.425   3.079  15.137 -0.1070  0.0544  2.2873
  698TMC3    H210326   0.638   3.355  14.887  0.8073 -0.0803 -0.4831
  698TMC3    C710327   0.498   3.130  14.873  0.1931 -0.9923 -0.0167
  698TMC3    C810328   0.789   3.452  15.078 -0.2331  0.4701  0.6368
  698TMC3    O110329   0.508   3.193  14.767 -0.1783 -0.7109  0.5056
  698TMC3    O210330   0.854   3.462  14.976 -0.2714  0.0148  0.2156
  699TMC3    C110331   4.658   1.175  12.927  0.4530  1.1299  0.7431
  699TMC3    C210332   4.693   1.054  12.982  0.2065 -0.2456  0.0931
  699TMC3    C310333   4.607   1.006  13.080  0.2957 -0.1547  0.3908
  699TMC3    C410334   4.553   1.246  12.975  0.0242 -0.0752  0.1221
  699TMC3    C510335   4.485   1.203  13.084  0.7683 -0.0173  0.6471
  699TMC3    C610336   4.513   1.083  13.142  0.2421 -0.0864  0.2872
  699TMC3     C10337   0.012   1.240  12.817 -0.3230  0.3211 -0.5258
  699TMC3     O10338   4.670   1.318  12.749  0.1189  0.0857  0.0898
  699TMC3     H10339   0.048   0.995  12.930  0.0358 -1.6384  1.4137
  699TMC3    H110340   4.527   1.345  12.937  0.3438  0.2332  0.7044
  699TMC3    H210341   4.451   1.044  13.221  1.8360 -0.9084  1.1340
  699TMC3    C710342   4.363   1.276  13.134 -0.0711  0.2005 -0.5744
  699TMC3    C810343   4.645   0.886  13.155  0.2551 -0.1184 -0.4006
  699TMC3    O110344   4.340   1.255  13.253  0.3088  0.0132  0.3927
  699TMC3    O210345   4.552   0.829  13.210  0.6291  0.5081  0.2133
  700TMC3    C110346   4.389   3.756  17.094  0.3424 -0.2494  0.5738
  700TMC3    C210347   4.432   3.633  17.119 -0.1496  0.4679  0.6538
  700TMC3    C310348   4.430   3.582  17.245  0.2154 -0.0730 -0.5767
  700TMC3    C410349   4.346   3.839  17.193 -0.0306  0.2807 -0.3596
  700TMC3    C510350   4.341   3.786  17.317 -0.2100  0.6466  0.1485
  700TMC3    C610351   4.383   3.661  17.342  0.3293  0.3577 -0.2865
  700TMC3     C10352   4.383   3.806  16.959 -0.4152 -0.8420 -0.1993
  700TMC3     O10353   4.347   3.726  16.869  0.1696 -0.4088  0.0738
  700TMC3     H10354   4.458   3.572  17.033 -0.0916  3.2644 -1.2761
  700TMC3    H110355   4.303   3.936  17.175 -0.4043  0.0870 -0.5106
  700TMC3    H210356   4.362   3.617  17.438  0.0236  0.2080 -0.4234
  700TMC3    C710357   4.277   3.878  17.412  0.3042 -0.5378 -0.8126
  700TMC3    C810358   4.528   3.486  17.284 -0.1422 -1.0031 -0.4162
  700TMC3    O110359   4.309   3.994  17.398  0.6787 -0.3790 -0.0216
  700TMC3    O210360   4.572   3.416  17.194 -0.3592  0.0635 -0.2751
  701TMC3    C110361   4.280   2.154  15.505 -0.4077  0.2144  0.0398
  701TMC3    C210362   4.233   2.166  15.378 -0.1511  0.7286  0.5288
  701TMC3    C310363   4.317   2.208  15.287 -0.1750 -0.7157  0.6742
  701TMC3    C410364   4.410   2.198  15.539 -0.2642  0.1001  0.2741
  701TMC3    C510365   4.489   2.236  15.432 -0.6641 -1.3427  0.2785
  701TMC3    C610366   4.440   2.248  15.311 -0.5104 -0.3417 -0.2679
  701TMC3     C10367   4.196   2.122  15.615  0.1660  0.2818  0.0626
  701TMC3     O10368   4.248   2.083  15.718 -0.7367 -0.3601 -0.2590
  701TMC3     H10369   4.136   2.121  15.357 -0.1773  1.3410 -0.5984
  701TMC3    H110370   4.457   2.172  15.633  0.0125 -1.2591 -0.2395
  701TMC3    H210371   4.497   2.300  15.235 -0.4410 -1.4648 -0.9798
  701TMC3    C710372   4.593   2.329  15.458  0.0977 -0.1227 -0.8767
  701TMC3    C810373   4.266   2.236  15.154  0.2430  0.4654 -0.9385
  701TMC3    O110374   4.649   2.388  15.365 -0.0781 -0.4588 -0.1780
  701TMC3    O210375   4.345   2.222  15.060 -0.0491  0.3683 -0.2956
  702MPD2     C10376   2.624   0.185  10.368 -0.1152  0.4447 -0.1224
  702MPD2    C110377   2.723   0.241  10.448  0.2627 -0.3567  0.3852
  702MPD2    C210378   2.795   0.346  10.397 -0.5658 -0.4154 -0.2655
  702MPD2    C310379   2.767   0.394  10.270 -0.6373 -0.2394  0.5009
  702MPD2    C410380   2.671   0.337  10.191 -0.1153 -0.7735  1.1402
  702MPD2    C510381   2.610   0.230  10.238 -0.3210  0.0536 -0.4678
  702MPD2     H10382   2.868   0.404  10.452 -2.2278  1.7593 -0.3572
  702MPD2    H110383   2.654   0.358  10.086  0.4657  0.9225  1.3783
  702MPD2    H210384   2.560   0.104  10.400  0.7775  0.5779  1.9977
  702MPD2    H310385   2.545   0.176  10.172 -0.6764 -1.5841  1.2252
  702MPD2     N10386   2.849   0.496  10.219  0.0305  0.2037  0.0038
  702MPD2    H510387   2.920   0.527  10.285  0.1930  0.8478 -0.4711
  702MPD2    N110388   2.756   0.195  10.582  0.1031  0.0866  0.0811
  702MPD2    H710389   2.839   0.241  10.619 -1.5440  0.8142  2.9054
  703TMC3    C110390   2.893   0.697  10.117 -0.2787 -0.1240  0.0063
  703TMC3    C210391   2.821   0.815  10.126 -0.3145 -0.1245 -0.6239
  703TMC3    C310392   2.890   0.931  10.161 -0.2124  0.4386  0.3620
  703TMC3    C410393   3.023   0.693  10.144  0.3202  0.3212 -0.4066
  703TMC3    C510394   3.089   0.812  10.153 -0.0117 -0.0232  0.2141
  703TMC3    C610395   3.022   0.934  10.159  0.2629 -0.2840  0.0262
  703TMC3     C10396   2.817   0.576  10.114  0.1624  0.1245  0.1164
  703TMC3     O10397   2.711   0.593  10.059  0.1337 -0.0639 -0.1747
  703TMC3     H10398   2.713   0.819  10.122 -0.4706 -1.2501  1.9331
  703TMC3    H110399   3.073   0.596  10.145 -0.7048 -0.1903  1.4315
  703TMC3    H210400   3.085   1.021  10.177  2.4530 -1.6338 -1.1545
  703TMC3    C710401   3.237   0.812  10.160  0.1366 -0.1450 -0.8173
  703TMC3    C810402   2.827   1.042  10.247 -0.3761 -0.4297 -0.4252
  703TMC3    O110403   3.288   0.921  10.144  0.0949 -0.1961 -0.4167
  703TMC3    O210404   2.862   1.159  10.230 -0.4963 -0.1503 -0.3812
  704TMC3    C110405   1.001   3.489  11.889  0.0018 -0.1071  0.4377
  704TMC3    C210406   1.131   3.484  11.837  0.0978  0.5165 -0.5573
  704TMC3    C310407   1.230   3.435  11.922 -0.2190 -0.2534  0.1218
  704TMC3    C410408   0.971   3.442  12.015 -0.8734  0.0110 -0.6103
  704TMC3    C510409   1.066   3.376  12.084 -0.2218  0.2868  0.0118
  704TMC3    C610410   1.197   3.380  12.041 -0.5950 -0.9219  0.1941
  704TMC3     C10411   0.895   3.556  11.816 -0.2626 -0.4121  0.0944
  704TMC3     O10412   0.784   3.549  11.862 -0.5817 -0.9176 -0.3512
  704TMC3     H10413   1.149   3.523  11.737  0.2615  1.8271 -0.0158
  704TMC3    H110414   0.882   3.483  12.063 -1.2263 -0.7101 -0.6529
  704TMC3    H210415   1.279   3.348  12.105 -0.1161  0.5270  0.3052
  704TMC3    C710416   1.030   3.329  12.222 -0.2856 -0.6459  0.0275
  704TMC3    C810417   1.352   3.391  11.862  0.5831  0.2379  0.0654
  704TMC3    O110418   0.943   3.384  12.290  0.3887  0.4398  0.1691
  704TMC3    O210419   1.414   3.313  11.933 -0.1797 -0.0056  0.5514
  705MPD2     C10420   0.645   1.031  16.305  0.0227  0.0057 -0.4888
  705MPD2    C110421   0.736   1.044  16.414  0.2271  0.1521 -1.0232
  705MPD2    C210422   0.683   1.097  16.531 -0.3860 -0.6553 -0.7043
  705MPD2    C310423   0.548   1.139  16.538 -0.3948  0.5899  0.6363
  705MPD2    C410424   0.462   1.105  16.432 -0.6611  0.9724 -0.7550
  705MPD2    C510425   0.513   1.059  16.321  0.0332  0.5726 -0.3033
  705MPD2     H10426   0.756   1.106  16.611 -0.4400 -1.7523 -0.5305
  705MPD2    H110427   0.357   1.131  16.439 -0.9819 -0.4470 -0.1246
  705MPD2    H210428   0.686   0.991  16.212  1.7806 -1.2300  0.8041
  705MPD2    H310429   0.448   1.015  16.246  1.7682 -2.1895 -0.1914
  705MPD2     N10430   0.494   1.202  16.653 -0.1536  0.3541  0.3204
  705MPD2    H510431   0.397   1.231  16.651  0.0263  1.0414  1.9381
  705MPD2    N110432   0.872   1.010  16.409  0.2711 -0.2354 -0.3729
  705MPD2    H710433   0.929   1.035  16.489 -1.1710 -2.0307  1.1939
  706TMC3    C110434   1.285   0.899  16.208  0.7194  0.0616 -0.3228
  706TMC3    C210435   1.350   0.998  16.265 -0.0690 -0.3165 -0.8134
  706TMC3    C310436   1.278   1.088  16.338  0.3418  0.9870  0.1421
  706TMC3    C410437   1.154   0.862  16.243  0.8198  0.9344  0.0874
  706TMC3    C510438   1.083   0.946  16.327  0.5291  0.4117 -0.2819
  706TMC3    C610439   1.144   1.067  16.356  0.1652  0.3625  0.3471
  706TMC3     C10440   1.371   0.789  16.161  0.3885 -0.1211  0.4142
  706TMC3     O10441   1.469   0.769  16.228  0.1061  0.0869 -0.6461
  706TMC3     H10442   1.455   1.016  16.244  0.6903 -1.3618  2.0419
  706TMC3    H110443   1.112   0.774  16.196 -1.3827  0.9977  1.8919
  706TMC3    H210444   1.073   1.139  16.395 -1.4155 -0.4526 -1.0499
  706TMC3    C710445   0.940   0.938  16.311  0.3913 -0.1809 -0.1509
  706TMC3    C810446   1.301   1.220  16.284  0.2104  0.3741  0.0123
  706TMC3    O110447   0.889   0.859  16.228 -0.7160  0.4716 -0.1189
  706TMC3    O210448   1.303   1.230  16.162  0.6412 -0.2141 -0.0058
  707TMC3    C110449   2.757   0.208   1.732  0.0273 -0.1793  0.0613
  707TMC3    C210450   2.785   0.080   1.760 -0.2679 -0.1314  0.7393
  707TMC3    C310451   2.678   4.718   1.808  0.8688 -0.0730  0.2958
  707TMC3    C410452   2.636   0.259   1.752  0.2828  0.1362 -0.5087
  707TMC3    C510453   2.533   0.179   1.799 -0.8209  0.6731 -0.6959
  707TMC3    C610454   2.553   0.041   1.819  0.0166  0.0670  0.4786
  707TMC3     C10455   2.846   0.277   1.648 -0.2187 -0.2544  0.0418
  707TMC3     O10456   2.897   0.219   1.554 -0.3811 -0.1278  0.4710
  707TMC3     H10457   2.889   0.052   1.763  0.0590  0.9197 -0.9167
  707TMC3    H110458   2.616   0.364   1.732 -1.7733  0.0385  1.0027
  707TMC3    H210459   2.470   4.694   1.839 -0.0871 -0.1470 -0.6524
  707TMC3    C710460   2.404   0.235   1.832 -0.4519 -0.0025  0.2669
  707TMC3    C810461   2.706   4.580   1.865 -0.6740 -0.0834 -1.1122
  707TMC3    O110462   2.328   0.151   1.871 -0.0020 -0.3300  0.2341
  707TMC3    O210463   2.613   4.515   1.917 -0.0498 -0.3313 -0.3673
  708MPD2     C10464   4.236   4.584  13.588  0.3161 -0.5131 -0.2598
  708MPD2    C110465   4.264   4.624  13.713  0.4373  0.3243 -0.1413
  708MPD2    C210466   4.393   4.590  13.767  0.2193 -0.2149 -0.1385
  708MPD2    C310467   4.485   4.508  13.690 -0.4117  0.3574 -0.0045
  708MPD2    C410468   4.433   4.441  13.576  0.0847 -0.3168  0.1512
  708MPD2    C510469   4.312   4.484  13.528  0.5401  0.0907 -0.2418
  708MPD2     H10470   4.423   4.630  13.863  1.0408 -2.9140  0.7143
  708MPD2    H110471   4.481   4.367  13.512  1.9398 -0.7237  1.9952
  708MPD2    H210472   4.135   4.592  13.550 -1.0806 -1.0021  3.3516
  708MPD2    H310473   4.277   4.443  13.434 -2.4106 -0.7285  1.2181
  708MPD2     N10474   4.603   4.464  13.738  0.6987  0.5279 -0.1282
  708MPD2    H510475   4.643   4.381  13.697  2.5194  1.4535 -0.2070
  708MPD2    N110476   4.162   4.700  13.773 -0.2950  0.7252 -0.2222
  708MPD2    H710477   4.072   4.689  13.726 -0.3917  0.6666 -0.0240
  709TMC3    C110478   4.061   0.055  13.972  0.4126  0.8217  0.5186
  709TMC3    C210479   3.945   0.010  13.920 -0.5168  0.8202  0.4785
  709TMC3    C310480   3.875   4.628  13.982  0.1449  0.2763 -0.3642
  709TMC3    C410481   4.100   0.006  14.088  0.8292  0.0156  0.0804
  709TMC3    C510482   4.041   4.620  14.151 -0.3105 -0.0048 -0.5150
  709TMC3    C610483   3.926   4.572  14.096  0.0388  0.0911 -0.7241
  709TMC3     C10484   4.178   0.062  13.884 -0.3164 -0.1253 -0.2199
  709TMC3     O10485   4.283   0.093  13.935 -0.6224  0.3680 -0.2252
  709TMC3     H10486   3.906   0.056  13.829  1.5778  2.2727  0.3205
  709TMC3    H110487   4.197   0.038  14.125  0.7358  0.2616  0.1125
  709TMC3    H210488   3.874   4.490  14.143  0.0773  0.4074 -0.1289
  709TMC3    C710489   4.128   4.532  14.216  0.5067 -0.1020  0.0233
  709TMC3    C810490   3.733   4.616  13.950 -0.3388 -0.1810 -0.5751
  709TMC3    O110491   4.227   4.581  14.272 -0.1047  0.1283 -0.4212
  709TMC3    O210492   3.666   4.569  14.039  0.4525  0.1241 -0.6041
  710TMC3    C110493   0.237   1.081   0.695  0.5013 -0.1519 -0.5271
  710TMC3    C210494   0.292   1.047   0.576  0.0455  1.0283  0.4050
  710TMC3    C310495   0.401   0.961   0.576 -0.2245  0.1632  0.0478
  710TMC3    C410496   0.291   1.026   0.814 -0.4009 -0.1424  0.6668
  710TMC3    C510497   0.405   0.949   0.814 -0.3787  0.2014 -0.5150
  710TMC3    C610498   0.460   0.912   0.691 -0.2082 -0.8448  0.3948
  710TMC3     C10499   0.138   1.184   0.697  0.0497  0.0580  0.0119
  710TMC3     O10500   0.089   1.213   0.590 -0.0918 -0.1640 -0.5026
  710TMC3     H10501   0.252   1.073   0.479 -2.7563  0.1328  1.2980
  710TMC3    H110502   0.249   1.043   0.913 -0.4624  2.2656  0.2391
  710TMC3    H210503   0.546   0.846   0.685  0.2809 -0.1346 -0.3400
  710TMC3    C710504   0.477   0.928   0.938 -0.6323  0.9866  0.2545
  710TMC3    C810505   0.429   0.889   0.451  0.2747  0.0397  0.5463
  710TMC3    O110506   0.418   0.924   1.043  0.3364  0.4726 -0.1598
  710TMC3    O210507   0.535   0.828   0.439  0.2791 -0.1141 -0.6445
  711TMC3    C110508   0.099   1.460  15.107  0.3155  0.1883  0.1817
  711TMC3    C210509   0.161   1.365  15.186 -0.2975 -0.7197  1.2302
  711TMC3    C310510   0.196   1.410  15.311  0.4424  0.1686 -0.4352
  711TMC3    C410511   0.094   1.593  15.144  0.1906  0.3567 -0.0786
  711TMC3    C510512   0.152   1.636  15.264 -0.1097 -0.2229 -0.1344
  711TMC3    C610513   0.179   1.540  15.356  0.0767  0.5483  0.1454
  711TMC3     C10514   0.048   1.419  14.972 -0.0873  0.9102  0.0196
  711TMC3     O10515   4.695   1.499  14.913  0.4410 -0.1548 -0.3252
  711TMC3     H10516   0.157   1.261  15.158  0.9901 -0.7882  1.3002
  711TMC3    H110517   0.055   1.660  15.068 -0.1741  0.5485  0.2774
  711TMC3    H210518   0.207   1.564  15.458 -0.6740  0.3355  0.4076
  711TMC3    C710519   0.271   1.715  15.261  0.6629 -1.0421  0.3293
  711TMC3    C810520   0.311   1.340  15.371 -0.4610 -0.8472  0.1279
  711TMC3    O110521   0.344   1.703  15.359 -0.2788 -0.4165  0.0593
  711TMC3    O210522   0.311   1.217  15.367 -0.3612  0.3405  0.1165
  712MPD2     C10523   2.112   3.171  13.570 -0.0124 -0.1505  0.5670
  712MPD2    C110524   1.988   3.231  13.545 -0.0594 -0.5022  0.1810
  712MPD2    C210525   1.980   3.347  13.468 -0.3653  0.0468 -0.2307
  712MPD2    C310526   2.095   3.409  13.421 -0.4542  0.1416  0.2867
  712MPD2    C410527   2.217   3.361  13.465 -0.3523  0.3564  0.2060
  712MPD2    C510528   2.227   3.241  13.533 -0.1160 -0.4077 -0.3066
  712MPD2     H10529   1.881   3.379  13.439  0.4105  0.5679 -2.3355
  712MPD2    H110530   2.309   3.417  13.449  0.5272 -0.0878  3.6784
  712MPD2    H210531   2.116   3.074  13.618 -1.9715 -1.1266 -1.2710
  712MPD2    H310532   2.321   3.196  13.561  0.3191 -0.5708 -2.0826
  712MPD2     N10533   2.098   3.531  13.357 -0.2506  0.1381 -0.6487
  712MPD2    H510534   2.189   3.575  13.346 -0.5118  1.1940  1.4964
  712MPD2    N110535   1.864   3.172  13.585 -0.5357 -0.2272  0.1202
  712MPD2    H710536   1.786   3.227  13.553 -1.1352 -0.6654  0.8317
  713TMC3    C110537   2.032   3.740  13.252 -0.0949  0.9879  0.1148
  713TMC3    C210538   2.130   3.814  13.317 -0.4504  0.5691 -0.7942
  713TMC3    C310539   2.145   3.949  13.288  0.3781 -0.0202  0.2533
  713TMC3    C410540   1.938   3.808  13.171 -0.1228  0.5962  0.1244
  713TMC3    C510541   1.956   3.943  13.151  1.2277 -0.1582 -0.3913
  713TMC3    C610542   2.068   4.012  13.200 -0.1918  0.0148  0.0239
  713TMC3     C10543   1.993   3.606  13.305 -0.0189  0.3884  0.2337
  713TMC3     O10544   1.875   3.574  13.281 -0.0519 -0.1091 -0.0221
  713TMC3     H10545   2.198   3.756  13.378 -1.2185 -0.1006 -0.5803
  713TMC3    H110546   1.857   3.751  13.126  1.8645 -0.9702 -1.5055
  713TMC3    H210547   2.082   4.119  13.189  0.2242 -0.3107 -2.6684
  713TMC3    C710548   1.855   4.020  13.099  0.1225  0.3821 -0.4766
  713TMC3    C810549   2.262   4.024  13.336  0.2296  0.3758  0.4846
  713TMC3    O110550   1.893   4.126  13.055  0.0129 -0.4913  0.1362
  713TMC3    O210551   2.273   4.135  13.295 -0.5920 -0.2981  0.1232
  714MPD2     C10552   3.370   1.738   1.742  0.2296  0.5919 -0.0581
  714MPD2    C110553   3.446   1.703   1.637  0.1324  0.3719 -0.4977
  714MPD2    C210554   3.390   1.712   1.508  0.5996  0.2838  0.1292
  714MPD2    C310555   3.263   1.765   1.492 -0.8412  0.0387 -0.2970
  714MPD2    C410556   3.192   1.802   1.600 -0.1013 -0.1019 -0.5327
  714MPD2    C510557   3.248   1.794   1.724  0.6563  0.0461  0.5462
  714MPD2     H10558   3.448   1.672   1.426  0.7355  1.6081 -0.4184
  714MPD2    H110559   3.093   1.844   1.597 -0.9384 -2.0296  0.3144
  714MPD2    H210560   3.410   1.744   1.843  1.6602  0.1130 -0.5958
  714MPD2    H310561   3.180   1.822   1.803  0.9978 -0.0929  0.8938
  714MPD2     N10562   3.211   1.781   1.364 -0.0176 -0.1053  0.4173
  714MPD2    H510563   3.268   1.756   1.284  1.4921  1.0998  1.1270
  714MPD2    N110564   3.583   1.674   1.659 -0.1628 -0.0337  0.0132
  714MPD2    H710565   3.611   1.656   1.755  1.4387  2.6990  0.0627
  715TMC3    C110566   3.824   1.634   1.614 -0.1912 -0.2586 -0.5877
  715TMC3    C210567   3.904   1.570   1.517 -0.3432  0.1555 -0.6752
  715TMC3    C310568   4.038   1.577   1.541 -0.3384 -0.5602  0.2542
  715TMC3    C410569   3.869   1.683   1.731  0.5480  0.0613 -0.2081
  715TMC3    C510570   4.002   1.684   1.749  0.0167  0.1048  0.0904
  715TMC3    C610571   4.086   1.635   1.653 -0.2234  0.1922 -0.3567
  715TMC3     C10572   3.686   1.660   1.567 -0.0381  0.5647 -0.5439
  715TMC3     O10573   3.674   1.676   1.445  0.1582  0.0074 -0.4590
  715TMC3     H10574   3.859   1.517   1.434 -0.9642 -2.5825  1.4125
  715TMC3    H110575   3.801   1.744   1.790 -0.1164 -2.3770  1.5315
  715TMC3    H210576   4.192   1.652   1.668  0.0331 -1.9245  0.3207
  715TMC3    C710577   4.058   1.732   1.868  0.2919 -0.3084 -0.0466
  715TMC3    C810578   4.124   1.520   1.447 -0.0580  0.2205  1.1496
  715TMC3    O110579   4.180   1.745   1.879  0.0455 -0.1605  0.0171
  715TMC3    O210580   4.092   1.521   1.331 -0.0974  0.2894  0.3242
  716MPD2     C10581   3.633   4.230  10.007  0.9986 -0.3561  0.7991
  716MPD2    C110582   3.674   4.291   9.897 -0.0779  0.0966 -1.1347
  716MPD2    C210583   3.712   4.217   9.786 -0.5948 -0.4036  0.0380
  716MPD2    C310584   3.713   4.079   9.793 -0.0170  0.0805 -0.6028
  716MPD2    C410585   3.675   4.018   9.909  0.1758  0.0505 -0.4320
  716MPD2    C510586   3.638   4.096  10.016  0.2183 -0.2585  0.5854
  716MPD2     H10587   3.741   4.269   9.696  0.6461 -0.1860  0.5638
  716MPD2    H110588   3.665   3.910   9.911 -0.1699  0.1393  2.2391
  716MPD2    H210589   3.609   4.291  10.094  2.0277 -1.0843  1.5921
  716MPD2    H310590   3.612   4.055  10.113 -1.0511 -1.7554 -0.3804
  716MPD2     N10591   3.740   4.016   9.668  0.0416  0.3437  0.4756
  716MPD2    H510592   3.760   4.080   9.592 -0.6722 -1.3386 -1.1057
  716MPD2    N110593   3.666   4.439   9.897  0.5899  0.0546 -0.1948
  716MPD2    H710594   3.612   4.482   9.971 -1.6785 -0.8955 -1.3322
  717TMC3    C110595   3.740   3.858   9.503  0.6961 -0.6556  0.0170
  717TMC3    C210596   3.641   3.928   9.440 -0.6148  0.8519 -0.2470
  717TMC3    C310597   3.605   3.880   9.319  0.8461  0.4613 -0.5413
  717TMC3    C410598   3.793   3.744   9.467 -0.8818 -0.4573 -0.3214
  717TMC3    C510599   3.759   3.705   9.337  0.0775 -0.5384 -0.1283
  717TMC3    C610600   3.664   3.775   9.263  0.2415 -0.0081 -0.1864
  717TMC3     C10601   3.754   3.881   9.645 -0.0409  0.3171 -0.0892
  717TMC3     O10602   3.728   3.788   9.720  0.1747 -1.0588  0.0664
  717TMC3     H10603   3.589   4.016   9.475 -0.8565  1.4033 -2.0255
  717TMC3    H110604   3.871   3.699   9.527 -0.3873 -0.1398 -0.7305
  717TMC3    H210605   3.631   3.731   9.169  0.5659 -2.4406  0.8427
  717TMC3    C710606   3.840   3.603   9.272  0.0169  0.5720 -0.4187
  717TMC3    C810607   3.482   3.930   9.258 -0.4448  0.8143  0.4677
  717TMC3    O110608   3.870   3.510   9.344  0.2906 -0.2731 -0.4946
  717TMC3    O210609   3.398   3.983   9.332  0.3793 -0.5385  0.3507
  718MPD2     C10610   3.043   3.360  12.385  0.3671 -0.1870 -0.0973
  718MPD2    C110611   2.951   3.456  12.371  0.5264 -0.4049 -0.0538
  718MPD2    C210612   2.860   3.454  12.268  0.0814  0.8193  0.2876
  718MPD2    C310613   2.857   3.351  12.177  0.5637 -0.3858 -0.4987
  718MPD2    C410614   2.929   3.236  12.209 -0.1180 -0.2018  0.3354
  718MPD2    C510615   3.018   3.245  12.314 -0.0835  0.3134 -0.3519
  718MPD2     H10616   2.795   3.541  12.264  1.1145  1.6023  0.3817
  718MPD2    H110617   2.927   3.141  12.158 -0.1227 -0.4322  0.7645
  718MPD2    H210618   3.116   3.362  12.466  2.1021 -0.8766 -1.6446
  718MPD2    H310619   3.083   3.161  12.334  1.3293  1.5169  0.0823
  718MPD2     N10620   2.766   3.362  12.076  0.6093 -0.3381 -0.6970
  718MPD2    H510621   2.714   3.449  12.074  0.4570 -0.4055  0.7762
  718MPD2    N110622   2.954   3.573  12.452  0.2382  0.7650  0.0819
  718MPD2    H710623   2.871   3.630  12.455 -0.6935 -0.6232  0.5915
  719TMC3    C110624   3.012   3.738  12.600 -0.3254  0.3288 -0.1334
  719TMC3    C210625   2.882   3.766  12.594 -0.1168  0.4214 -0.4422
  719TMC3    C310626   2.837   3.876  12.525 -0.3992 -0.1810  0.2874
  719TMC3    C410627   3.097   3.824  12.550  0.4712  0.0220 -0.9291
  719TMC3    C510628   3.055   3.943  12.492  0.3830 -0.1996  1.4458
  719TMC3    C610629   2.924   3.970  12.480 -0.9042 -0.2326  0.5348
  719TMC3     C10630   3.046   3.610  12.547  0.3967  0.2614  0.1261
  719TMC3     O10631   3.157   3.562  12.571  0.6161 -0.2648 -0.1070
  719TMC3     H10632   2.820   3.690  12.640 -0.2384  0.0523 -1.2255
  719TMC3    H110633   3.201   3.795  12.541  0.3843 -0.9741  1.3576
  719TMC3    H210634   2.892   4.059  12.428  2.6489  0.1407 -1.0213
  719TMC3    C710635   3.154   4.029  12.429 -0.1595 -0.9235  0.0523
  719TMC3    C810636   2.730   3.839  12.431  0.7218 -0.3119 -0.5952
  719TMC3    O110637   3.258   3.970  12.403 -0.0362 -0.9692 -0.1957
  719TMC3    O210638   2.713   3.719  12.427  0.4241  0.5023 -0.2745
  720MPD2     C10639   1.123   0.536  14.382  0.5150  0.1357  0.1876
  720MPD2    C110640   1.232   0.471  14.319  0.0843 -0.7314  0.0566
  720MPD2    C210641   1.306   0.384  14.394 -0.3149  0.7040  0.0790
  720MPD2    C310642   1.288   0.364  14.529 -0.2865  0.4256  0.6676
  720MPD2    C410643   1.184   0.434  14.591  0.1230  0.5983  0.3191
  720MPD2    C510644   1.103   0.509  14.511  0.1281 -0.1739 -0.6244
  720MPD2     H10645   1.386   0.324  14.353 -0.0465  0.1089  1.4472
  720MPD2    H110646   1.170   0.432  14.698  0.5084 -2.0661  0.3193
  720MPD2    H210647   1.053   0.598  14.326 -0.3926 -1.2559 -0.2191
  720MPD2    H310648   1.027   0.564  14.565  1.8214 -1.6246  3.2799
  720MPD2     N10649   1.390   0.285  14.593 -0.1810 -0.4311  0.0147
  720MPD2    H510650   1.462   0.237  14.539 -1.5135  0.4373 -2.5148
  720MPD2    N110651   1.264   0.483  14.182 -0.0387  0.0237  0.3313
  720MPD2    H710652   1.337   0.422  14.148  0.4144  0.9396 -0.3577
  721TMC3    C110653   1.512   0.189  14.776  1.0307  0.4917 -0.1722
  721TMC3    C210654   1.509   0.138  14.901  0.1121  0.6297 -0.0464
  721TMC3    C310655   1.621   0.083  14.943  0.5545 -0.0755  0.4143
  721TMC3    C410656   1.623   0.185  14.695 -1.0070  0.5086 -0.6345
  721TMC3    C510657   1.723   0.103  14.736  0.3893 -0.0552  0.9038
  721TMC3    C610658   1.731   0.052  14.862 -0.6266  0.9742  0.5485
  721TMC3     C10659   1.392   0.256  14.727  0.5187 -0.0945  0.0891
  721TMC3     O10660   1.309   0.293  14.810 -1.0307 -0.7270  0.4311
  721TMC3     H10661   1.422   0.154  14.964  0.2254 -0.8242  0.4780
  721TMC3    H110662   1.624   0.232  14.598  1.1578  2.5249  0.3745
  721TMC3    H210663   1.814   4.710  14.895  1.8526  3.5527 -0.8594
  721TMC3    C710664   1.823   0.073  14.635  0.1541 -0.0171  0.3320
  721TMC3    C810665   1.621   0.042  15.086  0.7195  0.4786 -0.8044
  721TMC3    O110666   1.824   0.144  14.533 -0.0200  0.5177  0.1524
  721TMC3    O210667   1.519   0.035  15.150  0.3236 -0.0493  0.2924
  722MPD2     C10668   0.814   3.446  13.289  0.4190  0.1049 -0.1577
  722MPD2    C110669   0.728   3.545  13.341 -0.1306 -0.8218  0.6147
  722MPD2    C210670   0.606   3.505  13.399  0.0041  0.4826  0.2628
  722MPD2    C310671   0.577   3.378  13.421 -0.8955 -0.3222 -0.7571
  722MPD2    C410672   0.661   3.277  13.377  0.0930  0.1003  0.6224
  722MPD2    C510673   0.775   3.315  13.316  0.0173 -0.1743 -0.4285
  722MPD2     H10674   0.539   3.577  13.445 -1.0754  0.6646 -1.5989
  722MPD2    H110675   0.638   3.171  13.382  0.0743  0.1134  0.8323
  722MPD2    H210676   0.907   3.466  13.238  0.1283 -0.9071 -1.0847
  722MPD2    H310677   0.835   3.234  13.277 -0.0590 -0.5850  0.3110
  722MPD2     N10678   0.455   3.347  13.484  0.2590 -0.3752 -0.2809
  722MPD2    H510679   0.389   3.424  13.494  0.6237 -0.2846  1.4908
  722MPD2    N110680   0.760   3.678  13.334 -0.5074 -0.3084  0.1615
  722MPD2    H710681   0.678   3.739  13.333 -0.8488 -0.7715 -0.1755
  723TMC3    C110682   0.291   3.199  13.607 -0.7832  0.3114  0.4057
  723TMC3    C210683   0.263   3.095  13.691  0.2276  0.2371 -0.2995
  723TMC3    C310684   0.136   3.059  13.729  0.4929  0.3087  0.6203
  723TMC3    C410685   0.185   3.271  13.550 -0.1162 -0.4732 -0.7297
  723TMC3    C510686   0.060   3.233  13.587 -0.1270  0.2785 -0.2641
  723TMC3    C610687   0.031   3.130  13.674  0.1628  0.6677 -0.9803
  723TMC3     C10688   0.426   3.214  13.541  0.6778  0.3425 -0.1508
  723TMC3     O10689   0.505   3.119  13.561  0.0147  0.4521  0.0253
  723TMC3     H10690   0.341   3.023  13.715 -2.5005 -2.3232  0.8631
  723TMC3    H110691   0.200   3.336  13.465  1.7035 -0.9926 -0.7885
  723TMC3    H210692   4.648   3.103  13.694  0.8931 -1.0188  0.4726
  723TMC3    C710693   4.680   3.252  13.485  0.1211 -0.4376  0.2905
  723TMC3    C810694   0.117   2.916  13.734  0.1665 -0.0322  0.1157
  723TMC3    O110695   4.613   3.149  13.467 -0.1969 -0.1375 -0.1380
  723TMC3    O210696   0.181   2.842  13.805  0.1993  0.0694 -0.6702
  724TMC3    C110697   0.230   1.813   9.311  0.1368  0.7207 -0.5805
  724TMC3    C210698   0.299   1.783   9.422 -0.1154 -0.5640 -0.1713
  724TMC3    C310699   0.396   1.871   9.458  0.5997  0.6923  0.4285
  724TMC3    C410700   0.249   1.936   9.249 -0.4554 -0.1874 -1.5354
  724TMC3    C510701   0.355   2.013   9.289  0.4058  0.0432  0.5496
  724TMC3    C610702   0.435   1.992   9.400 -0.1694  0.4933 -0.3115
  724TMC3     C10703   0.101   1.753   9.281  0.4405  0.4967  0.6255
  724TMC3     O10704   0.023   1.806   9.197  0.3543  0.1129  0.1024
  724TMC3     H10705   0.270   1.708   9.494 -1.7448 -0.3088 -0.5551
  724TMC3    H110706   0.188   1.959   9.162 -0.7934 -0.7155 -1.4408
  724TMC3    H210707   0.523   2.050   9.424  1.7640 -1.2578 -3.1804
  724TMC3    C710708   0.402   2.129   9.210  0.5376  0.3490  0.2603
  724TMC3    C810709   0.451   1.843   9.590 -0.7710 -0.2106  0.7079
  724TMC3    O110710   0.516   2.164   9.227 -0.0750 -0.0072  0.4491
  724TMC3    O210711   0.439   1.730   9.633  0.3033 -0.6804 -0.0629
  725TMC3    C110712   1.945   0.502  12.886 -0.3013 -0.0162  0.0688
  725TMC3    C210713   1.818   0.447  12.910 -0.4458 -0.3144 -0.5215
  725TMC3    C310714   1.756   0.366  12.817 -0.5985 -0.1739  0.5290
  725TMC3    C410715   2.022   0.449  12.782 -0.2262 -0.2867 -0.1934
  725TMC3    C510716   1.956   0.364  12.690 -0.1877  0.1802 -0.4264
  725TMC3    C610717   1.831   0.318  12.715  0.1456 -0.2126 -0.0898
  725TMC3     C10718   2.023   0.572  12.988  0.8596  0.1756  0.1041
  725TMC3     O10719   2.131   0.624  12.953 -0.3558 -0.0912 -0.2296
  725TMC3     H10720   1.760   0.484  12.994  1.6625  0.0893  0.7395
  725TMC3    H110721   2.120   0.487  12.757 -0.0370 -0.4895  0.2463
  725TMC3    H210722   1.775   0.264  12.639  0.7261 -0.4079 -0.3730
  725TMC3    C710723   2.037   0.305  12.589  0.0689 -0.0986 -0.7384
  725TMC3    C810724   1.613   0.369  12.803 -0.2350 -0.3176 -0.1220
  725TMC3    O110725   2.127   0.374  12.548  0.2540  0.2161  0.6515
  725TMC3    O210726   1.541   0.276  12.838 -0.2401  0.8830 -0.0004
  726MPD2     C10727   4.367   1.738   9.980 -0.3740 -0.3279 -0.4664
  726MPD2    C110728   4.294   1.841   9.932 -0.0792  0.5829 -0.1908
  726MPD2    C210729   4.153   1.831   9.945 -0.5297 -0.5072 -0.1024
  726MPD2    C310730   4.099   1.738  10.034 -0.2349 -0.6476  0.0774
  726MPD2    C410731   4.180   1.632  10.078  0.3865 -0.4442 -0.0599
  726MPD2    C510732   4.310   1.632  10.050 -0.1193 -0.0352  0.7403
  726MPD2     H10733   4.091   1.912   9.908 -1.3452 -0.2354  1.8923
  726MPD2    H110734   4.147   1.559  10.150  0.3849 -0.9059 -0.5293
  726MPD2    H210735   4.474   1.730   9.965 -0.2143 -0.3973  0.7721
  726MPD2    H310736   4.380   1.554  10.077  0.9970  0.8393  0.4078
  726MPD2     N10737   3.970   1.744  10.084 -0.2418 -0.0522 -0.7001
  726MPD2    H510738   3.947   1.668  10.147 -1.1020  0.2738 -0.6272
  726MPD2    N110739   4.350   1.951   9.861  0.4136 -0.2833 -0.6016
  726MPD2    H710740   4.293   1.998   9.792  0.0053 -0.1519 -0.1770
  727TMC3    C110741   4.518   2.113   9.831  0.1500 -0.6889  0.5097
  727TMC3    C210742   4.617   2.181   9.898  0.2515  0.4808  0.6205
  727TMC3    C310743   4.637   2.313   9.884 -0.1263 -0.1755 -0.7572
  727TMC3    C410744   4.437   2.182   9.743  0.5795  0.2096  0.2425
  727TMC3    C510745   4.453   2.316   9.725  0.2627  0.3143  0.1222
  727TMC3    C610746   4.559   2.387   9.796  0.0283 -0.2474  0.5798
  727TMC3     C10747   4.481   1.987   9.879  0.1477 -0.1611  0.5154
  727TMC3     O10748   4.566   1.952   9.964  0.3030  0.3342  0.5197
  727TMC3     H10749   4.695   2.126   9.950  0.0217  0.2119  0.6806
  727TMC3    H110750   4.377   2.126   9.672  0.7892  1.6210 -1.0527
  727TMC3    H210751   4.577   2.492   9.776 -2.0216  0.1788  0.9079
  727TMC3    C710752   4.388   2.391   9.615 -0.2829  0.0179  0.0341
  727TMC3    C810753   4.709   2.381   9.990 -1.1025 -0.2961 -0.3659
  727TMC3    O110754   4.427   2.501   9.591 -0.5431  0.0828  0.2271
  727TMC3    O210755   0.057   2.306  10.060 -0.1506 -0.0811 -0.2157
  728TMC3    C110756   4.185   0.520  15.331  0.2017  0.3933  0.2927
  728TMC3    C210757   4.309   0.569  15.327  0.1861  0.4816 -0.7109
  728TMC3    C310758   4.363   0.614  15.205 -0.6643 -0.6879  0.6470
  728TMC3    C410759   4.116   0.506  15.213  0.0707 -0.7247 -0.4516
  728TMC3    C510760   4.167   0.556  15.099 -0.6671 -0.4516  0.6792
  728TMC3    C610761   4.293   0.605  15.092  0.3756 -0.5540 -0.0335
  728TMC3     C10762   4.139   0.470  15.457 -0.2719 -0.0639 -0.9957
  728TMC3     O10763   4.221   0.463  15.548  0.0734 -0.1106 -0.3899
  728TMC3     H10764   4.369   0.586  15.416 -1.3986 -2.5566  0.9351
  728TMC3    H110765   4.010   0.483  15.215 -0.4822  1.9823  2.0738
  728TMC3    H210766   4.352   0.607  15.001 -0.9494 -0.6392 -0.9039
  728TMC3    C710767   4.079   0.552  14.980 -0.0409  0.0105 -0.8217
  728TMC3    C810768   4.484   0.690  15.215  0.1807 -0.1400 -0.4293
  728TMC3    O110769   3.970   0.498  14.999  0.2969  0.0037 -0.1320
  728TMC3    O210770   4.547   0.676  15.320 -0.4598 -0.2673  0.2346
  729MPD2     C10771   1.638   1.235  16.445  0.3797  0.3903  0.1371
  729MPD2    C110772   1.643   1.349  16.518 -0.2545  0.3670 -0.2732
  729MPD2    C210773   1.576   1.359  16.642  0.1667 -0.4017 -0.7120
  729MPD2    C310774   1.506   1.245  16.682  0.6711 -0.1609  0.0847
  729MPD2    C410775   1.509   1.127  16.613 -0.0059 -0.2000  0.6307
  729MPD2    C510776   1.581   1.121  16.498 -0.3980  0.3105  0.1369
  729MPD2     H10777   1.585   1.446  16.706  2.1225  0.4387 -2.1575
  729MPD2    H110778   1.467   1.032  16.644 -1.0723 -0.5872 -1.9861
  729MPD2    H210779   1.673   1.233  16.342  0.8292 -0.4854  0.3064
  729MPD2    H310780   1.602   1.034  16.437  1.1076  0.8890 -0.1813
  729MPD2     N10781   1.440   1.245  16.805  0.5698 -0.1029 -0.5924
  729MPD2    H510782   1.426   1.153  16.846  0.5422  0.7473  1.3030
  729MPD2    N110783   1.714   1.450  16.458 -0.6996 -0.4853  0.2878
  729MPD2    H710784   1.771   1.428  16.377 -0.8012 -1.6945  0.5363
  730TMC3    C110785   1.428   1.322  17.022 -0.5522  0.3683  0.0705
  730TMC3    C210786   1.520   1.220  17.056  0.1281 -0.0289  0.1727
  730TMC3    C310787   1.602   1.241  17.167  0.3286 -1.0467 -0.0556
  730TMC3    C410788   1.419   1.434  17.097 -0.3156 -0.7078  0.6307
  730TMC3    C510789   1.476   1.435  17.223 -1.1058  0.1338  0.2447
  730TMC3    C610790   1.569   1.338  17.258 -0.7196 -0.2127  0.2867
  730TMC3     C10791   1.410   1.354  16.876 -0.0575  0.2417  0.4092
  730TMC3     O10792   1.388   1.467  16.841  0.0976  0.1502  0.7783
  730TMC3     H10793   1.547   1.140  16.988  0.4514  0.0689  0.1842
  730TMC3    H110794   1.353   1.511  17.059  0.2379 -1.3723 -1.6661
  730TMC3    H210795   1.639   1.366  17.337  1.8837  0.6503 -2.3200
  730TMC3    C710796   1.516   1.567  17.261 -0.5286 -0.3081 -0.1124
  730TMC3    C810797   1.734   1.278  17.114 -0.5549  0.1018  0.3415
  730TMC3    O110798   1.553   1.637  17.165 -0.1098  0.4569 -0.5105
  730TMC3    O210799   1.768   1.381  17.160  0.0219  0.0088  0.0449
  731MPD2     C10800   1.398   0.314  12.209 -0.0823 -0.0182  0.4467
  731MPD2    C110801   1.476   0.211  12.165  0.6784  0.4712 -0.3953
  731MPD2    C210802   1.517   0.114  12.258 -0.4608  0.1408 -0.2653
  731MPD2    C310803   1.482   0.120  12.393 -1.0562 -1.2144 -0.0282
  731MPD2    C410804   1.405   0.227  12.433  0.2998 -0.2620 -0.1402
  731MPD2    C510805   1.373   0.325  12.340 -0.1977 -0.0229 -0.0415
  731MPD2     H10806   1.589   0.048  12.213  0.3035  0.7032  0.1301
  731MPD2    H110807   1.381   0.237  12.538  1.5584  0.2466  0.1018
  731MPD2    H210808   1.371   0.402  12.151 -1.0236 -0.8446 -0.3747
  731MPD2    H310809   1.321   0.412  12.380 -1.9418 -1.4254  0.7430
  731MPD2     N10810   1.532   0.018  12.476  0.3153 -0.2434  0.3162
  731MPD2    H510811   1.589   4.670  12.426  0.0054  0.6214 -1.2345
  731MPD2    N110812   1.505   0.209  12.026  0.0433  0.7153  0.0928
  731MPD2    H710813   1.474   0.288  11.970 -0.0714 -0.8271 -2.0013
  732TMC3    C110814   1.576   0.149  11.806 -0.9899 -0.0106 -0.2980
  732TMC3    C210815   1.491   0.236  11.735  0.8911  0.0633  1.0858
  732TMC3    C310816   1.505   0.238  11.597  0.2407  0.3065 -0.0081
  732TMC3    C410817   1.671   0.076  11.741 -0.4011  0.4414 -0.3106
  732TMC3    C510818   1.685   0.090  11.604 -0.5218 -0.2333 -1.5208
  732TMC3    C610819   1.610   0.179  11.533  0.1763 -0.1062 -0.1109
  732TMC3     C10820   1.572   0.114  11.944 -0.7045  0.0914  0.5298
  732TMC3     O10821   1.626   0.021  11.991 -0.2036  0.1617 -0.0565
  732TMC3     H10822   1.419   0.301  11.784 -0.9559  0.5332 -2.2604
  732TMC3    H110823   1.743   0.018  11.798 -0.8681  0.6347  0.4746
  732TMC3    H210824   1.609   0.180  11.425 -0.6955 -1.4957 -0.1110
  732TMC3    C710825   1.810   0.058  11.544 -0.0464  0.2208  0.0262
  732TMC3    C810826   1.387   0.273  11.513  0.4491 -0.7530 -0.2723
  732TMC3    O110827   1.810   0.034  11.428  0.4258  0.4557  0.3833
  732TMC3    O210828   1.395   0.298  11.397 -0.2431 -0.5524 -0.2222
  733TMC3    C110829   2.366   3.262  11.920  0.1701  0.4776  0.4216
  733TMC3    C210830   2.491   3.211  11.944 -0.0108  0.0978 -0.6565
  733TMC3    C310831   2.592   3.307  11.942 -0.1203  0.4661  0.3065
  733TMC3    C410832   2.339   3.393  11.906  0.3225  1.0624  0.1778
  733TMC3    C510833   2.441   3.483  11.911  0.1375 -0.1516  0.0013
  733TMC3    C610834   2.575   3.444  11.933 -0.2299 -0.1352 -1.0812
  733TMC3     C10835   2.253   3.191  11.993  0.3644 -0.9478  0.1407
  733TMC3     O10836   2.162   3.260  12.035 -0.1044  0.3309  0.3062
  733TMC3     H10837   2.517   3.114  11.984 -2.6238 -1.0393 -1.7008
  733TMC3    H110838   2.235   3.420  11.893  0.2242  0.0860 -1.0413
  733TMC3    H210839   2.659   3.507  11.909  0.0313  0.9264  2.5705
  733TMC3    C710840   2.397   3.623  11.935  0.1868  0.0640  0.0188
  733TMC3    C810841   2.720   3.261  11.997  0.4385  0.1069 -0.5337
  733TMC3    O110842   2.299   3.671  11.883 -0.4037 -0.5681 -0.2273
  733TMC3    O210843   2.758   3.144  11.989  0.3892  1.0482 -0.2467
  734MPD2     C10844   4.175   0.722  12.540  0.2230  0.2934 -0.2772
  734MPD2    C110845   4.268   0.626  12.492  0.6082 -0.3000  0.2536
  734MPD2    C210846   4.316   0.644  12.369 -0.0598 -0.0805 -0.2879
  734MPD2    C310847   4.301   0.756  12.293  0.4313  0.1438  0.2823
  734MPD2    C410848   4.210   0.851  12.338 -1.0662 -0.9985 -0.9616
  734MPD2    C510849   4.149   0.828  12.460 -1.6055  0.6352  0.4437
  734MPD2     H10850   4.383   0.573  12.321  1.2423  1.3403 -0.5859
  734MPD2    H110851   4.191   0.939  12.277 -0.0378 -0.5648 -0.6576
  734MPD2    H210852   4.123   0.719  12.635 -1.7958  0.2247 -1.3902
  734MPD2    H310853   4.085   0.902  12.507 -0.5485  1.4436  0.6102
  734MPD2     N10854   4.342   0.752  12.158  0.3693 -0.0424  0.4696
  734MPD2    H510855   4.382   0.664  12.126  0.8664  0.1526  0.5423
  734MPD2    N110856   4.290   0.511  12.568  0.3289  0.8440  0.2275
  734MPD2    H710857   4.245   0.520  12.659 -0.2535  1.0414 -0.0863
  735TMC3    C110858   4.365   0.290  12.617 -0.2553 -0.0771 -0.0300
  735TMC3    C210859   4.246   0.228  12.580 -0.2781  0.4068  0.8145
  735TMC3    C310860   4.230   0.101  12.559  0.5426 -0.1522  0.8349
  735TMC3    C410861   4.481   0.219  12.633 -0.0280  0.2273 -0.3221
  735TMC3    C510862   4.470   0.080  12.602 -0.1944 -0.1531 -0.0102
  735TMC3    C610863   4.347   0.022  12.574  0.2627  0.2672  0.1649
  735TMC3     C10864   4.381   0.413  12.540 -0.0334 -0.1996  0.2795
  735TMC3     O10865   4.462   0.408  12.449 -0.5409  0.1501  0.0221
  735TMC3     H10866   4.173   0.305  12.557 -1.0410  0.4090  3.2135
  735TMC3    H110867   4.576   0.271  12.634  0.8632 -1.3820  1.0736
  735TMC3    H210868   4.354   4.638  12.541 -1.3998 -0.2133  1.2805
  735TMC3    C710869   4.566   0.035  12.502  0.2194  0.1073 -0.5984
  735TMC3    C810870   4.170   0.067  12.433 -0.0611  0.1647 -0.1063
  735TMC3    O110871   4.520   4.712  12.393 -0.4910  0.5613  0.1352
  735TMC3    O210872   4.122   4.675  12.413 -0.0701  0.1540  0.5072
  736MPD2     C10873   0.199   4.689  12.559 -0.6614  0.2929 -0.6057
  736MPD2    C110874   0.091   4.719  12.489 -0.0300 -0.6096 -0.3347
  736MPD2    C210875   0.099   0.008  12.351 -0.6843 -0.5315 -0.6803
  736MPD2    C310876   0.214   4.695  12.280 -0.1942  0.7746  0.3940
  736MPD2    C410877   0.319   4.658  12.354 -0.1327 -0.0621  0.2175
  736MPD2    C510878   0.313   4.656  12.494 -0.1440 -0.0167 -0.1347
  736MPD2     H10879   0.016   0.055  12.299  1.0902  2.4818 -0.7475
  736MPD2    H110880   0.411   4.627  12.305 -0.9578 -0.4790 -1.0730
  736MPD2    H210881   0.208   4.673  12.665 -0.0439 -3.4345 -1.2302
  736MPD2    H310882   0.409   4.642  12.542  0.3438 -1.8834 -1.6720
  736MPD2     N10883   0.237   4.719  12.137 -0.3204 -0.5054  0.3693
  736MPD2    H510884   0.320   4.680  12.095  1.1078  2.6152  0.3307
  736MPD2    N110885   4.688   0.029  12.559  0.2091 -0.1208 -0.1055
  736MPD2    H710886   4.692   0.038  12.660  1.6305 -0.1959 -0.1552
  737TMC3    C110887   0.184   0.071  11.921  0.2224  0.7944 -0.5125
  737TMC3    C210888   0.135   0.181  11.862 -0.4297 -0.4264 -0.7929
  737TMC3    C310889   0.226   0.236  11.773 -0.3606 -0.6855  0.3572
  737TMC3    C410890   0.300   4.719  11.876 -0.1901 -0.7184  0.5356
  737TMC3    C510891   0.370   0.050  11.775  0.0989  0.0787 -0.3952
  737TMC3    C610892   0.338   0.172  11.729  0.3296 -0.9941  0.3750
  737TMC3     C10893   0.143   0.052  12.055  0.7542 -0.2331  0.5162
  737TMC3     O10894   0.045   0.114  12.087 -0.0526 -0.4615  0.7845
  737TMC3     H10895   0.041   0.223  11.897  0.9924 -0.7252  3.4006
  737TMC3    H110896   0.300   4.613  11.900  0.6988 -1.0799 -1.0946
  737TMC3    H210897   0.385   0.211  11.640 -2.6479 -0.1525 -0.8485
  737TMC3    C710898   0.467   4.686  11.704  0.1056  1.1830 -0.5652
  737TMC3    C810899   0.220   0.373  11.729  0.1419 -1.0288 -1.1011
  737TMC3    O110900   0.498   4.577  11.751 -0.1295 -0.3700  0.2041
  737TMC3    O210901   0.328   0.426  11.693 -0.7517  0.0836 -0.8164
  738MPD2     C10902   0.878   3.653  15.383  0.8951  0.0458  0.7070
  738MPD2    C110903   0.894   3.610  15.249 -0.4253  0.3277  0.5203
  738MPD2    C210904   0.981   3.683  15.169  0.1847 -0.1204 -0.0910
  738MPD2    C310905   1.056   3.779  15.225 -0.5314  0.2386  0.3495
  738MPD2    C410906   1.055   3.805  15.359 -0.4211 -0.4311 -0.0845
  738MPD2    C510907   0.963   3.744  15.438 -0.5103 -0.2877 -0.5829
  738MPD2     H10908   0.982   3.662  15.062 -1.3064  0.3767 -0.1921
  738MPD2    H110909   1.113   3.887  15.399 -1.3633  1.2062 -2.0303
  738MPD2    H210910   0.799   3.626  15.452  1.1430  1.3523  1.4992
  738MPD2    H310911   0.963   3.772  15.543 -0.6057 -3.1711  0.1864
  738MPD2     N10912   1.153   3.857  15.149  0.0586 -0.0037 -0.4053
  738MPD2    H510913   1.220   3.912  15.200 -2.0991 -0.0957  2.5052
  738MPD2    N110914   0.804   3.512  15.201  1.0782  0.3966  0.3264
  738MPD2    H710915   0.735   3.484  15.271  0.5799  0.4152 -0.1555
  739TMC3    C110916   1.295   3.911  14.981 -0.1897 -0.3736 -0.6411
  739TMC3    C210917   1.293   3.964  14.851 -0.7005 -0.6388 -0.4424
  739TMC3    C310918   1.414   4.007  14.805  0.2174 -0.5771 -0.7290
  739TMC3    C410919   1.414   3.894  15.053  1.1784  0.4168  0.2051
  739TMC3    C510920   1.531   3.921  14.993  0.2201 -0.1259 -0.8650
  739TMC3    C610921   1.533   4.000  14.874  0.7166 -0.2602 -0.5540
  739TMC3     C10922   1.173   3.851  15.020 -0.6026  0.4035  0.2683
  739TMC3     O10923   1.108   3.807  14.928  0.5608 -0.6199 -0.0477
  739TMC3     H10924   1.198   3.959  14.800 -0.3997  1.3578 -1.1933
  739TMC3    H110925   1.408   3.838  15.146  1.5505 -0.0207 -0.0302
  739TMC3    H210926   1.630   4.037  14.844  0.0946 -0.0217 -2.2967
  739TMC3    C710927   1.647   3.845  15.038 -0.1717 -0.0871  0.4774
  739TMC3    C810928   1.407   4.083  14.680  0.3550 -0.6751  0.7088
  739TMC3    O110929   1.642   3.824  15.159  0.3283 -0.3516 -0.9920
  739TMC3    O210930   1.323   4.048  14.596  0.2990  0.1459 -0.5497
  740TMC3    C110931   1.429   0.743  14.635  1.2306 -0.1137 -0.1318
  740TMC3    C210932   1.471   0.685  14.750 -0.0451 -0.3333  0.1216
  740TMC3    C310933   1.563   0.590  14.736  0.2835 -0.5290  0.5477
  740TMC3    C410934   1.474   0.704  14.512 -0.0565  0.9820  0.7578
  740TMC3    C510935   1.580   0.620  14.507 -0.4600 -0.0942  1.1516
  740TMC3    C610936   1.621   0.556  14.622 -0.4463 -0.8191  0.5329
  740TMC3     C10937   1.300   0.807  14.632 -0.7336  0.3969 -0.9918
  740TMC3     O10938   1.287   0.897  14.551 -0.4231  0.3028 -0.4740
  740TMC3     H10939   1.430   0.714  14.846 -1.7455  1.6944 -1.2156
  740TMC3    H110940   1.435   0.751  14.423 -1.2237  0.7698  1.1634
  740TMC3    H210941   1.698   0.480  14.621  1.8989  1.5082  2.1973
  740TMC3    C710942   1.601   0.545  14.391 -0.2435  0.1293 -0.1739
  740TMC3    C810943   1.612   0.530  14.859 -0.4471 -0.3554  0.1372
  740TMC3    O110944   1.645   0.431  14.407 -0.1325 -0.2651  0.3527
  740TMC3    O210945   1.675   0.425  14.847  0.0739  0.0018  0.2276
  741TMC3    C110946   1.047   4.603  14.704 -0.7203  0.2090  0.2808
  741TMC3    C210947   0.974   4.536  14.615 -0.5726 -0.2720  1.0677
  741TMC3    C310948   0.876   4.455  14.672  0.8602 -0.6048 -0.1817
  741TMC3    C410949   1.022   4.611  14.836  0.1183  0.0351 -0.4430
  741TMC3    C510950   0.934   4.526  14.892 -1.4459  0.7131  0.3913
  741TMC3    C610951   0.866   4.443  14.811  0.4191  0.1600  0.2925
  741TMC3     C10952   1.166   4.666  14.646  0.3267 -0.3166  0.7128
  741TMC3     O10953   1.252   4.684  14.735  0.2423 -0.1389 -0.2249
  741TMC3     H10954   1.016   4.520  14.516 -3.9781  3.3361 -0.9613
  741TMC3    H110955   1.094   4.657  14.903 -0.7183  0.9430 -0.1705
  741TMC3    H210956   0.786   4.385  14.854 -0.6564  0.1944 -1.6715
  741TMC3    C710957   0.893   4.522  15.031 -0.7755 -0.2570  0.5831
  741TMC3    C810958   0.809   4.362  14.579  0.2907 -0.3784 -0.1483
  741TMC3    O110959   0.830   4.428  15.080  0.5363 -0.1740  0.4406
  741TMC3    O210960   0.775   4.402  14.469 -0.7991 -1.0906  0.3690
  742TMC3    C110961   0.781   2.792  15.645  0.1031  0.6013 -0.2736
  742TMC3    C210962   0.768   2.780  15.510 -0.3255  0.1997  0.1313
  742TMC3    C310963   0.826   2.878  15.431 -0.0479 -0.3935 -0.2050
  742TMC3    C410964   0.864   2.887  15.699  0.2938  0.0346 -0.1367
  742TMC3    C510965   0.937   2.965  15.613 -0.5020 -0.6315 -0.1927
  742TMC3    C610966   0.916   2.970  15.479 -0.0754 -0.4805 -0.3645
  742TMC3     C10967   0.723   2.692  15.733  0.0362 -0.3563 -0.2844
  742TMC3     O10968   0.727   2.707  15.857  0.1346  0.4352  0.0706
  742TMC3     H10969   0.684   2.724  15.470 -0.6316  1.2385 -0.6752
  742TMC3    H110970   0.888   2.870  15.804  2.9741  0.5079 -0.6749
  742TMC3    H210971   0.988   3.029  15.424 -2.2482  1.8439 -0.6680
  742TMC3    C710972   1.065   3.006  15.656 -0.3809  0.6972  0.7485
  742TMC3    C810973   0.801   2.860  15.292  0.8229  0.4794  0.6455
  742TMC3    O110974   1.164   3.005  15.589  0.7050 -0.2238  0.7256
  742TMC3    O210975   0.725   2.773  15.254  0.3354 -0.1575  0.6210
  743MPD2     C10976   3.375   3.717   1.538  0.2141 -0.3975 -0.1766
  743MPD2    C110977   3.482   3.808   1.538  0.1738 -0.0718  0.4547
  743MPD2    C210978   3.576   3.800   1.438  0.1228 -0.7937 -0.3001
  743MPD2    C310979   3.567   3.708   1.335 -0.5991  0.0505 -0.4106
  743MPD2    C410980   3.462   3.628   1.328 -0.3594 -0.5947 -0.2704
  743MPD2    C510981   3.380   3.621   1.435  0.3497  0.6131  0.3024
  743MPD2     H10982   3.651   3.878   1.432  0.7651 -1.4336 -0.6773
  743MPD2    H110983   3.450   3.546   1.258  0.0803  0.6927 -1.8399
  743MPD2    H210984   3.287   3.728   1.601  2.2879  0.2486  2.5877
  743MPD2    H310985   3.302   3.546   1.430  1.2345 -0.2261 -0.9211
  743MPD2     N10986   3.666   3.717   1.239  0.4095 -0.3363  0.2653
  743MPD2    H510987   3.740   3.779   1.268  0.9076 -0.7752 -0.0672
  743MPD2    N110988   3.488   3.915   1.631 -0.0342 -0.2031 -0.6366
  743MPD2    H710989   3.406   3.922   1.690  0.3871 -1.5235  0.0917
  744TMC3    C110990   3.578   4.118   1.729 -0.0848  0.2107 -0.4362
  744TMC3    C210991   3.450   4.159   1.760  0.4046 -0.0725  0.0277
  744TMC3    C310992   3.430   4.291   1.787  0.5665  0.1787  0.0882
  744TMC3    C410993   3.680   4.206   1.728  0.4160 -0.0024  0.7572
  744TMC3    C510994   3.660   4.339   1.728  0.3228 -0.4971 -0.3950
  744TMC3    C610995   3.531   4.382   1.760  0.8554  0.5249 -0.3620
  744TMC3     C10996   3.602   3.999   1.647 -0.6364  0.3105 -0.8000
  744TMC3     O10997   3.713   3.987   1.598  0.8844 -0.1788  0.1244
  744TMC3     H10998   3.364   4.094   1.759  0.0711  0.3206  2.3777
  744TMC3    H110999   3.780   4.172   1.703  0.2117  0.8943 -1.2867
  744TMC3    H211000   3.513   4.486   1.784  1.7701  0.9631 -1.6136
  744TMC3    C711001   3.738   4.404   1.631 -0.6027 -0.2631  0.4246
  744TMC3    C811002   3.305   4.341   1.841  0.2571 -0.0161 -0.4496
  744TMC3    O111003   3.785   4.338   1.538 -0.2931 -0.6660  0.3858
  744TMC3    O211004   3.304   4.462   1.856 -0.2621 -0.1630  0.8784
  745TMC3    C111005   1.730   2.995  13.677  0.3450  0.7776  0.0501
  745TMC3    C211006   1.708   2.924  13.793 -0.6704 -0.1062  0.5249
  745TMC3    C311007   1.587   2.861  13.811 -0.5715 -0.0743  0.0083
  745TMC3    C411008   1.638   2.999  13.574 -0.1743  0.6879 -0.3595
  745TMC3    C511009   1.518   2.940  13.593  0.2013 -0.1397 -0.3574
  745TMC3    C611010   1.490   2.869  13.712  0.3594 -0.1455 -0.6471
  745TMC3     C11011   1.855   3.064  13.664  0.9653  0.2123 -0.5420
  745TMC3     O11012   1.933   3.035  13.754  0.7235 -0.0053  0.2042
  745TMC3     H11013   1.791   2.913  13.862 -0.6899 -0.3103  0.5149
  745TMC3    H111014   1.669   3.056  13.487 -0.4515 -2.0051 -2.2280
  745TMC3    H211015   1.392   2.824  13.720  0.1718  0.6697  1.5297
  745TMC3    C711016   1.428   2.920  13.481  0.2696  0.0381 -0.4648
  745TMC3    C811017   1.558   2.781  13.930  0.0720 -0.4686  0.0952
  745TMC3    O111018   1.308   2.918  13.509  0.2845  0.1318  0.2124
  745TMC3    O211019   1.457   2.708  13.929 -0.4208 -0.6687  0.4793
  746TMC3    C111020   2.869   0.149  10.968  0.2890 -0.2352  0.1623
  746TMC3    C211021   2.786   0.176  10.854  1.2243  0.2040 -0.3388
  746TMC3    C311022   2.744   0.069  10.782 -0.2653 -0.3774  1.0284
  746TMC3    C411023   2.896   0.019  11.007  0.3442  0.7869  0.6736
  746TMC3    C511024   2.840   4.636  10.929 -0.9058  0.1255  0.6707
  746TMC3    C611025   2.757   4.663  10.821 -0.2291 -0.0127 -0.0358
  746TMC3     C11026   2.945   0.257  11.033  0.4906  0.1237 -0.5561
  746TMC3     O11027   2.965   0.260  11.152 -0.0114  0.2973 -0.0453
  746TMC3     H11028   2.777   0.277  10.816  1.3793  0.4478  0.2742
  746TMC3    H111029   2.978   4.719  11.076  0.9384  3.0118  0.5810
  746TMC3    H211030   2.723   4.586  10.752 -0.0194  0.6264 -0.8441
  746TMC3    C711031   2.881   4.501  10.940  0.2815  0.1151  0.2651
  746TMC3    C811032   2.691   0.093  10.650 -0.1752 -0.6070  0.1445
  746TMC3    O111033   2.838   4.424  10.856 -0.7166  0.7811  0.1141
  746TMC3    O211034   2.606   0.012  10.611 -0.2457 -0.7720  0.2592
  747TMC3    C111035   0.806   0.268  10.757 -0.2295  0.1177 -0.0537
  747TMC3    C211036   0.775   0.167  10.843 -0.0497 -0.0951 -0.7238
  747TMC3    C311037   0.790   0.186  10.976  0.0013 -0.2435 -1.0250
  747TMC3    C411038   0.855   0.391  10.801  0.6288 -0.4766 -0.0930
  747TMC3    C511039   0.870   0.401  10.939 -0.8404  0.0087  0.1322
  747TMC3    C611040   0.856   0.299  11.026  0.4817  0.2344  0.0715
  747TMC3     C11041   0.789   0.248  10.614 -0.0283  0.3252  0.1234
  747TMC3     O11042   0.814   0.349  10.547  0.3491  0.3821  0.3777
  747TMC3     H11043   0.729   0.074  10.809 -1.7560  0.7731 -0.7867
  747TMC3    H111044   0.892   0.463  10.729 -1.4630 -0.3605 -1.0591
  747TMC3    H211045   0.884   0.311  11.130  0.0832 -0.6776  0.2794
  747TMC3    C711046   0.886   0.533  11.001 -0.0303  0.3574 -0.0880
  747TMC3    C811047   0.790   0.067  11.065 -0.3279 -0.0113  0.3081
  747TMC3    O111048   0.929   0.532  11.118  0.3464 -0.5690 -0.5461
  747TMC3    O211049   0.794   4.678  11.012  0.6467 -0.1093  0.5424
  748MPD2     C11050   2.112   0.459   1.501 -0.2619 -0.5724 -0.3260
  748MPD2    C111051   2.141   0.587   1.544  0.2780  0.6053  0.5687
  748MPD2    C211052   2.270   0.629   1.570 -0.3103 -0.3528 -0.4642
  748MPD2    C311053   2.374   0.541   1.546  0.3082  1.2938 -0.2986
  748MPD2    C411054   2.343   0.410   1.523 -0.2289  0.4663 -0.9366
  748MPD2    C511055   2.209   0.365   1.502  0.2821  0.3215  0.6791
  748MPD2     H11056   2.287   0.728   1.610 -0.5493 -0.6427  0.3494
  748MPD2    H111057   2.415   0.330   1.512 -1.2612 -0.7625  1.3551
  748MPD2    H211058   2.012   0.425   1.480 -0.7940  0.9178 -0.1885
  748MPD2    H311059   2.184   0.260   1.490 -2.7374  1.2254 -1.0726
  748MPD2     N11060   2.507   0.591   1.558 -0.1762 -0.1025 -0.1061
  748MPD2    H511061   2.524   0.676   1.610  1.5524  0.0276 -0.8697
  748MPD2    N111062   2.029   0.671   1.551  0.3195  0.4096  0.3318
  748MPD2    H711063   1.941   0.632   1.520  1.0573  0.9503 -2.4489
  749TMC3    C111064   2.737   0.622   1.492  0.3216 -0.4574 -0.3576
  749TMC3    C211065   2.741   0.725   1.582 -0.0201 -0.1629  0.0491
  749TMC3    C311066   2.801   0.839   1.543 -0.6226  0.0318  0.3165
  749TMC3    C411067   2.800   0.617   1.371 -0.0622 -0.3193 -0.1119
  749TMC3    C511068   2.854   0.741   1.335 -0.0012  0.4530 -0.3870
  749TMC3    C611069   2.849   0.848   1.414  0.5404  0.0706  0.6449
  749TMC3     C11070   2.612   0.539   1.488  0.0492  0.6786  0.3192
  749TMC3     O11071   2.613   0.442   1.417 -0.6585 -0.2061 -0.0140
  749TMC3     H11072   2.701   0.711   1.681  2.3689 -1.7448  0.8091
  749TMC3    H111073   2.811   0.524   1.316  0.0676 -0.1783 -0.3236
  749TMC3    H211074   2.880   0.944   1.375  1.3417  0.2624  1.7625
  749TMC3    C711075   2.965   0.759   1.242  0.4060 -0.5504  0.0723
  749TMC3    C811076   2.867   0.921   1.642  0.2774  0.1112 -0.6084
  749TMC3    O111077   3.042   0.845   1.274  0.0002  0.2803  0.4023
  749TMC3    O211078   2.809   0.928   1.754  0.0447 -0.0959 -0.9323
  750MPD2     C11079   2.907   2.115  11.302  0.2898  0.2639 -0.2521
  750MPD2    C111080   2.869   2.078  11.427  0.2821 -0.4364  0.2387
  750MPD2    C211081   2.823   1.944  11.452 -0.3771  0.0513  0.3127
  750MPD2    C311082   2.812   1.855  11.348  0.0620  0.0986  0.2580
  750MPD2    C411083   2.844   1.895  11.222  0.3203 -0.5644  1.2579
  750MPD2    C511084   2.891   2.025  11.201  0.6612  0.0920 -0.1337
  750MPD2     H11085   2.788   1.912  11.549 -0.7792  0.0124  0.1556
  750MPD2    H111086   2.838   1.819  11.145  0.4557  0.6106  0.0722
  750MPD2    H211087   2.926   2.222  11.299  0.5631  0.2614  1.1189
  750MPD2    H311088   2.923   2.053  11.102  0.6431  1.1752  0.1680
  750MPD2     N11089   2.797   1.714  11.363  0.5535 -0.9332  0.1515
  750MPD2    H511090   2.795   1.659  11.278 -0.6241 -0.4599 -0.1172
  750MPD2    N111091   2.895   2.180  11.520 -0.8055  0.2224  0.2043
  750MPD2    H711092   2.932   2.269  11.488 -1.8219 -0.5626 -3.0882
  751TMC3    C111093   2.724   1.509  11.468  0.6019 -0.2781 -0.7905
  751TMC3    C211094   2.640   1.464  11.568 -0.1661 -0.6815  0.8588
  751TMC3    C311095   2.586   1.339  11.554  0.0860 -0.3441  0.3071
  751TMC3    C411096   2.755   1.439  11.355  0.7190 -0.1470  0.1293
  751TMC3    C511097   2.703   1.315  11.348 -0.3116 -0.4241 -0.5513
  751TMC3    C611098   2.627   1.262  11.444  1.1179  0.1096  0.1867
  751TMC3     C11099   2.776   1.646  11.480  0.0860 -0.1444 -0.1832
  751TMC3     O11100   2.759   1.692  11.590  0.2619 -0.3965  0.2444
  751TMC3     H11101   2.625   1.514  11.663  1.9561  0.4336  0.6206
  751TMC3    H111102   2.814   1.482  11.275 -0.4590 -0.7886 -1.0737
  751TMC3    H211103   2.603   1.156  11.442 -2.4717  0.9596 -0.3477
  751TMC3    C711104   2.748   1.241  11.234  0.5538  0.5320 -0.7165
  751TMC3    C811105   2.482   1.275  11.636  0.5204  0.5652 -0.7138
  751TMC3    O111106   2.825   1.308  11.160 -0.1803  0.7695 -0.5940
  751TMC3    O211107   2.506   1.263  11.757  0.1505 -0.0954 -0.4421
  752TMC3    C111108   2.614   1.445  16.519  0.7894 -0.2761 -0.1113
  752TMC3    C211109   2.709   1.348  16.486 -0.3325 -0.0984 -0.2678
  752TMC3    C311110   2.716   1.239  16.573  0.3574  0.1909  0.1630
  752TMC3    C411111   2.546   1.438  16.636  0.2855  0.2745  0.3771
  752TMC3    C511112   2.545   1.323  16.714 -0.1520  0.5789 -0.2167
  752TMC3    C611113   2.625   1.223  16.676  0.0548 -0.2252  0.1765
  752TMC3     C11114   2.551   1.527  16.414 -0.9057  0.7685  0.7814
  752TMC3     O11115   2.483   1.621  16.457  0.2961 -0.4225  0.3381
  752TMC3     H11116   2.776   1.358  16.401 -1.0172  0.2789 -0.7558
  752TMC3    H111117   2.488   1.528  16.655  1.0718  0.4490  1.9493
  752TMC3    H211118   2.631   1.134  16.738  1.3251  1.6332  2.6957
  752TMC3    C711119   2.461   1.319  16.836 -0.7813 -0.7624  0.0647
  752TMC3    C811120   2.816   1.136  16.533 -0.0274  0.2058 -0.9879
  752TMC3    O111121   2.424   1.419  16.888 -0.6696  0.4607  0.3511
  752TMC3    O211122   2.865   1.148  16.423  0.3434  0.0173 -0.0787
  753TMC3    C111123   4.210   2.980  13.331  0.2361 -0.0299  0.4063
  753TMC3    C211124   4.256   2.900  13.437  0.3799  0.3046  0.3969
  753TMC3    C311125   4.234   2.764  13.429 -0.2024 -0.1325 -0.0253
  753TMC3    C411126   4.162   2.928  13.219 -0.6049  0.6214 -0.2785
  753TMC3    C511127   4.153   2.789  13.218  0.3046 -0.5898  0.2408
  753TMC3    C611128   4.182   2.712  13.319  0.3709 -0.6786  0.4871
  753TMC3     C11129   4.225   3.124  13.331 -0.4702 -0.4506  1.1016
  753TMC3     O11130   4.202   3.187  13.227 -0.5407 -0.0735  0.3745
  753TMC3     H11131   4.305   2.948  13.521 -1.0606  2.7908 -0.1629
  753TMC3    H111132   4.128   2.993  13.140  2.3548  1.0309 -1.2464
  753TMC3    H211133   4.164   2.606  13.309 -1.6287 -0.3459  0.5445
  753TMC3    C711134   4.067   2.740  13.110  0.2537  0.2554 -0.5714
  753TMC3    C811135   4.285   2.672  13.529 -0.3243 -0.0831  0.1259
  753TMC3    O111136   4.112   2.747  12.995  0.4009  0.0240  0.3298
  753TMC3    O211137   4.270   2.554  13.495 -0.3387 -0.0451  0.1676
  754MPD2     C11138   2.940   0.666  13.936 -0.4284  0.3375  0.4118
  754MPD2    C111139   2.973   0.791  13.889  0.0319 -0.0669  0.3470
  754MPD2    C211140   2.910   0.835  13.775  0.1236  0.2704  0.1536
  754MPD2    C311141   2.800   0.764  13.708  0.2034 -0.1901  0.3825
  754MPD2    C411142   2.767   0.640  13.763 -0.1704 -0.4790  0.7954
  754MPD2    C511143   2.839   0.595  13.873  0.4108  0.5885  0.2085
  754MPD2     H11144   2.963   0.919  13.731 -0.3662  1.0142  1.0023
  754MPD2    H111145   2.693   0.579  13.712  0.2678  0.9263 -1.5024
  754MPD2    H211146   2.972   0.635  14.034 -1.5021  3.1300  1.6680
  754MPD2    H311147   2.818   0.499  13.919  0.2122  0.3295 -0.4214
  754MPD2     N11148   2.725   0.810  13.600 -0.4359  0.1791 -0.0962
  754MPD2    H511149   2.635   0.764  13.591 -0.8665  1.3368 -1.7618
  754MPD2    N111150   3.083   0.860  13.949 -0.0979  0.4114  0.1925
  754MPD2    H711151   3.147   0.801  14.001  1.3353  0.7493 -1.2005
  755MPD2     C11152   2.442   1.810  13.247  0.2295  0.9261 -0.0298
  755MPD2    C111153   2.476   1.749  13.367 -0.8424 -0.4348 -0.5798
  755MPD2    C211154   2.524   1.620  13.373 -0.5479 -0.1649  0.1607
  755MPD2    C311155   2.527   1.542  13.260  0.4316  0.5840  0.2198
  755MPD2    C411156   2.497   1.608  13.141  0.9913 -0.9123  0.9156
  755MPD2    C511157   2.467   1.744  13.137 -0.6366 -0.5499  0.4262
  755MPD2     H11158   2.550   1.582  13.472  0.3725 -0.4225 -0.1818
  755MPD2    H111159   2.484   1.558  13.046 -0.8678 -1.1106  1.2943
  755MPD2    H211160   2.421   1.917  13.249  0.1787  0.8850  1.6700
  755MPD2    H311161   2.445   1.792  13.043  3.0620  0.1435 -0.0601
  755MPD2     N11162   2.555   1.400  13.267 -0.4975 -0.4667 -0.2051
  755MPD2    H511163   2.551   1.344  13.183  1.4106  0.2341 -0.7557
  755MPD2    N111164   2.457   1.807  13.495 -0.2894  0.0722  0.9960
  755MPD2    H711165   2.496   1.759  13.576 -1.3116  0.9036  1.9744
  756MPD2     C11166   3.120   2.604   9.346  0.7928 -0.5369 -0.0630
  756MPD2    C111167   3.030   2.559   9.444 -0.4878  0.0394  0.3991
  756MPD2    C211168   2.893   2.543   9.412  0.2497 -0.6215  0.1839
  756MPD2    C311169   2.849   2.583   9.289 -0.1370 -0.4200 -0.3982
  756MPD2    C411170   2.941   2.624   9.193 -0.8424  0.3803  0.5170
  756MPD2    C511171   3.077   2.635   9.222 -0.5729 -0.5779  0.6526
  756MPD2     H11172   2.823   2.515   9.489 -1.6749 -0.9896 -1.7109
  756MPD2    H111173   2.915   2.655   9.093  1.1025 -0.6211 -0.3083
  756MPD2    H211174   3.224   2.620   9.371  0.7498  0.3746 -0.4674
  756MPD2    H311175   3.149   2.656   9.144 -1.4431  1.2310  0.3401
  756MPD2     N11176   2.707   2.592   9.265  0.0383  0.1583 -0.7318
  756MPD2    H511177   2.650   2.554   9.341 -1.1856  0.2686 -1.5855
  756MPD2    N111178   3.063   2.532   9.575 -0.4151  0.3678  0.0380
  756MPD2    H711179   2.981   2.530   9.634  0.6560  2.2126  1.6002
  757MPD2     C11180   2.205   2.105   9.714 -0.8973  0.0182 -0.1320
  757MPD2    C111181   2.337   2.155   9.714 -0.5948 -0.9038 -1.1278
  757MPD2    C211182   2.375   2.249   9.616  0.0828  0.0092 -0.1626
  757MPD2    C311183   2.281   2.298   9.523  0.9270  0.8570  0.3422
  757MPD2    C411184   2.152   2.241   9.521  0.5675 -0.7482 -0.7042
  757MPD2    C511185   2.116   2.150   9.621 -0.4216  0.5792 -0.3522
  757MPD2     H11186   2.475   2.289   9.622 -0.0195  0.2870 -0.3235
  757MPD2    H111187   2.074   2.252   9.447 -3.4565 -0.7083  3.5782
  757MPD2    H211188   2.174   2.024   9.780 -1.7273  0.5034  0.0635
  757MPD2    H311189   2.015   2.111   9.622 -0.5109  0.8203 -0.0911
  757MPD2     N11190   2.319   2.395   9.435  0.1094  0.5075 -0.3812
  757MPD2    H511191   2.416   2.420   9.452  0.0513 -0.6017  1.5672
  757MPD2    N111192   2.423   2.089   9.800  0.4834  0.3742  1.2923
  757MPD2    H711193   2.380   2.013   9.852  0.9214 -0.4554  0.4391
  758MPD2     C11194   3.397   1.223  15.740 -0.5575 -0.0481 -0.5128
  758MPD2    C111195   3.399   1.095  15.803 -0.0819  0.3935  0.4287
  758MPD2    C211196   3.338   1.090  15.925 -0.1311  0.0099 -0.0154
  758MPD2    C311197   3.272   1.199  15.984  0.2480 -0.0566  0.2748
  758MPD2    C411198   3.277   1.316  15.917 -0.5480  0.2863 -0.2432
  758MPD2    C511199   3.334   1.332  15.792  0.6623 -0.5904 -0.3105
  758MPD2     H11200   3.342   1.000  15.986  0.9467  1.3660  1.9392
  758MPD2    H111201   3.243   1.413  15.949  1.5890  1.4798 -1.5870
  758MPD2    H211202   3.449   1.241  15.646 -1.1417 -2.0887 -1.2069
  758MPD2    H311203   3.332   1.428  15.741 -1.4746 -1.5662 -2.0120
  758MPD2     N11204   3.221   1.206  16.119  0.4236  0.3410 -0.0789
  758MPD2    H511205   3.203   1.297  16.158  2.9123  0.3001  1.1302
  758MPD2    N111206   3.466   0.992  15.741 -0.5419  0.5211  0.2210
  758MPD2    H711207   3.533   1.018  15.669  0.4287 -1.3918  0.4266
  759MPD2     C11208   1.458   4.255  10.586  0.5550 -0.8643 -0.7773
  759MPD2    C111209   1.537   4.145  10.568  1.0222  0.6767 -0.0605
  759MPD2    C211210   1.630   4.145  10.464  0.1774  0.1375  0.0098
  759MPD2    C311211   1.652   4.253  10.389 -0.4302 -0.2484 -0.0707
  759MPD2    C411212   1.564   4.364  10.408 -1.3360 -0.6678 -0.8244
  759MPD2    C511213   1.475   4.364  10.511 -0.0630 -0.6262 -0.0389
  759MPD2     H11214   1.684   4.052  10.453 -1.7103 -1.3243  3.1529
  759MPD2    H111215   1.565   4.451  10.343 -1.9105 -1.0113 -1.2868
  759MPD2    H211216   1.382   4.253  10.664  1.3324 -1.6171 -0.0439
  759MPD2    H311217   1.415   4.455  10.520  0.9685  0.0714 -0.1842
  759MPD2     N11218   1.753   4.263  10.287  0.0093  0.5559  0.0208
  759MPD2    H511219   1.750   4.343  10.224  0.1580  1.1627  0.7872
  759MPD2    N111220   1.520   4.028  10.644  0.3325  0.2036  0.2065
  759MPD2    H711221   1.564   3.942  10.612  0.7888  0.6985 -0.4849
  760MPD2     C11222   1.927   1.572  12.212 -0.2305  1.1790  0.2308
  760MPD2    C111223   1.893   1.525  12.091 -0.0878  0.6939  0.0647
  760MPD2    C211224   1.805   1.418  12.081  0.0581  0.0570 -0.0474
  760MPD2    C311225   1.751   1.353  12.194  0.5130 -0.8352 -0.4464
  760MPD2    C411226   1.777   1.404  12.314  0.0622  0.1114 -0.7204
  760MPD2    C511227   1.881   1.498  12.319  0.2288 -0.5005  1.0374
  760MPD2     H11228   1.777   1.382  11.983  1.3566 -0.8604 -0.0881
  760MPD2    H111229   1.739   1.365  12.408  0.0252  1.1167 -0.3137
  760MPD2    H211230   1.995   1.650  12.244  0.3072  0.0677  1.7739
  760MPD2    H311231   1.913   1.529  12.417  0.7375  1.3732  0.2772
  760MPD2     N11232   1.670   1.237  12.195  0.5441 -0.2543  0.0792
  760MPD2    H511233   1.647   1.192  12.283  3.1032 -0.4977  0.6176
  760MPD2    N111234   1.952   1.574  11.970  0.1152 -0.2233 -0.3304
  760MPD2    H711235   1.904   1.552  11.883 -1.4553  0.8301  0.2524
  761MPD2     C11236   2.291   0.813  11.555 -0.0177 -0.0905 -0.0969
  761MPD2    C111237   2.305   0.883  11.435  0.0027 -0.5594 -0.0871
  761MPD2    C211238   2.331   1.024  11.440 -0.7871  0.5703 -0.6130
  761MPD2    C311239   2.355   1.086  11.559  0.4618  0.0382  1.3354
  761MPD2    C411240   2.348   1.016  11.683 -0.0012  0.1923  0.6412
  761MPD2    C511241   2.317   0.878  11.676  0.6124  0.0040 -0.2483
  761MPD2     H11242   2.352   1.085  11.352  0.4837 -1.1719 -1.5017
  761MPD2    H111243   2.370   1.071  11.774 -1.5223 -0.2954  1.3018
  761MPD2    H211244   2.274   0.706  11.556 -1.7715  0.1772 -0.7071
  761MPD2    H311245   2.310   0.823  11.770 -2.6480  1.5374  0.3943
  761MPD2     N11246   2.404   1.213  11.549  0.0193  0.3152  0.4197
  761MPD2    H511247   2.421   1.254  11.457 -1.2980  0.9117  0.4509
  761MPD2    N111248   2.303   0.804  11.313 -0.5642 -0.1406 -0.4632
  761MPD2    H711249   2.296   0.703  11.319 -0.9041 -0.0207  1.0473
  762MPD2     C11250   2.616   1.151  10.702  0.6095  0.2477 -0.6067
  762MPD2    C111251   2.595   1.016  10.672  0.5236 -0.3278 -0.8407
  762MPD2    C211252   2.634   0.968  10.553 -0.0604 -0.0953 -0.1580
  762MPD2    C311253   2.694   1.051  10.457  0.1325 -0.2693  0.1490
  762MPD2    C411254   2.714   1.186  10.480  0.4825 -0.1702  0.2585
  762MPD2    C511255   2.669   1.233  10.602  0.1856  0.6668  0.0601
  762MPD2     H11256   2.627   0.862  10.534 -0.3840 -0.0741 -0.1453
  762MPD2    H111257   2.767   1.251  10.411  0.0038 -0.9328 -0.8397
  762MPD2    H211258   2.594   1.188  10.801  0.7945 -0.3034 -0.3594
  762MPD2    H311259   2.690   1.334  10.637 -2.8459  0.2687  2.9815
  762MPD2     N11260   2.736   0.991  10.338  0.1413 -0.6275 -0.4368
  762MPD2    H511261   2.725   0.891  10.323  0.9550 -0.7843  0.0011
  762MPD2    N111262   2.536   0.936  10.776 -0.0464  0.0603  0.1247
  762MPD2    H711263   2.507   0.977  10.864 -0.0268 -3.4501  1.7780
  763MPD2     C11264   0.060   1.155  16.365 -0.8304 -0.2977  0.0234
  763MPD2    C111265   0.123   1.215  16.250 -0.8134  0.3970  0.1513
  763MPD2    C211266   0.181   1.341  16.253  0.1596 -0.1178 -0.9887
  763MPD2    C311267   0.181   1.421  16.369  0.0815  0.4389  0.5224
  763MPD2    C411268   0.116   1.364  16.483 -0.2285 -0.5687 -0.0407
  763MPD2    C511269   0.068   1.233  16.476  0.0591  0.1434  0.4462
  763MPD2     H11270   0.232   1.371  16.163 -1.2784  1.6326 -1.2240
  763MPD2    H111271   0.129   1.408  16.582  0.0804  0.9780 -0.7640
  763MPD2    H211272   0.028   1.053  16.382  1.6360 -1.4927 -2.4239
  763MPD2    H311273   0.038   1.185  16.568 -0.7513 -0.9002 -0.3519
  763MPD2     N11274   0.248   1.544  16.390  0.7413  0.3564  0.1271
  763MPD2    H511275   0.249   1.575  16.487  1.7847 -1.2649  0.6473
  763MPD2    N111276   0.142   1.137  16.134 -0.3753  1.0321  0.8738
  763MPD2    H711277   0.190   1.178  16.054  0.3976  0.6746  1.1538
  764MPD2     C11278   2.740   2.891  17.422  0.1458 -0.6657 -0.2755
  764MPD2    C111279   2.787   2.792  17.339  0.0241  0.2519 -0.1360
  764MPD2    C211280   2.791   2.661  17.378  0.2527  0.0658  0.4898
  764MPD2    C311281   2.763   2.626  17.506 -0.1854 -0.5219 -0.0982
  764MPD2    C411282   2.708   2.720  17.587  0.8319  0.3074 -0.5536
  764MPD2    C511283   2.694   2.854  17.543  0.0172  0.0699 -0.0866
  764MPD2     H11284   2.842   2.599  17.304 -2.0692 -0.2804 -0.8376
  764MPD2    H111285   2.672   2.703   0.006  0.1109  2.1248 -0.4912
  764MPD2    H211286   2.748   2.996  17.399 -0.1274 -0.4012  0.8790
  764MPD2    H311287   2.657   2.923  17.618  1.7623  0.1393  0.7134
  764MPD2     N11288   2.777   2.499  17.552 -0.1320 -0.3501 -1.0491
  764MPD2    H511289   2.795   2.427  17.482 -1.3684 -0.9256 -0.7915
  764MPD2    N111290   2.838   2.806  17.207 -0.3375 -0.7520  0.3684
  764MPD2    H711291   2.845   2.726  17.146 -2.9649 -0.6293 -0.0729
  765MPD2     C11292   2.998   0.309  15.296 -0.0237  0.8570 -0.4394
  765MPD2    C111293   3.076   0.338  15.409 -0.1402  0.2330  0.3143
  765MPD2    C211294   3.158   0.241  15.463  0.1494 -0.0132  0.8868
  765MPD2    C311295   3.170   0.126  15.390  0.3448  0.6943 -0.0117
  765MPD2    C411296   3.115   0.106  15.264 -0.3496 -0.4393 -0.3202
  765MPD2    C511297   3.028   0.200  15.224 -0.4622  0.4308 -0.3167
  765MPD2     H11298   3.213   0.246  15.556 -0.7346 -0.3185  1.4255
  765MPD2    H111299   3.116   0.015  15.205  1.1058 -0.7818  0.2392
  765MPD2    H211300   2.920   0.379  15.267 -0.4608  0.4870 -0.1540
  765MPD2    H311301   2.961   0.180  15.140 -1.9102 -0.6727  1.1006
  765MPD2     N11302   3.254   0.024  15.441  0.3957 -0.2733  0.3394
  765MPD2    H511303   3.293   0.044  15.533  3.9874  0.1329 -1.2731
  765MPD2    N111304   3.055   0.460  15.467  0.7606 -0.5061  0.5121
  765MPD2    H711305   2.980   0.521  15.436  2.4841  1.8467  0.9436
  766MPD2     C11306   2.475   0.634  15.481 -0.3547  0.7266 -0.1025
  766MPD2    C111307   2.603   0.618  15.434 -0.1798  0.3889  0.0559
  766MPD2    C211308   2.620   0.575  15.307 -0.4280 -0.1556  0.6177
  766MPD2    C311309   2.511   0.549  15.223  0.3722 -0.0591  0.0197
  766MPD2    C411310   2.383   0.579  15.268  0.0690 -0.0832 -0.3748
  766MPD2    C511311   2.370   0.612  15.398  0.1238  0.0939 -0.6058
  766MPD2     H11312   2.722   0.567  15.269 -0.3460 -0.9904  1.0004
  766MPD2    H111313   2.296   0.564  15.207  0.7533  1.7376 -1.8150
  766MPD2    H211314   2.460   0.673  15.581  2.2345  1.5297 -0.0171
  766MPD2    H311315   2.266   0.620  15.430  1.0726  0.1932  2.4651
  766MPD2     N11316   2.523   0.518  15.087 -0.2597 -0.1734  0.6819
  766MPD2    H511317   2.435   0.529  15.036 -0.3459  2.5257  1.4000
  766MPD2    N111318   2.715   0.638  15.518 -0.2617 -1.0998  0.6100
  766MPD2    H711319   2.805   0.614  15.479 -0.0839 -1.6471  1.3638
  767MPD2     C11320   2.181   0.847  15.222 -0.3089  0.3052 -0.7562
  767MPD2    C111321   2.283   0.846  15.132 -0.1309 -0.2965 -1.1102
  767MPD2    C211322   2.259   0.791  15.007  0.5084 -0.1031 -0.0852
  767MPD2    C311323   2.135   0.737  14.972 -0.1847  0.0122  0.3109
  767MPD2    C411324   2.031   0.739  15.067  0.2772  0.6445 -0.0973
  767MPD2    C511325   2.064   0.783  15.189 -0.2442 -0.7543  0.2103
  767MPD2     H11326   2.334   0.791  14.930  0.3365 -0.2015 -0.2517
  767MPD2    H111327   1.932   0.696  15.050  0.3874 -0.3618  1.8494
  767MPD2    H211328   2.183   0.901  15.316 -0.2912 -1.0875  0.0333
  767MPD2    H311329   1.995   0.785  15.273  0.1064 -1.4280  0.5225
  767MPD2     N11330   2.127   0.672  14.851  0.5151 -0.2218  0.5263
  767MPD2    H511331   2.213   0.662  14.798  0.6793  1.2702  0.5111
  767MPD2    N111332   2.404   0.898  15.174  0.6879  0.4979 -0.3301
  767MPD2    H711333   2.418   0.930  15.269 -0.4759 -0.8525  0.2980
  768MPD2     C11334   3.499   3.893  10.446  0.4847 -0.2566 -0.2230
  768MPD2    C111335   3.461   3.906  10.580 -0.2107 -0.4851  0.7623
  768MPD2    C211336   3.519   3.998  10.659  0.5143 -0.2780  0.3529
  768MPD2    C311337   3.622   4.081  10.612 -0.5935  0.2723  0.2736
  768MPD2    C411338   3.657   4.075  10.480 -0.0829 -0.1292 -0.6892
  768MPD2    C511339   3.603   3.972  10.398 -0.5271 -0.5303  0.2662
  768MPD2     H11340   3.476   4.016  10.757 -2.5888 -1.9856 -0.7034
  768MPD2    H111341   3.724   4.147  10.434  0.0063  1.0340  1.3045
  768MPD2    H211342   3.455   3.815  10.386  0.0228 -2.0750  2.4362
  768MPD2    H311343   3.622   3.960  10.292 -1.8316  0.9123 -0.1312
  768MPD2     N11344   3.677   4.172  10.704 -0.3918  0.4188  0.3594
  768MPD2    H511345   3.639   4.174  10.798  0.6700 -0.4966  0.8098
  768MPD2    N111346   3.354   3.837  10.640  0.0588  0.1910  0.0279
  768MPD2    H711347   3.323   3.863  10.733  1.8939  1.1383  0.3816
  769MPD2     C11348   3.871   2.327  14.849  0.6740 -0.9132  0.2434
  769MPD2    C111349   3.821   2.300  14.974  0.4466 -0.1318  0.0275
  769MPD2    C211350   3.911   2.307  15.078 -0.0318  0.0741 -0.1789
  769MPD2    C311351   4.050   2.314  15.054  0.0594  0.2533  1.3991
  769MPD2    C411352   4.095   2.324  14.920  0.3003  0.5897 -0.2637
  769MPD2    C511353   4.006   2.341  14.824  0.0698 -0.2652  0.4930
  769MPD2     H11354   3.891   2.301  15.184  0.2233  0.3572 -0.1131
  769MPD2    H111355   4.199   2.343  14.896 -0.0164  0.6112 -1.6281
  769MPD2    H211356   3.803   2.329  14.764 -0.3810  1.0425  1.1515
  769MPD2    H311357   4.040   2.370  14.726 -1.5012 -0.4327 -0.1026
  769MPD2     N11358   4.136   2.296  15.160 -0.3178  0.0166  0.2751
  769MPD2    H511359   4.090   2.310  15.249 -0.3746  0.6546  0.1475
  769MPD2    N111360   3.682   2.290  14.990  0.4992 -0.0157 -0.5500
  769MPD2    H711361   3.629   2.273  14.905  1.3988 -1.7345 -0.7815
  770MPD2     C11362   3.610   1.377  15.377 -0.0286  0.0750 -0.2631
  770MPD2    C111363   3.640   1.401  15.239 -0.0357  0.2591  0.0206
  770MPD2    C211364   3.608   1.522  15.192  0.5988 -0.4624  0.6090
  770MPD2    C311365   3.553   1.621  15.275  0.3093 -0.3138  0.2245
  770MPD2    C411366   3.530   1.598  15.407  0.0680  0.1866  0.3456
  770MPD2    C511367   3.554   1.479  15.459 -0.3712 -0.1155 -0.2787
  770MPD2     H11368   3.610   1.557  15.090 -4.4630 -1.5616  0.1413
  770MPD2    H111369   3.465   1.667  15.460  0.9618  1.3242 -0.0358
  770MPD2    H211370   3.621   1.279  15.422  0.2467 -0.0040 -0.5029
  770MPD2    H311371   3.526   1.459  15.561  1.6109 -0.5796  0.1761
  770MPD2     N11372   3.511   1.736  15.203 -0.2182  0.0458  0.2236
  770MPD2    H511373   3.540   1.745  15.106 -0.9174  2.6709  0.2533
  770MPD2    N111374   3.690   1.298  15.160 -0.9235 -0.2211 -0.4569
  770MPD2    H711375   3.687   1.207  15.205 -0.2784  0.1451  0.3068
  771MPD2     C11376   0.195   4.390  13.494  0.1961 -0.3363 -0.4922
  771MPD2    C111377   0.076   4.438  13.428 -0.7533 -0.5548  0.7414
  771MPD2    C211378   0.020   4.367  13.328  0.0862  0.4757  0.4238
  771MPD2    C311379   0.061   4.245  13.302 -1.0207 -0.0324 -0.2042
  771MPD2    C411380   0.164   4.191  13.382 -0.3835  0.4560  0.0295
  771MPD2    C511381   0.231   4.268  13.471  0.2180 -0.2791  0.5824
  771MPD2     H11382   4.663   4.407  13.263  0.2652 -2.2336 -1.4902
  771MPD2    H111383   0.204   4.091  13.371  0.1255  0.5064  1.4116
  771MPD2    H211384   0.252   4.442  13.570 -2.7609 -0.1110  1.5634
  771MPD2    H311385   0.317   4.217  13.513 -0.5218 -2.5798 -0.6918
  771MPD2     N11386   0.002   4.172  13.196 -0.0001  0.1341 -0.0196
  771MPD2    H511387   0.036   4.077  13.180 -3.2586 -0.8196 -1.2803
  771MPD2    N111388   0.029   4.566  13.453 -0.3352  0.6138 -0.6300
  771MPD2    H711389   4.661   4.584  13.406 -1.1802  0.7271  0.9659
  772MPD2     C11390   4.158   0.274  13.313  0.5723 -0.1945  0.3193
  772MPD2    C111391   4.180   0.268  13.447 -0.9562 -0.2119 -0.3048
  772MPD2    C211392   4.073   0.282  13.530  0.3034 -0.0891  0.9067
  772MPD2    C311393   3.952   0.303  13.476 -0.2683 -0.2586  0.2165
  772MPD2    C411394   3.935   0.301  13.341 -0.2221  0.6007  0.4867
  772MPD2    C511395   4.036   0.287  13.258 -0.5390 -0.2791 -0.4691
  772MPD2     H11396   4.073   0.276  13.638  1.2672  2.2777  1.0339
  772MPD2    H111397   3.839   0.306  13.292  0.4295  4.6360 -0.3953
  772MPD2    H211398   4.237   0.258  13.241  1.4364 -0.5235  1.3397
  772MPD2    H311399   4.021   0.289  13.150 -0.1111  0.0892 -0.5201
  772MPD2     N11400   3.828   0.340  13.542 -0.8028 -0.3035  0.6835
  772MPD2    H511401   3.754   0.365  13.477  1.0208  2.2514 -0.4048
  772MPD2    N111402   4.308   0.253  13.508 -0.7169 -0.1228 -0.1809
  772MPD2    H711403   4.312   0.288  13.603  1.3536 -0.6473 -0.0886
  773MPD2     C11404   3.790   1.563   0.383  0.7341  0.7143 -0.2410
  773MPD2    C111405   3.778   1.439   0.323 -0.1629  0.0535 -0.6352
  773MPD2    C211406   3.863   1.340   0.363 -0.3356  0.6174 -0.6672
  773MPD2    C311407   3.956   1.353   0.460 -0.4129 -0.2917 -0.6755
  773MPD2    C411408   3.967   1.482   0.520 -0.2372  0.4667 -0.9467
  773MPD2    C511409   3.886   1.584   0.477  0.2755  0.2767  0.2630
  773MPD2     H11410   3.847   1.240   0.323  0.1721 -0.0707  0.8513
  773MPD2    H111411   4.045   1.503   0.593 -0.4677  0.4830 -0.7031
  773MPD2    H211412   3.718   1.641   0.359 -2.1498 -1.9213 -0.0581
  773MPD2    H311413   3.897   1.684   0.519  1.2403 -0.0875  0.8914
  773MPD2     N11414   4.025   1.234   0.502  0.0015 -0.1380 -0.4186
  773MPD2    H511415   4.012   1.155   0.440  1.5133  0.6776 -1.7488
  773MPD2    N111416   3.691   1.404   0.215  0.7071 -0.6001  0.2490
  773MPD2    H711417   3.704   1.313   0.172  0.5236 -2.2717  3.7755
  774MPD2     C11418   2.314   0.737  13.889 -0.0305 -0.4625 -0.7210
  774MPD2    C111419   2.435   0.691  13.937 -0.8816 -0.7670  0.0724
  774MPD2    C211420   2.538   0.781  13.947 -1.0656 -0.6070 -0.5481
  774MPD2    C311421   2.530   0.912  13.907  0.8068 -0.2917 -0.0672
  774MPD2    C411422   2.405   0.960  13.871 -0.2597 -0.1136  0.4768
  774MPD2    C511423   2.305   0.867  13.854  0.0980  0.4811 -0.5253
  774MPD2     H11424   2.631   0.751  13.996 -1.2050  1.1996  0.7973
  774MPD2    H111425   2.389   1.066  13.854  1.3202  0.2037  1.0146
  774MPD2    H211426   2.226   0.676  13.874  0.0627 -0.1285 -2.5858
  774MPD2    H311427   2.210   0.909  13.822  0.2582  0.6484 -0.7777
  774MPD2     N11428   2.645   0.988  13.909 -1.0632 -0.5230 -0.4712
  774MPD2    H511429   2.728   0.938  13.939  0.0466  1.9833  0.6637
  774MPD2    N111430   2.456   0.557  13.984  0.4168 -0.1186  0.5725
  774MPD2    H711431   2.550   0.530  14.012 -0.1182 -1.3693  1.1222
  775MPD2     C11432   4.428   1.787  15.488 -0.4813 -0.1861  0.5551
  775MPD2    C111433   4.491   1.818  15.600  0.1149  0.1167  0.0244
  775MPD2    C211434   4.615   1.882  15.594 -0.0672 -0.5713  0.1339
  775MPD2    C311435   4.659   1.932  15.475  0.7392  0.1269  0.2041
  775MPD2    C411436   4.589   1.907  15.356  0.1833 -0.8745 -0.2491
  775MPD2    C511437   4.476   1.826  15.363  0.5074 -0.2270 -0.1106
  775MPD2     H11438   4.672   1.912  15.681  0.4822  1.7530 -1.0296
  775MPD2    H111439   4.637   1.925  15.261 -2.0041  1.1785 -0.9646
  775MPD2    H211440   4.331   1.740  15.494 -0.6632 -0.0355 -1.0743
  775MPD2    H311441   4.423   1.803  15.272 -0.0717  1.0619 -0.0856
  775MPD2     N11442   0.060   2.010  15.455 -0.0762 -0.2654 -0.3736
  775MPD2    H511443   0.093   2.040  15.364 -1.1309 -1.0546 -1.0157
  775MPD2    N111444   4.426   1.786  15.717  0.2916 -0.2810  0.5388
  775MPD2    H711445   4.326   1.771  15.718  0.4371 -0.9490  4.2668
  776MPD2     C11446   3.565   2.395  11.970  0.1254  0.2720 -0.0428
  776MPD2    C111447   3.492   2.431  11.855  0.0752 -0.6319 -0.3850
  776MPD2    C211448   3.550   2.502  11.751  0.5634 -0.7482  0.2016
  776MPD2    C311449   3.681   2.556  11.771 -0.3875 -0.3995  0.1968
  776MPD2    C411450   3.751   2.531  11.889 -0.0864 -0.1557  0.1558
  776MPD2    C511451   3.694   2.450  11.984 -0.6938  0.1898  0.7098
  776MPD2     H11452   3.498   2.531  11.660  0.3688  0.5889  0.7387
  776MPD2    H111453   3.852   2.567  11.909 -0.7423  0.7111  1.9191
  776MPD2    H211454   3.521   2.335  12.048 -0.1453 -0.3347 -0.6601
  776MPD2    H311455   3.761   2.414  12.062  0.6578  0.9198 -0.1169
  776MPD2     N11456   3.748   2.631  11.665  0.1877 -0.0669  0.3102
  776MPD2    H511457   3.839   2.664  11.696 -0.0691 -1.4031  2.4699
  776MPD2    N111458   3.359   2.382  11.860 -0.1249  0.5831 -0.8693
  776MPD2    H711459   3.326   2.347  11.949  1.5203  0.0558 -0.4732
  777MPD2     C11460   3.588   0.605   0.958  0.0755  0.2154 -0.3975
  777MPD2    C111461   3.704   0.609   1.031  0.3587  0.3521  0.0168
  777MPD2    C211462   3.800   0.519   0.996 -0.1710  0.3693 -0.5099
  777MPD2    C311463   3.788   0.416   0.909 -0.0164  0.4773  0.0915
  777MPD2    C411464   3.666   0.414   0.835 -0.3640  0.5268  0.3708
  777MPD2    C511465   3.578   0.515   0.857 -0.7020  1.0355  0.7168
  777MPD2     H11466   3.890   0.528   1.056  0.2576  3.2639 -1.5864
  777MPD2    H111467   3.641   0.339   0.761  0.6908  2.0922 -1.5843
  777MPD2    H211468   3.498   0.660   0.980  0.1870 -0.6309  2.1585
  777MPD2    H311469   3.484   0.514   0.802  0.1367  0.6650 -0.7039
  777MPD2     N11470   3.890   0.312   0.908  0.0446 -0.7671  0.1571
  777MPD2    H511471   3.968   0.328   0.971  0.3975  0.2744 -0.5415
  777MPD2    N111472   3.704   0.697   1.138  0.6176 -1.1491  0.7454
  777MPD2    H711473   3.626   0.760   1.154  1.9197  1.3283 -2.7576
  778MPD2     C11474   0.450   0.481  14.829  0.2183 -0.3553  0.2775
  778MPD2    C111475   0.451   0.355  14.772  0.6910  0.2622  0.0566
  778MPD2    C211476   0.537   0.331  14.666 -0.1100  0.5812 -0.2566
  778MPD2    C311477   0.612   0.432  14.603  0.5125  0.0770  0.2664
  778MPD2    C411478   0.593   0.560  14.648  0.6757 -0.4978  0.3050
  778MPD2    C511479   0.520   0.577  14.763  0.2463  0.4042  1.0470
  778MPD2     H11480   0.555   0.235  14.619  1.6411  1.4846 -1.4534
  778MPD2    H111481   0.644   0.648  14.610 -0.9515 -0.0011 -0.7139
  778MPD2    H211482   0.379   0.504  14.908  1.3613 -0.5925  1.3612
  778MPD2    H311483   0.486   0.673  14.801 -2.9089 -1.0051  1.8471
  778MPD2     N11484   0.685   0.400  14.488  0.5452 -0.3331 -0.1402
  778MPD2    H511485   0.704   0.301  14.481 -0.0272 -0.4450 -0.1106
  778MPD2    N111486   0.384   0.248  14.828  0.2860 -0.7502  0.0591
  778MPD2    H711487   0.394   0.159  14.778  0.6185  0.3107 -1.7666
  779MPD2     C11488   0.305   3.430  13.855  0.0321 -0.0776 -0.5020
  779MPD2    C111489   0.237   3.451  13.970 -0.5627  0.5107 -0.6555
  779MPD2    C211490   0.203   3.582  14.009 -0.1230 -0.1960 -0.4604
  779MPD2    C311491   0.253   3.694  13.941  0.2365  0.5664 -0.1310
  779MPD2    C411492   0.332   3.662  13.829  0.5374 -0.0741 -0.3772
  779MPD2    C511493   0.359   3.536  13.786 -0.3646  0.0285 -0.5693
  779MPD2     H11494   0.142   3.600  14.097 -0.7100  0.5404 -1.0223
  779MPD2    H111495   0.378   3.745  13.778 -1.0396  1.6178  0.9597
  779MPD2    H211496   0.332   3.330  13.823  2.4704  0.3769  0.1234
  779MPD2    H311497   0.423   3.513  13.702  1.6470 -2.3366  1.6116
  779MPD2     N11498   0.226   3.829  13.979  0.2816  0.0009  0.2351
  779MPD2    H511499   0.190   3.838  14.073 -0.4260  0.0183 -0.0321
  779MPD2    N111500   0.198   3.342  14.055  0.4436 -0.1314 -1.1572
  779MPD2    H711501   0.116   3.351  14.114  1.7803 -0.1953  0.7183
  780MPD2     C11502   4.093   3.423   1.321 -0.5382  0.5409 -0.3408
  780MPD2    C111503   4.058   3.366   1.201 -0.1442 -0.1370 -0.7844
  780MPD2    C211504   4.129   3.403   1.083  0.4543  0.0609  0.0526
  780MPD2    C311505   4.222   3.505   1.077  0.7889  1.2401  1.1830
  780MPD2    C411506   4.259   3.555   1.198 -0.3394  0.4947  0.1317
  780MPD2    C511507   4.197   3.515   1.314  0.5439 -0.5728 -0.2554
  780MPD2     H11508   4.096   3.344   0.999 -0.4144  0.3596  0.1849
  780MPD2    H111509   4.323   3.642   1.206 -1.4407  1.3582 -0.4725
  780MPD2    H211510   4.048   3.400   1.417 -1.5111  0.6586 -0.7766
  780MPD2    H311511   4.235   3.547   1.411  0.4440 -1.3981  0.0511
  780MPD2     N11512   4.282   3.544   0.956 -0.5375 -0.5335 -0.4915
  780MPD2    H511513   4.255   3.492   0.873  0.7509 -2.0209  0.0182
  780MPD2    N111514   3.954   3.272   1.210  0.2267 -0.2775  0.0967
  780MPD2    H711515   3.931   3.228   1.298 -0.9341 -3.8880 -2.0003
  781MPD2     C11516   1.234   1.260  12.136 -0.2087  0.0728  0.0742
  781MPD2    C111517   1.164   1.142  12.149  0.7716 -0.1523 -0.4154
  781MPD2    C211518   1.084   1.101  12.042  0.9069 -0.0241 -0.0488
  781MPD2    C311519   1.070   1.180  11.925 -0.9844 -0.1375  0.3645
  781MPD2    C411520   1.147   1.290  11.917 -0.0156 -0.6589  0.3648
  781MPD2    C511521   1.223   1.336  12.024  0.3084  0.1874 -0.4112
  781MPD2     H11522   1.040   1.002  12.040  0.0319  0.3588  0.3609
  781MPD2    H111523   1.132   1.349  11.828 -0.6091 -2.1773 -0.5438
  781MPD2    H211524   1.287   1.312  12.216  1.9298 -0.6265 -0.8809
  781MPD2    H311525   1.279   1.428  12.008 -2.1701  1.5473 -1.2156
  781MPD2     N11526   0.984   1.140  11.819 -0.3856  0.1775 -0.8876
  781MPD2    H511527   0.971   1.214  11.750 -0.6531 -1.5080 -2.6392
  781MPD2    N111528   1.172   1.056  12.263 -0.4838  0.0654 -0.5628
  781MPD2    H711529   1.120   0.969  12.261  1.9625 -1.4022 -0.7855
  782MPD2     C11530   2.999   1.471  10.193  0.3882  0.1135 -0.1787
  782MPD2    C111531   3.094   1.417  10.275  0.2782 -0.1474 -0.4587
  782MPD2    C211532   3.208   1.496  10.291  0.4236  0.3397  0.3482
  782MPD2    C311533   3.231   1.614  10.218  0.5745 -0.0792  1.4446
  782MPD2    C411534   3.144   1.659  10.126 -0.5337 -0.8975 -0.0814
  782MPD2    C511535   3.024   1.589  10.125  0.1656  0.0586  0.2767
  782MPD2     H11536   3.288   1.447  10.345 -0.3485 -0.1191  1.0819
  782MPD2    H111537   3.159   1.753  10.075 -0.9451 -1.1499 -0.6632
  782MPD2    H211538   2.910   1.414  10.170 -1.7447  3.9193 -1.4090
  782MPD2    H311539   2.948   1.625  10.056 -0.4816  0.2460  1.0888
  782MPD2     N11540   3.355   1.676  10.245  0.6782 -0.6106 -0.7080
  782MPD2    H511541   3.390   1.645  10.335  0.5763  0.6497 -0.2262
  782MPD2    N111542   3.082   1.285  10.333 -0.3948 -0.0555 -0.9004
  782MPD2    H711543   2.998   1.236  10.304 -1.0618  0.6402 -0.1290
  783MPD2     C11544   2.733   0.882  11.171 -0.7952 -0.7603 -0.2588
  783MPD2    C111545   2.751   1.013  11.133 -0.3811  0.9069  0.1633
  783MPD2    C211546   2.806   1.053  11.014 -0.6310 -0.8510  0.3155
  783MPD2    C311547   2.838   0.949  10.923 -0.3169  0.1836  0.3173
  783MPD2    C411548   2.797   0.820  10.951 -0.1422  0.6223 -0.5201
  783MPD2    C511549   2.750   0.788  11.077  0.0436  0.2586 -0.2338
  783MPD2     H11550   2.821   1.158  10.992 -0.4433 -0.4064  2.5941
  783MPD2    H111551   2.812   0.736  10.884 -0.4660  0.1058  0.0531
  783MPD2    H211552   2.698   0.857  11.270 -0.6501 -1.4540 -0.3820
  783MPD2    H311553   2.749   0.681  11.092 -0.2872  0.3402  0.3485
  783MPD2     N11554   2.918   0.980  10.811  0.3597  0.2481  0.5914
  783MPD2    H511555   2.972   1.066  10.807  0.0344  0.3910 -0.8109
  783MPD2    N111556   2.719   1.107  11.237 -0.4328 -1.0183  0.0650
  783MPD2    H711557   2.686   1.070  11.326 -1.6850 -2.5627 -1.0134
  784MPD2     C11558   1.379   1.366   0.631 -0.9052  0.3565 -0.2489
  784MPD2    C111559   1.503   1.396   0.682 -0.2929 -0.4057 -0.1054
  784MPD2    C211560   1.525   1.475   0.795  1.1711  0.3992  0.5529
  784MPD2    C311561   1.416   1.533   0.861 -0.3785 -0.2397 -0.4856
  784MPD2    C411562   1.292   1.508   0.807 -0.0905  0.4979 -0.5036
  784MPD2    C511563   1.275   1.425   0.697 -0.1231 -0.1416 -0.0160
  784MPD2     H11564   1.624   1.472   0.838  2.0070  0.7862 -1.3673
  784MPD2    H111565   1.198   1.546   0.845 -0.2962  0.9581 -1.4798
  784MPD2    H211566   1.352   1.301   0.548 -1.1146 -0.4849  0.4792
  784MPD2    H311567   1.178   1.399   0.656  0.5895 -1.9329 -0.5445
  784MPD2     N11568   1.451   1.619   0.971  0.1870  0.7010  0.3781
  784MPD2    H511569   1.545   1.650   0.991  0.9521 -1.0569 -0.5715
  784MPD2    N111570   1.614   1.330   0.631 -0.5020  0.6668 -0.0478
  784MPD2    H711571   1.703   1.353   0.675 -0.8227 -0.5905  1.2605
  785MPD2     C11572   1.640   0.323  10.676 -0.5412  0.3149  0.5015
  785MPD2    C111573   1.672   0.447  10.730  0.1343 -0.5333  0.6568
  785MPD2    C211574   1.572   0.543  10.751 -0.0273  0.3430  0.0384
  785MPD2    C311575   1.441   0.513  10.716  0.3168 -0.1078  0.3901
  785MPD2    C411576   1.411   0.398  10.644 -0.0637  0.4321  0.0672
  785MPD2    C511577   1.510   0.303  10.629 -0.3520 -0.3898  0.4338
  785MPD2     H11578   1.607   0.632  10.801  1.1759 -0.9318  1.4784
  785MPD2    H111579   1.311   0.388  10.604 -0.3560 -0.7751  1.0760
  785MPD2    H211580   1.709   0.240  10.674 -1.3180 -0.3174 -0.0785
  785MPD2    H311581   1.493   0.216  10.566 -0.8619  0.7916 -1.0548
  785MPD2     N11582   1.349   0.620  10.742  0.3693  0.0105 -0.3838
  785MPD2    H511583   1.388   0.709  10.772  2.9744 -0.8071 -1.3273
  785MPD2    N111584   1.798   0.488  10.775  0.5393  0.5425 -0.0796
  785MPD2    H711585   1.802   0.577  10.823 -1.3069  0.0822  0.9156
  786MPD2     C11586   0.851   3.032  14.815  0.0813  0.0197  0.5556
  786MPD2    C111587   0.799   2.918  14.857  0.6116  0.1690 -0.1809
  786MPD2    C211588   0.797   2.887  14.996  0.0835  0.1852  0.2773
  786MPD2    C311589   0.845   2.979  15.085 -0.4444 -0.5719  0.1482
  786MPD2    C411590   0.918   3.085  15.039 -0.2468 -1.2166  0.5245
  786MPD2    C511591   0.917   3.113  14.907 -0.0132 -0.1454  0.3144
  786MPD2     H11592   0.747   2.795  15.023  0.3189 -0.1771 -0.5143
  786MPD2    H111593   0.962   3.159  15.104 -0.6364 -1.7093  1.3466
  786MPD2    H211594   0.836   3.067  14.713  1.1903  0.2966  0.4919
  786MPD2    H311595   0.952   3.210  14.876 -1.5257 -0.1471 -1.3799
  786MPD2     N11596   0.848   2.967  15.224  0.0732  0.1569  0.0570
  786MPD2    H511597   0.920   3.024  15.268  0.7414 -1.4965  1.1156
  786MPD2    N111598   0.757   2.814  14.770 -0.2564 -0.6759  0.5700
  786MPD2    H711599   0.710   2.736  14.815  0.2223 -1.8510 -0.9412
  787MPD2     C11600   0.782   2.223  14.961  0.3359  0.0849 -0.7207
  787MPD2    C111601   0.825   2.224  14.823 -0.1725 -0.0787  0.0547
  787MPD2    C211602   0.911   2.124  14.783 -0.1563  0.3964  0.0946
  787MPD2    C311603   0.955   2.025  14.869 -0.7354  0.6099  0.6781
  787MPD2    C411604   0.913   2.023  15.005 -0.7937  0.0056  0.4995
  787MPD2    C511605   0.825   2.121  15.043  0.2750  0.5311  0.4274
  787MPD2     H11606   0.947   2.121  14.681 -0.6491 -0.0619 -0.0668
  787MPD2    H111607   0.954   1.954  15.077 -1.1183 -2.2057 -1.4231
  787MPD2    H211608   0.720   2.301  15.004 -0.2876 -0.7655 -0.1059
  787MPD2    H311609   0.816   2.140  15.149  0.5329  0.4292  0.4654
  787MPD2     N11610   1.052   1.931  14.818 -0.3369 -0.0439 -0.2067
  787MPD2    H511611   1.072   1.941  14.719 -0.3040 -0.7588 -0.2744
  787MPD2    N111612   0.778   2.331  14.743 -0.2730 -0.3102 -0.5612
  787MPD2    H711613   0.731   2.409  14.787  0.3221 -1.0748  1.4358
  788MPD2     C11614   2.733   1.203   0.476 -0.0054  0.2121  0.6349
  788MPD2    C111615   2.779   1.090   0.413  0.7051 -0.0060  0.6329
  788MPD2    C211616   2.871   1.111   0.313  0.1635  0.3426  0.1482
  788MPD2    C311617   2.914   1.237   0.273 -0.1356 -1.0545 -0.1756
  788MPD2    C411618   2.860   1.352   0.342  0.4774  0.2975 -0.1528
  788MPD2    C511619   2.769   1.328   0.438 -0.1089  0.7840  0.3867
  788MPD2     H11620   2.917   1.027   0.263 -0.8591 -0.0102 -0.1956
  788MPD2    H111621   2.888   1.456   0.326  0.4404  0.4256  0.6325
  788MPD2    H211622   2.656   1.190   0.552  2.0270  2.2553  3.0334
  788MPD2    H311623   2.736   1.409   0.502  0.8584  0.6051  1.1205
  788MPD2     N11624   3.011   1.260   0.174  0.0444 -0.1320  0.2445
  788MPD2    H511625   3.041   1.355   0.155 -1.2170  0.6671  2.2427
  788MPD2    N111626   2.747   0.959   0.451 -0.2541  0.1381  0.4403
  788MPD2    H711627   2.808   0.890   0.407  0.1885 -0.6914  2.3387
  789MPD2     C11628   2.833   0.401  16.495  0.3793  0.5752 -0.4348
  789MPD2    C111629   2.792   0.340  16.608  0.2893  0.3194 -0.0828
  789MPD2    C211630   2.671   0.386  16.657 -0.5515 -0.1264 -0.3499
  789MPD2    C311631   2.586   0.473  16.597 -0.3556  1.0137  0.3435
  789MPD2    C411632   2.633   0.533  16.483 -0.7439  0.3267  0.4239
  789MPD2    C511633   2.748   0.490  16.434  0.4077  0.2259  0.0721
  789MPD2     H11634   2.643   0.322  16.739  0.0227 -0.1355 -0.1585
  789MPD2    H111635   2.582   0.605  16.420  2.5016  1.3457 -1.0468
  789MPD2    H211636   2.930   0.384  16.450  0.1957 -1.6899  0.0341
  789MPD2    H311637   2.777   0.532  16.338  1.7407 -1.3893 -0.2292
  789MPD2     N11638   2.463   0.519  16.644  0.0821 -0.3933 -0.3582
  789MPD2    H511639   2.422   0.592  16.586 -0.4318  0.2503  0.8257
  789MPD2    N111640   2.864   0.242  16.674  0.7282  0.1185 -0.0661
  789MPD2    H711641   2.836   0.216  16.768 -2.5195 -0.6412 -1.2413
  790MPD2     C11642   3.369   3.152  13.791 -0.1002  0.2752  0.0875
  790MPD2    C111643   3.469   3.070  13.743  0.4509  0.5309 -0.3897
  790MPD2    C211644   3.479   3.042  13.605  0.0601  0.4594  0.0337
  790MPD2    C311645   3.397   3.098  13.511  0.2140  0.0730  0.1135
  790MPD2    C411646   3.292   3.169  13.565  0.3132  0.2283 -0.0459
  790MPD2    C511647   3.273   3.189  13.699 -0.9071  0.0571 -0.5543
  790MPD2     H11648   3.560   2.978  13.571 -0.4666 -0.3319  0.2832
  790MPD2    H111649   3.216   3.208  13.499  1.9639 -0.9142 -2.6418
  790MPD2    H211650   3.358   3.168  13.898 -1.7314 -1.6693  0.2092
  790MPD2    H311651   3.186   3.246  13.730  0.7715  3.1367 -1.4477
  790MPD2     N11652   3.411   3.085  13.368 -0.2060  0.5291  0.1366
  790MPD2    H511653   3.338   3.126  13.311  1.8941  2.4290 -1.2164
  790MPD2    N111654   3.551   3.017  13.845 -0.2742 -0.7511 -0.3330
  790MPD2    H711655   3.535   3.059  13.936 -1.2579 -0.5666 -0.6005
  791MPD2     C11656   3.108   2.981  12.591 -0.8993  0.5600 -0.1671
  791MPD2    C111657   3.088   2.953  12.728 -0.0473  0.4675 -0.1915
  791MPD2    C211658   3.009   2.845  12.763 -0.3992  0.2245 -0.2554
  791MPD2    C311659   2.948   2.778  12.663  0.8110  0.4220  0.4493
  791MPD2    C411660   2.948   2.817  12.532  0.2192 -0.0651  0.7503
  791MPD2    C511661   3.028   2.918  12.502  0.6598 -0.5290  0.6969
  791MPD2     H11662   2.999   2.808  12.865  0.5669 -0.9062 -0.5565
  791MPD2    H111663   2.902   2.763  12.450  2.8259  0.7868 -1.2337
  791MPD2    H211664   3.175   3.061  12.562 -1.6325  1.2579  0.0588
  791MPD2    H311665   3.027   2.950  12.399  1.6004  1.9816  1.4533
  791MPD2     N11666   2.871   2.659  12.706  0.4034 -0.8644  0.1170
  791MPD2    H511667   2.897   2.637  12.801  0.1505  0.5960  0.5327
  791MPD2    N111668   3.173   3.023  12.812  0.3394 -0.1010  0.1222
  791MPD2    H711669   3.241   3.085  12.770  2.2335 -1.4843  1.1284
  792MPD2     C11670   3.448   1.888  11.266  0.1173  0.6826 -0.4223
  792MPD2    C111671   3.459   1.946  11.134 -0.1209 -0.6642 -0.1128
  792MPD2    C211672   3.350   1.946  11.049  0.0154  0.5654  0.1408
  792MPD2    C311673   3.237   1.883  11.093 -0.0067  0.0667  0.4488
  792MPD2    C411674   3.234   1.820  11.221 -0.2363 -0.0972  0.4593
  792MPD2    C511675   3.338   1.821  11.306 -0.1114 -0.3441 -0.1853
  792MPD2     H11676   3.360   1.992  10.951 -3.6901 -2.0787 -1.4654
  792MPD2    H111677   3.135   1.792  11.255  0.5359  0.5667  3.2568
  792MPD2    H211678   3.529   1.869  11.337  1.6460  0.4174 -2.2463
  792MPD2    H311679   3.322   1.787  11.408 -1.1572  0.4379 -0.0870
  792MPD2     N11680   3.123   1.856  11.007 -0.4445 -0.0160 -0.0616
  792MPD2    H511681   3.054   1.791  11.043  2.6762 -2.0710  2.2514
  792MPD2    N111682   3.588   1.997  11.093  0.3057 -0.2372  0.5770
  792MPD2    H711683   3.664   1.984  11.159  1.5228 -0.4175 -0.8515
  793MPD2     C11684   2.691   2.320  10.172 -0.3140 -0.1106 -0.1209
  793MPD2    C111685   2.819   2.325  10.218  0.0490 -0.4361 -0.0310
  793MPD2    C211686   2.851   2.262  10.339  0.5028 -0.1523  0.0083
  793MPD2    C311687   2.767   2.182  10.411 -0.7420  0.8063 -0.6427
  793MPD2    C411688   2.637   2.178  10.362  0.3519 -0.2946 -0.3778
  793MPD2    C511689   2.603   2.243  10.247  0.4320 -0.1590 -0.0678
  793MPD2     H11690   2.956   2.269  10.367 -0.0869  0.8159  1.9674
  793MPD2    H111691   2.553   2.135  10.415 -0.2693  0.2649 -0.9164
  793MPD2    H211692   2.666   2.373  10.081  3.7467  1.4781 -0.3336
  793MPD2    H311693   2.499   2.249  10.218  0.3097  0.0521  0.4250
  793MPD2     N11694   2.812   2.105  10.520  0.2536  0.8371  0.3697
  793MPD2    H511695   2.912   2.104  10.536  0.3776  0.0586 -0.4421
  793MPD2    N111696   2.930   2.379  10.147 -0.7528 -0.7551 -0.0388
  793MPD2    H711697   3.018   2.393  10.197 -1.1343  2.8144 -0.3618
  794MPD2     C11698   3.055   1.639  17.323 -0.3381  0.0834  0.3481
  794MPD2    C111699   3.178   1.611  17.271 -0.3461  0.8756  1.0670
  794MPD2    C211700   3.197   1.637  17.137 -0.4580 -0.2850 -0.2149
  794MPD2    C311701   3.100   1.687  17.052 -0.2847 -0.0890 -0.0559
  794MPD2    C411702   2.980   1.718  17.109  0.4944 -0.2494  0.4574
  794MPD2    C511703   2.961   1.692  17.242 -0.3541  1.0525 -0.1447
  794MPD2     H11704   3.295   1.610  17.098 -0.7375 -1.3820 -0.1801
  794MPD2    H111705   2.900   1.754  17.045  0.6659  0.2543  0.5257
  794MPD2    H211706   3.032   1.632  17.429 -1.1138  0.1687  0.1897
  794MPD2    H311707   2.861   1.719  17.274 -0.0848  0.2318  1.3868
  794MPD2     N11708   3.114   1.725  16.916  0.7714  0.5659  0.1790
  794MPD2    H511709   3.032   1.774  16.883 -0.5016 -1.4452  0.3721
  794MPD2    N111710   3.287   1.573  17.351 -0.1337  0.0786  0.4124
  794MPD2    H711711   3.377   1.552  17.309  0.4290  2.2182  0.5798
  795MPD2     C11712   1.386   4.173  13.000  0.3276  0.2198  0.5051
  795MPD2    C111713   1.376   4.091  13.108  0.4294  0.4359 -0.3792
  795MPD2    C211714   1.486   4.015  13.141  0.1631  0.2111 -1.3424
  795MPD2    C311715   1.607   4.032  13.071  0.4880 -0.6507 -0.0209
  795MPD2    C411716   1.614   4.127  12.980  0.8185 -0.0271  0.7004
  795MPD2    C511717   1.502   4.194  12.939  0.1871 -0.3519 -0.0173
  795MPD2     H11718   1.469   3.933  13.210  0.5716 -0.0134 -1.5101
  795MPD2    H111719   1.705   4.154  12.929 -1.1544  2.0583 -1.7018
  795MPD2    H211720   1.299   4.218  12.954 -0.7979 -1.6458  0.8068
  795MPD2    H311721   1.508   4.253  12.848 -0.6388 -0.0235  0.1401
  795MPD2     N11722   1.725   3.964  13.114  0.0228 -0.6139  0.5443
  795MPD2    H511723   1.710   3.885  13.176  1.1094 -0.5025  0.9636
  795MPD2    N111724   1.254   4.066  13.182  0.4092 -0.1053  0.0523
  795MPD2    H711725   1.257   4.000  13.259  1.6417  1.4216  1.3170
  796MPD2     C11726   0.643   0.360  16.141 -0.3980  0.4293 -0.2247
  796MPD2    C111727   0.719   0.445  16.212 -0.0160  0.2903 -0.0142
  796MPD2    C211728   0.740   0.579  16.186 -0.9457  0.1074 -0.0910
  796MPD2    C311729   0.663   0.628  16.078 -0.3006  0.3441 -0.3031
  796MPD2    C411730   0.586   0.543  16.003  0.2436 -0.2230  0.2548
  796MPD2    C511731   0.580   0.406  16.032  0.3166  0.4842  0.1542
  796MPD2     H11732   0.790   0.648  16.253 -1.5880  1.0133 -0.5419
  796MPD2    H111733   0.530   0.575  15.915 -0.5474 -0.5258  0.6517
  796MPD2    H211734   0.639   0.255  16.167 -2.4669  0.7651  0.7949
  796MPD2    H311735   0.511   0.341  15.980  0.8401 -1.3579  1.7952
  796MPD2     N11736   0.680   0.766  16.044 -0.0462  0.2378 -0.4176
  796MPD2    H511737   0.742   0.823  16.100  1.5147 -2.0574  0.2311
  796MPD2    N111738   0.773   0.389  16.328 -0.6574 -0.3985 -0.3469
  796MPD2    H711739   0.758   0.290  16.345  1.2737 -0.3553  1.7383
  797MPD2     C11740   1.138   4.382   0.003  0.1418 -0.1377 -0.2505
  797MPD2    C111741   1.244   4.444   0.067  0.4161 -0.3494 -0.6940
  797MPD2    C211742   1.308   4.546   0.002  0.0588  0.6605  0.0759
  797MPD2    C311743   1.249   4.608  17.572 -0.0215 -0.1690  0.2142
  797MPD2    C411744   1.144   4.554  17.516  0.2605 -0.2732 -0.2646
  797MPD2    C511745   1.091   4.439  17.565 -0.1532  0.3929 -0.5033
  797MPD2     H11746   1.382   4.598   0.061 -1.7354  0.6598  2.3307
  797MPD2    H111747   1.103   4.600  17.427  0.9486 -0.2396 -0.5667
  797MPD2    H211748   1.095   4.291   0.041  1.9309 -0.1754  1.6854
  797MPD2    H311749   1.003   4.396  17.520  1.1123 -1.8467 -0.8476
  797MPD2     N11750   1.292   0.017  17.531  0.4662  0.0348  0.1148
  797MPD2    H511751   1.220   0.062  17.475  1.6166  0.2491 -1.2022
  797MPD2    N111752   1.316   4.389   0.179  0.5998  0.0872 -0.8981
  797MPD2    H711753   1.405   4.430   0.208 -0.6542  1.1871  1.3651
  798MPD2     C11754   1.176   0.367   0.403  0.2889 -0.6612 -0.3932
  798MPD2    C111755   1.298   0.336   0.338  0.0182  0.1054  0.0875
  798MPD2    C211756   1.361   0.213   0.379  1.1447  0.1175  0.3631
  798MPD2    C311757   1.302   0.125   0.470 -0.2232 -0.7474  0.1130
  798MPD2    C411758   1.184   0.170   0.531 -0.7318  0.2715  0.2268
  798MPD2    C511759   1.119   0.283   0.500 -0.5818 -0.5792  0.1540
  798MPD2     H11760   1.444   0.180   0.318  1.7803 -2.3775  2.5855
  798MPD2    H111761   1.133   0.106   0.603  1.2759 -0.7187  0.7555
  798MPD2    H211762   1.122   0.459   0.382  1.0052 -0.5042 -1.5572
  798MPD2    H311763   1.027   0.299   0.553  0.2175 -1.0899  1.6833
  798MPD2     N11764   1.348   4.713   0.474  1.1677  0.0529  0.5241
  798MPD2    H511765   1.432   4.681   0.428 -1.9563 -1.5999 -4.0064
  798MPD2    N111766   1.332   0.410   0.219 -0.0580 -0.1194  0.0683
  798MPD2    H711767   1.262   0.477   0.189  0.2164  0.1539  0.0350
  799MPD2     C11768   0.388   1.537  14.712 -0.1767 -0.6345  0.0866
  799MPD2    C111769   0.465   1.505  14.599  0.2504  0.0149  0.0084
  799MPD2    C211770   0.439   1.581  14.477  0.4044  0.3643 -0.7327
  799MPD2    C311771   0.354   1.687  14.484 -0.4306 -0.0931 -0.3950
  799MPD2    C411772   0.288   1.713  14.596 -0.4426  1.0798 -0.1139
  799MPD2    C511773   0.288   1.632  14.708  0.1521  0.5655 -0.4644
  799MPD2     H11774   0.508   1.563  14.396 -1.5197  1.3194 -2.5952
  799MPD2    H111775   0.227   1.802  14.604  0.9936  1.9730  0.7555
  799MPD2    H211776   0.406   1.485  14.805  0.4311  1.8433  1.3460
  799MPD2    H311777   0.229   1.643  14.798  1.2015 -0.8696  0.3948
  799MPD2     N11778   0.340   1.778  14.382 -0.3975  0.7663  0.5148
  799MPD2    H511779   0.290   1.865  14.397  0.0852  1.4463 -1.9059
  799MPD2    N111780   0.569   1.401  14.604  0.8714 -0.1306  0.0853
  799MPD2    H711781   0.607   1.375  14.513 -1.3426 -1.1816 -0.5266
  800MPD2     C11782   1.588   2.690  14.442 -0.1851  0.1345 -0.4738
  800MPD2    C111783   1.686   2.778  14.401  0.1225  0.0241 -0.2130
  800MPD2    C211784   1.706   2.808  14.262  0.7752 -0.5593  0.2259
  800MPD2    C311785   1.627   2.747  14.163  0.3309 -0.3229  0.4902
  800MPD2    C411786   1.529   2.660  14.206  0.6527 -0.2697  0.5556
  800MPD2    C511787   1.532   2.621  14.338  0.5001  0.5083  0.5997
  800MPD2     H11788   1.762   2.890  14.219  1.8669 -2.4807 -2.0624
  800MPD2    H111789   1.452   2.605  14.152  1.5136  0.0694 -0.9935
  800MPD2    H211790   1.556   2.677  14.545  3.2209 -2.8773  0.2019
  800MPD2    H311791   1.443   2.567  14.367  1.3022  0.3088  2.6954
  800MPD2     N11792   1.638   2.803  14.033  0.1054  0.3453  0.3884
  800MPD2    H511793   1.706   2.878  14.022  1.3970 -0.6880  1.3296
  800MPD2    N111794   1.761   2.832  14.508 -0.1486  0.5703 -0.2052
  800MPD2    H711795   1.727   2.800  14.599 -1.8217  1.1906 -0.6106
  801MPD2     C11796   1.498   3.432  14.899  0.2112  0.0988  0.3970
  801MPD2    C111797   1.493   3.331  14.805 -0.3280 -0.2902 -0.1379
  801MPD2    C211798   1.379   3.323  14.730  0.0024 -0.5616 -0.0886
  801MPD2    C311799   1.274   3.418  14.751  0.7819 -0.5955 -0.7090
  801MPD2    C411800   1.293   3.528  14.834 -0.4177 -0.0057 -0.2244
  801MPD2    C511801   1.407   3.529  14.904  0.1528 -0.0759  0.1384
  801MPD2     H11802   1.365   3.238  14.665  1.2659 -2.0825  1.6378
  801MPD2    H111803   1.209   3.588  14.867  1.6543  1.7793  1.8126
  801MPD2    H211804   1.576   3.455  14.971  0.6818 -2.7833  0.8131
  801MPD2    H311805   1.413   3.609  14.977  2.3379  1.6516 -1.9318
  801MPD2     N11806   1.140   3.403  14.707 -0.4073 -0.3110  0.5950
  801MPD2    H511807   1.083   3.487  14.706 -2.4891 -1.7527 -1.5451
  801MPD2    N111808   1.597   3.230  14.790 -0.2707  0.0925 -0.0855
  801MPD2    H711809   1.584   3.148  14.731  0.1964  0.4807 -0.7301
  802MPD2     C11810   4.708   3.820  17.078  0.0419  0.2981  0.7231
  802MPD2    C111811   4.718   3.826  17.213 -0.0677  0.0040  0.3656
  802MPD2    C211812   0.071   3.731  17.274  0.0017 -0.0373 -0.3137
  802MPD2    C311813   0.150   3.639  17.209 -0.4997 -0.1826  0.1674
  802MPD2    C411814   0.141   3.633  17.074 -0.1449  0.0039 -0.3134
  802MPD2    C511815   0.055   3.723  17.007 -0.5612 -0.6292  0.4412
  802MPD2     H11816   0.075   3.733  17.382 -0.8726 -1.7968 -0.2564
  802MPD2    H111817   0.196   3.567  17.007  0.4267  0.6401 -0.4740
  802MPD2    H211818   4.652   3.899  17.029 -1.0829 -1.0970 -0.2530
  802MPD2    H311819   0.044   3.735  16.899 -0.7535 -0.3611  0.4902
  802MPD2     N11820   0.235   3.566  17.292 -0.0006  0.0594  0.1424
  802MPD2    H511821   0.219   3.569  17.392  0.1908 -1.4228  0.2234
  802MPD2    N111822   4.668   3.927  17.292 -0.0932  0.3715  0.4793
  802MPD2    H711823   4.671   3.910  17.392 -0.7047 -0.9896  0.2586
  803MPD2     C11824   1.928   2.572  11.860  1.1456 -0.3742  0.0832
  803MPD2    C111825   1.906   2.699  11.914  0.3590  0.8501 -0.7711
  803MPD2    C211826   1.841   2.721  12.034 -0.0399  0.3989 -0.0723
  803MPD2    C311827   1.811   2.607  12.105 -0.0154 -0.3357 -0.3965
  803MPD2    C411828   1.830   2.479  12.054  0.7961 -0.5711  0.0471
  803MPD2    C511829   1.893   2.460  11.934  0.0274  0.1677  0.7704
  803MPD2     H11830   1.831   2.821  12.075 -0.5550 -0.4400  1.8292
  803MPD2    H111831   1.803   2.398  12.121  0.8944 -1.3690 -0.8851
  803MPD2    H211832   1.970   2.550  11.763  0.6998 -0.3888 -0.1041
  803MPD2    H311833   1.920   2.365  11.888 -0.6578 -0.5601  1.8883
  803MPD2     N11834   1.747   2.620  12.231 -0.2087  0.2815 -0.3930
  803MPD2    H511835   1.717   2.532  12.273  0.3153 -0.1224 -0.8685
  803MPD2    N111836   1.950   2.812  11.836 -0.0922  0.9610  0.6668
  803MPD2    H711837   1.933   2.908  11.861  2.7719  1.2413  1.5629
  804MPD2     C11838   1.418   3.331  17.286 -0.4685  0.8244  0.3541
  804MPD2    C111839   1.403   3.312  17.420 -0.4412  0.6210 -0.4834
  804MPD2    C211840   1.443   3.419  17.503  0.5099  0.0364  0.2063
  804MPD2    C311841   1.490   3.533  17.446  0.1655 -0.1276  0.9521
  804MPD2    C411842   1.512   3.551  17.312  0.2044 -0.4168  0.2682
  804MPD2    C511843   1.477   3.440  17.232 -0.1724  0.1505  0.3226
  804MPD2     H11844   1.444   3.406  17.611 -0.0830 -1.6051  0.0102
  804MPD2    H111845   1.538   3.645  17.263 -1.2409  0.4126  1.1030
  804MPD2    H211846   1.391   3.256  17.212  0.7495  1.8703 -1.1543
  804MPD2    H311847   1.472   3.454  17.125 -0.4078  0.5776  0.3894
  804MPD2     N11848   1.539   3.629  17.542  0.2753 -0.4704  0.1661
  804MPD2    H511849   1.523   3.617  17.642 -0.2036  0.0856  0.1547
  804MPD2    N111850   1.356   3.195  17.483 -0.0454 -0.2546 -0.2881
  804MPD2    H711851   1.331   3.202  17.581  1.5038 -0.6330  0.1407
  805MPD2     C11852   0.567   1.260  15.497 -1.1880  0.0931 -0.3799
  805MPD2    C111853   0.524   1.387  15.478  0.3251  0.1749  0.4502
  805MPD2    C211854   0.608   1.490  15.505  0.0167 -0.0683  0.0935
  805MPD2    C311855   0.731   1.460  15.567  0.5080  0.0125  0.6680
  805MPD2    C411856   0.778   1.333  15.574  0.4164 -0.1722 -0.0188
  805MPD2    C511857   0.695   1.231  15.538 -0.7758  0.2544 -0.0754
  805MPD2     H11858   0.582   1.593  15.487 -1.2991 -0.8051 -2.2302
  805MPD2    H111859   0.878   1.304  15.604 -0.6631 -2.1976  1.6232
  805MPD2    H211860   0.507   1.172  15.477 -2.6048  1.0995 -0.5602
  805MPD2    H311861   0.729   1.128  15.547  0.3460  0.7099  0.8985
  805MPD2     N11862   0.796   1.572  15.618  0.6410  0.3953 -0.5002
  805MPD2    H511863   0.763   1.667  15.601 -0.8926  0.1210  0.9932
  805MPD2    N111864   0.400   1.425  15.424  0.1125  0.1783  0.3921
  805MPD2    H711865   0.390   1.526  15.430 -2.0342 -0.0546  0.4990
  806MPD2     C11866   0.918   1.145   0.386 -0.5312 -0.4753 -0.6904
  806MPD2    C111867   0.928   1.278   0.430 -0.4043 -0.6741 -0.2676
  806MPD2    C211868   1.036   1.357   0.381 -0.3528 -0.1900 -0.4092
  806MPD2    C311869   1.132   1.298   0.305 -0.1066 -0.2167 -0.8364
  806MPD2    C411870   1.114   1.173   0.258 -0.0645 -0.1944 -0.3428
  806MPD2    C511871   1.007   1.098   0.297 -0.0147  0.1242 -0.3599
  806MPD2     H11872   1.040   1.462   0.408 -1.6847 -0.0406 -0.7659
  806MPD2    H111873   1.185   1.131   0.187 -0.8496 -1.9934 -0.0696
  806MPD2    H211874   0.837   1.076   0.407 -0.7856  0.1656  0.4325
  806MPD2    H311875   0.996   0.999   0.255  1.2022  0.0096 -0.4325
  806MPD2     N11876   1.244   1.374   0.280 -0.0388 -0.2622  0.3125
  806MPD2    H511877   1.229   1.471   0.308 -1.8178 -0.5694  0.4153
  806MPD2    N111878   0.849   1.331   0.533  0.2891 -0.4728  0.0100
  806MPD2    H711879   0.884   1.421   0.564  2.4181 -1.4938  0.6140
  807MPD2     C11880   0.272   1.302   1.218 -0.1926  0.1748 -0.4579
  807MPD2    C111881   0.382   1.380   1.226  0.1531  0.2077 -0.3141
  807MPD2    C211882   0.408   1.438   1.346  0.1061  0.1325  0.4199
  807MPD2    C311883   0.319   1.427   1.450  0.6698  0.0419  0.4278
  807MPD2    C411884   0.204   1.352   1.438  0.2281 -0.9451 -0.4606
  807MPD2    C511885   0.183   1.292   1.310 -0.3552  0.1380 -0.8722
  807MPD2     H11886   0.500   1.488   1.371  0.8071 -0.6148 -0.6399
  807MPD2    H111887   0.132   1.354   1.518 -0.1936  1.0053 -0.8888
  807MPD2    H211888   0.242   1.255   1.125 -2.2622  0.4121  0.0876
  807MPD2    H311889   0.095   1.232   1.288 -0.1030 -0.0252 -1.4598
  807MPD2     N11890   0.356   1.483   1.571 -0.0482 -0.3942 -0.0337
  807MPD2    H511891   0.449   1.525   1.575 -0.0187 -0.3662 -1.0378
  807MPD2    N111892   0.484   1.373   1.126  0.4481  0.8233  0.0869
  807MPD2    H711893   0.578   1.403   1.150 -0.0702  0.5646  2.5004
  808MPD2     C11894   1.071   3.023   9.682 -0.3884  0.1981  0.4626
  808MPD2    C111895   1.062   2.989   9.818 -0.4066 -0.6502  0.4691
  808MPD2    C211896   1.098   3.086   9.917 -0.4456  0.9444 -0.2746
  808MPD2    C311897   1.135   3.212   9.881 -0.0830 -0.6941  0.0809
  808MPD2    C411898   1.134   3.241   9.747 -0.7784  0.0762  0.0261
  808MPD2    C511899   1.116   3.150   9.650 -0.1366 -0.7525 -1.4974
  808MPD2     H11900   1.103   3.053  10.021 -0.6488  0.0009 -0.5660
  808MPD2    H111901   1.177   3.337   9.721 -2.4692  0.8583  0.1023
  808MPD2    H211902   1.054   2.953   9.601 -1.3156 -0.5855  1.3439
  808MPD2    H311903   1.126   3.181   9.546 -1.7560  0.9604 -1.1249
  808MPD2     N11904   1.170   3.312   9.969  0.2284  0.1295 -0.0101
  808MPD2    H511905   1.203   3.395   9.920  2.2949 -1.6722 -1.6834
  808MPD2    N111906   1.035   2.861   9.861  0.1142  0.2183 -0.3437
  808MPD2    H711907   1.045   2.844   9.961 -1.1110  2.0392  0.0779
  809MPD2     C11908   1.425   4.274  10.006 -0.1335 -0.0000 -0.3724
  809MPD2    C111909   1.396   4.176   9.911  0.4235  0.0833 -0.1504
  809MPD2    C211910   1.373   4.046   9.948  0.9433  0.3332  0.5514
  809MPD2    C311911   1.355   4.016  10.086  0.3532 -0.1761 -0.2538
  809MPD2    C411912   1.377   4.119  10.181  0.3409 -0.1290 -0.2192
  809MPD2    C511913   1.407   4.245  10.139 -0.4858  0.1876 -0.5167
  809MPD2     H11914   1.366   3.972   9.869  0.2925 -1.2694  2.1123
  809MPD2    H111915   1.351   4.104  10.285 -0.1831  0.4168 -0.2655
  809MPD2    H211916   1.442   4.375   9.971  0.5773  0.1416  0.3913
  809MPD2    H311917   1.426   4.323  10.212 -1.2003 -1.0316  0.9850
  809MPD2     N11918   1.309   3.892  10.141  0.2055 -0.5733 -0.0218
  809MPD2    H511919   1.314   3.877  10.241 -2.1929 -1.7474 -0.0625
  809MPD2    N111920   1.403   4.196   9.775 -0.0810 -0.0656  0.2192
  809MPD2    H711921   1.393   4.115   9.715 -1.8516 -1.1475  1.9479
  810MPD2     C11922   0.653   1.699  10.564 -0.5694 -0.1384  0.6613
  810MPD2    C111923   0.581   1.752  10.458  0.1742 -0.3588  0.0569
  810MPD2    C211924   0.602   1.881  10.425  0.1563  0.0916 -0.3506
  810MPD2    C311925   0.673   1.961  10.511 -0.5942 -0.6945 -0.8245
  810MPD2    C411926   0.730   1.916  10.625  0.0817 -0.3918 -0.2866
  810MPD2    C511927   0.723   1.783  10.646 -0.1567 -0.3897 -0.2501
  810MPD2     H11928   0.552   1.917  10.336  0.4456  2.6382  0.5173
  810MPD2    H111929   0.784   1.980  10.694  1.1116  1.5973 -2.9237
  810MPD2    H211930   0.650   1.596  10.595 -1.7035 -0.3797 -0.2488
  810MPD2    H311931   0.760   1.738  10.737  0.5595  1.3563  0.3360
  810MPD2     N11932   0.684   2.100  10.486  0.2228 -0.6509  0.3393
  810MPD2    H511933   0.741   2.148  10.555 -1.0819 -0.7611  1.5161
  810MPD2    N111934   0.489   1.671  10.384 -0.6957 -0.5503  0.3126
  810MPD2    H711935   0.441   1.712  10.304 -1.5574  0.5687  1.3989
  811MPD2     C11936   0.043   1.755   9.733 -0.4452 -0.6593 -0.1728
  811MPD2    C111937   0.117   1.792   9.848 -0.1048 -0.0260 -0.0050
  811MPD2    C211938   0.176   1.921   9.857 -0.0429 -0.5452  0.0207
  811MPD2    C311939   0.155   2.016   9.758 -0.8805 -0.2924 -0.0271
  811MPD2    C411940   0.085   1.975   9.649  0.2233 -0.1594 -0.0589
  811MPD2    C511941   0.032   1.850   9.634  0.3763 -0.0712 -0.7540
  811MPD2     H11942   0.238   1.948   9.941  3.0629  0.4155 -2.6058
  811MPD2    H111943   0.071   2.030   9.558  1.6866 -0.0236 -0.2009
  811MPD2    H211944   0.003   1.656   9.716  0.2346 -1.2855  1.9729
  811MPD2    H311945   4.702   1.830   9.540  0.6224 -0.0778 -0.8828
  811MPD2     N11946   0.206   2.147   9.775 -0.5437 -0.4502 -0.5695
  811MPD2    H511947   0.261   2.170   9.858 -1.2053  0.5565 -0.3981
  811MPD2    N111948   0.129   1.691   9.948 -0.7064 -0.1953  0.1986
  811MPD2    H711949   0.078   1.606   9.925 -0.4665  0.0731 -1.3409
  812MPD2     C11950   4.362   2.553  12.540 -0.9431  0.1185 -0.6278
  812MPD2    C111951   4.244   2.605  12.593  0.2186 -0.5798 -0.8604
  812MPD2    C211952   4.202   2.573  12.722  0.0707 -0.4841  0.5456
  812MPD2    C311953   4.271   2.478  12.796  0.1696  0.3583 -0.5490
  812MPD2    C411954   4.388   2.427  12.739  0.8725 -0.1870  0.2493
  812MPD2    C511955   4.426   2.459  12.612  0.0136  0.1370 -0.3432
  812MPD2     H11956   4.113   2.623  12.758  0.6196  1.6863 -1.1005
  812MPD2    H111957   4.442   2.353  12.797 -0.9098  0.5665  2.8967
  812MPD2    H211958   4.401   2.585  12.444 -1.5105  1.8879 -0.2644
  812MPD2    H311959   4.522   2.431  12.570 -0.4320 -0.4250 -1.0027
  812MPD2     N11960   4.221   2.447  12.922  0.5424  0.3167 -0.0939
  812MPD2    H511961   4.132   2.491  12.943  0.2247 -0.3356 -0.0724
  812MPD2    N111962   4.181   2.709  12.517  0.0127  0.1320  0.3624
  812MPD2    H711963   4.231   2.749  12.438  1.6906 -0.7580  0.9924
  813MPD2     C11964   3.971   0.185  12.840 -0.6065 -0.2334 -0.2831
  813MPD2    C111965   3.839   0.144  12.843  0.4257  0.4064  0.1971
  813MPD2    C211966   3.812   0.011  12.811 -0.4182 -0.8723  0.4654
  813MPD2    C311967   3.921   4.642  12.803  0.1796 -0.1073 -0.3670
  813MPD2    C411968   4.049   4.684  12.796  0.3141  0.8856  0.0520
  813MPD2    C511969   4.069   0.098  12.817 -0.2258 -0.3902  0.5816
  813MPD2     H11970   3.710   4.691  12.809 -1.0426  0.6900  1.8098
  813MPD2    H111971   4.131   4.616  12.814  0.1417  0.7330  0.2521
  813MPD2    H211972   4.004   0.283  12.871 -3.5769  1.0839 -1.2556
  813MPD2    H311973   4.172   0.130  12.822 -0.5605  0.9761 -1.1896
  813MPD2     N11974   3.888   4.506  12.798 -0.4129  0.3501  0.3495
  813MPD2    H511975   3.788   4.495  12.797 -0.6459  2.4782  0.9958
  813MPD2    N111976   3.735   0.231  12.897 -0.0463 -0.3927 -0.3472
  813MPD2    H711977   3.764   0.310  12.955  3.7194 -1.3399 -0.9499
  814MPD2     C11978   3.893   0.525  12.673 -0.8680  0.4681 -0.6925
  814MPD2    C111979   3.837   0.604  12.575 -0.1333 -0.4236 -0.0521
  814MPD2    C211980   3.813   0.731  12.612 -0.7688 -0.1664 -0.4095
  814MPD2    C311981   3.846   0.787  12.739 -0.4067  0.4343  0.4528
  814MPD2    C411982   3.899   0.704  12.833  0.1390 -0.2564 -0.4402
  814MPD2    C511983   3.921   0.572  12.804 -0.1976 -0.0185  0.4846
  814MPD2     H11984   3.758   0.788  12.537  1.6945 -1.0847 -2.9412
  814MPD2    H111985   3.928   0.749  12.927  1.5726 -0.7945 -0.6262
  814MPD2    H211986   3.928   0.423  12.662  0.1744  0.6644  0.8832
  814MPD2    H311987   3.967   0.507  12.877  2.9570 -0.3611 -1.8101
  814MPD2     N11988   3.816   0.916  12.780  0.3385 -0.5697 -0.4898
  814MPD2    H511989   3.821   0.927  12.881  0.9037  2.6121 -0.8671
  814MPD2    N111990   3.806   0.558  12.445  0.2939  0.0609  0.8816
  814MPD2    H711991   3.749   0.614  12.382  1.1380  0.8277  0.8011
  815MPD2     C11992   4.230   3.579  12.115 -0.3638  0.1254 -0.1804
  815MPD2    C111993   4.217   3.619  11.986 -0.2811  0.4130 -0.2947
  815MPD2    C211994   4.132   3.726  11.956 -0.0851  0.4703  0.0530
  815MPD2    C311995   4.077   3.804  12.055  0.4492  0.4653 -0.5233
  815MPD2    C411996   4.103   3.763  12.187  0.1623  0.2294 -0.0566
  815MPD2    C511997   4.174   3.651  12.215 -0.3964 -0.1624  0.0790
  815MPD2     H11998   4.107   3.753  11.854 -3.4767  0.0993  0.8058
  815MPD2    H111999   4.075   3.835  12.263 -1.8834  0.8767 -1.4503
  815MPD2    H212000   4.281   3.487  12.142 -2.2151 -0.5816  0.8669
  815MPD2    H312001   4.186   3.622  12.319 -1.3188  0.3117  0.3175
  815MPD2     N12002   3.991   3.910  12.013 -0.1772 -0.2112 -0.4928
  815MPD2    H512003   3.985   3.926  11.913  0.9893  0.2672 -0.4896
  815MPD2    N112004   4.279   3.536  11.889 -0.4439  0.2699  0.4311
  815MPD2    H712005   4.329   3.453  11.918 -0.9722 -0.6656 -1.3991
  816MPD2     C12006   0.005   3.443  17.582  0.1301  0.1080 -0.6472
  816MPD2    C112007   4.669   3.416  17.461 -0.3133 -0.0112  0.4596
  816MPD2    C212008   0.014   3.314  17.393 -0.2067  0.3312 -0.6534
  816MPD2    C312009   0.117   3.237  17.433  0.1487 -0.3581 -0.7135
  816MPD2    C412010   0.163   3.264  17.563  1.0554  0.0718  0.0495
  816MPD2    C512011   0.102   3.365  17.635  0.0479  0.1450 -0.1267
  816MPD2     H12012   4.703   3.277  17.296 -0.0709 -0.0212 -0.5609
  816MPD2    H112013   0.256   3.228  17.606  0.0853  0.3492  2.3757
  816MPD2    H212014   4.693   3.526  17.643  0.4795  0.3395 -0.7785
  816MPD2    H312015   0.150   3.398   0.045 -0.0561 -0.9966  0.3393
  816MPD2     N12016   0.173   3.138  17.355  0.2634  0.0024  0.9035
  816MPD2    H512017   0.126   3.117  17.267  5.1098  1.5470 -2.0345
  816MPD2    N112018   4.570   3.500  17.413 -0.4452  0.2969  0.7156
  816MPD2    H712019   4.543   3.580  17.468 -2.3819  1.2627 -1.6664
  817MPD2     C12020   3.791   4.448  10.302  0.1043 -0.2930  0.0451
  817MPD2    C112021   3.874   4.502  10.206  0.3287 -0.6361 -0.8607
  817MPD2    C212022   3.870   4.636  10.195 -0.2130 -0.1409 -0.0418
  817MPD2    C312023   3.777   4.714  10.259  0.3235  0.5717 -0.4380
  817MPD2    C412024   3.693   4.661  10.356 -0.0769 -0.2013 -0.4386
  817MPD2    C512025   3.702   4.529  10.373  0.1698 -0.3147  0.3691
  817MPD2     H12026   3.932   4.675  10.115  0.6773  1.1339  1.2695
  817MPD2    H112027   3.608   4.717  10.392  1.0468  1.1442  0.1249
  817MPD2    H212028   3.797   4.345  10.334 -3.5404 -0.7793 -0.8137
  817MPD2    H312029   3.646   4.477  10.450  0.0054 -0.2241  0.3098
  817MPD2     N12030   3.767   0.130  10.228 -0.1704  0.3695  0.2927
  817MPD2    H512031   3.676   0.172  10.242 -0.8809 -0.3053 -2.1418
  817MPD2    N112032   3.968   4.436  10.130  0.5371  0.6051 -0.0744
  817MPD2    H712033   4.023   4.497  10.069  1.7198 -0.2723  0.1035
  818MPD2     C12034   2.924   4.277   9.652  0.1266  0.9223 -0.0039
  818MPD2    C112035   2.879   4.195   9.765 -0.2968 -0.5986  0.1470
  818MPD2    C212036   2.915   4.060   9.764  0.6549 -0.2998  0.2951
  818MPD2    C312037   2.995   4.006   9.665 -0.8017 -0.8703 -0.4959
  818MPD2    C412038   3.045   4.089   9.568 -0.4590 -0.2142 -0.2690
  818MPD2    C512039   3.017   4.218   9.569 -0.4522 -0.0374 -0.3149
  818MPD2     H12040   2.862   4.002   9.840  2.1400 -2.4905 -0.3471
  818MPD2    H112041   3.114   4.049   9.495  0.1945 -1.3601  0.9633
  818MPD2    H212042   2.905   4.383   9.640 -0.6965  0.8156  0.3300
  818MPD2    H312043   3.075   4.269   9.493 -0.4520  0.3255 -0.0721
  818MPD2     N12044   3.020   3.869   9.658 -0.3569  0.5545  0.5730
  818MPD2    H512045   3.104   3.840   9.609 -1.3574  1.0325 -1.4195
  818MPD2    N112046   2.780   4.238   9.863  0.7042 -0.2344 -0.0221
  818MPD2    H712047   2.752   4.173   9.935 -2.9821  1.9173  0.4644
  819MPD2     C12048   1.299   1.688  15.683 -0.3066 -0.5675 -0.6407
  819MPD2    C112049   1.247   1.564  15.648 -0.0202  0.7439  0.9501
  819MPD2    C212050   1.296   1.455  15.710 -0.9604  0.0625 -0.4587
  819MPD2    C312051   1.381   1.460  15.815  0.5721 -0.4271  0.9191
  819MPD2    C412052   1.432   1.584  15.845  0.3116 -0.0736  0.0018
  819MPD2    C512053   1.394   1.691  15.778 -0.4738 -0.1710 -0.4490
  819MPD2     H12054   1.249   1.360  15.687  0.2255  0.0576 -2.8834
  819MPD2    H112055   1.500   1.590  15.929  0.3558  0.0200 -0.0408
  819MPD2    H212056   1.254   1.775  15.637  0.9488 -0.1630 -1.1135
  819MPD2    H312057   1.420   1.786  15.824 -2.2424 -0.7210  1.6458
  819MPD2     N12058   1.422   1.344  15.883  0.4109 -0.0356 -0.0309
  819MPD2    H512059   1.365   1.262  15.867  0.5644  0.3911 -2.7938
  819MPD2    N112060   1.166   1.557  15.532 -0.5802 -0.8845  0.0929
  819MPD2    H712061   1.131   1.647  15.502 -0.1361  0.0355  2.3738
  820MPD2     C12062   0.400   1.856  14.949 -0.2135  0.2007  0.1284
  820MPD2    C112063   0.405   1.807  15.076 -1.0995 -0.0657 -0.0236
  820MPD2    C212064   0.527   1.772  15.131 -0.2031 -0.4152 -0.4367
  820MPD2    C312065   0.642   1.785  15.056 -0.3597  0.4184  0.0514
  820MPD2    C412066   0.631   1.837  14.929 -0.4360  0.4342 -0.3868
  820MPD2    C512067   0.513   1.872  14.876 -0.0170 -0.3558  0.2616
  820MPD2     H12068   0.534   1.719  15.226 -0.0289  1.4430  0.5806
  820MPD2    H112069   0.716   1.843  14.862  0.0275 -1.0915  0.0560
  820MPD2    H212070   0.304   1.882  14.905 -1.0965 -2.1446  0.6443
  820MPD2    H312071   0.511   1.902  14.772 -0.1848 -4.3376 -0.8805
  820MPD2     N12072   0.767   1.739  15.103  0.4347  0.3443 -0.2632
  820MPD2    H512073   0.841   1.725  15.036  1.5705  1.0385  0.8631
  820MPD2    N112074   0.283   1.777  15.136  0.0333  0.0252  0.2217
  820MPD2    H712075   0.200   1.793  15.079 -0.7869 -5.4042 -0.1279
  821MPD2     C12076   1.292   2.954  13.214 -0.4802  0.5685 -0.0367
  821MPD2    C112077   1.425   2.928  13.241  0.1390 -0.4565 -0.1026
  821MPD2    C212078   1.507   2.941  13.129 -0.0354 -0.3362 -0.1814
  821MPD2    C312079   1.466   2.977  13.003  0.8513 -0.2642 -0.4307
  821MPD2    C412080   1.333   2.996  12.977 -0.4153 -0.6659 -0.6043
  821MPD2    C512081   1.249   2.992  13.086 -0.3696  0.0966 -0.4338
  821MPD2     H12082   1.615   2.936  13.144  0.2050 -0.4107 -1.8543
  821MPD2    H112083   1.305   3.029  12.877 -2.4354 -1.3144 -0.2552
  821MPD2    H212084   1.218   2.962  13.292 -1.1392 -2.9561 -0.3061
  821MPD2    H312085   1.146   3.020  13.070 -0.3321  0.0818 -0.6967
  821MPD2     N12086   1.557   2.995  12.893  0.0274  0.1651 -0.4049
  821MPD2    H512087   1.515   3.039  12.812  0.2732 -1.6231 -1.4994
  821MPD2    N112088   1.490   2.918  13.364  0.2228  0.1793 -0.2202
  821MPD2    H712089   1.590   2.904  13.362 -0.0785 -2.0523  0.8747
  822MPD2     C12090   2.359   2.687  16.156 -0.1236 -0.1988 -0.8518
  822MPD2    C112091   2.376   2.655  16.291 -0.3274 -0.3082  0.3638
  822MPD2    C212092   2.291   2.714  16.383 -0.6884 -0.3060 -0.0170
  822MPD2    C312093   2.191   2.806  16.346 -0.1148 -0.2614  1.5233
  822MPD2    C412094   2.179   2.838  16.212 -0.0254 -0.0704  0.5733
  822MPD2    C512095   2.260   2.774  16.122  0.4666  0.6343 -0.8559
  822MPD2     H12096   2.318   2.703  16.487 -0.7219 -0.0456  0.0211
  822MPD2    H112097   2.102   2.910  16.187  0.1598  0.3579  1.2547
  822MPD2    H212098   2.417   2.643  16.076 -0.4632  0.2929 -1.3693
  822MPD2    H312099   2.247   2.795  16.016  0.8362  1.7328 -0.6810
  822MPD2     N12100   2.103   2.849  16.448 -0.3164  0.6382  0.4318
  822MPD2    H512101   2.105   2.800  16.537 -3.3123  0.4485  0.4014
  822MPD2    N112102   2.481   2.571  16.352  0.6411  0.0217  0.9051
  822MPD2    H712103   2.477   2.563  16.453 -1.8454  0.7476  0.8692
  823MPD2     C12104   1.727   2.931  17.211  0.6682  0.3240  0.2336
  823MPD2    C112105   1.791   2.863  17.108  0.1755 -0.1149  0.2685
  823MPD2    C212106   1.848   2.738  17.141  0.3016  0.3445  0.4470
  823MPD2    C312107   1.833   2.685  17.263  0.7581  0.1987  0.3508
  823MPD2    C412108   1.754   2.752  17.361 -0.3283 -0.4519  0.3112
  823MPD2    C512109   1.714   2.880  17.335  0.7254 -0.0628 -0.4522
  823MPD2     H12110   1.894   2.684  17.059  0.0068 -0.8361  1.0594
  823MPD2    H112111   1.716   2.713  17.455  0.0393  1.4796  1.2654
  823MPD2    H212112   1.687   3.031  17.196  0.3347  0.2872  0.8927
  823MPD2    H312113   1.668   2.943  17.410 -1.2063 -2.2285  0.1585
  823MPD2     N12114   1.894   2.560  17.300 -0.9146  0.0938  0.0548
  823MPD2    H512115   1.867   2.520  17.389  1.5340  0.5344  0.9807
  823MPD2    N112116   1.800   2.921  16.985  0.1846  0.1016 -0.4571
  823MPD2    H712117   1.774   3.019  16.985 -0.0550  0.0423 -1.3932
  824MPD2     C12118   2.963   1.902  16.288 -0.5009  0.1629 -0.0784
  824MPD2    C112119   2.938   2.017  16.214  0.5680  0.1527  0.1346
  824MPD2    C212120   2.969   2.010  16.078  0.4396  0.4722 -0.7277
  824MPD2    C312121   3.029   1.896  16.022  0.4873 -0.6430 -0.0849
  824MPD2    C412122   3.037   1.777  16.093 -0.1682  0.8307  0.3527
  824MPD2    C512123   3.001   1.789  16.226  0.7421  0.2336 -0.2663
  824MPD2     H12124   2.970   2.100  16.017 -3.1226  2.3683  2.0117
  824MPD2    H112125   3.050   1.677  16.053  0.1246 -0.2016  3.0258
  824MPD2    H212126   2.939   1.898  16.393  1.1119  0.3282  0.2874
  824MPD2    H312127   3.018   1.697  16.281 -1.9751 -0.3769 -0.4893
  824MPD2     N12128   3.058   1.896  15.882  0.4620 -0.6334  0.9423
  824MPD2    H512129   3.037   1.980  15.830  2.3786 -0.3675  0.5743
  824MPD2    N112130   2.891   2.138  16.271  0.1167 -0.6198  0.4777
  824MPD2    H712131   2.879   2.215  16.205  2.2640  0.2586  1.1234
  825MPD2     C12132   3.067   2.102  15.036 -0.0334 -0.5963  0.0433
  825MPD2    C112133   3.096   2.138  15.162  0.0460 -0.0752  0.0907
  825MPD2    C212134   3.133   2.270  15.187 -1.0323 -0.4298  0.5441
  825MPD2    C312135   3.161   2.356  15.084  0.0834  0.0188  0.3852
  825MPD2    C412136   3.156   2.306  14.958 -0.3520 -0.4597  0.1936
  825MPD2    C512137   3.092   2.185  14.929 -0.2756  0.2956 -0.1733
  825MPD2     H12138   3.152   2.297  15.290 -0.6314 -2.9517  1.1368
  825MPD2    H112139   3.190   2.359  14.870 -0.2327 -0.4329  0.2549
  825MPD2    H212140   3.034   2.000  15.021  0.4868 -0.9922  1.6623
  825MPD2    H312141   3.089   2.158  14.824 -1.8401 -0.1580 -0.0112
  825MPD2     N12142   3.231   2.483  15.092  0.0395 -0.3197  0.5475
  825MPD2    H512143   3.253   2.527  15.003 -0.8619  1.0856  1.0197
  825MPD2    N112144   3.070   2.042  15.271 -0.2847 -0.2337 -0.3235
  825MPD2    H712145   3.029   1.957  15.234 -0.8457 -0.2550  0.3538
  826MPD2     C12146   2.738   2.295  14.068  0.2965 -0.3318 -0.6552
  826MPD2    C112147   2.629   2.308  13.978 -0.7020  0.2239 -0.7957
  826MPD2    C212148   2.515   2.377  14.025  0.9393 -0.1899  0.1132
  826MPD2    C312149   2.503   2.417  14.156 -0.7899  0.5480  0.4969
  826MPD2    C412150   2.609   2.399  14.242  0.3026 -0.6530 -0.4368
  826MPD2    C512151   2.721   2.341  14.192 -0.4573 -0.3905  0.4125
  826MPD2     H12152   2.436   2.404  13.956  0.3430  1.4748  1.4562
  826MPD2    H112153   2.594   2.425  14.346  0.6164 -2.2159 -0.0103
  826MPD2    H212154   2.830   2.246  14.038  2.3411  1.5897  2.6287
  826MPD2    H312155   2.802   2.326  14.263 -0.5390 -0.7718  0.4229
  826MPD2     N12156   2.385   2.490  14.200 -0.2216  0.7371 -0.3920
  826MPD2    H512157   2.389   2.536  14.290  0.7427 -1.4454  0.6688
  826MPD2    N112158   2.656   2.268  13.844 -0.0702  0.5640  0.4552
  826MPD2    H712159   2.746   2.231  13.817 -0.4950 -1.1825  1.3644
  827MPD2     C12160   3.514   3.228   9.727 -0.3050  0.4427  0.2945
  827MPD2    C112161   3.429   3.196   9.830  0.2669 -0.5783 -0.4498
  827MPD2    C212162   3.293   3.203   9.815 -0.5326 -0.6115  1.0609
  827MPD2    C312163   3.236   3.245   9.696 -0.3583 -0.2113  1.2250
  827MPD2    C412164   3.325   3.282   9.595 -0.6193 -0.2562 -0.1929
  827MPD2    C512165   3.455   3.269   9.609  0.8604 -0.5813  0.0385
  827MPD2     H12166   3.228   3.168   9.895 -1.0261 -3.9195 -0.7490
  827MPD2    H112167   3.293   3.312   9.496  1.1619  1.3385 -0.2730
  827MPD2    H212168   3.622   3.222   9.729 -0.2646  0.6189 -1.8256
  827MPD2    H312169   3.518   3.289   9.523 -2.0191  1.3116 -1.6091
  827MPD2     N12170   3.092   3.253   9.686 -0.4760  0.2819  0.1242
  827MPD2    H512171   3.044   3.223   9.770 -1.3248  0.0611 -0.4273
  827MPD2    N112172   3.495   3.148   9.945  0.7271 -0.2034 -0.4112
  827MPD2    H712173   3.596   3.139   9.936  0.7376  0.0112 -0.5117
  828MPD2     C12174   1.689   3.530  12.034 -0.5144 -0.2325 -0.3511
  828MPD2    C112175   1.613   3.641  12.010 -0.5362 -0.5821 -0.0439
  828MPD2    C212176   1.656   3.728  11.909 -0.6631 -0.8410 -0.3987
  828MPD2    C312177   1.768   3.700  11.829 -0.9217  0.2153 -0.2379
  828MPD2    C412178   1.846   3.590  11.866  0.6626 -0.8308  0.2673
  828MPD2    C512179   1.807   3.504  11.962 -0.3223  0.2108 -0.3588
  828MPD2     H12180   1.599   3.819  11.894 -0.9520 -0.8054  0.9563
  828MPD2    H112181   1.939   3.569  11.815  1.1687  1.9035  0.0712
  828MPD2    H212182   1.667   3.467  12.120 -1.3122 -0.7589 -0.9350
  828MPD2    H312183   1.881   3.431  11.991 -1.5899 -0.2672  1.6040
  828MPD2     N12184   1.812   3.784  11.728 -0.1103  0.2807  0.0131
  828MPD2    H512185   1.882   3.753  11.661 -1.4957 -1.9821 -0.4140
  828MPD2    N112186   1.482   3.668  12.075  0.2704 -0.1522 -0.5533
  828MPD2    H712187   1.434   3.752  12.046 -0.5868 -0.1543  0.8980
  829MPD2     C12188   0.866   4.117  11.695  0.3005 -0.0559 -0.6894
  829MPD2    C112189   0.793   4.031  11.774 -0.6085  0.1296  0.0836
  829MPD2    C212190   0.863   3.950  11.863 -0.2500 -0.3977 -0.4217
  829MPD2    C312191   0.995   3.969  11.888  0.1827 -0.5227 -0.2036
  829MPD2    C412192   1.057   4.061  11.808 -0.9679 -0.1275 -0.7540
  829MPD2    C512193   1.000   4.128  11.704  0.2653 -0.0001 -0.5319
  829MPD2     H12194   0.807   3.871  11.913 -0.4825 -0.8882 -1.4601
  829MPD2    H112195   1.162   4.084  11.819 -0.8821 -0.4682 -0.8725
  829MPD2    H212196   0.807   4.174  11.623  0.7782  1.6239  0.2452
  829MPD2    H312197   1.062   4.197  11.649  2.6617 -2.1661 -0.5127
  829MPD2     N12198   1.069   3.909  11.993  0.0952 -0.4220 -0.3775
  829MPD2    H512199   1.170   3.916  11.989  0.0143  0.5794 -0.5791
  829MPD2    N112200   0.652   4.024  11.763  0.3593  0.1845  0.2762
  829MPD2    H712201   0.612   4.086  11.692  0.0275  1.1339  1.2798
  830MPD2     C12202   1.750   1.049  15.515  0.0703 -0.4570 -0.2713
  830MPD2    C112203   1.757   1.123  15.632 -0.3667 -0.4579  0.0186
  830MPD2    C212204   1.816   1.249  15.619 -0.3127 -1.1039  0.3312
  830MPD2    C312205   1.871   1.299  15.500  0.3635 -0.3380 -0.1258
  830MPD2    C412206   1.864   1.213  15.387 -0.2282  0.3887  0.2970
  830MPD2    C512207   1.812   1.086  15.400  0.8022 -0.2123 -0.7018
  830MPD2     H12208   1.805   1.309  15.708 -0.2446 -1.0491  0.3025
  830MPD2    H112209   1.913   1.237  15.294 -2.1554  2.8585 -0.0938
  830MPD2    H212210   1.701   0.953  15.514 -0.4079 -0.2234  1.0693
  830MPD2    H312211   1.814   1.011  15.322 -0.0573 -0.1782 -0.7574
  830MPD2     N12212   1.936   1.422  15.495 -0.0448  0.5832  0.0031
  830MPD2    H512213   1.980   1.457  15.410 -1.6061  2.0065 -0.2338
  830MPD2    N112214   1.713   1.083  15.761 -0.3797  0.7173  0.2399
  830MPD2    H712215   1.736   1.148  15.836 -2.8914  1.4565  0.3872
  831MPD2     C12216   2.277   2.973  16.894 -0.1821  0.2303  0.6536
  831MPD2    C112217   2.298   2.907  16.779 -0.1268  0.5757  0.2401
  831MPD2    C212218   2.241   2.785  16.765 -0.0140  0.0153 -0.6384
  831MPD2    C312219   2.178   2.716  16.864  0.3813  0.0599  0.2418
  831MPD2    C412220   2.182   2.773  16.992 -0.2169  1.2985  0.1716
  831MPD2    C512221   2.222   2.903  17.000  0.4405  0.0840 -0.3508
  831MPD2     H12222   2.246   2.734  16.669 -2.3799 -1.9578  0.2715
  831MPD2    H112223   2.126   2.734  17.075  1.3314 -0.9161  0.1635
  831MPD2    H212224   2.311   3.076  16.900  3.0958 -0.9256  1.5828
  831MPD2    H312225   2.209   2.958  17.093 -2.2355  1.1415 -1.3519
  831MPD2     N12226   2.098   2.601  16.850 -0.0967 -0.5274  0.3706
  831MPD2    H512227   2.055   2.573  16.938 -2.1355  2.2689  0.2895
  831MPD2    N112228   2.377   2.961  16.671 -0.3398 -0.0592  0.3593
  831MPD2    H712229   2.384   3.062  16.663 -0.2138  0.0932  2.3603
  832MPD2     C12230   0.385   4.034  17.210  0.1996 -0.0529 -0.8393
  832MPD2    C112231   0.428   4.164  17.211  0.6394  0.5933 -0.9107
  832MPD2    C212232   0.367   4.258  17.133 -0.1301 -0.2191  0.1301
  832MPD2    C312233   0.267   4.220  17.048 -0.0641  0.6967  0.3916
  832MPD2    C412234   0.217   4.088  17.047 -0.1695  0.2179 -0.3275
  832MPD2    C512235   0.282   3.999  17.123  0.2187 -0.2575  0.1284
  832MPD2     H12236   0.407   4.359  17.134 -1.5689  0.3039  4.0164
  832MPD2    H112237   0.145   4.060  16.971 -0.8327  1.2579 -0.0762
  832MPD2    H212238   0.427   3.955  17.272  1.0948  1.7283  0.8490
  832MPD2    H312239   0.264   3.892  17.116 -0.8581 -0.1375  1.0767
  832MPD2     N12240   0.202   4.320  16.965 -0.2597  0.1977  0.0278
  832MPD2    H512241   0.127   4.291  16.903 -1.5746  0.7875  1.3603
  832MPD2    N112242   0.534   4.185  17.296  0.3188  0.0991  0.1451
  832MPD2    H712243   0.568   4.104  17.347 -0.6966  0.3942  1.2913
  833MPD2     C12244   1.652   0.645  12.040 -0.5776  0.5501  0.9884
  833MPD2    C112245   1.718   0.760  11.992 -0.3366 -0.2110 -0.3831
  833MPD2    C212246   1.690   0.807  11.865  0.0809  0.3210  0.0209
  833MPD2    C312247   1.605   0.745  11.776  0.0182 -0.6077 -0.6161
  833MPD2    C412248   1.557   0.627  11.819 -0.7779 -0.4260 -0.4395
  833MPD2    C512249   1.582   0.581  11.945 -0.2309  0.8790 -0.6268
  833MPD2     H12250   1.720   0.908  11.837  0.2289  0.6019  1.1676
  833MPD2    H112251   1.498   0.563  11.753  0.4587  0.8830 -2.8060
  833MPD2    H212252   1.676   0.610  12.140 -0.6213 -1.2550  0.3705
  833MPD2    H312253   1.552   0.478  11.958 -0.7031  1.1164  0.1321
  833MPD2     N12254   1.577   0.786  11.643 -0.5013 -0.1816 -0.0703
  833MPD2    H512255   1.537   0.719  11.578 -0.9597  1.3689 -1.3906
  833MPD2    N112256   1.813   0.820  12.075 -0.4540 -0.4921  0.0683
  833MPD2    H712257   1.831   0.779  12.166  0.9402 -0.9365 -0.4203
  834MPD2     C12258   2.192   0.371  11.458 -1.2577 -0.0741 -0.0993
  834MPD2    C112259   2.141   0.382  11.335  0.3604  0.4228 -0.2659
  834MPD2    C212260   2.062   0.494  11.308  0.2495 -0.4025  0.4844
  834MPD2    C312261   2.032   0.586  11.411  0.1547  0.5858  0.2251
  834MPD2    C412262   2.076   0.559  11.541  0.1612  0.5787  0.4775
  834MPD2    C512263   2.163   0.457  11.562  0.3928 -1.0327 -0.4530
  834MPD2     H12264   2.015   0.518  11.213  0.7932  1.2609  0.6282
  834MPD2    H112265   2.043   0.618  11.626  0.2022 -0.5999  1.3128
  834MPD2    H212266   2.247   0.280  11.481 -0.8393  0.1631 -0.1618
  834MPD2    H312267   2.195   0.436  11.663 -3.8637 -0.1031  1.1053
  834MPD2     N12268   1.933   0.685  11.392  0.3367 -0.3054  0.6426
  834MPD2    H512269   1.897   0.732  11.473 -0.6053 -0.2371  0.1800
  834MPD2    N112270   2.159   0.274  11.249 -0.0738 -0.0459 -0.1990
  834MPD2    H712271   2.208   0.195  11.291 -0.7901 -0.1201  0.4906
  835MPD2     C12272   2.418   3.469  11.209  0.0329 -0.3288  0.5552
  835MPD2    C112273   2.310   3.544  11.244  0.4263  0.1749 -0.1512
  835MPD2    C212274   2.338   3.671  11.294  0.4495 -0.1348 -0.5103
  835MPD2    C312275   2.466   3.707  11.330 -0.8235  0.3093 -0.1473
  835MPD2    C412276   2.575   3.627  11.295 -0.0972  0.9300 -0.4681
  835MPD2    C512277   2.545   3.513  11.225 -0.7800  0.0201 -0.0433
  835MPD2     H12278   2.253   3.717  11.343  1.5421 -0.2265  1.4453
  835MPD2    H112279   2.679   3.642  11.320 -0.0449  2.5178 -1.6910
  835MPD2    H212280   2.391   3.368  11.178  2.0768 -0.8999  0.6376
  835MPD2    H312281   2.634   3.453  11.213 -1.0027 -0.4528  0.6466
  835MPD2     N12282   2.496   3.820  11.407 -0.0371  0.1299  0.0643
  835MPD2    H512283   2.586   3.815  11.453  0.1859  0.2846 -0.3543
  835MPD2    N112284   2.172   3.513  11.222 -0.0516  0.2385  0.1947
  835MPD2    H712285   2.108   3.578  11.268 -2.8398 -1.0829 -1.8730
  836MPD2     C12286   1.946   4.400  11.628 -0.2746 -0.0557 -0.1863
  836MPD2    C112287   2.017   4.325  11.713 -0.5238  0.7458 -0.0274
  836MPD2    C212288   1.955   4.287  11.835 -0.5798 -1.4005  0.1448
  836MPD2    C312289   1.827   4.326  11.870 -0.4094 -0.3955  0.7459
  836MPD2    C412290   1.762   4.406  11.781 -0.2021  0.2140 -0.2530
  836MPD2    C512291   1.826   4.449  11.664  0.1410 -0.3317 -0.4093
  836MPD2     H12292   2.012   4.231  11.909 -1.7409 -1.1688  1.2137
  836MPD2    H112293   1.655   4.424  11.781 -0.0290  1.2767 -0.5350
  836MPD2    H212294   1.996   4.435  11.538 -0.6569 -1.4524 -0.9529
  836MPD2    H312295   1.764   4.511  11.602  2.1459  0.5635 -1.5084
  836MPD2     N12296   1.759   4.285  11.982 -0.2901  0.2039 -0.5430
  836MPD2    H512297   1.657   4.292  11.978 -0.3516  1.0117  2.9376
  836MPD2    N112298   2.150   4.286  11.674 -0.0861  0.8595 -1.2597
  836MPD2    H712299   2.181   4.297  11.578 -2.2069 -0.3831 -2.0727
  837MPD2     C12300   0.705   2.660  10.143 -0.1381 -0.6475  0.2895
  837MPD2    C112301   0.637   2.699  10.029  0.6528 -0.2808  0.6077
  837MPD2    C212302   0.656   2.827   9.989  0.4988  0.7279 -0.0878
  837MPD2    C312303   0.746   2.910  10.053  0.7557  0.3555  0.9439
  837MPD2    C412304   0.824   2.863  10.156 -1.1162  0.6172  0.1638
  837MPD2    C512305   0.794   2.736  10.202 -0.4803 -0.6967  0.2246
  837MPD2     H12306   0.594   2.870   9.911 -0.4437 -1.1923 -0.3864
  837MPD2    H112307   0.903   2.916  10.208  0.3732 -0.0904 -1.3847
  837MPD2    H212308   0.693   2.557  10.174  1.2618 -0.8932  0.0140
  837MPD2    H312309   0.857   2.697  10.281 -0.1797  3.8865  2.2576
  837MPD2     N12310   0.749   3.046  10.007  0.0648  0.3853  0.0779
  837MPD2    H512311   0.693   3.068   9.926  1.7211  0.4933 -1.0244
  837MPD2    N112312   0.533   2.628   9.963 -0.3322 -0.4759 -0.0312
  837MPD2    H712313   0.508   2.666   9.872 -2.6121  0.8615  1.1553
  838MPD2     C12314   3.997   1.818  11.752 -0.2224 -0.6269 -0.2306
  838MPD2    C112315   3.894   1.729  11.753 -0.1760  0.9839 -0.6073
  838MPD2    C212316   3.822   1.712  11.866  0.1771  0.4119  1.0089
  838MPD2    C312317   3.862   1.778  11.986 -0.4486 -0.2338 -0.3521
  838MPD2    C412318   3.966   1.875  11.980 -0.1202 -0.1311  0.1773
  838MPD2    C512319   4.029   1.891  11.864  1.0256  0.1312  0.5404
  838MPD2     H12320   3.734   1.648  11.866  0.2084  0.3607 -0.9139
  838MPD2    H112321   3.983   1.945  12.061  1.2875  1.2136 -1.2813
  838MPD2    H212322   4.046   1.841  11.658  0.8055 -0.3350  0.3818
  838MPD2    H312323   4.106   1.966  11.851  2.1262 -0.9921  0.6957
  838MPD2     N12324   3.789   1.758  12.107  0.5225  0.0728  0.2566
  838MPD2    H512325   3.809   1.814  12.189 -1.6609  1.6368 -0.2933
  838MPD2    N112326   3.854   1.657  11.638  0.1481 -0.4738 -0.0672
  838MPD2    H712327   3.767   1.606  11.640 -0.4833  0.6068 -0.1019
  839MPD2     C12328   3.091   1.443  11.682 -0.7779  0.3352  0.3160
  839MPD2    C112329   3.132   1.365  11.575  0.5007 -0.6048  1.3390
  839MPD2    C212330   3.249   1.387  11.502 -0.3692  0.2910  0.2539
  839MPD2    C312331   3.319   1.501  11.523 -0.4824  0.2223 -0.1944
  839MPD2    C412332   3.279   1.578  11.624  0.5588 -0.4016  0.6602
  839MPD2    C512333   3.178   1.549  11.712 -0.2533 -0.1177  0.1448
  839MPD2     H12334   3.280   1.313  11.429 -2.5466 -0.0506 -0.3236
  839MPD2    H112335   3.338   1.666  11.649 -2.7194  2.0380 -0.1056
  839MPD2    H212336   3.000   1.430  11.739  1.9088 -0.0212  4.5715
  839MPD2    H312337   3.145   1.622  11.785 -0.6894  1.1467 -1.3258
  839MPD2     N12338   3.438   1.532  11.459 -0.1537  0.3176 -0.0019
  839MPD2    H512339   3.489   1.614  11.489  1.8548 -1.6718  1.9767
  839MPD2    N112340   3.055   1.251  11.535 -0.1969  0.7028  0.3668
  839MPD2    H712341   3.093   1.188  11.465  2.8440  1.5366  1.2723
  840MPD2     C12342   4.011   3.433  10.098 -1.2418  0.2125  0.1294
  840MPD2    C112343   3.973   3.388  10.221  0.6361  0.4169  0.3342
  840MPD2    C212344   4.017   3.459  10.335 -0.2047 -0.6228 -0.6012
  840MPD2    C312345   4.107   3.564  10.321 -0.5605 -0.7226 -0.2974
  840MPD2    C412346   4.146   3.613  10.197  0.5309 -0.0770 -0.4710
  840MPD2    C512347   4.084   3.552  10.091 -0.9726  0.4751 -0.3344
  840MPD2     H12348   3.974   3.428  10.430 -1.5928 -1.2335 -1.4219
  840MPD2    H112349   4.220   3.692  10.188 -0.4518  0.8247 -0.5938
  840MPD2    H212350   3.984   3.390  10.002  0.2511 -2.1119  0.7292
  840MPD2    H312351   4.108   3.595   9.995  2.0637  2.7259  1.4278
  840MPD2     N12352   4.151   3.645  10.433  0.4993  0.9682  0.0653
  840MPD2    H512353   4.189   3.735  10.406  0.3149  0.3928 -2.1179
  840MPD2    N112354   3.873   3.296  10.226  0.1734  0.7385 -1.0363
  840MPD2    H712355   3.834   3.265  10.137  0.1144 -1.3337 -0.2904
  841MPD2     C12356   3.772   3.649  14.853 -0.3265  0.2659 -0.3740
  841MPD2    C112357   3.826   3.578  14.754 -0.2788 -0.2997 -0.9372
  841MPD2    C212358   3.892   3.649  14.653  0.0113 -0.2528 -0.2751
  841MPD2    C312359   3.895   3.783  14.643  1.1717 -0.2701  1.2432
  841MPD2    C412360   3.845   3.857  14.749 -0.0731 -0.6324 -0.1844
  841MPD2    C512361   3.784   3.781  14.852 -0.6375  0.6110  0.4933
  841MPD2     H12362   3.946   3.590  14.580  1.9973 -0.3351  1.2740
  841MPD2    H112363   3.856   3.965  14.757 -0.0351 -0.6731  0.2733
  841MPD2    H212364   3.720   3.602  14.936 -0.6858 -1.4953 -1.5969
  841MPD2    H312365   3.745   3.828  14.942  0.8892  1.2903  0.7897
  841MPD2     N12366   3.984   3.828  14.547  0.0791  0.2104 -0.0705
  841MPD2    H512367   4.028   3.760  14.485  1.5048  0.1799  0.9746
  841MPD2    N112368   3.811   3.436  14.735  0.0702 -0.4542  0.3697
  841MPD2    H712369   3.847   3.395  14.649  1.1554  0.5366  0.3430
  842MPD2     C12370   4.136   4.478  16.712 -0.0866  0.4723  0.5012
  842MPD2    C112371   4.077   4.383  16.788  0.3962  0.0758  0.1704
  842MPD2    C212372   4.078   4.392  16.925  0.3016 -0.4575 -0.8558
  842MPD2    C312373   4.121   4.506  16.985 -0.0078 -0.7763  0.0375
  842MPD2    C412374   4.179   4.607  16.905  0.2780 -0.6755 -0.7121
  842MPD2    C512375   4.192   4.589  16.771  0.9512  0.4928  0.0213
  842MPD2     H12376   4.022   4.312  16.973  2.5573 -1.7262 -0.3444
  842MPD2    H112377   4.220   4.699  16.945 -1.2277  0.0634 -0.8902
  842MPD2    H212378   4.150   4.466  16.605 -3.0323  3.2368 -0.2015
  842MPD2    H312379   4.236   4.669  16.713  1.5305  0.3188  0.2292
  842MPD2     N12380   4.125   4.526  17.125  0.2512  0.5008 -0.9704
  842MPD2    H512381   4.178   4.609  17.150 -0.4335  0.3419  1.0232
  842MPD2    N112382   4.004   4.285  16.717  0.3403  0.2599  0.3122
  842MPD2    H712383   4.024   4.269  16.619 -0.9076  3.9104 -0.5202
  843MPD2     C12384   2.142   0.096   0.632 -0.0406 -0.1046 -0.4607
  843MPD2    C112385   2.056   0.189   0.575  1.0789  0.0844  0.2252
  843MPD2    C212386   2.120   0.290   0.504 -0.0406  0.2020  0.0271
  843MPD2    C312387   2.253   0.278   0.469  0.4779 -0.6566  0.0047
  843MPD2    C412388   2.328   0.176   0.530  0.0298 -0.5159 -0.4335
  843MPD2    C512389   2.275   0.091   0.615  0.4328 -0.0713 -0.3048
  843MPD2     H12390   2.061   0.370   0.463  1.5709  1.3420 -0.0733
  843MPD2    H112391   2.427   0.144   0.499 -0.1089 -1.2419 -0.1107
  843MPD2    H212392   2.097   0.012   0.682  0.0073 -0.6281 -1.3045
  843MPD2    H312393   2.332   0.013   0.666 -0.6698  1.3778  3.1479
  843MPD2     N12394   2.330   0.363   0.386  0.0070 -0.2679  0.2548
  843MPD2    H512395   2.428   0.337   0.381  0.4211  0.8512  2.3494
  843MPD2    N112396   1.917   0.173   0.597 -0.3964 -0.0003  0.2896
  843MPD2    H712397   1.892   0.093   0.653  1.2362 -0.4895  0.3140
  844MPD2     C12398   0.039   4.010  16.606 -0.5121 -0.0542 -0.2206
  844MPD2    C112399   0.149   3.918  16.620  0.3242 -0.0674 -0.0368
  844MPD2    C212400   0.273   3.965  16.657 -0.5493  0.0106  0.5200
  844MPD2    C312401   0.277   4.101  16.688 -0.8918 -0.4326 -1.0783
  844MPD2    C412402   0.165   4.185  16.678  0.1543  0.3773 -0.3743
  844MPD2    C512403   0.048   4.143  16.629  0.8225 -0.2784 -0.8286
  844MPD2     H12404   0.365   3.908  16.647  0.1565  1.0909  0.8750
  844MPD2    H112405   0.167   4.292  16.698 -1.5596  0.0976  1.3214
  844MPD2    H212406   4.662   3.973  16.572 -1.0201  0.8509  0.2296
  844MPD2    H312407   4.687   4.211  16.607  0.1831 -0.3354  1.3220
  844MPD2     N12408   0.405   4.148  16.726  0.0948 -0.2735  0.3545
  844MPD2    H512409   0.469   4.073  16.750  2.2745  1.0150 -1.4282
  844MPD2    N112410   0.145   3.786  16.564  0.2576  0.5296 -0.0777
  844MPD2    H712411   0.233   3.735  16.570  0.1548  0.5286  1.5111
  845MPD2     C12412   0.488   0.386  16.976 -0.7334  0.2045 -0.3732
  845MPD2    C112413   0.387   0.292  16.965 -0.3732  0.7566  0.2619
  845MPD2    C212414   0.414   0.158  16.954  0.1641  0.1586  0.1729
  845MPD2    C312415   0.536   0.114  16.975 -0.1671  0.0701  0.4930
  845MPD2    C412416   0.637   0.202  17.010  0.1912 -1.0397 -0.0638
  845MPD2    C512417   0.612   0.339  17.003 -1.6439  0.1289 -0.3410
  845MPD2     H12418   0.340   0.082  16.929 -2.2670  1.4598  3.3517
  845MPD2    H112419   0.736   0.167  17.036  1.2614  0.9646 -1.4122
  845MPD2    H212420   0.471   0.493  16.980  1.3778  0.3802  3.4808
  845MPD2    H312421   0.687   0.411  17.033  0.3218 -2.4154  0.7303
  845MPD2     N12422   0.546   4.692  16.969 -0.1789  0.1441  0.8785
  845MPD2    H512423   0.467   4.636  16.941  1.4350 -0.7091 -1.9689
  845MPD2    N112424   0.259   0.340  16.935 -0.0797 -0.6579 -0.5542
  845MPD2    H712425   0.247   0.440  16.928  0.9839 -0.4652  0.5228
  846MPD2     C12426   1.605   0.429  13.892  0.1138 -0.5590 -0.2102
  846MPD2    C112427   1.633   0.565  13.912 -0.3017  0.4826 -0.2872
  846MPD2    C212428   1.614   0.624  14.037  0.1065  0.8769 -0.3535
  846MPD2    C312429   1.584   0.548  14.148 -0.8002  0.1304 -0.8509
  846MPD2    C412430   1.569   0.409  14.129  0.3247  0.2435  0.1459
  846MPD2    C512431   1.576   0.353  14.005 -0.1655  0.1269  0.5800
  846MPD2     H12432   1.619   0.732  14.045 -0.7840  0.9254 -0.3708
  846MPD2    H112433   1.547   0.341  14.210 -1.0340  0.2149 -0.2469
  846MPD2    H212434   1.584   0.371  13.803  0.0614  1.2275 -1.3389
  846MPD2    H312435   1.554   0.249  13.987 -1.3068  0.5761 -0.5821
  846MPD2     N12436   1.574   0.610  14.272  0.5008  0.0683  0.1812
  846MPD2    H512437   1.576   0.711  14.280  1.2924 -0.0816  1.7965
  846MPD2    N112438   1.655   0.654  13.806 -0.2662 -0.1773  0.2173
  846MPD2    H712439   1.661   0.753  13.828 -1.4481  0.5400 -2.6359
  847MPD2     C12440   2.673   2.322  15.088  0.3172 -0.3683 -0.1250
  847MPD2    C112441   2.553   2.379  15.125  0.7755  0.2320  0.1634
  847MPD2    C212442   2.546   2.447  15.245 -0.8616 -0.0730  0.3276
  847MPD2    C312443   2.651   2.460  15.330  0.5045  0.0824  0.4993
  847MPD2    C412444   2.776   2.401  15.292  0.0648 -0.1363  1.1803
  847MPD2    C512445   2.783   2.336  15.175  0.3327 -0.2777 -0.0116
  847MPD2     H12446   2.449   2.484  15.275 -1.5242 -2.1444  0.7247
  847MPD2    H112447   2.860   2.403  15.361  1.2469  1.3840 -0.2999
  847MPD2    H212448   2.679   2.263  14.998 -1.7901  0.6277 -0.9075
  847MPD2    H312449   2.872   2.281  15.144 -0.2203 -0.9188 -0.4694
  847MPD2     N12450   2.644   2.509  15.465 -0.2922 -0.0669  0.1129
  847MPD2    H512451   2.717   2.482  15.531 -0.9284 -2.1218 -0.0068
  847MPD2    N112452   2.433   2.372  15.051  0.0238  0.3795 -0.0087
  847MPD2    H712453   2.358   2.433  15.082 -3.2152 -1.4173 -4.2929
  848MPD2     C12454   0.110   0.070  16.319 -0.1655  0.6850 -0.7593
  848MPD2    C112455   4.712   0.084  16.391 -0.6204 -0.1209  0.0136
  848MPD2    C212456   4.598   0.140  16.336 -0.8566  0.3928  0.7124
  848MPD2    C312457   4.611   0.169  16.200 -0.0369 -0.2357 -0.1143
  848MPD2    C412458   0.015   0.166  16.124 -0.8393  0.0241  0.0059
  848MPD2    C512459   0.120   0.104  16.189 -0.1763 -0.1131  0.1858
  848MPD2     H12460   4.501   0.135  16.385 -1.6587 -0.3776 -0.9861
  848MPD2    H112461   0.030   0.187  16.019 -3.5517  0.0687 -0.3710
  848MPD2    H212462   0.202   0.031  16.359 -2.0234 -2.1586  0.6990
  848MPD2    H312463   0.212   0.085  16.135 -1.5054 -1.4677 -1.5747
  848MPD2     N12464   4.502   0.212  16.124  0.0825  0.5877  0.0593
  848MPD2    H512465   4.509   0.200  16.024  2.2564  0.7009  0.2118
  848MPD2    N112466   4.701   0.035  16.525  0.0757  0.6740  0.1498
  848MPD2    H712467   4.612   0.049  16.572 -0.7318 -0.7634 -0.9269
  849MPD2     C12468   4.154   4.165  14.166  0.3799 -0.3347 -0.1099
  849MPD2    C112469   4.195   4.301  14.171  0.6994 -0.2304 -0.0046
  849MPD2    C212470   4.326   4.321  14.167 -0.5068 -0.8389 -0.4527
  849MPD2    C312471   4.421   4.218  14.146 -0.6071  0.0716  0.1613
  849MPD2    C412472   4.385   4.091  14.134  0.3348  0.7034  0.3470
  849MPD2    C512473   4.247   4.063  14.138 -0.3061 -0.2761 -0.3949
  849MPD2     H12474   4.355   4.425  14.153  1.4685 -1.3235  0.1093
  849MPD2    H112475   4.454   4.009  14.120  0.9055  1.1610  0.4873
  849MPD2    H212476   4.049   4.141  14.171  0.2514 -0.0030 -1.0532
  849MPD2    H312477   4.200   3.966  14.128 -1.4965  0.2437  0.0895
  849MPD2     N12478   4.552   4.245  14.130 -0.0877 -0.6372 -0.1803
  849MPD2    H512479   4.615   4.171  14.102  1.9869  0.6128  1.1513
  849MPD2    N112480   4.106   4.403  14.185  0.6197  0.2365  0.3007
  849MPD2    H712481   4.011   4.374  14.163  1.0308 -0.4105 -0.6337
  850MPD2     C12482   1.965   3.072  15.568 -0.3265 -0.2659 -0.0935
  850MPD2    C112483   2.032   2.979  15.644  0.0093  0.1018 -0.4810
  850MPD2    C212484   2.170   2.948  15.620 -0.1228  0.1449 -0.0183
  850MPD2    C312485   2.235   3.010  15.513  0.3877 -0.0722  0.5647
  850MPD2    C412486   2.159   3.093  15.431 -0.7770  0.5662  0.2363
  850MPD2    C512487   2.030   3.125  15.459  0.1096  0.0930  0.3785
  850MPD2     H12488   2.223   2.870  15.674 -0.1603 -0.1813 -0.4483
  850MPD2    H112489   2.210   3.141  15.349  1.4338 -1.2831  0.5247
  850MPD2    H212490   1.862   3.100  15.588  0.0309  0.8370  0.2360
  850MPD2    H312491   1.976   3.198  15.400 -0.0723 -1.0916 -0.8990
  850MPD2     N12492   2.370   2.978  15.471 -0.3824  0.5866  0.2617
  850MPD2    H512493   2.389   2.997  15.373  1.0969 -0.9762  0.2442
  850MPD2    N112494   1.962   2.930  15.752 -0.8789  0.0299 -0.1899
  850MPD2    H712495   1.868   2.965  15.766 -1.0515 -0.4525 -0.1488
  851MPD2     C12496   2.149   2.270  16.175  0.8610  0.3728 -0.0264
  851MPD2    C112497   2.046   2.294  16.089 -0.5869  0.3537  0.0212
  851MPD2    C212498   2.017   2.202  15.989 -0.1022 -0.5133 -0.5461
  851MPD2    C312499   2.080   2.078  15.978 -0.6927 -0.3827  0.4010
  851MPD2    C412500   2.175   2.053  16.071  0.8453  0.7766 -0.4677
  851MPD2    C512501   2.209   2.147  16.165 -0.3881 -0.0114  0.2415
  851MPD2     H12502   1.948   2.230  15.910 -1.9374 -0.2184  1.1865
  851MPD2    H112503   2.240   1.967  16.081  0.2048  0.3525  0.0235
  851MPD2    H212504   2.180   2.337  16.255 -0.4750 -0.4248  1.1671
  851MPD2    H312505   2.284   2.126  16.241 -0.6173 -0.6469  0.2888
  851MPD2     N12506   2.050   1.993  15.868  0.1543 -0.8272  0.1046
  851MPD2    H512507   1.985   2.029  15.799 -0.6721  0.8752  1.7681
  851MPD2    N112508   1.991   2.419  16.088 -0.6693 -0.4061 -0.4567
  851MPD2    H712509   2.030   2.478  16.161 -0.1090 -1.5216  0.1437
  852MPD2     C12510   1.180   0.983  10.174 -0.0554  0.3761  0.8785
  852MPD2    C112511   1.285   0.984  10.261  0.4252 -0.1822 -0.0996
  852MPD2    C212512   1.416   1.001  10.207  0.3571 -0.1861  0.4114
  852MPD2    C312513   1.441   1.027  10.074  0.6729 -0.1301  0.3906
  852MPD2    C412514   1.337   1.035   9.994 -0.6490  0.2578 -1.0201
  852MPD2    C512515   1.206   1.006  10.035  0.1165  0.2002 -0.1625
  852MPD2     H12516   1.500   0.993  10.275  0.4312  0.0310  0.3433
  852MPD2    H112517   1.349   1.045   9.887 -0.7604  1.6807 -0.8999
  852MPD2    H212518   1.076   0.962  10.197 -1.0516  0.1869 -3.6789
  852MPD2    H312519   1.123   0.997   9.965 -0.5104 -0.6277  0.6914
  852MPD2     N12520   1.575   1.042  10.034 -0.0254 -0.0908  0.4681
  852MPD2    H512521   1.641   1.023  10.108 -0.7369  2.4546  1.7713
  852MPD2    N112522   1.265   0.984  10.401  0.4594  0.1730  0.1690
  852MPD2    H712523   1.350   0.984  10.458 -0.8021  0.2135  2.0516
  853MPD2     C12524   3.389   0.108  12.249 -0.3526  0.1655  0.1700
  853MPD2    C112525   3.259   0.154  12.247  0.2345 -0.1610 -0.3050
  853MPD2    C212526   3.198   0.177  12.125 -0.0929 -0.5690  0.4126
  853MPD2    C312527   3.276   0.161  12.009 -0.2230  0.4795  0.1748
  853MPD2    C412528   3.397   0.101  12.018  0.1403 -0.1713  0.3078
  853MPD2    C512529   3.456   0.074  12.136 -0.3108  0.3003  0.0608
  853MPD2     H12530   3.098   0.219  12.122  0.5910  0.7926 -3.2531
  853MPD2    H112531   3.452   0.083  11.926  0.5328 -1.0233  0.7145
  853MPD2    H212532   3.437   0.081  12.342 -1.0066 -3.9114 -0.6691
  853MPD2    H312533   3.541   0.008  12.147 -0.0266  0.7466  0.5977
  853MPD2     N12534   3.229   0.186  11.879 -0.3939  0.6486  0.2792
  853MPD2    H512535   3.295   0.184  11.802 -2.4177 -3.6406 -1.3823
  853MPD2    N112536   3.195   0.171  12.375 -0.5694  0.9485 -0.1201
  853MPD2    H712537   3.238   0.146  12.464  2.5724 -0.9293 -2.2007
  854MPD2     C12538   0.016   0.291  13.137  0.3636 -0.3669  0.3524
  854MPD2    C112539   0.092   0.319  13.028  0.1233  0.5252  0.2661
  854MPD2    C212540   0.219   0.270  13.022  0.2162 -0.0141 -0.2636
  854MPD2    C312541   0.262   0.186  13.123 -0.1055 -0.0395 -0.5886
  854MPD2    C412542   0.191   0.183  13.239  0.7879 -0.5234 -0.1008
  854MPD2    C512543   0.064   0.223  13.242  0.5702  0.4741 -0.2360
  854MPD2     H12544   0.285   0.300  12.942 -2.5010  0.4171 -2.3578
  854MPD2    H112545   0.236   0.126  13.320 -0.5067 -0.7861  0.4331
  854MPD2    H212546   4.638   0.334  13.154 -1.2828 -3.4151 -1.4137
  854MPD2    H312547   4.717   0.205  13.325  1.8997  1.2285  0.9828
  854MPD2     N12548   0.377   0.106  13.113 -0.5924  0.5896  0.6842
  854MPD2    H512549   0.403   0.051  13.194 -0.8775 -0.9832 -0.2980
  854MPD2    N112550   0.028   0.401  12.933  0.2790 -0.0139 -0.1109
  854MPD2    H712551   4.659   0.434  12.968 -0.3948 -2.0214  0.0842
  855MPD2     C12552   1.018   0.084  13.688 -0.1269  1.1502 -0.4821
  855MPD2    C112553   0.997   4.672  13.650  0.5772 -0.0240  0.4268
  855MPD2    C212554   0.919   4.641  13.543  0.3934  0.1174 -0.5216
  855MPD2    C312555   0.877   0.022  13.457 -0.5104  0.2415  0.4616
  855MPD2    C412556   0.901   0.152  13.495  0.0417  0.1347  0.2159
  855MPD2    C512557   0.970   0.178  13.604  0.9270 -0.3031  0.1453
  855MPD2     H12558   0.900   4.539  13.513 -0.8914 -0.3765  1.9717
  855MPD2    H112559   0.865   0.227  13.426  2.1140  1.5538  0.6866
  855MPD2    H212560   1.068   0.102  13.782 -1.8341  0.3763  0.5862
  855MPD2    H312561   0.990   0.281  13.631  0.8292 -0.2024 -0.1604
  855MPD2     N12562   0.808   4.708  13.335 -0.1687  0.9997 -0.3709
  855MPD2    H512563   0.767   0.059  13.276 -0.3411 -0.1526 -1.6110
  855MPD2    N112564   1.047   4.564  13.728 -1.0337  0.2501  0.0928
  855MPD2    H712565   1.018   4.471  13.701  1.8848 -0.2837 -1.1507
  856MPD2     C12566   2.518   0.732  14.269 -0.3087  0.6627 -0.6811
  856MPD2    C112567   2.623   0.822  14.258 -0.1354  0.2146  0.1953
  856MPD2    C212568   2.585   0.954  14.246  0.5575  0.0499 -0.7655
  856MPD2    C312569   2.458   0.994  14.225 -0.1404  1.1157  0.2703
  856MPD2    C412570   2.357   0.905  14.236 -0.4001  0.3247  0.4422
  856MPD2    C512571   2.391   0.773  14.261  0.5198  0.4246  0.5175
  856MPD2     H12572   2.660   1.031  14.231  0.2143  0.4729 -0.3307
  856MPD2    H112573   2.252   0.929  14.224 -0.6994 -0.2259  1.9788
  856MPD2    H212574   2.531   0.625  14.280 -2.1040  0.8023  2.9743
  856MPD2    H312575   2.324   0.688  14.267  0.0380  0.7862  0.2181
  856MPD2     N12576   2.428   1.119  14.163  0.0925  0.4672 -0.0912
  856MPD2    H512577   2.334   1.129  14.126  0.9037 -1.9639 -2.8286
  856MPD2    N112578   2.757   0.790  14.268 -0.1864  0.0156 -0.4536
  856MPD2    H712579   2.814   0.870  14.295 -2.6407  1.6957 -0.2239
  857MPD2     C12580   4.708   2.529  13.441 -0.0573 -0.3979  0.6270
  857MPD2    C112581   4.662   2.638  13.372 -1.1024  0.1744 -0.0688
  857MPD2    C212582   4.682   2.758  13.441 -0.2669 -0.3482 -0.8994
  857MPD2    C312583   0.022   2.760  13.568  1.0899  0.9623 -0.4939
  857MPD2    C412584   0.074   2.645  13.628  0.3195  0.8560  0.0117
  857MPD2    C512585   0.057   2.527  13.559  0.0633 -0.1971  0.6099
  857MPD2     H12586   4.658   2.854  13.397 -2.1130  0.8810  2.7653
  857MPD2    H112587   0.116   2.634  13.727  1.1003 -0.1991 -0.4369
  857MPD2    H212588   4.702   2.439  13.380  1.4324 -1.2743  1.7821
  857MPD2    H312589   0.077   2.430  13.603  2.9187 -0.5590 -1.4585
  857MPD2     N12590   0.040   2.890  13.623  0.0843 -0.3319 -0.0657
  857MPD2    H512591   0.012   2.969  13.566  0.3369  0.1354  0.4587
  857MPD2    N112592   4.600   2.632  13.244  0.7849  0.0629 -0.0340
  857MPD2    H712593   4.608   2.545  13.192 -0.4428 -0.4742  0.6470
  858MPD2     C12594   0.205   1.997  16.839 -0.1593 -0.3462  0.0960
  858MPD2    C112595   0.337   1.983  16.815  0.7220 -0.0910  0.4421
  858MPD2    C212596   0.416   2.004  16.927 -0.3425 -0.2910  0.4261
  858MPD2    C312597   0.361   2.060  17.041 -0.2309 -0.3272 -0.1533
  858MPD2    C412598   0.226   2.095  17.049  0.0902  0.4685 -0.3119
  858MPD2    C512599   0.147   2.063  16.942  0.0497 -0.6470  0.4904
  858MPD2     H12600   0.518   1.965  16.929 -0.3857 -0.3952  0.6149
  858MPD2    H112601   0.179   2.133  17.139  0.3993 -0.5444  0.2782
  858MPD2    H212602   0.136   1.983  16.756 -0.7958 -2.7858  1.0356
  858MPD2    H312603   0.042   2.089  16.951  0.6550  1.5535  1.0858
  858MPD2     N12604   0.434   2.091  17.158  0.4759 -0.3537 -0.8809
  858MPD2    H512605   0.378   2.133  17.231  1.1630  0.3893 -0.7863
  858MPD2    N112606   0.374   1.923  16.692 -0.1109  0.1665 -0.1716
  858MPD2    H712607   0.299   1.921  16.623 -0.7987  1.2154  0.5444
  859MPD2     C12608   3.750   4.067  15.146  0.0676 -0.0515  0.0271
  859MPD2    C112609   3.867   4.050  15.083 -0.3886 -0.1150 -0.2462
  859MPD2    C212610   3.937   3.928  15.104  0.0309 -0.4125 -0.7120
  859MPD2    C312611   3.881   3.832  15.190  0.2977  0.2279  0.4762
  859MPD2    C412612   3.764   3.863  15.263 -0.5071 -0.2583 -0.6973
  859MPD2    C512613   3.694   3.979  15.233  0.0230  0.6710 -0.7431
  859MPD2     H12614   4.024   3.909  15.043 -0.5455  1.2027 -2.0223
  859MPD2    H112615   3.712   3.800  15.335  1.9941 -1.2652  0.2134
  859MPD2    H212616   3.687   4.155  15.136  1.6222  0.8560 -1.8483
  859MPD2    H312617   3.608   4.006  15.294  2.2738 -0.5407  2.9929
  859MPD2     N12618   3.928   3.697  15.196  0.3839  0.3982  0.8989
  859MPD2    H512619   4.010   3.689  15.137 -0.4660 -1.4206 -0.0232
  859MPD2    N112620   3.905   4.153  14.991 -0.9793  0.0295 -0.1144
  859MPD2    H712621   3.845   4.234  14.981  1.8765  2.4401  2.3829
  860MPD2     C12622   1.102   0.344  11.430  0.1954 -0.9200 -0.5906
  860MPD2    C112623   1.138   0.288  11.548 -0.3023 -0.3123 -0.0642
  860MPD2    C212624   1.042   0.256  11.640 -0.9122  0.1624 -0.7289
  860MPD2    C312625   0.910   0.283  11.614 -0.4634  0.2130  0.4925
  860MPD2    C412626   0.871   0.329  11.485 -0.4636  0.8427 -0.4556
  860MPD2    C512627   0.970   0.366  11.402  0.5579  0.0411 -0.2864
  860MPD2     H12628   1.072   0.225  11.739  1.8321 -0.6918 -1.8147
  860MPD2    H112629   0.771   0.360  11.457 -1.5075 -0.2763  2.0020
  860MPD2    H212630   1.179   0.389  11.368 -0.8024  0.3021 -0.9479
  860MPD2    H312631   0.938   0.423  11.316  0.6643  0.0369 -0.3288
  860MPD2     N12632   0.822   0.264  11.725 -0.2623  0.5575  0.2119
  860MPD2    H512633   0.850   0.221  11.813 -1.2021 -0.8491 -0.1782
  860MPD2    N112634   1.271   0.261  11.589  0.1870  0.2941 -0.5483
  860MPD2    H712635   1.283   0.227  11.685  1.2368  1.4182 -0.2810
  861MPD2     C12636   0.210   2.650  11.068  0.5773 -0.2291  0.4440
  861MPD2    C112637   0.076   2.620  11.097  0.5549 -0.2299 -0.8397
  861MPD2    C212638   4.692   2.642  11.012 -0.1632 -0.2572 -1.0218
  861MPD2    C312639   4.716   2.698  10.886  0.1639  0.0077  0.2711
  861MPD2    C412640   0.126   2.723  10.850 -0.8538  0.2534  0.4215
  861MPD2    C512641   0.226   2.712  10.944  0.2765 -0.8543  0.4148
  861MPD2     H12642   4.590   2.622  11.044 -0.1603  1.1022 -0.1592
  861MPD2    H112643   0.149   2.771  10.755 -3.4633 -1.2893 -0.9986
  861MPD2    H212644   0.289   2.647  11.141  0.0428 -0.8345  0.9929
  861MPD2    H312645   0.328   2.741  10.920 -0.0257 -1.2279 -1.3431
  861MPD2     N12646   4.618   2.733  10.797 -0.1101 -0.4182  0.1582
  861MPD2    H512647   4.656   2.769  10.710  0.5276  3.3423  2.0050
  861MPD2    N112648   0.030   2.564  11.222 -0.2483  0.6067  0.4864
  861MPD2    H712649   4.651   2.540  11.219  0.2987 -1.4859 -0.6017
  862MPD2     C12650   4.381   2.860  10.128  0.3643  0.4763 -0.4777
  862MPD2    C112651   4.399   2.773  10.237  0.7938  0.4809 -0.6091
  862MPD2    C212652   4.371   2.638  10.217  0.1365  0.1482  0.4225
  862MPD2    C312653   4.317   2.595  10.093 -1.0548 -0.3198 -0.1581
  862MPD2    C412654   4.291   2.688   9.994  0.1541  0.0659  0.1994
  862MPD2    C512655   4.319   2.819  10.013  1.1162  0.1751 -0.6872
  862MPD2     H12656   4.375   2.566  10.297 -0.0875 -1.2749 -0.8347
  862MPD2    H112657   4.226   2.658   9.912  0.4044  1.1534 -0.3877
  862MPD2    H212658   4.406   2.965  10.131  0.2036  0.5104 -0.3159
  862MPD2    H312659   4.297   2.897   9.942  0.3458  0.5322 -0.0566
  862MPD2     N12660   4.291   2.458  10.069  0.8426  0.1761  0.3835
  862MPD2    H512661   4.236   2.437   9.986  1.7192  1.6600 -0.5758
  862MPD2    N112662   4.440   2.816  10.365  0.5030  0.6070 -0.4323
  862MPD2    H712663   4.425   2.748  10.438  1.8138 -0.5580 -1.2278
  863MPD2     C12664   3.399   0.667  16.686 -0.2296  0.0082  0.7269
  863MPD2    C112665   3.398   0.801  16.717 -0.0624  0.4489 -0.6250
  863MPD2    C212666   3.469   0.847  16.832 -0.0724 -1.1093  0.1549
  863MPD2    C312667   3.538   0.755  16.911 -0.4630  0.3412 -0.1746
  863MPD2    C412668   3.516   0.621  16.881 -0.0971  0.2713 -0.1468
  863MPD2    C512669   3.453   0.574  16.775  0.2042  0.0748  0.0320
  863MPD2     H12670   3.474   0.952  16.858 -2.0033 -1.0235  0.1657
  863MPD2    H112671   3.548   0.543  16.949 -0.4253 -0.1813 -0.5116
  863MPD2    H212672   3.348   0.639  16.595 -0.1631  2.0051  0.0660
  863MPD2    H312673   3.454   0.468  16.756  0.0467 -0.2947  2.0249
  863MPD2     N12674   3.616   0.783  17.023  0.6213 -0.1221 -0.1711
  863MPD2    H512675   3.670   0.707  17.063  1.4322  0.3596 -0.3547
  863MPD2    N112676   3.321   0.885  16.631 -0.4629  0.5508 -0.3343
  863MPD2    H712677   3.280   0.856  16.542 -0.0443 -0.9321 -0.0386
  864MPD2     C12678   4.016   2.673  16.972 -0.4996  0.2074 -1.0350
  864MPD2    C112679   4.097   2.566  16.941 -0.1853 -0.6314 -0.2056
  864MPD2    C212680   4.197   2.582  16.847 -0.3640  0.1945  0.1948
  864MPD2    C312681   4.223   2.709  16.799 -0.3470  0.0106  0.0174
  864MPD2    C412682   4.145   2.817  16.839 -0.0347 -0.0409 -0.0600
  864MPD2    C512683   4.038   2.803  16.920 -0.2475  0.5459 -0.1044
  864MPD2     H12684   4.263   2.499  16.826 -0.7868  0.5190 -2.5197
  864MPD2    H112685   4.160   2.918  16.800  1.6453  0.4619  1.9027
  864MPD2    H212686   3.947   2.676  17.055  0.1724 -3.3313 -0.3718
  864MPD2    H312687   3.978   2.891  16.941  0.5870  1.0495  0.1391
  864MPD2     N12688   4.333   2.727  16.710  0.2489  0.8324 -0.9439
  864MPD2    H512689   4.349   2.814  16.661  0.3205  2.3335  1.7133
  864MPD2    N112690   4.049   2.441  17.004 -0.0612 -0.7973 -0.0079
  864MPD2    H712691   3.964   2.450  17.059 -0.2913  0.7040 -0.6003
  865MPD2     C12692   4.283   2.428  15.806 -0.4673 -0.2371 -0.6063
  865MPD2    C112693   4.290   2.374  15.932 -0.0344 -0.1462  0.0558
  865MPD2    C212694   4.324   2.463  16.036 -0.1398 -0.0119  0.1535
  865MPD2    C312695   4.357   2.594  16.010 -0.3762  0.0972 -0.3371
  865MPD2    C412696   4.353   2.644  15.883 -0.3349 -0.5670  0.1249
  865MPD2    C512697   4.319   2.559  15.782  0.1947  0.5423  0.4558
  865MPD2     H12698   4.317   2.433  16.139 -1.4755  0.9611  0.3392
  865MPD2    H112699   4.369   2.749  15.858 -0.0706 -0.2911  1.4174
  865MPD2    H212700   4.264   2.366  15.718 -1.4058 -0.5975 -0.1502
  865MPD2    H312701   4.325   2.602  15.683  1.3200 -0.1167  0.2383
  865MPD2     N12702   4.401   2.685  16.109  0.5729 -0.0874  0.5139
  865MPD2    H512703   4.427   2.778  16.077 -1.4134  0.4267  0.3899
  865MPD2    N112704   4.255   2.237  15.951  0.4395 -0.6416  0.7908
  865MPD2    H712705   4.245   2.181  15.867 -0.0172  0.8886 -0.1782
  866MPD2     C12706   0.274   3.226  11.837  0.4216 -0.3926  0.6493
  866MPD2    C112707   0.350   3.223  11.718  0.1931  0.1309 -0.3935
  866MPD2    C212708   0.294   3.192  11.596 -0.4738  0.3075  0.0785
  866MPD2    C312709   0.159   3.163  11.593  0.1847 -0.4436  0.1561
  866MPD2    C412710   0.075   3.183  11.706 -0.2470  0.3300  0.2349
  866MPD2    C512711   0.138   3.208  11.824  0.3255  0.7202 -0.2861
  866MPD2     H12712   0.348   3.188  11.502  2.0962 -2.6673  1.6538
  866MPD2    H112713   4.688   3.163  11.707 -0.3648  0.9323 -0.0331
  866MPD2    H212714   0.324   3.233  11.933  0.6609  3.2539  0.2722
  866MPD2    H312715   0.078   3.231  11.911 -1.1236 -0.3771 -0.9966
  866MPD2     N12716   0.090   3.112  11.470  0.3973 -0.2213 -0.4553
  866MPD2    H512717   4.711   3.089  11.469  0.2729  0.3945 -2.3216
  866MPD2    N112718   0.488   3.249  11.728 -0.2810 -0.1404  0.4350
  866MPD2    H712719   0.525   3.293  11.812  0.9228  1.8113 -1.1444
  867MPD2     C12720   3.180   2.378  16.359 -0.4501 -0.6584 -0.2067
  867MPD2    C112721   3.159   2.334  16.484 -0.0933  0.9954  0.8796
  867MPD2    C212722   3.123   2.428  16.582 -0.0815  0.4573  0.1060
  867MPD2    C312723   3.102   2.561  16.549  0.6679 -0.6859  0.4086
  867MPD2    C412724   3.132   2.600  16.421  0.3238 -0.2547  1.0370
  867MPD2    C512725   3.169   2.509  16.327  1.1771 -0.7745  1.2879
  867MPD2     H12726   3.115   2.399  16.686 -1.9513  1.8227  0.3421
  867MPD2    H112727   3.114   2.700  16.383  1.8897 -0.2300  0.3727
  867MPD2    H212728   3.219   2.309  16.284  0.1938  0.0235 -0.4953
  867MPD2    H312729   3.183   2.539  16.223  0.0567 -0.8211  1.1284
  867MPD2     N12730   3.059   2.659  16.638  0.8363 -0.0739  0.3270
  867MPD2    H512731   3.033   2.747  16.594  0.8267 -0.7413 -1.0008
  867MPD2    N112732   3.161   2.197  16.511  0.3420  0.6147  0.4504
  867MPD2    H712733   3.190   2.140  16.432 -2.3325 -1.8270  1.2177
  868MPD2     C12734   4.133   1.523  12.993  0.1985  0.9124  0.1643
  868MPD2    C112735   4.204   1.451  13.086 -0.4345 -0.5916 -0.5665
  868MPD2    C212736   4.175   1.475  13.220  0.7630  0.1535  0.2663
  868MPD2    C312737   4.081   1.573  13.259 -0.1587 -0.1971  0.3300
  868MPD2    C412738   4.006   1.635  13.162 -0.2546  0.3388 -0.7757
  868MPD2    C512739   4.038   1.612  13.026  0.9253 -0.4263  0.4506
  868MPD2     H12740   4.236   1.428  13.295  1.3077 -0.8614 -0.8182
  868MPD2    H112741   3.923   1.703  13.183 -0.3895  0.2324 -0.9653
  868MPD2    H212742   4.147   1.508  12.886 -1.7199  2.3485 -0.2766
  868MPD2    H312743   3.982   1.662  12.948 -1.3631 -0.0178  2.3520
  868MPD2     N12744   4.059   1.602  13.400 -0.3038  0.3731  0.2488
  868MPD2    H512745   4.114   1.544  13.463  0.8983 -1.2535 -2.2952
  868MPD2    N112746   4.303   1.359  13.042  0.0603  0.4609  0.1243
  868MPD2    H712747   4.323   1.342  12.944 -0.8440  0.1092 -0.0015
  869MPD2     C12748   1.649   4.459   1.780  0.3408 -0.0041 -0.3163
  869MPD2    C112749   1.525   4.487   1.832 -0.2051  0.0878  0.1753
  869MPD2    C212750   1.483   4.621   1.861 -0.3752 -0.3388 -0.2342
  869MPD2    C312751   1.560   0.000   1.804 -0.4857 -0.4750  0.2462
  869MPD2    C412752   1.687   4.690   1.762 -0.0003  0.6018  0.2262
  869MPD2    C512753   1.730   4.562   1.756  0.0686 -0.0936  0.3595
  869MPD2     H12754   1.385   4.649   1.899 -0.4109 -0.6520 -0.0922
  869MPD2    H112755   1.750   0.056   1.742 -0.2159  0.2723 -1.8610
  869MPD2    H212756   1.674   4.354   1.770  0.0876 -0.0026 -0.9710
  869MPD2    H312757   1.832   4.538   1.730 -0.1549 -0.5372 -0.1087
  869MPD2     N12758   1.528   0.134   1.790  0.4116  0.1952 -1.2287
  869MPD2    H512759   1.585   0.186   1.724  2.0174 -0.4017 -0.2991
  869MPD2    N112760   1.450   4.374   1.876 -0.0561  0.0597 -0.7444
  869MPD2    H712761   1.483   4.285   1.841  0.4659  0.5967 -1.6497
  870MPD2     C12762   1.290   2.599   2.391  1.1217  0.6828 -0.7433
  870MPD2    C112763   1.152   2.638   2.393  0.2694 -0.0737 -0.0457
  870MPD2    C212764   1.118   2.746   2.304 -0.3051  0.8321 -0.4069
  870MPD2    C312765   1.215   2.805   2.221  0.4333  0.3108  0.1431
  870MPD2    C412766   1.346   2.763   2.219  0.3981  0.4753  1.1445
  870MPD2    C512767   1.380   2.666   2.306  0.2682 -0.1288  0.1974
  870MPD2     H12768   1.017   2.778   2.283 -0.4547  2.1133  2.1935
  870MPD2    H112769   1.435   2.785   2.162 -0.1137  0.2982  0.2740
  870MPD2    H212770   1.319   2.521   2.460 -1.3002 -2.3656 -3.1564
  870MPD2    H312771   1.482   2.630   2.299  1.0952  1.9470  1.5854
  870MPD2     N12772   1.166   2.903   2.133  0.1698 -0.0860  0.0374
  870MPD2    H512773   1.073   2.944   2.135  0.3785  0.2796  1.7965
  870MPD2    N112774   1.060   2.574   2.478  0.8322 -0.4182  0.0587
  870MPD2    H712775   1.106   2.502   2.533  0.6464 -0.7144 -0.1739
  871MPD2     C12776   2.278   2.227  16.778 -0.7196 -0.0711 -0.3091
  871MPD2    C112777   2.181   2.165  16.848  0.6320 -0.8527 -0.1203
  871MPD2    C212778   2.101   2.070  16.772  0.5875 -0.1320  0.3027
  871MPD2    C312779   2.122   2.062  16.633  0.3725  0.8420 -0.2313
  871MPD2    C412780   2.221   2.129  16.576 -0.6254  0.0204  0.6955
  871MPD2    C512781   2.296   2.211  16.649  0.4673 -0.0954  0.5482
  871MPD2     H12782   2.017   2.025  16.822  0.6178 -1.0483 -0.4909
  871MPD2    H112783   2.244   2.125  16.471  0.3967  2.0930  0.8497
  871MPD2    H212784   2.348   2.291  16.830  0.3067 -1.7423  0.3577
  871MPD2    H312785   2.373   2.256  16.588 -0.2911 -0.0118 -0.3515
  871MPD2     N12786   2.038   1.973  16.561 -0.0989  0.3003 -0.1689
  871MPD2    H512787   1.948   1.959  16.606 -0.1401 -0.3237 -0.4470
  871MPD2    N112788   2.168   2.197  16.983  0.2762  0.3895  0.1473
  871MPD2    H712789   2.210   2.283  17.014  2.9208 -1.3480  1.4044
  872MPD2     C12790   2.319   4.657  14.543 -0.3400  0.0466  0.7239
  872MPD2    C112791   2.231   0.016  14.462 -0.1327  0.0089 -0.5368
  872MPD2    C212792   2.102   0.045  14.504  0.2595 -0.9080 -0.4367
  872MPD2    C312793   2.056   4.701  14.622 -0.2752 -0.2866 -0.2066
  872MPD2    C412794   2.140   4.629  14.704 -0.6104 -0.4162 -0.1064
  872MPD2    C512795   2.272   4.608  14.664 -0.1248 -0.4994 -0.6461
  872MPD2     H12796   2.035   0.107  14.446  1.4593  0.5169 -0.2933
  872MPD2    H112797   2.112   4.594  14.802  0.1820 -1.1369 -0.1416
  872MPD2    H212798   2.424   4.639  14.522 -0.0943  2.6073 -0.2279
  872MPD2    H312799   2.332   4.546  14.729 -0.9806  0.1066  0.7026
  872MPD2     N12800   1.929   4.719  14.682 -0.2089  0.8926 -0.5904
  872MPD2    H512801   1.910   4.662  14.764 -0.4534 -0.6510 -1.7304
  872MPD2    N112802   2.276   0.084  14.345 -0.1988 -0.0624  0.1180
  872MPD2    H712803   2.213   0.143  14.291  1.2773  3.0853  1.8878
  873MPD2     C12804   4.682   0.603   1.337 -0.4570  0.1809  0.1349
  873MPD2    C112805   4.543   0.597   1.366 -0.3813 -0.3241 -0.7831
  873MPD2    C212806   4.476   0.478   1.377  0.0882 -0.5845  0.2166
  873MPD2    C312807   4.542   0.360   1.355  0.0789 -0.1510  0.1577
  873MPD2    C412808   4.677   0.368   1.325  0.0295 -0.2799  0.5026
  873MPD2    C512809   0.026   0.486   1.317 -0.2288 -0.0979  0.0428
  873MPD2     H12810   4.372   0.474   1.407 -0.0459  2.9521  0.2332
  873MPD2    H112811   0.023   0.283   1.326  1.7272  1.0478  1.6714
  873MPD2    H212812   0.021   0.693   1.327 -0.8042  0.4592  0.6227
  873MPD2    H312813   0.133   0.488   1.301  0.1485 -0.1981  2.5869
  873MPD2     N12814   4.485   0.234   1.364 -0.4370 -0.7638 -0.0805
  873MPD2    H512815   4.540   0.149   1.356  1.4412  0.4740 -0.2053
  873MPD2    N112816   4.484   0.724   1.392 -0.2781 -0.0524 -0.5907
  873MPD2    H712817   4.543   0.807   1.391 -0.2724 -0.0350  0.6200
  874MPD2     C12818   3.885   4.243  15.974  0.4486 -0.0498 -0.4292
  874MPD2    C112819   3.920   4.290  16.095  0.6628  0.2112  0.2827
  874MPD2    C212820   3.979   4.411  16.113 -0.4452  0.6574  0.4588
  874MPD2    C312821   3.999   4.493  16.003 -0.1283  0.0363 -0.6009
  874MPD2    C412822   3.960   4.450  15.881  0.3376 -0.1807 -1.5545
  874MPD2    C512823   3.906   4.319  15.863 -0.2063 -0.0867 -0.5410
  874MPD2     H12824   4.010   4.451  16.209  3.6877  0.3746 -0.7285
  874MPD2    H112825   3.958   4.514  15.794  2.8578 -0.7682 -2.0273
  874MPD2    H212826   3.829   4.150  15.973 -1.1064  0.8717 -0.9599
  874MPD2    H312827   3.891   4.277  15.764 -0.6700  0.1646 -0.5741
  874MPD2     N12828   4.056   4.622  16.031  0.3431 -0.0256  0.5892
  874MPD2    H512829   4.067   4.647  16.128 -2.4710 -2.9605  1.6667
  874MPD2    N112830   3.869   4.214  16.198 -0.1640 -0.1434  0.3303
  874MPD2    H712831   3.807   4.135  16.182 -0.6432  0.4741 -0.8494
  875MPD2     C12832   0.380   2.717  14.597  0.1169 -0.3393 -0.0689
  875MPD2    C112833   0.376   2.854  14.555 -0.5448 -1.1295 -0.5428
  875MPD2    C212834   0.405   2.938  14.657 -0.2432 -0.7761 -0.0725
  875MPD2    C312835   0.431   2.900  14.792 -0.0668 -0.6309 -0.5050
  875MPD2    C412836   0.417   2.767  14.823  0.3008 -0.1448  0.1107
  875MPD2    C512837   0.403   2.674  14.722 -0.0524 -0.1662 -0.7033
  875MPD2     H12838   0.400   3.041  14.624  1.0035 -0.7464 -0.1667
  875MPD2    H112839   0.436   2.727  14.922 -2.0795  1.1984  1.0991
  875MPD2    H212840   0.361   2.639  14.524 -1.1848 -0.0628 -0.0356
  875MPD2    H312841   0.397   2.571  14.755 -0.0989  0.4781  1.3170
  875MPD2     N12842   0.463   2.996  14.889  0.5716  0.2408  0.4552
  875MPD2    H512843   0.471   2.963  14.984  3.8349 -2.4946 -0.7537
  875MPD2    N112844   0.351   2.900  14.421 -0.5719  0.2762 -0.2187
  875MPD2    H712845   0.362   2.999  14.402 -0.3862  0.2205 -0.3991
  876MPD2     C12846   4.008   4.335  15.461  0.6650  0.4528 -0.0298
  876MPD2    C112847   4.133   4.336  15.519  0.1621  0.1828  0.7106
  876MPD2    C212848   4.169   4.227  15.601  1.3404  0.7835 -0.4221
  876MPD2    C312849   4.086   4.120  15.616  0.2314 -0.2304 -0.1438
  876MPD2    C412850   3.965   4.114  15.546 -0.4742  0.1826  0.1980
  876MPD2    C512851   3.935   4.220  15.464 -0.1487  0.4645  0.0214
  876MPD2     H12852   4.260   4.226  15.661 -1.8165  1.3045  4.3591
  876MPD2    H112853   3.911   4.020  15.543 -0.1050  0.0174 -1.0347
  876MPD2    H212854   3.982   4.413  15.391 -0.7006 -0.6250 -0.7190
  876MPD2    H312855   3.858   4.211  15.389  0.9827  1.3427 -1.2409
  876MPD2     N12856   4.121   4.022  15.705 -0.5908 -0.5098  0.3080
  876MPD2    H512857   4.218   4.030  15.734 -0.7056  1.9292 -0.0227
  876MPD2    N112858   4.211   4.454  15.508  0.1677  0.1894 -0.2181
  876MPD2    H712859   4.172   4.538  15.465 -1.2523 -0.1771  0.3814
  877MPD2     C12860   4.087   0.149  15.097  0.0173 -0.4302  0.7006
  877MPD2    C112861   4.217   0.189  15.113  0.4957  0.0618  0.3113
  877MPD2    C212862   4.275   0.254  15.003  0.0409  0.1257 -0.0459
  877MPD2    C312863   4.202   0.264  14.884 -0.5725  0.5927  0.0608
  877MPD2    C412864   4.072   0.228  14.880  0.3009  0.2511 -0.7631
  877MPD2    C512865   4.017   0.171  14.988  0.0103  0.6192 -0.0312
  877MPD2     H12866   4.374   0.300  15.007  0.3436 -0.2265 -3.0298
  877MPD2    H112867   4.007   0.248  14.795  1.1811  2.2583 -0.9551
  877MPD2    H212868   4.044   0.090  15.177 -0.9459  0.9714  1.2285
  877MPD2    H312869   3.921   0.122  14.985  1.0463 -1.3923 -0.4245
  877MPD2     N12870   4.244   0.338  14.768  0.6081 -0.1945 -0.7058
  877MPD2    H512871   4.182   0.345  14.688  0.1370  3.6795 -0.0104
  877MPD2    N112872   4.297   0.173  15.228 -0.2768 -0.0353  0.0411
  877MPD2    H712873   4.394   0.203  15.222  0.2672 -1.6409  0.7391
  878MPD2     C12874   3.326   4.689  13.638 -0.3011 -0.1520  0.5457
  878MPD2    C112875   3.441   0.011  13.570  0.0958  0.8123  0.0146
  878MPD2    C212876   3.559   4.716  13.636  0.5749  0.4052 -0.6333
  878MPD2    C312877   3.571   4.667  13.760  0.2291 -0.5774  0.1849
  878MPD2    C412878   3.455   4.648  13.834  0.1274 -0.3094  0.1988
  878MPD2    C512879   3.330   4.659  13.776 -0.0529  0.3232 -0.8299
  878MPD2     H12880   3.653   0.036  13.598  0.6745 -0.2650 -1.0743
  878MPD2    H112881   3.454   4.629  13.941 -1.4841  0.1614  0.2560
  878MPD2    H212882   3.229   4.683  13.590 -0.4677 -2.3012  1.1658
  878MPD2    H312883   3.238   4.636  13.827 -0.6366  0.2637 -1.9180
  878MPD2     N12884   3.699   4.663  13.820  0.5790 -0.8878  0.3516
  878MPD2    H512885   3.775   4.688  13.758 -0.2597  0.2555 -0.2082
  878MPD2    N112886   3.416   0.065  13.440  0.0410 -0.0192  0.6664
  878MPD2    H712887   3.319   0.064  13.409 -0.3179 -1.3594  1.8167
  879MPD2     C12888   4.019   1.319  16.971  0.1986 -0.1571  0.4291
  879MPD2    C112889   4.080   1.220  17.050  0.7373 -0.0787 -0.0866
  879MPD2    C212890   4.062   1.086  17.020  0.0427  0.2421  0.4032
  879MPD2    C312891   3.990   1.043  16.900 -0.6903 -0.6539 -0.4538
  879MPD2    C412892   3.939   1.141  16.822  0.0644 -0.3559 -0.1306
  879MPD2    C512893   3.956   1.275  16.858  0.3066 -0.0792 -0.4566
  879MPD2     H12894   4.088   1.009  17.092  2.4529 -2.2240 -3.1660
  879MPD2    H112895   3.885   1.116  16.731  1.6944 -1.3891 -0.8225
  879MPD2    H212896   4.033   1.425  16.988  0.8786  0.1047 -1.7969
  879MPD2    H312897   3.921   1.358  16.799  0.2146  0.4468  0.3329
  879MPD2     N12898   3.969   0.909  16.855 -0.4752 -0.0792 -0.4763
  879MPD2    H512899   3.918   0.901  16.768  1.7269 -1.9071 -1.6042
  879MPD2    N112900   4.156   1.268  17.160  0.1446 -1.2104 -0.0515
  879MPD2    H712901   4.154   1.367  17.185  0.2989 -1.5367  1.2278
  880MPD2     C12902   1.091   2.467   1.383 -0.0989 -0.0361 -0.1063
  880MPD2    C112903   1.134   2.443   1.257  0.0463  0.1257 -0.6073
  880MPD2    C212904   1.183   2.314   1.227  0.2661  1.1391 -0.2216
  880MPD2    C312905   1.160   2.205   1.311  0.6967 -0.7350 -0.1894
  880MPD2    C412906   1.084   2.232   1.426  0.1597  0.3681  0.4678
  880MPD2    C512907   1.051   2.361   1.460  0.1111  0.1212 -0.6852
  880MPD2     H12908   1.235   2.299   1.133  2.4655  1.4409  0.9462
  880MPD2    H112909   1.042   2.151   1.485 -0.2037  1.8587  2.2451
  880MPD2    H212910   1.044   2.553   1.429 -0.4561 -0.6474  0.6780
  880MPD2    H312911   1.003   2.377   1.555  0.6564  0.5602 -0.4855
  880MPD2     N12912   1.202   2.072   1.285  0.2532 -0.6725 -0.7675
  880MPD2    H512913   1.244   2.049   1.196 -0.8604  2.8800 -2.2172
  880MPD2    N112914   1.156   2.556   1.175 -0.7784  0.5388 -0.2918
  880MPD2    H712915   1.150   2.651   1.211  2.8605  0.0190  1.6830
  881MPD2     C12916   1.089   3.191   0.293  0.0629 -0.9826  0.0163
  881MPD2    C112917   1.125   3.053   0.297 -0.4949  0.1615  0.7318
  881MPD2    C212918   1.161   3.000   0.422 -0.7807  0.0864  0.4058
  881MPD2    C312919   1.146   3.073   0.538 -0.0258 -0.0642 -0.3079
  881MPD2    C412920   1.114   3.210   0.529  0.5180 -0.0167  0.4292
  881MPD2    C512921   1.094   3.264   0.408 -0.0007 -0.5026 -0.3967
  881MPD2     H12922   1.194   2.897   0.427  3.9072  1.5605 -0.1193
  881MPD2    H112923   1.116   3.279   0.612 -0.5683 -0.0727  0.4938
  881MPD2    H212924   1.076   3.241   0.197  0.5674  2.8947  1.9802
  881MPD2    H312925   1.078   3.370   0.396  0.9681 -0.1776  1.2251
  881MPD2     N12926   1.168   3.024   0.667  0.3279  0.2255 -0.0707
  881MPD2    H512927   1.163   3.095   0.740  0.0743 -1.4314  1.5307
  881MPD2    N112928   1.150   2.989   0.175  0.7069  0.1559 -0.1524
  881MPD2    H712929   1.126   3.043   0.092 -0.4501  0.4006  0.3463
  882MPD2     C12930   3.946   0.537  14.157  0.1442  1.0324  0.0566
  882MPD2    C112931   3.997   0.435  14.235  0.3271  0.1216 -0.1233
  882MPD2    C212932   3.930   0.318  14.243  0.9377  0.2936 -0.5258
  882MPD2    C312933   3.802   0.312  14.191 -0.0440 -0.2449 -0.4301
  882MPD2    C412934   3.749   0.416  14.127 -0.1056 -0.3174  0.7834
  882MPD2    C512935   3.822   0.528  14.103 -0.2115 -0.1974 -0.4474
  882MPD2     H12936   3.973   0.234  14.297 -0.9455  0.2214  0.8466
  882MPD2    H112937   3.645   0.411  14.098 -0.0580 -1.4702  0.8203
  882MPD2    H212938   3.993   0.634  14.144 -2.5614  2.5150  1.2538
  882MPD2    H312939   3.779   0.612  14.048  2.3389  0.4341 -1.4831
  882MPD2     N12940   3.720   0.204  14.209  0.4631 -0.0605  0.7450
  882MPD2    H512941   3.632   0.205  14.158  1.3158 -0.7938 -0.7276
  882MPD2    N112942   4.111   0.446  14.315 -0.3338 -0.0511  0.6032
  882MPD2    H712943   4.130   0.367  14.376  1.2868 -1.8717 -2.2844
  883MPD2     C12944   1.497   4.477  17.229  0.4787 -0.2705  0.1427
  883MPD2    C112945   1.590   4.485  17.126 -0.3291 -0.0356 -0.5378
  883MPD2    C212946   1.708   4.558  17.141 -0.7149  0.6154  0.2495
  883MPD2    C312947   1.734   4.623  17.265  1.2396  0.2023 -0.2688
  883MPD2    C412948   1.639   4.615  17.371 -0.9839  0.5523 -1.0441
  883MPD2    C512949   1.526   4.535  17.351 -0.0139 -0.3631  0.0757
  883MPD2     H12950   1.775   4.575  17.057 -1.1865 -0.0800 -0.2705
  883MPD2    H112951   1.636   4.656  17.471  0.8923 -2.3242  0.1846
  883MPD2    H212952   1.397   4.440  17.216 -0.1804  2.0161 -1.3873
  883MPD2    H312953   1.457   4.514  17.432 -1.6009 -0.2179 -1.2273
  883MPD2     N12954   1.844   4.709  17.266  0.1230 -0.4390  0.2860
  883MPD2    H512955   1.911   4.687  17.192  1.2818  0.1688  1.1693
  883MPD2    N112956   1.565   4.425  17.003 -0.5828  0.0701  0.5228
  883MPD2    H712957   1.640   4.406  16.937  0.3879  1.3796  1.2669
  884MPD2     C12958   3.439   0.676  15.113  0.1622  0.6183 -0.3276
  884MPD2    C112959   3.408   0.802  15.055 -0.2887 -0.1093 -0.2328
  884MPD2    C212960   3.279   0.854  15.073 -0.3719  0.1133 -0.1992
  884MPD2    C312961   3.187   0.789  15.145 -0.4171 -0.5028 -0.2895
  884MPD2    C412962   3.213   0.660  15.188  0.0907  0.0500  0.2042
  884MPD2    C512963   3.338   0.604  15.173 -0.0536  0.1539  0.2958
  884MPD2     H12964   3.264   0.956  15.040 -0.2423  0.2270  0.0935
  884MPD2    H112965   3.133   0.600  15.230 -0.1686  1.5632  1.8854
  884MPD2    H212966   3.529   0.615  15.111  0.7282  1.4094  1.2003
  884MPD2    H312967   3.352   0.505  15.215 -0.4724 -0.5719 -1.2818
  884MPD2     N12968   3.074   0.865  15.180  0.1857  0.1310  0.2439
  884MPD2    H512969   3.064   0.957  15.139 -1.4075 -0.7913 -1.4276
  884MPD2    N112970   3.505   0.886  14.988  0.1606  0.0064 -0.0728
  884MPD2    H712971   3.457   0.956  14.932 -0.2537  0.5762  0.9877
  885MPD2     C12972   1.216   0.730   0.443  0.7318 -0.4018  0.1692
  885MPD2    C112973   1.340   0.777   0.424  0.1655  0.4294 -0.8207
  885MPD2    C212974   1.372   0.839   0.306 -0.3257  1.2517  0.3762
  885MPD2    C312975   1.277   0.845   0.202 -0.9985 -0.1410 -0.0478
  885MPD2    C412976   1.159   0.775   0.220  0.0930 -0.2061 -0.2110
  885MPD2    C512977   1.124   0.721   0.340  0.1941  0.2531 -0.0542
  885MPD2     H12978   1.475   0.870   0.289 -0.1561  0.2315 -0.4878
  885MPD2    H112979   1.088   0.762   0.139 -1.4792 -0.3006  1.1875
  885MPD2    H212980   1.184   0.680   0.533 -1.7103  1.5473  0.3812
  885MPD2    H312981   1.034   0.661   0.347 -0.2762  0.9617 -0.0005
  885MPD2     N12982   1.310   0.910   0.085  0.1348 -0.4688 -0.2370
  885MPD2    H512983   1.405   0.945   0.082  0.0365 -0.3017 -1.3712
  885MPD2    N112984   1.425   0.784   0.535 -0.7798  0.4842  0.2031
  885MPD2    H712985   1.389   0.773   0.630 -1.1553  0.1065  0.0168
  886MPD2     C12986   2.585   3.967  15.127  0.6986 -0.5282  0.6120
  886MPD2    C112987   2.703   3.994  15.187  0.4395 -0.9986 -0.1430
  886MPD2    C212988   2.756   4.121  15.167  0.2600 -0.2342 -0.6934
  886MPD2    C312989   2.690   4.216  15.093  0.4956 -0.0162  0.3883
  886MPD2    C412990   2.572   4.185  15.037 -0.9880 -0.4849  0.4354
  886MPD2    C512991   2.514   4.065  15.054  0.6073 -0.0924  0.4936
  886MPD2     H12992   2.858   4.129  15.203  0.4048  0.5941 -1.2834
  886MPD2    H112993   2.519   4.253  14.971 -2.3556 -1.3527  0.6329
  886MPD2    H212994   2.547   3.866  15.115  1.7942 -1.0115  1.2086
  886MPD2    H312995   2.423   4.039  15.002  1.1654  3.5978 -2.3638
  886MPD2     N12996   2.745   4.344  15.062 -0.3035  0.6566  0.1175
  886MPD2    H512997   2.687   4.396  14.997 -0.2499 -0.5159 -0.8586
  886MPD2    N112998   2.778   3.896  15.259  0.2436  0.5121  0.1876
  886MPD2    H712999   2.868   3.929  15.293 -0.3803  1.6209  0.7447
  887MPD2     C13000   3.441   3.764  15.512 -0.7125  0.5968  0.1889
  887MPD2    C113001   3.325   3.843  15.488 -0.0646 -0.3075 -0.0225
  887MPD2    C213002   3.341   3.978  15.490 -0.0500  0.2778  0.0723
  887MPD2    C313003   3.456   4.035  15.538  0.1511 -0.0983  0.3543
  887MPD2    C413004   3.566   3.964  15.563 -0.3394  0.1711 -0.3769
  887MPD2    C513005   3.559   3.832  15.541  0.4237  0.6148 -0.9095
  887MPD2     H13006   3.262   4.047  15.460 -0.9591 -0.6387  0.3548
  887MPD2    H113007   3.664   4.006  15.581 -1.0068  1.4736  0.2548
  887MPD2    H213008   3.443   3.656  15.514 -0.2659  0.5484 -3.1226
  887MPD2    H313009   3.645   3.769  15.562 -0.3444  0.5885  2.0613
  887MPD2     N13010   3.456   4.174  15.538  0.0166 -0.3319 -0.2310
  887MPD2    H513011   3.375   4.227  15.506 -0.5331 -0.5218  0.8560
  887MPD2    N113012   3.202   3.790  15.460 -0.1371  0.1685 -0.1033
  887MPD2    H713013   3.124   3.851  15.438 -1.6511 -0.9398  2.2125
  888MPD2     C13014   0.481   4.363  14.817 -0.3086  0.2476  0.5005
  888MPD2    C113015   0.476   4.368  14.957 -0.2747 -0.3095  0.4315
  888MPD2    C213016   0.513   4.487  15.009  0.3575  0.0351  0.1904
  888MPD2    C313017   0.550   4.597  14.937 -1.0279  0.1378 -0.7001
  888MPD2    C413018   0.549   4.585  14.798  0.1104  0.0882 -1.0546
  888MPD2    C513019   0.520   4.471  14.744  0.3110  0.6827 -0.0111
  888MPD2     H13020   0.523   4.487  15.117  1.8877  0.0709  0.0517
  888MPD2    H113021   0.576   4.655  14.721 -0.4910  0.5385 -0.8539
  888MPD2    H213022   0.474   4.268  14.765 -2.5788  0.1662  0.9429
  888MPD2    H313023   0.536   4.451  14.638 -0.3926 -0.4565  0.0937
  888MPD2     N13024   0.588   4.711  15.011 -0.7108 -0.3069  0.0318
  888MPD2    H513025   0.582   4.703  15.112  1.1492  0.2668  0.1865
  888MPD2    N113026   0.432   4.257  15.041  0.5389 -0.6728  0.1737
  888MPD2    H713027   0.456   4.253  15.139 -0.3510 -1.8268  0.3460
  889MPD2     C13028   4.525   3.336  13.262  0.3491  0.6351  0.6815
  889MPD2    C113029   4.595   3.426  13.337 -0.1948 -0.2493 -0.0195
  889MPD2    C213030   4.614   3.553  13.282  0.1684 -0.5118  0.8032
  889MPD2    C313031   4.537   3.590  13.176 -0.0928 -0.4046 -0.0940
  889MPD2    C413032   4.435   3.509  13.125 -0.0220  0.9023 -0.4173
  889MPD2    C513033   4.446   3.382  13.165  0.2022 -0.5624 -0.2571
  889MPD2     H13034   4.684   3.624  13.324 -1.0261  1.7113 -0.9838
  889MPD2    H113035   4.356   3.547  13.060 -0.4072  0.6070 -0.1194
  889MPD2    H213036   4.509   3.230  13.281  0.3348  0.2084 -1.7065
  889MPD2    H313037   4.381   3.310  13.116  0.1030  0.1804 -1.2252
  889MPD2     N13038   4.547   3.722  13.128  0.5237  0.5625  0.2360
  889MPD2    H513039   4.594   3.792  13.185 -0.3256  1.1339  0.2536
  889MPD2    N113040   4.684   3.381  13.433  0.5743  0.1854 -0.1372
  889MPD2    H713041   0.012   3.454  13.485 -0.6603  1.6602 -1.0876
  890MPD2     C13042   3.925   0.729  14.530  0.1097  1.4704 -0.3613
  890MPD2    C113043   4.052   0.769  14.549  0.0015  0.0940  0.3425
  890MPD2    C213044   4.117   0.730  14.667  0.1396 -0.4732 -0.3047
  890MPD2    C313045   4.054   0.652  14.758  0.1352 -0.0808 -0.2036
  890MPD2    C413046   3.921   0.606  14.731 -0.2206  0.5262  0.1548
  890MPD2    C513047   3.863   0.645  14.619  0.0253  0.1184  0.5136
  890MPD2     H13048   4.216   0.770  14.689 -0.3791  0.8905 -0.4264
  890MPD2    H113049   3.854   0.550  14.794 -0.2792 -0.4042 -0.7323
  890MPD2    H213050   3.890   0.743  14.428  1.1402  0.1742 -0.8923
  890MPD2    H313051   3.757   0.626  14.607  0.1326  0.0682 -0.3714
  890MPD2     N13052   4.123   0.630  14.881  0.0180  0.1986  0.4064
  890MPD2    H513053   4.205   0.683  14.906 -0.4317  0.3513  1.5371
  890MPD2    N113054   4.113   0.849  14.447  0.2443  0.5209 -0.7186
  890MPD2    H713055   4.062   0.883  14.366  0.1875 -0.0382 -0.9114
  891MPD2     C13056   2.228   3.493  17.182  0.3257 -0.3167 -0.4039
  891MPD2    C113057   2.165   3.615  17.154  0.2019  0.3214  0.0730
  891MPD2    C213058   2.230   3.731  17.184  0.3982 -0.1589 -0.4433
  891MPD2    C313059   2.342   3.727  17.253 -0.4067 -0.2645 -0.4954
  891MPD2    C413060   2.392   3.608  17.307 -0.2854  0.0428  0.1319
  891MPD2    C513061   2.335   3.489  17.268  0.1963  0.3397 -0.0772
  891MPD2     H13062   2.194   3.824  17.140  1.5411  0.4239 -0.1517
  891MPD2    H113063   2.483   3.593  17.365 -1.3291 -1.3003  1.4276
  891MPD2    H213064   2.190   3.399  17.145  0.4566  0.0295 -1.4173
  891MPD2    H313065   2.379   3.395  17.297 -3.8672 -1.0083  1.8208
  891MPD2     N13066   2.410   3.853  17.267  0.4649  0.4680  0.3419
  891MPD2    H513067   2.366   3.940  17.242 -3.5242 -2.5553 -3.1946
  891MPD2    N113068   2.048   3.614  17.076  0.7095  0.4684  0.2265
  891MPD2    H713069   2.010   3.532  17.029  0.4984 -0.5887  2.1981
  892MPD2     C13070   3.216   0.561  14.766  0.0815 -0.2637  0.1124
  892MPD2    C113071   3.134   0.462  14.709  0.0960  0.3191  0.0806
  892MPD2    C213072   3.186   0.351  14.647 -0.4323  0.1328  0.1371
  892MPD2    C313073   3.320   0.348  14.617 -0.1544 -0.4053 -0.6391
  892MPD2    C413074   3.399   0.449  14.661  0.2915 -0.4263 -0.2850
  892MPD2    C513075   3.351   0.543  14.752  0.6873  0.1257  0.0408
  892MPD2     H13076   3.120   0.273  14.612  0.6364 -1.3687  1.4073
  892MPD2    H113077   3.505   0.445  14.640  0.1185 -2.2383 -0.7467
  892MPD2    H213078   3.175   0.644  14.821  1.3099  0.2115  0.3197
  892MPD2    H313079   3.427   0.605  14.798  0.0623  0.3759  0.7515
  892MPD2     N13080   3.386   0.260  14.528 -0.2247  0.1199 -0.1868
  892MPD2    H513081   3.474   0.287  14.487  0.6061  0.4649  1.8657
  892MPD2    N113082   2.996   0.480  14.707  0.4339 -0.4630  0.9691
  892MPD2    H713083   2.936   0.402  14.684  0.3428  0.0436 -0.5354
  893MPD2     C13084   1.083   3.344   2.784 -0.2083 -0.2139  0.4096
  893MPD2    C113085   1.112   3.220   2.725 -0.0695  0.0519  0.0409
  893MPD2    C213086   1.037   3.114   2.751  0.2947  0.0719 -0.1954
  893MPD2    C313087   0.934   3.119   2.848  0.1190  0.4284 -0.4386
  893MPD2    C413088   0.908   3.246   2.908 -0.2590 -0.0210  0.1594
  893MPD2    C513089   0.982   3.357   2.877 -0.5532  0.5645  0.4811
  893MPD2     H13090   1.058   3.015   2.713 -0.3281 -0.2488  0.2995
  893MPD2    H113091   0.834   3.256   2.986 -0.9579 -2.2371 -0.2153
  893MPD2    H213092   1.147   3.429   2.762  3.2611 -2.4702  1.8917
  893MPD2    H313093   0.963   3.446   2.936  1.8848  0.1170  1.9509
  893MPD2     N13094   0.851   3.009   2.889 -0.0516  0.3713 -0.1381
  893MPD2    H513095   0.801   3.021   2.976 -0.9342 -1.4705 -0.4057
  893MPD2    N113096   1.210   3.222   2.630 -0.5925  0.6039 -0.0313
  893MPD2    H713097   1.245   3.310   2.596  0.8118  0.2977  0.6135
  894MPD2     C13098   2.902   1.156   0.844  0.7557  0.2945 -0.3388
  894MPD2    C113099   2.885   1.190   0.978 -0.1652 -0.6243 -0.3319
  894MPD2    C213100   2.938   1.310   1.019  0.1191 -0.3395 -0.7453
  894MPD2    C313101   2.996   1.398   0.931  0.2556 -0.3010 -0.0059
  894MPD2    C413102   3.014   1.369   0.793  0.8773 -0.4440  0.3267
  894MPD2    C513103   2.966   1.240   0.752  0.2019  0.1866  0.4620
  894MPD2     H13104   2.933   1.340   1.123 -0.7957 -0.4220 -0.7646
  894MPD2    H113105   3.055   1.438   0.720 -0.0711 -0.6005 -0.3534
  894MPD2    H213106   2.869   1.064   0.798  0.6255  1.0736 -1.8102
  894MPD2    H313107   2.975   1.216   0.646  0.2777 -1.3870  0.8214
  894MPD2     N13108   3.033   1.526   0.979 -0.5646 -0.4260  0.0893
  894MPD2    H513109   3.002   1.550   1.073  1.3118  0.5844  0.4420
  894MPD2    N113110   2.831   1.093   1.062  0.3632 -0.4851  0.0487
  894MPD2    H713111   2.844   1.114   1.160  0.6076 -0.0160 -0.0829
  895MPD2     C13112   2.201   4.656  14.013  0.3159  0.2262 -0.5443
  895MPD2    C113113   2.182   4.717  13.895  0.1921 -0.1679 -0.1971
  895MPD2    C213114   2.294   0.018  13.813  0.1365 -0.2200 -0.6086
  895MPD2    C313115   2.410   4.663  13.849  0.4793  0.2905  0.0177
  895MPD2    C413116   2.423   4.599  13.969  0.5793 -0.3265 -0.4714
  895MPD2    C513117   2.317   4.607  14.057 -0.8884  0.1680  0.2927
  895MPD2     H13118   2.284   0.061  13.713  1.7607 -0.1333 -0.7398
  895MPD2    H113119   2.509   4.545  14.008  0.2789 -0.9887 -0.7373
  895MPD2    H213120   2.125   4.645  14.089 -1.7391  0.7935 -2.5057
  895MPD2    H313121   2.333   4.553  14.150  0.1569  2.1886  1.2758
  895MPD2     N13122   2.529   4.652  13.769  0.5361 -0.7954  0.3327
  895MPD2    H513123   2.602   4.595  13.809 -0.2333 -0.9416  1.5084
  895MPD2    N113124   2.061   0.060  13.841  0.5921  0.5817  0.3371
  895MPD2    H713125   2.077   0.115  13.758 -0.1531 -0.6433 -0.6196
  896MPD2     C13126   4.434   2.127   1.975  0.0226  0.3523  0.0823
  896MPD2    C113127   4.484   2.101   1.848 -0.2269 -0.2934 -0.2955
  896MPD2    C213128   4.398   2.058   1.749  0.1940 -0.3077 -0.1454
  896MPD2    C313129   4.261   2.051   1.770  0.0178  0.0449 -0.2005
  896MPD2    C413130   4.219   2.064   1.895  0.2851  0.2668  0.5056
  896MPD2    C513131   4.300   2.113   1.997 -0.4303 -0.2861  0.3069
  896MPD2     H13132   4.432   2.030   1.650  1.5296 -2.4675  0.9061
  896MPD2    H113133   4.124   2.018   1.921  1.0212 -1.1089  0.6945
  896MPD2    H213134   4.509   2.150   2.050 -0.5343 -0.3094  0.8388
  896MPD2    H313135   4.263   2.125   2.099 -1.1945 -0.1356  0.0134
  896MPD2     N13136   4.172   2.017   1.671  0.4577 -0.0605 -0.2654
  896MPD2    H513137   4.213   1.968   1.592 -0.7351 -1.2407 -0.1508
  896MPD2    N113138   4.624   2.120   1.832  0.0212  0.7213  0.6686
  896MPD2    H713139   4.670   2.155   1.914  0.7796 -0.0937  0.5951
  897MPD2     C13140   1.087   4.105  10.588 -0.5987  0.6841 -0.5241
  897MPD2    C113141   1.038   4.037  10.472  0.1802 -0.0336 -0.2707
  897MPD2    C213142   0.969   3.918  10.497 -0.6173 -0.7406 -0.1751
  897MPD2    C313143   0.932   3.872  10.624  0.6102 -0.6685 -0.6954
  897MPD2    C413144   0.985   3.952  10.735 -0.0508 -0.3699  0.4144
  897MPD2    C513145   1.063   4.057  10.718 -0.3230 -0.0475  0.7619
  897MPD2     H13146   0.927   3.880  10.405 -0.6985  0.7371 -0.7504
  897MPD2    H113147   0.962   3.929  10.839  1.0089 -3.1343  0.0420
  897MPD2    H213148   1.153   4.191  10.581  0.1184 -0.1778 -4.5444
  897MPD2    H313149   1.104   4.110  10.803  0.3303 -0.8219  0.9287
  897MPD2     N13150   0.831   3.768  10.632 -0.0185 -0.0938  0.1225
  897MPD2    H513151   0.800   3.726  10.545 -1.2641  2.2126 -0.5441
  897MPD2    N113152   1.046   4.101  10.345 -0.4127  0.4774 -0.3756
  897MPD2    H713153   1.081   4.196  10.338 -1.8474  1.0570  0.2788
  898MPD2     C13154   2.563   4.533   0.402  0.0029  0.3498  0.8995
  898MPD2    C113155   2.684   4.524   0.336 -0.3793 -0.2330 -0.0076
  898MPD2    C213156   2.708   4.608   0.229  0.4342  0.6309  0.0721
  898MPD2    C313157   2.610   4.687   0.174  0.4242 -0.1004 -0.2709
  898MPD2    C413158   2.487   4.696   0.244 -0.1284 -0.0792 -0.2283
  898MPD2    C513159   2.466   4.619   0.360 -0.7091 -0.1412 -0.1292
  898MPD2     H13160   2.805   4.600   0.181 -1.2480 -1.5131 -3.0369
  898MPD2    H113161   2.401   0.024   0.198  2.2381  2.4502 -2.0455
  898MPD2    H213162   2.546   4.498   0.503 -0.1412 -2.3094 -0.0462
  898MPD2    H313163   2.367   4.614   0.403 -1.2194  2.9459 -0.9553
  898MPD2     N13164   2.641   0.046   0.062 -0.1334  0.5676  0.0258
  898MPD2    H513165   2.736   0.035   0.028  0.5889 -0.7110  2.4828
  898MPD2    N113166   2.791   4.460   0.397  0.0119 -0.3604 -0.0261
  898MPD2    H713167   2.878   4.464   0.345 -0.0103 -2.1471 -0.2267
  899MPD2     C13168   3.713   0.358  17.498 -0.2707  0.2642 -0.3425
  899MPD2    C113169   3.716   0.487  17.557 -0.1608  0.1758  0.4026
  899MPD2    C213170   3.703   0.503   0.011  0.0641 -1.2913  0.7966
  899MPD2    C313171   3.703   0.393   0.093 -0.4980 -0.3000 -0.4896
  899MPD2    C413172   3.697   0.270   0.037  0.1010 -0.3805 -0.3992
  899MPD2    C513173   3.699   0.254  17.582  0.5070 -1.0502 -0.4929
  899MPD2     H13174   3.690   0.601   0.056  1.5140 -1.0078  0.6076
  899MPD2    H113175   3.694   0.183   0.102  0.4591  1.2236  1.7614
  899MPD2    H213176   3.724   0.357  17.390 -0.2086  0.8051 -0.3420
  899MPD2    H313177   3.688   0.153  17.545 -1.4704 -0.8674 -0.3898
  899MPD2     N13178   3.685   0.412   0.235 -0.1343 -0.5159 -0.1446
  899MPD2    H513179   3.657   0.331   0.289 -1.6135 -0.5569 -0.9809
  899MPD2    N113180   3.738   0.599  17.466  0.0893  0.3799  0.8190
  899MPD2    H713181   3.745   0.580  17.366 -2.1886 -2.1502  1.1470
  900MPD2     C13182   3.338   2.493  12.357 -0.2692  0.4118  0.1741
  900MPD2    C113183   3.207   2.470  12.385 -0.5280 -0.1604 -0.1062
  900MPD2    C213184   3.106   2.514  12.304  0.2629 -0.0714  0.3212
  900MPD2    C313185   3.134   2.586  12.188  0.4056 -0.0305 -0.1371
  900MPD2    C413186   3.269   2.608  12.154  0.5409  0.4121 -0.1594
  900MPD2    C513187   3.371   2.563  12.246 -0.5583 -0.0969  0.0779
  900MPD2     H13188   3.006   2.502  12.343  0.0776  0.1110 -0.1049
  900MPD2    H113189   3.299   2.663  12.065  0.4249 -0.2498 -0.6063
  900MPD2    H213190   3.412   2.470  12.433  0.7807 -0.6967 -1.1880
  900MPD2    H313191   3.474   2.589  12.222  0.0979 -1.0475  1.9217
  900MPD2     N13192   3.029   2.621  12.099  0.3547 -0.0017 -0.4944
  900MPD2    H513193   2.938   2.605  12.141  0.6635  0.8623  0.4971
  900MPD2    N113194   3.191   2.387  12.499  0.8037 -0.5087 -0.3195
  900MPD2    H713195   3.278   2.361  12.544 -0.0081  1.3650  2.2972
  901MPD2     C13196   2.646   1.524  12.845 -0.7183 -0.0335 -0.2482
  901MPD2    C113197   2.775   1.527  12.899  0.7001  0.2647  0.0403
  901MPD2    C213198   2.853   1.641  12.890  0.0511  0.5553 -0.0655
  901MPD2    C313199   2.802   1.759  12.839  0.0026 -0.1530 -0.1362
  901MPD2    C413200   2.672   1.757  12.793 -0.2332  0.1496  0.2767
  901MPD2    C513201   2.598   1.639  12.797  0.2463 -0.6177 -0.1950
  901MPD2     H13202   2.952   1.636  12.936 -0.3218 -1.2554  0.5651
  901MPD2    H113203   2.621   1.847  12.762  1.8747  0.8828 -0.9972
  901MPD2    H213204   2.585   1.435  12.833 -1.4856  0.6325 -1.3085
  901MPD2    H313205   2.499   1.644  12.755  0.2014  0.4544  0.0542
  901MPD2     N13206   2.881   1.872  12.833 -0.4006 -0.0686 -0.3129
  901MPD2    H513207   2.967   1.869  12.887 -1.5472  0.2115  1.5155
  901MPD2    N113208   2.837   1.413  12.956 -0.1432 -0.1991 -0.2094
  901MPD2    H713209   2.938   1.416  12.967 -0.4241  1.9593  1.8724
  902MPD2     C13210   2.043   4.670  12.490  0.0650  0.3550  0.3413
  902MPD2    C113211   2.080   0.082  12.493  0.4745  0.0873  0.4210
  902MPD2    C213212   2.197   0.115  12.417 -0.1469 -0.1922  0.1852
  902MPD2    C313213   2.265   0.020  12.341 -0.3388  0.0757 -0.4144
  902MPD2    C413214   2.219   4.605  12.343 -0.0980 -0.4125  0.1948
  902MPD2    C513215   2.111   4.568  12.424 -0.4991  0.4469  0.2441
  902MPD2     H13216   2.240   0.213  12.432  1.6024 -0.8235 -0.7743
  902MPD2    H113217   2.241   4.520  12.278 -0.0217 -0.4099  0.2176
  902MPD2    H213218   1.955   4.635  12.543 -0.0171  1.3812  0.8821
  902MPD2    H313219   2.073   4.466  12.421 -1.9284  0.9088  2.7827
  902MPD2     N13220   2.385   0.047  12.269 -0.2639 -0.1783 -0.1410
  902MPD2    H513221   2.432   4.682  12.237  0.0891  0.0228 -0.1513
  902MPD2    N113222   1.998   0.176  12.567 -0.1703  0.5780  0.1881
  902MPD2    H713223   1.930   0.137  12.632  1.0657  2.0010  2.3389
  903MPD2     C13224   2.311   0.011  11.569  0.0688  0.2969  0.3793
  903MPD2    C113225   2.279   0.080  11.677  0.0852 -0.0310 -0.1751
  903MPD2    C213226   2.143   0.112  11.693 -0.2649  0.3547 -0.0988
  903MPD2    C313227   2.050   0.060  11.611  0.9000  0.0322 -0.4353
  903MPD2    C413228   2.087   4.712  11.501 -0.1545  0.3475 -0.1170
  903MPD2    C513229   2.222   4.681  11.486  0.3804  0.8574  0.7133
  903MPD2     H13230   2.097   0.155  11.781 -1.1644 -2.0742  0.6251
  903MPD2    H113231   2.022   4.672  11.423  1.9090 -1.1148 -1.0776
  903MPD2    H213232   2.413   4.704  11.543  0.0190  0.7898 -0.3003
  903MPD2    H313233   2.260   4.626  11.400 -2.3815 -0.7641  0.5065
  903MPD2     N13234   1.913   0.084  11.634  0.2114  0.3220  0.2658
  903MPD2    H513235   1.883   0.138  11.715 -0.3395  0.6480 -0.1592
  903MPD2    N113236   2.373   0.132  11.773  0.5888 -0.2821 -0.0304
  903MPD2    H713237   2.332   0.192  11.844  0.5143  0.8039 -0.9875
  904MPD2     C13238   2.798   4.449  13.943 -0.3006 -0.3418 -0.2450
  904MPD2    C113239   2.798   4.323  13.986  0.7441  0.4388 -0.2549
  904MPD2    C213240   2.918   4.273  14.027  0.0775 -0.7029  0.2874
  904MPD2    C313241   3.032   4.351  14.016  0.0481 -0.0643  0.0066
  904MPD2    C413242   3.019   4.484  13.989 -0.7149  1.0546  0.1624
  904MPD2    C513243   2.906   4.537  13.950  0.4007  0.1801  0.0250
  904MPD2     H13244   2.924   4.168  14.055  0.3750  0.1438  3.4193
  904MPD2    H113245   3.101   4.554  14.003  0.4911 -0.1173 -1.0444
  904MPD2    H213246   2.705   4.494  13.911  0.5604  0.8654 -1.0212
  904MPD2    H313247   2.895   4.640  13.919  0.7212  0.6827  1.5827
  904MPD2     N13248   3.146   4.303  14.077 -0.4078 -0.5803  0.1003
  904MPD2    H513249   3.139   4.212  14.122  1.8947 -1.1252 -0.6078
  904MPD2    N113250   2.683   4.233  13.981  1.0771  0.0623  0.1766
  904MPD2    H713251   2.698   4.138  14.012 -0.5846  0.1442  1.1805
  905MPD2     C13252   2.091   4.512  13.609  0.0638 -0.3522 -0.1618
  905MPD2    C113253   2.212   4.434  13.603 -0.6065  0.1539 -0.4422
  905MPD2    C213254   2.313   4.465  13.517 -0.2698 -0.3443  0.6529
  905MPD2    C313255   2.304   4.584  13.449  1.2488 -0.8222 -1.0845
  905MPD2    C413256   2.189   4.663  13.458  0.8080 -0.0839 -0.1740
  905MPD2    C513257   2.080   4.622  13.528  0.3624  0.7034  0.2302
  905MPD2     H13258   2.409   4.416  13.522 -0.5492 -0.8771  0.8268
  905MPD2    H113259   2.172   0.032  13.398 -2.2049 -1.4092 -1.2658
  905MPD2    H213260   2.009   4.492  13.677  0.7608  0.7911  1.0031
  905MPD2    H313261   1.988   4.676  13.550 -0.1750  0.0187 -0.3155
  905MPD2     N13262   2.400   4.634  13.366  0.1326  0.5508  0.5372
  905MPD2    H513263   2.402   0.012  13.337 -0.4099  0.8736  1.5913
  905MPD2    N113264   2.243   4.322  13.687  0.3035 -0.2104  0.1455
  905MPD2    H713265   2.339   4.290  13.690  0.2534 -0.4082 -0.2657
  906MPD2     C13266   4.144   3.726  11.293 -0.6743  0.1816 -0.0860
  906MPD2    C113267   4.110   3.647  11.183  0.3186  0.2363 -0.7525
  906MPD2    C213268   4.033   3.541  11.204 -0.8275 -0.0623 -0.1417
  906MPD2    C313269   3.980   3.513  11.330 -0.1470  0.2205  0.0516
  906MPD2    C413270   4.012   3.588  11.439  0.2003  0.3320 -0.5615
  906MPD2    C513271   4.100   3.693  11.418  0.1566 -0.1545  0.4467
  906MPD2     H13272   4.013   3.470  11.124 -0.4938  0.7331 -0.9318
  906MPD2    H113273   3.980   3.573  11.542  2.0345  2.3090  0.3037
  906MPD2    H213274   4.215   3.806  11.276  0.7525 -1.1096 -0.2255
  906MPD2    H313275   4.129   3.753  11.503 -1.6376  1.4085 -0.0434
  906MPD2     N13276   3.886   3.413  11.335  0.3875 -0.3074 -0.0492
  906MPD2    H513277   3.880   3.346  11.259 -0.5118 -0.1469 -0.1147
  906MPD2    N113278   4.161   3.679  11.050 -0.3269 -0.5840  0.3904
  906MPD2    H713279   4.141   3.612  10.976  1.6263 -0.8495  0.1004
  907MPD2     C13280   3.099   3.172  15.613  0.3773  0.1573  0.2012
  907MPD2    C113281   3.199   3.086  15.588  0.1016  0.5717 -0.7575
  907MPD2    C213282   3.304   3.076  15.686  0.0368  0.1721  1.1028
  907MPD2    C313283   3.297   3.151  15.803  0.8017  0.3092  0.5653
  907MPD2    C413284   3.198   3.243  15.822  0.3945  0.4446 -0.2338
  907MPD2    C513285   3.103   3.259  15.730 -0.7548  0.1961 -0.3244
  907MPD2     H13286   3.387   3.007  15.679  0.6068  0.8684  0.9726
  907MPD2    H113287   3.207   3.314  15.904 -1.4355 -1.4521  1.5964
  907MPD2    H213288   3.009   3.166  15.553  1.9327  0.4710 -2.1236
  907MPD2    H313289   3.025   3.333  15.745 -0.3538  0.2447  1.5757
  907MPD2     N13290   3.391   3.115  15.904 -0.0043  0.0285  0.1492
  907MPD2    H513291   3.458   3.043  15.881 -2.2246 -1.2719 -2.2536
  907MPD2    N113292   3.203   2.999  15.477  0.0968  0.8252  0.2418
  907MPD2    H713293   3.280   2.932  15.480 -0.5498  0.1130  1.0830
  908MPD2     C13294   0.996   3.884   9.327 -0.4302  0.2255 -0.1207
  908MPD2    C113295   0.944   3.809   9.426  0.0440  0.4097  0.6994
  908MPD2    C213296   0.964   3.865   9.552  0.5776  0.4192 -0.2722
  908MPD2    C313297   1.020   3.984   9.573  1.0569  0.1779  0.1342
  908MPD2    C413298   1.076   4.054   9.470  0.1840  0.3688 -0.0332
  908MPD2    C513299   1.061   4.006   9.346 -0.2719 -0.2591 -0.0969
  908MPD2     H13300   0.911   3.817   9.632 -0.1735 -0.7297 -1.4577
  908MPD2    H113301   1.123   4.151   9.479  1.8812 -0.3255 -1.5203
  908MPD2    H213302   0.990   3.867   9.220  0.5254  1.7030 -0.4089
  908MPD2    H313303   1.100   4.059   9.260  1.7310 -1.1937  0.2572
  908MPD2     N13304   1.017   4.038   9.707 -0.1825 -0.9441 -0.6254
  908MPD2    H513305   0.974   3.981   9.780 -0.7219  2.2168  1.5007
  908MPD2    N113306   0.870   3.701   9.374 -0.4011 -0.6781  0.2637
  908MPD2    H713307   0.858   3.703   9.273  3.2297 -0.9933 -0.1761
  909MPD2     C13308   0.738   1.386  11.950  0.2597 -0.3583  1.0846
  909MPD2    C113309   0.778   1.516  11.911 -0.2220 -0.5673  0.4759
  909MPD2    C213310   0.742   1.617  11.999  0.5941 -0.4415  0.7808
  909MPD2    C313311   0.672   1.582  12.116  0.1176 -0.0468 -0.4547
  909MPD2    C413312   0.624   1.455  12.149 -0.2474 -0.0582 -0.4621
  909MPD2    C513313   0.666   1.359  12.058 -0.5411  0.2961  0.2758
  909MPD2     H13314   0.773   1.720  11.985  1.6319 -0.7291  0.9253
  909MPD2    H113315   0.564   1.433  12.236  1.1382  0.3953  0.6198
  909MPD2    H213316   0.755   1.301  11.885 -3.1064  0.2129 -0.5441
  909MPD2    H313317   0.626   1.259  12.068  0.9207 -0.0932  2.3155
  909MPD2     N13318   0.660   1.696  12.199 -0.0379  0.8371  0.2310
  909MPD2    H513319   0.705   1.781  12.166 -0.7304  0.8490 -0.6861
  909MPD2    N113320   0.843   1.554  11.787 -0.2622  0.0998  0.2703
  909MPD2    H713321   0.857   1.652  11.763  0.0966 -0.6698 -2.6793
  910MPD2     C13322   2.844   3.337  16.150 -0.1943 -0.5850 -0.0669
  910MPD2    C113323   2.908   3.251  16.066 -0.0827 -0.4511 -0.4499
  910MPD2    C213324   2.853   3.221  15.939  0.3418  0.3286  0.1855
  910MPD2    C313325   2.741   3.295  15.904 -0.0959 -0.2656  0.2695
  910MPD2    C413326   2.680   3.386  15.993 -0.0185 -0.4338 -0.4204
  910MPD2    C513327   2.734   3.405  16.117 -0.0927  0.2943 -0.6038
  910MPD2     H13328   2.906   3.152  15.874 -0.9720 -0.9191  0.4496
  910MPD2    H113329   2.601   3.446  15.950 -0.9087 -1.4829 -0.2482
  910MPD2    H213330   2.888   3.365  16.246  1.1191  0.2001 -0.9016
  910MPD2    H313331   2.704   3.478  16.192  1.7427 -3.3368  3.6429
  910MPD2     N13332   2.679   3.299  15.778  0.0736 -0.2860 -0.0891
  910MPD2    H513333   2.610   3.373  15.766 -2.1125 -2.3070  0.1018
  910MPD2    N113334   3.024   3.187  16.106 -0.0795  0.2517 -0.0187
  910MPD2    H713335   3.056   3.104  16.057 -0.0870 -0.0103  0.4152
  911MPD2     C13336   0.484   3.792  16.309 -0.1148  0.7324  0.0749
  911MPD2    C113337   0.531   3.883  16.393  0.0063 -0.3147 -0.2512
  911MPD2    C213338   0.460   4.005  16.402 -0.0801  0.1904 -0.7324
  911MPD2    C313339   0.348   4.031  16.323  0.9111 -0.1847  0.3106
  911MPD2    C413340   0.298   3.929  16.249 -0.2957 -0.2652 -0.5507
  911MPD2    C513341   0.364   3.809  16.237  0.2515 -0.2298  0.7526
  911MPD2     H13342   0.498   4.078  16.471 -1.5056 -1.4398  1.7846
  911MPD2    H113343   0.210   3.947  16.188  0.4786  1.8090 -1.0623
  911MPD2    H213344   0.541   3.701  16.301  0.8994  1.7989 -4.7326
  911MPD2    H313345   0.336   3.732  16.166 -0.6918 -1.5755  2.5841
  911MPD2     N13346   0.277   4.158  16.318 -0.1384  0.1082 -0.0661
  911MPD2    H513347   0.191   4.156  16.264 -0.4994  0.3588  0.4981
  911MPD2    N113348   0.649   3.843  16.459 -0.3033  0.6622  0.1798
  911MPD2    H713349   0.669   3.744  16.458  0.0689  0.7319  0.9957
  912MPD2     C13350   0.151   4.086  15.894 -0.4005 -0.0441 -0.0692
  912MPD2    C113351   0.058   4.096  15.994 -0.5057 -0.0496 -0.7966
  912MPD2    C213352   0.003   3.980  16.052 -0.6135  0.5733 -0.6335
  912MPD2    C313353   0.059   3.860  16.010  0.1571 -0.4116 -0.2653
  912MPD2    C413354   0.135   3.849  15.890 -0.3394 -0.0122 -0.5579
  912MPD2    C513355   0.183   3.965  15.838 -0.3813 -0.0992  0.1109
  912MPD2     H13356   4.660   3.977  16.141  1.6148 -3.2603  0.8143
  912MPD2    H113357   0.157   3.757  15.838  0.6013 -0.6732  1.0047
  912MPD2    H213358   0.213   4.166  15.856  0.5878 -0.5272  0.5132
  912MPD2    H313359   0.237   3.946  15.746  1.4466 -1.2143  1.4107
  912MPD2     N13360   0.034   3.745  16.086  0.0245  0.0979  0.1819
  912MPD2    H513361   4.686   3.761  16.160 -0.8641  0.7666 -0.7754
  912MPD2    N113362   0.025   4.223  16.034 -0.4026 -0.5724 -0.7694
  912MPD2    H713363   0.088   4.288  15.989 -2.0895  1.5847 -0.0317
  913MPD2     C13364   0.059   1.138  10.138 -0.1076 -0.5642 -0.2496
  913MPD2    C113365   0.170   1.138  10.211  0.8413  0.4880  0.4804
  913MPD2    C213366   0.291   1.189  10.160 -0.8575  0.5740 -0.0728
  913MPD2    C313367   0.295   1.245  10.032 -0.8860  0.3727  0.7073
  913MPD2    C413368   0.175   1.256   9.960  0.3244 -0.0402 -0.6723
  913MPD2    C513369   0.062   1.206  10.021  1.2147 -0.1371 -0.4687
  913MPD2     H13370   0.380   1.199  10.221 -2.2578 -0.8491  2.1968
  913MPD2    H113371   0.170   1.292   9.859  0.5575 -4.0886 -2.1458
  913MPD2    H213372   4.687   1.091  10.171  0.3971 -2.9777 -2.2775
  913MPD2    H313373   4.687   1.205   9.968  0.1941  0.4772  1.3518
  913MPD2     N13374   0.414   1.302   9.979 -0.0323 -0.1237 -0.1415
  913MPD2    H513375   0.395   1.336   9.885 -0.9263 -1.5877 -0.4826
  913MPD2    N113376   0.155   1.067  10.337 -0.3969  0.4806  0.2482
  913MPD2    H713377   0.069   1.018  10.358  0.0385 -0.3318  0.1477
  914MPD2     C13378   3.497   1.109  12.498  0.0180  0.3259  0.6657
  914MPD2    C113379   3.440   1.227  12.544 -0.0909 -0.0542 -1.2875
  914MPD2    C213380   3.335   1.221  12.630  0.6658  0.6151 -0.4619
  914MPD2    C313381   3.278   1.101  12.669 -0.5047  0.0383  0.2894
  914MPD2    C413382   3.341   0.990  12.632  0.1505 -0.5339 -0.0623
  914MPD2    C513383   3.448   0.989  12.543 -0.1758 -0.0726  0.8991
  914MPD2     H13384   3.292   1.313  12.668 -2.3315 -1.0008  0.0911
  914MPD2    H113385   3.309   0.895  12.674  2.7952 -0.5065  1.9569
  914MPD2    H213386   3.583   1.118  12.432  0.7954 -1.1053  1.4740
  914MPD2    H313387   3.497   0.897  12.515 -0.8293 -0.5102  1.2029
  914MPD2     N13388   3.164   1.107  12.754  0.3669 -0.4215  0.0286
  914MPD2    H513389   3.135   1.200  12.782  0.9512  0.2314 -1.5462
  914MPD2    N113390   3.479   1.347  12.473  0.0377 -0.4910  0.1062
  914MPD2    H713391   3.535   1.336  12.390  1.9981 -0.9530  1.4861
  915MPD2     C13392   1.567   0.484  15.790 -0.1987 -0.3510  0.6680
  915MPD2    C113393   1.437   0.522  15.762  0.0130  0.3238 -0.9046
  915MPD2    C213394   1.370   0.614  15.840  0.5743  0.2926  0.1670
  915MPD2    C313395   1.423   0.657  15.961 -0.2551 -0.6549  0.2482
  915MPD2    C413396   1.548   0.606  16.001 -0.5813 -0.4423 -0.3478
  915MPD2    C513397   1.618   0.529  15.906 -0.4946  0.9406  0.1271
  915MPD2     H13398   1.274   0.645  15.799  0.5809 -1.1867 -0.9700
  915MPD2    H113399   1.599   0.635  16.092 -3.1133  0.0090  0.9259
  915MPD2    H213400   1.618   0.407  15.733 -1.2564 -0.0885 -0.6161
  915MPD2    H313401   1.717   0.497  15.937 -0.4928  0.3523 -0.4843
  915MPD2     N13402   1.340   0.737  16.042  0.6227 -0.0380  0.3514
  915MPD2    H513403   1.257   0.770  15.995 -0.2691  0.0312  1.9839
  915MPD2    N113404   1.380   0.474  15.637  0.3466 -0.3962  0.0240
  915MPD2    H713405   1.442   0.420  15.578 -2.1739 -1.9020 -1.2688
  916MPD2     C13406   4.681   3.822  15.622  0.4949  0.2775 -0.4652
  916MPD2    C113407   4.603   3.713  15.669  0.0243  0.0831 -0.8872
  916MPD2    C213408   4.638   3.581  15.638 -0.4172 -0.2158 -0.1008
  916MPD2    C313409   0.037   3.559  15.567  1.1504  0.5966  0.5543
  916MPD2    C413410   0.109   3.671  15.530 -0.0297 -0.0191  0.2549
  916MPD2    C513411   0.076   3.799  15.557  0.0334  0.5558  0.3753
  916MPD2     H13412   4.586   3.494  15.676  2.6776 -1.0905  2.0990
  916MPD2    H113413   0.205   3.651  15.484 -0.4158  1.0211 -0.9896
  916MPD2    H213414   4.656   3.924  15.648  0.3940 -0.1255  1.0042
  916MPD2    H313415   0.138   3.880  15.519  0.6869  0.1686  0.6144
  916MPD2     N13416   0.068   3.427  15.528  0.6738 -0.3930 -0.3179
  916MPD2    H513417   0.011   3.350  15.562 -0.0912  0.1759 -0.3062
  916MPD2    N113418   4.492   3.740  15.748 -0.3891  0.5147 -0.5882
  916MPD2    H713419   4.462   3.837  15.749  1.6652  1.1419 -0.0432
  917MPD2     C13420   4.043   1.398  11.132  0.5476  0.4001 -0.3058
  917MPD2    C113421   4.138   1.407  11.225  0.0506 -0.4011 -0.0552
  917MPD2    C213422   4.246   1.482  11.199 -0.2710  0.0452  0.6967
  917MPD2    C313423   4.267   1.543  11.076 -0.1943  0.5419  0.8627
  917MPD2    C413424   4.167   1.531  10.983 -0.2349  0.5392  0.0769
  917MPD2    C513425   4.055   1.453  11.010 -0.9477  0.2238  0.3996
  917MPD2     H13426   4.317   1.500  11.279 -1.1942 -0.5464  1.6463
  917MPD2    H113427   4.177   1.575  10.884  0.6415 -1.8090 -0.8838
  917MPD2    H213428   3.951   1.345  11.151  0.2374  0.2741 -2.1915
  917MPD2    H313429   3.976   1.455  10.936 -0.0380 -1.5290 -0.6369
  917MPD2     N13430   4.397   1.600  11.040 -0.2273 -1.0298  0.0517
  917MPD2    H513431   4.409   1.613  10.940  3.2913 -0.0767  0.6212
  917MPD2    N113432   4.107   1.354  11.354  0.8379  0.0057  0.0231
  917MPD2    H713433   4.033   1.285  11.362  1.3895 -0.1358  3.9315
  918MPD2     C13434   4.348   1.804  12.228 -0.1591  0.6387 -0.9991
  918MPD2    C113435   4.426   1.768  12.125  0.5404  0.6713  0.5688
  918MPD2    C213436   4.371   1.691  12.017  0.0748 -0.3572  0.4606
  918MPD2    C313437   4.241   1.641  12.030 -0.1718 -0.2072  0.4680
  918MPD2    C413438   4.162   1.680  12.129  0.3713  0.6368 -0.5082
  918MPD2    C513439   4.219   1.758  12.232  0.5030  0.4307  0.0472
  918MPD2     H13440   4.436   1.669  11.933  0.5212  2.3561  0.1006
  918MPD2    H113441   4.066   1.634  12.152  0.9978 -0.4489 -0.0364
  918MPD2    H213442   4.384   1.871  12.305 -3.5427  0.9184  0.3653
  918MPD2    H313443   4.157   1.779  12.319 -1.1476  0.6166 -1.1669
  918MPD2     N13444   4.208   1.552  11.927  0.5245  0.3989  0.4568
  918MPD2    H513445   4.278   1.534  11.855 -1.2975  1.9405 -1.6848
  918MPD2    N113446   4.563   1.804  12.124  0.3470 -0.0263  0.2453
  918MPD2    H713447   4.618   1.765  12.047  0.8369  1.5940 -0.2306
  919MPD2     C13448   0.141   0.648  11.659 -0.2796 -0.6578 -0.3046
  919MPD2    C113449   0.060   0.532  11.645 -0.6603 -0.1299  0.2012
  919MPD2    C213450   4.666   0.536  11.569  0.0002  0.1535  0.0178
  919MPD2    C313451   4.648   0.646  11.487 -0.1739 -0.4363 -0.3258
  919MPD2    C413452   0.002   0.759  11.500 -0.4575 -1.1045 -0.5000
  919MPD2    C513453   0.108   0.756  11.589  0.4304 -0.1286  0.0419
  919MPD2     H13454   4.607   0.445  11.565  1.6541 -1.0165  2.1488
  919MPD2    H113455   4.703   0.848  11.440  1.7941  0.1926  0.7390
  919MPD2    H213456   0.222   0.648  11.730 -1.2375  0.0943  0.7924
  919MPD2    H313457   0.184   0.833  11.586  1.5710 -1.0872  4.1098
  919MPD2     N13458   4.546   0.652  11.393  0.6529  0.2381 -0.2422
  919MPD2    H513459   4.539   0.735  11.336  2.3408  0.4147 -0.1779
  919MPD2    N113460   0.091   0.413  11.720  0.3064  0.3600 -0.3617
  919MPD2    H713461   0.020   0.341  11.726  0.3256  0.4276  0.6723
  920MPD2     C13462   4.423   1.049  10.529 -0.2370  0.6105 -0.0223
  920MPD2    C113463   4.306   0.974  10.524  0.0856  0.2446  0.2001
  920MPD2    C213464   4.292   0.870  10.614 -0.0158  0.1304  0.2896
  920MPD2    C313465   4.381   0.843  10.714  0.2208  0.3096 -0.1370
  920MPD2    C413466   4.496   0.917  10.710  0.4767 -0.4397 -0.3145
  920MPD2    C513467   4.522   1.016  10.619  0.2672  0.0352  0.3040
  920MPD2     H13468   4.199   0.815  10.609 -0.1942  0.3574  1.0203
  920MPD2    H113469   4.580   0.893  10.774 -0.9686 -1.4914  1.1732
  920MPD2    H213470   4.446   1.136  10.470 -1.3759 -0.1908 -1.6334
  920MPD2    H313471   4.612   1.076  10.630  1.4251 -1.5771 -0.2874
  920MPD2     N13472   4.354   0.750  10.814 -0.8871 -0.4429  1.1863
  920MPD2    H513473   4.282   0.679  10.801 -2.2451  1.2752 -0.7470
  920MPD2    N113474   4.196   0.997  10.438 -0.0119  0.6780  0.4009
  920MPD2    H713475   4.123   0.926  10.443  0.8385 -0.1213  1.6131
  921MPD2     C13476   1.367   4.030  17.085  0.7991 -0.2674 -0.1480
  921MPD2    C113477   1.363   3.899  17.047 -0.1804  0.7058  0.3082
  921MPD2    C213478   1.241   3.841  17.006  0.9578  0.1637  0.2271
  921MPD2    C313479   1.124   3.918  17.008 -0.2159 -0.2937 -0.3950
  921MPD2    C413480   1.132   4.051  17.048 -0.1807 -0.4255 -0.3735
  921MPD2    C513481   1.256   4.104  17.083  1.1669  0.6552  0.5926
  921MPD2     H13482   1.225   3.735  16.988 -1.2834  0.3969  0.7641
  921MPD2    H113483   1.048   4.119  17.055  0.6597  0.4716  0.8819
  921MPD2    H213484   1.457   4.077  17.121  0.6629  0.4869 -0.7734
  921MPD2    H313485   1.273   4.208  17.109 -1.1592  0.9449  0.9030
  921MPD2     N13486   0.995   3.875  16.963 -0.3197 -0.0145 -0.7486
  921MPD2    H513487   0.918   3.940  16.952 -0.4537 -0.0775 -0.2005
  921MPD2    N113488   1.492   3.840  17.035 -0.1117 -0.2227  0.0066
  921MPD2    H713489   1.573   3.892  17.069 -0.9267 -1.4052  3.7668
  922MPD2     C13490   2.044   1.332  16.718 -0.6499  0.1454  0.3075
  922MPD2    C113491   2.028   1.414  16.824 -0.0617 -0.0554 -0.6151
  922MPD2    C213492   1.935   1.373  16.919 -0.0300 -0.3241 -0.5722
  922MPD2    C313493   1.856   1.259  16.908  0.4007 -0.3276 -0.4609
  922MPD2    C413494   1.869   1.185  16.795 -0.1760  0.6948 -0.1499
  922MPD2    C513495   1.961   1.224  16.699 -0.2226 -0.8198  0.3523
  922MPD2     H13496   1.924   1.434  17.008 -1.8674  1.5793 -2.0764
  922MPD2    H113497   1.812   1.095  16.775  0.0733  1.0252 -2.3086
  922MPD2    H213498   2.111   1.347  16.635  0.4691 -0.6452  1.0686
  922MPD2    H313499   1.972   1.158  16.613 -0.9866  0.0764 -0.4380
  922MPD2     N13500   1.778   1.203  17.010  0.0975 -0.1424 -0.0887
  922MPD2    H513501   1.736   1.113  16.993 -0.6815  0.5919 -2.0828
  922MPD2    N113502   2.089   1.535  16.838  0.2085  0.5274  0.2437
  922MPD2    H713503   2.082   1.581  16.928 -3.3026 -2.0122  1.2849
  923MPD2     C13504   3.205   4.130   8.869  0.0499  0.0739 -0.4159
  923MPD2    C113505   3.172   4.101   8.999 -0.0974  0.1337 -0.0498
  923MPD2    C213506   3.265   4.037   9.087  0.7052  0.1278 -0.5202
  923MPD2    C313507   3.387   3.999   9.040 -0.1570  0.6154  0.3585
  923MPD2    C413508   3.406   4.002   8.909  0.1007  0.3343  0.3793
  923MPD2    C513509   3.316   4.060   8.823 -0.3717 -0.7638 -0.0670
  923MPD2     H13510   3.241   4.006   9.188  0.6341 -0.1269 -0.6154
  923MPD2    H113511   3.500   3.960   8.875  0.1006  1.4768 -1.0207
  923MPD2    H213512   3.139   4.172   8.794  0.7365 -1.8945 -2.1585
  923MPD2    H313513   3.327   4.059   8.715 -0.9978  0.0974 -0.1379
  923MPD2     N13514   3.485   3.934   9.120 -0.0099 -0.2339  0.1911
  923MPD2    H513515   3.565   3.901   9.068  1.7820  1.7842  1.6782
  923MPD2    N113516   3.055   4.157   9.061 -0.4536 -0.0259 -0.0980
  923MPD2    H713517   2.997   4.222   9.008 -0.4717 -0.4869 -0.6372
  924MPD2     C13518   3.975   2.499  15.929 -0.7269 -0.5615  0.1317
  924MPD2    C113519   3.969   2.538  16.061 -0.7728 -0.4503 -0.8393
  924MPD2    C213520   3.916   2.673  16.081  0.4842 -0.3456 -0.4237
  924MPD2    C313521   3.856   2.747  15.978 -0.4528  0.2163  0.5481
  924MPD2    C413522   3.857   2.697  15.851 -0.3622  0.3517 -0.3005
  924MPD2    C513523   3.916   2.570  15.831  0.9176 -0.4442  0.2604
  924MPD2     H13524   3.896   2.707  16.182 -0.7343 -2.3574  0.0155
  924MPD2    H113525   3.806   2.742  15.766 -0.1374  1.7655  0.3192
  924MPD2    H213526   4.004   2.397  15.905  1.6860 -0.0220  0.7709
  924MPD2    H313527   3.916   2.534  15.729  1.8343 -0.9562  0.4416
  924MPD2     N13528   3.795   2.867  16.003 -0.7018 -0.0786  0.6236
  924MPD2    H513529   3.734   2.902  15.929 -0.4455 -0.0306  0.4378
  924MPD2    N113530   4.021   2.454  16.168  0.2467 -0.3315  0.0660
  924MPD2    H713531   4.068   2.368  16.145  2.2565  0.7890 -0.0459
  925MPD2     C13532   1.937   4.704  15.266 -0.0150 -0.3147 -0.0075
  925MPD2    C113533   1.795   4.715  15.253 -0.5214  0.5559 -0.4314
  925MPD2    C213534   1.712   4.670  15.353 -0.2459 -0.2848 -0.1387
  925MPD2    C313535   1.769   4.619  15.468  0.3483  0.0478  0.0933
  925MPD2    C413536   1.908   4.612  15.491  0.2050 -0.5226  0.3599
  925MPD2    C513537   1.987   4.662  15.385  0.3513  0.0327 -0.1733
  925MPD2     H13538   1.604   4.669  15.340 -0.2529  0.1071 -0.1015
  925MPD2    H113539   1.952   4.559  15.575  0.1699 -0.8492  0.1707
  925MPD2    H213540   2.003   0.021  15.188 -0.0559  1.1986  0.6774
  925MPD2    H313541   2.094   4.650  15.397  0.3457 -0.1659 -0.3396
  925MPD2     N13542   1.687   4.577  15.586 -0.1513  0.5732  0.0909
  925MPD2    H513543   1.733   4.554  15.674 -0.0793 -0.3556 -0.1955
  925MPD2    N113544   1.749   0.033  15.122  0.5052  0.2023 -0.6189
  925MPD2    H713545   1.821   0.051  15.053 -1.6322  0.0457 -2.8738
  926MPD2     C13546   1.381   3.368  13.244 -0.3214  0.0476  0.9754
  926MPD2    C113547   1.271   3.447  13.255  0.0667  0.2193  0.6496
  926MPD2    C213548   1.253   3.550  13.165 -0.6451 -0.2855  0.1984
  926MPD2    C313549   1.351   3.580  13.067 -0.2351 -0.4784 -0.4734
  926MPD2    C413550   1.456   3.500  13.061  0.0045  0.1908 -0.0931
  926MPD2    C513551   1.475   3.392  13.146 -0.3546  0.6666 -0.5683
  926MPD2     H13552   1.159   3.600  13.186 -0.3207  0.1079  0.7066
  926MPD2    H113553   1.530   3.524  12.985  0.1179  0.8843  0.2343
  926MPD2    H213554   1.394   3.287  13.316 -0.5817 -1.1727 -0.3528
  926MPD2    H313555   1.567   3.337  13.139 -0.2039  0.7933  0.4771
  926MPD2     N13556   1.337   3.682  12.968  0.4444 -0.2611 -0.3809
  926MPD2    H513557   1.412   3.708  12.904  1.4819  0.3494  1.0995
  926MPD2    N113558   1.176   3.429  13.359 -0.2608  0.2264 -0.3243
  926MPD2    H713559   1.105   3.501  13.355 -0.4259 -0.0338 -2.1493
  927MPD2     C13560   0.175   0.847   0.182 -0.4546 -0.4778  0.4172
  927MPD2    C113561   0.297   0.818   0.243 -0.1221  0.4603 -0.0431
  927MPD2    C213562   0.398   0.754   0.175 -0.8594 -0.0258  0.0635
  927MPD2    C313563   0.374   0.704   0.049 -0.7174 -0.4123 -0.3017
  927MPD2    C413564   0.249   0.721  17.669  0.8575  0.1733  0.1968
  927MPD2    C513565   0.153   0.789   0.059 -0.0958  0.6872  1.1092
  927MPD2     H13566   0.492   0.738   0.227 -1.6824  0.0145  1.5424
  927MPD2    H113567   0.220   0.684  17.571  0.7598 -3.0378  1.4574
  927MPD2    H213568   0.092   0.894   0.234 -0.7091 -2.2225  1.5839
  927MPD2    H313569   0.059   0.806   0.008  0.9942 -1.6883 -1.7031
  927MPD2     N13570   0.487   0.649  17.658  0.1845 -0.7196 -0.3850
  927MPD2    H513571   0.568   0.634   0.036 -0.2861  0.7685  0.6179
  927MPD2    N113572   0.319   0.878   0.374 -0.0767 -0.1001  0.4804
  927MPD2    H713573   0.232   0.913   0.413 -0.3730 -0.8471  0.5116
  928MPD2     C13574   3.875   0.015   1.684 -0.0535 -0.5781 -0.2879
  928MPD2    C113575   3.843   4.625   1.609  0.1172  0.8205  0.6798
  928MPD2    C213576   3.881   4.622   1.476 -0.2685 -0.2748 -1.1085
  928MPD2    C313577   3.937   0.015   1.410 -0.2496  0.3147  0.6130
  928MPD2    C413578   3.946   0.131   1.486  1.1243  0.2357  0.1397
  928MPD2    C513579   3.919   0.124   1.618 -0.3266  0.1712  0.7428
  928MPD2     H13580   3.838   4.543   1.416  1.2603  0.4076 -3.1025
  928MPD2    H113581   3.967   0.230   1.445  0.9489  0.5308  0.7780
  928MPD2    H213582   3.859   0.015   1.791 -0.0238  0.2321 -0.2861
  928MPD2    H313583   3.941   0.214   1.674 -1.5976  1.9847 -1.6587
  928MPD2     N13584   3.971   0.024   1.272 -0.0918 -0.4996 -0.0702
  928MPD2    H513585   4.003   0.116   1.245  2.3273 -1.4523 -0.5214
  928MPD2    N113586   3.768   4.525   1.682 -0.6360 -0.2674  0.0065
  928MPD2    H713587   3.749   4.546   1.780  0.0452  1.7103 -0.2869
  929MPD2     C13588   3.651   3.565  10.312 -0.4237  0.1096 -0.5140
  929MPD2    C113589   3.532   3.516  10.347  0.3835 -0.0930  0.4552
  929MPD2    C213590   3.444   3.482  10.249 -0.3209 -0.1072  0.4207
  929MPD2    C313591   3.466   3.518  10.113  0.3341 -0.1434 -0.9926
  929MPD2    C413592   3.589   3.569  10.078 -0.4331 -0.4649  0.1913
  929MPD2    C513593   3.680   3.585  10.178 -0.1098 -0.2526  0.1800
  929MPD2     H13594   3.351   3.432  10.272  0.6899 -2.4596 -0.4927
  929MPD2    H113595   3.617   3.609   9.981  2.2376 -0.3340  1.0059
  929MPD2    H213596   3.726   3.587  10.387  0.0749  0.1728 -1.0391
  929MPD2    H313597   3.779   3.616  10.150 -0.1877  0.3372  0.5612
  929MPD2     N13598   3.355   3.521  10.031 -0.4617  0.1662 -0.0425
  929MPD2    H513599   3.268   3.483  10.066 -0.2699  1.7873  2.1913
  929MPD2    N113600   3.510   3.487  10.485 -0.0922 -0.4367 -0.6708
  929MPD2    H713601   3.591   3.500  10.545 -0.4328 -1.6404  0.0513
  930MPD2     C13602   0.600   1.221  14.031  0.1087  0.1248 -0.0264
  930MPD2    C113603   0.709   1.293  14.019  0.0749  0.2051 -0.8645
  930MPD2    C213604   0.779   1.283  13.904  0.1753  0.0519 -0.3285
  930MPD2    C313605   0.728   1.222  13.793  1.0439 -0.0962 -0.3379
  930MPD2    C413606   0.599   1.161  13.803 -0.5990 -0.1306 -0.3890
  930MPD2    C513607   0.540   1.162  13.924  0.8361 -0.2447 -0.1139
  930MPD2     H13608   0.878   1.327  13.890  0.0388  1.0729  1.9243
  930MPD2    H113609   0.561   1.099  13.723  0.6537  0.1573 -1.1978
  930MPD2    H213610   0.541   1.214  14.121  1.5849 -3.1874  0.6836
  930MPD2    H313611   0.450   1.112  13.957 -0.4376  0.5704 -2.3560
  930MPD2     N13612   0.792   1.229  13.672  0.0226  0.0954  0.9821
  930MPD2    H513613   0.732   1.210  13.592  0.3462  0.4996  0.6408
  930MPD2    N113614   0.761   1.377  14.117  0.3781  0.9457  0.2780
  930MPD2    H713615   0.848   1.422  14.093  0.5302  0.2275 -0.5290
  931MPD2     C13616   0.847   0.961   0.990 -0.3795  0.4458 -0.6336
  931MPD2    C113617   0.710   0.965   1.020 -0.0856 -0.4027  0.0963
  931MPD2    C213618   0.675   1.008   1.149  0.1762 -0.3428  0.2459
  931MPD2    C313619   0.769   1.061   1.230 -0.2972 -0.3467  0.0178
  931MPD2    C413620   0.903   1.050   1.201  0.2078 -1.0081  0.1546
  931MPD2    C513621   0.942   0.996   1.081  0.9076  0.4264 -0.5463
  931MPD2     H13622   0.571   1.017   1.179  0.2416 -1.0244  0.6623
  931MPD2    H113623   0.984   1.079   1.267 -0.5468 -1.7030  1.3768
  931MPD2    H213624   0.888   0.926   0.897 -0.8268  0.8084 -0.9690
  931MPD2    H313625   1.046   0.982   1.054  0.9522  0.6337 -0.4734
  931MPD2     N13626   0.743   1.114   1.352  0.7383 -0.1191 -0.6532
  931MPD2    H513627   0.820   1.162   1.399 -0.8552  0.8380  0.9680
  931MPD2    N113628   0.616   0.924   0.919  0.4023  0.2817  0.0405
  931MPD2    H713629   0.657   0.921   0.826  0.8594 -0.2060  0.2550
  932MPD2     C13630   2.404   4.384  10.804  0.0104  0.0431  0.4459
  932MPD2    C113631   2.380   4.424  10.936 -1.2210 -0.2699 -0.5345
  932MPD2    C213632   2.446   4.365  11.041 -0.3973  0.2189  0.9243
  932MPD2    C313633   2.539   4.265  11.019  0.1376 -0.5649  0.1518
  932MPD2    C413634   2.570   4.234  10.883 -0.2071  0.3204  0.7727
  932MPD2    C513635   2.505   4.294  10.777 -0.1491  0.4768 -0.9850
  932MPD2     H13636   2.409   4.370  11.143  1.0002  1.6047  1.3519
  932MPD2    H113637   2.650   4.165  10.858  0.0928  1.4081 -1.2965
  932MPD2    H213638   2.359   4.436  10.720 -1.7394 -0.5364  1.0139
  932MPD2    H313639   2.539   4.262  10.679  0.4303  0.7024 -0.8539
  932MPD2     N13640   2.601   4.198  11.131  0.2015 -0.0755 -0.0293
  932MPD2    H513641   2.567   4.222  11.224 -0.8029  0.4106 -0.5145
  932MPD2    N113642   2.266   4.502  10.952 -0.3131 -0.1661 -0.7581
  932MPD2    H713643   2.225   4.531  10.865 -2.2086 -0.1473  0.1450
  933MPD2     C13644   3.007   4.171   1.961 -0.3419 -0.2412 -0.2183
  933MPD2    C113645   3.087   4.268   1.901  0.6998  0.2643  0.7697
  933MPD2    C213646   3.022   4.393   1.871 -0.0607  0.0501  0.4399
  933MPD2    C313647   2.892   4.423   1.902  0.0969 -0.0807  0.0417
  933MPD2    C413648   2.819   4.326   1.976  0.7104 -0.3487 -0.1355
  933MPD2    C513649   2.881   4.208   2.004 -0.7645  0.0629 -0.2035
  933MPD2     H13650   3.076   4.472   1.821  0.3999 -0.8314 -0.4636
  933MPD2    H113651   2.715   4.342   2.003  1.5761  2.0142  1.7632
  933MPD2    H213652   3.051   4.075   1.986  2.3587  1.2956  0.9591
  933MPD2    H313653   2.827   4.129   2.054 -0.7912 -1.1644 -2.1507
  933MPD2     N13654   2.839   4.548   1.872 -1.0097  0.2201 -0.4339
  933MPD2    H513655   2.905   4.616   1.836 -0.6421 -0.2890 -0.7167
  933MPD2    N113656   3.216   4.242   1.871 -0.4541 -0.0998 -0.0372
  933MPD2    H713657   3.249   4.147   1.883  0.8848  0.7218  2.6402
  934MPD2     C13658   4.013   1.761   2.376  0.6668 -0.6427 -0.7509
  934MPD2    C113659   4.124   1.771   2.299 -0.1832 -0.0766 -0.6306
  934MPD2    C213660   4.108   1.764   2.160  0.1497 -0.6336  0.2358
  934MPD2    C313661   3.982   1.753   2.101 -0.0974  0.8782 -0.1102
  934MPD2    C413662   3.874   1.760   2.183  0.1958 -0.5395  0.0055
  934MPD2    C513663   3.891   1.762   2.317 -0.2960  0.0685  0.8667
  934MPD2     H13664   4.196   1.776   2.097  0.2705 -0.0324  0.5196
  934MPD2    H113665   3.772   1.758   2.146 -0.1984 -2.0439  1.1787
  934MPD2    H213666   4.014   1.758   2.484 -0.6570  1.1794 -0.6833
  934MPD2    H313667   3.810   1.745   2.386  1.2272  0.6487  2.8027
  934MPD2     N13668   3.957   1.745   1.962 -0.4504 -0.6893 -0.4999
  934MPD2    H513669   3.861   1.734   1.931 -1.2468 -0.6192  1.9255
  934MPD2    N113670   4.258   1.777   2.341  0.0762 -0.8352 -0.3525
  934MPD2    H713671   4.322   1.771   2.262 -0.5505 -0.5386 -0.8784
  935MPD2     C13672   4.554   1.263   1.364  0.3563  0.1845  0.4861
  935MPD2    C113673   4.437   1.271   1.284 -0.8155 -0.1138 -0.5316
  935MPD2    C213674   4.344   1.367   1.315 -0.0938  0.3231 -0.2156
  935MPD2    C313675   4.357   1.437   1.435  0.1377  0.8060 -0.1858
  935MPD2    C413676   4.478   1.447   1.494  0.2637 -0.4310 -0.6989
  935MPD2    C513677   4.577   1.359   1.455 -0.5074 -0.2169 -0.4633
  935MPD2     H13678   4.251   1.373   1.260  1.8086  0.3895 -3.4139
  935MPD2    H113679   4.498   1.518   1.573 -3.2404 -0.3631  0.1216
  935MPD2    H213680   4.613   1.172   1.355 -2.5500 -1.7778  1.1383
  935MPD2    H313681   4.675   1.361   1.502 -0.5095 -1.8791 -0.4071
  935MPD2     N13682   4.244   1.492   1.501  0.4370 -0.0509  0.2577
  935MPD2    H513683   4.263   1.525   1.595  0.2168  1.3924 -0.2017
  935MPD2    N113684   4.416   1.178   1.180  0.1330  0.1637 -0.5389
  935MPD2    H713685   4.330   1.198   1.129 -1.1550 -0.4952  1.3517
  936MPD2     C13686   2.401   3.906  12.053  0.3398  0.6085 -0.5674
  936MPD2    C113687   2.484   3.803  12.087  0.6787  0.4945  0.3695
  936MPD2    C213688   2.577   3.816  12.188 -0.0274  0.4495 -0.3425
  936MPD2    C313689   2.583   3.933  12.260  0.2958  0.7896 -0.4236
  936MPD2    C413690   2.494   4.046  12.226  0.2265 -0.9226 -0.4343
  936MPD2    C513691   2.408   4.029  12.119 -0.3657 -0.2617 -0.1129
  936MPD2     H13692   2.629   3.727  12.221  1.1512  1.2228 -0.1274
  936MPD2    H113693   2.510   4.137  12.281 -0.6228 -0.9150 -0.2007
  936MPD2    H213694   2.329   3.886  11.975 -2.8558 -1.7612  2.9592
  936MPD2    H313695   2.341   4.109  12.091 -0.7260 -0.2234  0.8788
  936MPD2     N13696   2.674   3.951  12.366 -0.3984 -0.1233 -0.2733
  936MPD2    H513697   2.687   4.042  12.410 -0.8970 -0.0730 -0.2248
  936MPD2    N113698   2.486   3.670  12.026 -0.0737 -0.2896 -0.1208
  936MPD2    H713699   2.537   3.599  12.078  2.4229  0.9895 -0.8588
  937MPD2     C13700   0.624   4.556  11.481  0.0971 -0.0937 -0.0394
  937MPD2    C113701   0.619   4.691  11.508 -0.4283  0.6750 -0.1956
  937MPD2    C213702   0.669   0.054  11.407  0.7085  0.1335  0.5824
  937MPD2    C313703   0.736   0.007  11.297 -0.4468 -0.3728  0.1806
  937MPD2    C413704   0.754   4.593  11.287  0.5677  0.2329  0.1928
  937MPD2    C513705   0.702   4.514  11.380  0.5167  1.1028  0.6090
  937MPD2     H13706   0.641   0.159  11.416 -3.1645 -0.7763 -0.8983
  937MPD2    H113707   0.807   4.552  11.202 -0.2984 -2.2981  0.8826
  937MPD2    H213708   0.576   4.490  11.552 -0.3054  0.0744 -0.1508
  937MPD2    H313709   0.722   4.407  11.383 -2.0877  0.6429  1.8127
  937MPD2     N13710   0.752   0.100  11.190  0.4053  0.6482  0.3677
  937MPD2    H513711   0.738   0.199  11.206 -1.0622  0.4825  0.1513
  937MPD2    N113712   0.534   0.032  11.600 -0.1579  0.6962 -0.5724
  937MPD2    H713713   0.523   0.132  11.584  1.8460  1.0165  0.0101
  938MPD2     C13714   3.220   0.690   0.803  0.0100  0.1559  0.3009
  938MPD2    C113715   3.203   0.809   0.875  1.1701 -0.6333 -0.2197
  938MPD2    C213716   3.122   0.802   0.984 -0.9916 -0.1175 -0.0823
  938MPD2    C313717   3.042   0.693   1.015  0.5990 -0.4923 -1.2656
  938MPD2    C413718   3.052   0.585   0.931 -0.1842  0.2082  0.3786
  938MPD2    C513719   3.147   0.576   0.836 -0.1222 -0.1971 -0.0335
  938MPD2     H13720   3.113   0.888   1.050 -0.9799  0.4808 -0.8735
  938MPD2    H113721   2.992   0.497   0.950  0.8075 -0.3032  1.1427
  938MPD2    H213722   3.279   0.682   0.712 -0.7902  0.3841 -0.2424
  938MPD2    H313723   3.165   0.480   0.788 -0.6448 -0.0833 -0.4537
  938MPD2     N13724   2.960   0.676   1.129 -0.2789  0.0110  0.3924
  938MPD2    H513725   2.892   0.602   1.126 -1.0002  0.6557  0.7838
  938MPD2    N113726   3.268   0.929   0.850 -0.8919 -0.2190  0.2077
  938MPD2    H713727   3.311   0.943   0.758 -0.3737 -0.0899  0.4702
  939MPD2     C13728   0.164   2.513   1.407  0.2680 -0.1343 -0.2790
  939MPD2    C113729   0.061   2.425   1.363 -0.8404  0.0765 -0.5251
  939MPD2    C213730   0.075   2.353   1.247 -0.5068 -0.0006  0.1290
  939MPD2    C313731   0.189   2.366   1.173 -0.1840 -0.5924 -0.3377
  939MPD2    C413732   0.282   2.459   1.209 -0.0992 -0.8105  0.0476
  939MPD2    C513733   0.268   2.530   1.327  0.6875 -0.1927 -1.0965
  939MPD2     H13734   4.716   2.285   1.217 -0.4870  0.3328 -0.6801
  939MPD2    H113735   0.377   2.479   1.160 -1.3446 -3.0138 -3.2277
  939MPD2    H213736   0.157   2.576   1.495  3.2911 -0.8282  0.4548
  939MPD2    H313737   0.345   2.602   1.351  0.6411 -0.3307 -0.5451
  939MPD2     N13738   0.199   2.260   1.067  1.0146  0.9623 -0.0586
  939MPD2    H513739   0.133   2.183   1.065  0.4566  1.4037  2.0085
  939MPD2    N113740   4.660   2.416   1.447  0.2034 -0.3715  0.4422
  939MPD2    H713741   4.660   2.472   1.532 -0.8868 -0.4819  0.5165
  940MPD2     C13742   3.334   3.404  13.309 -0.6450  0.1759 -0.5554
  940MPD2    C113743   3.469   3.410  13.308  0.1795 -0.4504 -0.4898
  940MPD2    C213744   3.538   3.399  13.185 -0.0322  0.1124 -0.2688
  940MPD2    C313745   3.476   3.409  13.061 -0.2431  0.1214 -0.7063
  940MPD2    C413746   3.339   3.400  13.064 -0.1409  0.0254 -0.8969
  940MPD2    C513747   3.275   3.390  13.187  0.0551  0.0604  0.8862
  940MPD2     H13748   3.645   3.411  13.190  0.0492 -0.8282  0.3150
  940MPD2    H113749   3.284   3.393  12.971 -2.1708 -1.2954  0.3886
  940MPD2    H213750   3.272   3.408  13.397 -1.8381  0.8470 -1.4368
  940MPD2    H313751   3.167   3.395  13.188  0.0550  0.0225  1.0380
  940MPD2     N13752   3.539   3.427  12.935 -0.1309  0.0417 -0.7797
  940MPD2    H513753   3.481   3.449  12.854  0.3489 -0.8921 -1.3706
  940MPD2    N113754   3.541   3.426  13.426 -0.5055 -0.7629  0.6645
  940MPD2    H713755   3.641   3.409  13.424 -0.4133 -0.4444  3.1321
  941MPD2     C13756   1.596   2.643   9.352  0.6278 -0.5499  0.5404
  941MPD2    C113757   1.626   2.545   9.439 -0.2972  0.0129  0.3153
  941MPD2    C213758   1.546   2.430   9.432  0.1092  0.3942  0.4222
  941MPD2    C313759   1.436   2.425   9.355 -0.0643  1.1657 -0.7769
  941MPD2    C413760   1.405   2.528   9.268 -0.6762 -0.5665  0.8024
  941MPD2    C513761   1.484   2.631   9.269  0.4463 -0.4377  0.6254
  941MPD2     H13762   1.569   2.352   9.504 -0.0761 -1.2561 -1.3093
  941MPD2    H113763   1.319   2.532   9.202 -0.2422  1.3371  0.3484
  941MPD2    H213764   1.644   2.740   9.348  1.6311 -1.0381  0.6436
  941MPD2    H313765   1.453   2.711   9.203  0.1357 -0.4201  0.7893
  941MPD2     N13766   1.354   2.315   9.346 -0.0812  0.3343 -0.2785
  941MPD2    H513767   1.275   2.318   9.282 -0.3644  2.4644  0.1869
  941MPD2    N113768   1.743   2.542   9.523  0.2073 -0.3760 -0.7987
  941MPD2    H713769   1.760   2.458   9.577  0.5019  1.8358  2.5445
  942MPD2     C13770   2.439   3.998   9.053 -1.1945 -0.1592 -0.3921
  942MPD2    C113771   2.504   3.907   9.139 -0.2972 -0.0759  0.6835
  942MPD2    C213772   2.628   3.856   9.094 -0.1415 -0.2191 -0.0740
  942MPD2    C313773   2.688   3.906   8.976 -0.5444 -0.3454  0.3650
  942MPD2    C413774   2.624   3.999   8.902 -0.8940 -0.2992  0.2197
  942MPD2    C513775   2.493   4.033   8.928  0.1352  0.0257 -0.2141
  942MPD2     H13776   2.683   3.777   9.143 -0.5970  1.0109  2.4381
  942MPD2    H113777   2.656   4.044   8.808 -0.2803 -0.2557  0.4477
  942MPD2    H213778   2.345   4.045   9.081 -1.3825 -1.0719  0.4981
  942MPD2    H313779   2.443   4.102   8.861 -0.0698 -1.4203 -1.5503
  942MPD2     N13780   2.820   3.886   8.930  0.8974 -0.6289  0.2386
  942MPD2    H513781   2.850   3.946   8.854  3.2912 -0.2286  1.5087
  942MPD2    N113782   2.458   3.861   9.266 -0.0001  0.4551  1.1666
  942MPD2    H713783   2.522   3.798   9.313  0.6611 -1.7330 -2.7009
  943MPD2     C13784   1.317   2.829   9.515 -0.1772 -0.6320 -0.7152
  943MPD2    C113785   1.227   2.724   9.496  0.0636  0.4461 -0.7272
  943MPD2    C213786   1.132   2.737   9.397 -0.4758  0.0865  0.1352
  943MPD2    C313787   1.124   2.851   9.322  0.2945 -0.0946 -0.1117
  943MPD2    C413788   1.201   2.962   9.356  0.1162  0.1042 -0.2983
  943MPD2    C513789   1.298   2.944   9.447 -0.4562  0.0981  0.4058
  943MPD2     H13790   1.062   2.655   9.382 -0.6270 -0.1254  2.0153
  943MPD2    H113791   1.190   3.057   9.305  2.5080 -0.3179 -1.6000
  943MPD2    H213792   1.411   2.818   9.569 -0.4710 -1.9241 -0.4557
  943MPD2    H313793   1.369   3.024   9.464  1.6100 -1.4162 -1.1961
  943MPD2     N13794   1.038   2.863   9.208 -0.6790  0.0419 -0.3140
  943MPD2    H513795   1.034   2.959   9.174 -2.7299 -0.0987 -0.4539
  943MPD2    N113796   1.251   2.608   9.573  0.2409 -0.2546 -0.4689
  943MPD2    H713797   1.327   2.609   9.641 -0.8067  0.7482  0.6745
  944MPD2     C13798   0.506   1.114  10.738 -0.0189 -0.4503 -0.0798
  944MPD2    C113799   0.507   1.090  10.872  0.0625 -0.0883 -0.5145
  944MPD2    C213800   0.503   1.195  10.963 -0.7685 -0.3585  0.2076
  944MPD2    C313801   0.513   1.327  10.921 -0.3873  0.6775 -0.2051
  944MPD2    C413802   0.527   1.347  10.782  0.9188  0.5192  0.6159
  944MPD2    C513803   0.520   1.241  10.696 -0.2004  0.0569 -0.0683
  944MPD2     H13804   0.499   1.181  11.071  0.0569 -0.6114  0.2093
  944MPD2    H113805   0.541   1.445  10.738 -1.1546  0.2005 -0.7760
  944MPD2    H213806   0.515   1.035  10.665 -3.3392 -0.3109 -0.6261
  944MPD2    H313807   0.529   1.262  10.590  1.9177 -0.1030  0.0897
  944MPD2     N13808   0.494   1.429  11.018  0.5704 -0.2624  0.0180
  944MPD2    H513809   0.487   1.405  11.116 -2.5715 -0.9269 -0.3652
  944MPD2    N113810   0.514   0.958  10.918 -0.2160  0.3642 -0.4760
  944MPD2    H713811   0.545   0.881  10.859  0.8025  2.1308 -2.2288
    1TCq1    O113812   3.791   2.162  13.864 -0.4298  0.0591 -0.1113
    1TCq1    C113813   3.866   2.104  13.955  0.0855  0.1864 -0.0351
    1TCq1    O213814   3.965   2.037  13.928  0.2342  0.2838 -0.0274
    1TCq1    C213815   3.837   2.159  14.083  0.1205  0.5527  0.3482
    1TCq1    C313816   3.721   2.224  14.109  1.0331  0.1394 -0.1746
    1TCq1    C413817   3.705   2.275  14.237  0.6094 -0.0574 -0.6222
    1TCq1    C513818   3.811   2.281  14.319  0.0969  0.3995 -0.3100
    1TCq1    C613819   3.924   2.209  14.293  0.0103 -0.0994 -0.3579
    1TCq1    C713820   3.936   2.152  14.175 -0.9149 -0.0253 -0.0934
    1TCq1    C813821   4.047   2.233  14.367  0.0563  0.3189  0.9279
    1TCq1    O413822   4.133   2.146  14.368 -0.9670 -1.0922  0.1014
    1TCq1    C913823   3.592   2.353  14.268 -0.2074 -0.2905 -0.3098
    1TCq1    O513824   3.585   2.420  14.371 -0.1265 -0.0030 -0.2072
    1TCq1    O613825   3.496   2.343  14.187 -0.5939  0.1568  0.0473
    1TCq1    H113826   3.748   2.242  13.900  0.5146  0.2682  0.5566
    1TCq1    H213827   3.637   2.231  14.041 -0.4567  0.1690  1.6929
    1TCq1    H313828   3.806   2.324  14.419  0.2011  0.3667 -0.2906
    1TCq1    H413829   4.023   2.088  14.163 -0.2037  0.9580 -0.1502
    2MPD2     C13830   4.342   2.564  14.608 -0.2427 -0.5425 -0.4023
    2MPD2    C113831   4.259   2.641  14.532  0.1104 -0.6050  0.3744
    2MPD2    C213832   4.163   2.571  14.458  0.8097  0.1367 -0.3506
    2MPD2    C313833   4.164   2.431  14.461  0.0853  0.5233  0.3023
    2MPD2    C413834   4.248   2.361  14.541 -0.3970 -0.0546  0.1476
    2MPD2    C513835   4.340   2.427  14.616  0.4980 -0.0815 -0.3216
    2MPD2     H13836   4.097   2.622  14.388  1.3342  2.2722  0.7064
    2MPD2    H113837   4.249   2.253  14.532 -1.2767 -0.0800  0.3929
    2MPD2    H213838   4.419   2.612  14.667 -0.5392 -0.3586 -0.1656
    2MPD2    H313839   4.383   2.374  14.700 -0.4015 -2.7597 -1.5396
    2MPD2     N13840   4.061   2.364  14.383  0.4139 -0.3158  0.1369
    2MPD2    H513841   3.990   2.426  14.345  1.2134 -0.1726 -1.1412
    2MPD2    N113842   4.264   2.783  14.531  0.1702 -0.3108 -0.0962
    2MPD2    H713843   4.340   2.827  14.581  0.5569 -0.8378 -0.2207
    3TMC2    C113844   4.190   3.003  14.494 -0.0919 -0.4033 -0.0253
    3TMC2    C213845   4.316   3.036  14.454 -0.9757  0.0122 -0.0866
    3TMC2    C313846   4.325   3.161  14.401 -0.4886  0.2951  0.6684
    3TMC2    C413847   4.083   3.085  14.493 -0.1135 -0.1899 -0.3073
    3TMC2    C513848   4.100   3.202  14.424  0.4895 -0.5341  0.1930
    3TMC2    C613849   4.222   3.248  14.380  0.6852  0.0778 -0.3532
    3TMC2     C13850   4.157   2.861  14.504 -0.1028  0.3473 -0.5069
    3TMC2     O13851   4.041   2.831  14.489  0.0536 -0.1537  0.0677
    3TMC2     H13852   4.398   2.966  14.458  1.3132  2.5225 -2.5492
    3TMC2    H113853   3.993   3.058  14.546 -0.2148 -2.1164 -1.4381
    3TMC2    H213854   4.235   3.345  14.333 -0.0856  0.0671 -0.5821
    3TMC2    C713855   3.993   3.297  14.414  0.3394  0.0035 -0.1763
    3TMC2    C813856   4.445   3.202  14.323 -0.1029  0.6604 -0.0553
    3TMC2    O113857   3.909   3.313  14.501 -0.2404 -0.4135 -0.2256
    3TMC2    O213858   4.469   3.319  14.318  0.4200 -0.1565  0.3268
    3TMC2    O513859   4.536   3.102  14.302 -0.1965  0.1259  0.2965
    3TMC2    H513860   4.498   3.013  14.287  0.6296  0.4281 -3.8561
    4MPD2     C13861   3.668   3.969  13.253 -0.6148  0.1100 -0.4522
    4MPD2    C113862   3.623   3.939  13.382  0.8378  0.0762  0.2137
    4MPD2    C213863   3.710   3.917  13.489  0.0468 -0.8381 -0.4900
    4MPD2    C313864   3.848   3.944  13.473  0.3402 -0.1154  0.3586
    4MPD2    C413865   3.889   3.988  13.346 -0.3094 -0.1903 -0.2678
    4MPD2    C513866   3.800   3.983  13.240  0.5968 -0.4663  0.2399
    4MPD2     H13867   3.666   3.868  13.575  1.0781  0.2320  0.6366
    4MPD2    H113868   3.992   4.006  13.319 -0.2116 -1.0457 -0.4446
    4MPD2    H213869   3.598   3.962  13.170 -1.4931  0.3484  0.2674
    4MPD2    H313870   3.838   4.007  13.141 -1.1802  0.6065 -0.1921
    4MPD2     N13871   3.941   3.922  13.576  0.2556 -0.3376  0.0523
    4MPD2    H513872   3.904   3.908  13.669 -0.8864  0.2019 -0.3285
    4MPD2    N113873   3.490   3.900  13.391  0.1095  0.0430  0.1076
    4MPD2    H713874   3.442   3.906  13.301 -0.0852 -0.2608  0.1901
    5TCq2    C113875   4.074   3.950  13.568 -0.4540  0.0962 -0.0096
    5TCq2    O213876   4.146   3.987  13.474  0.1430  0.2214 -0.2902
    5TCq2    C213877   4.143   3.938  13.697  0.2994  0.7954  0.0671
    5TCq2    C313878   4.273   3.982  13.694 -0.2045 -0.3294 -0.2109
    5TCq2    C413879   4.366   3.923  13.777 -0.1722  0.0274 -0.4454
    5TCq2    C513880   4.321   3.825  13.868  0.5154  0.1814  0.3928
    5TCq2    C613881   4.189   3.798  13.869 -0.1517  0.4146 -0.4914
    5TCq2    C713882   4.093   3.841  13.781 -0.1435 -0.1927 -1.1311
    5TCq2    C813883   4.149   3.744  14.001 -1.0358  0.2279 -0.2238
    5TCq2    O413884   4.244   3.710  14.069 -0.6458 -0.2721  0.2608
    5TCq2    C913885   4.509   3.940  13.754  0.2494  0.3417 -0.1771
    5TCq2    O513886   4.538   3.984  13.641  0.0181 -0.7763  0.1031
    5TCq2    O613887   4.594   3.873  13.820  0.2711  0.2323 -0.5874
    5TCq2    H213888   4.316   4.062  13.634  2.6787 -0.4387  1.7041
    5TCq2    H313889   4.396   3.788  13.937  1.4162  2.3596  0.5740
    5TCq2    H413890   4.004   3.782  13.765  1.7772 -3.6932  1.2518
    6MPD1     C13891   2.560   0.319  12.565  0.1099 -0.0374  0.6511
    6MPD1    C113892   2.505   0.257  12.679  0.2350 -0.1807 -0.7095
    6MPD1    C213893   2.578   0.148  12.723 -0.5681  0.0159 -0.2856
    6MPD1    C313894   2.685   0.093  12.650  0.4113 -0.1772 -1.1641
    6MPD1    C413895   2.739   0.160  12.542  0.3212  0.2743 -1.0030
    6MPD1    C513896   2.676   0.275  12.501 -0.4769 -0.1162 -0.5763
    6MPD1     H13897   2.544   0.108  12.818 -1.6497  0.2134 -0.5918
    6MPD1    H113898   2.823   0.119  12.488  0.0791 -1.7353  0.1824
    6MPD1    H213899   2.514   0.409  12.527  0.7969  0.0258 -0.0297
    6MPD1    H313900   2.720   0.347  12.434 -1.1158 -0.0623 -0.9410
    6MPD1     N13901   2.746   4.692  12.689 -0.0893 -0.5015  0.0609
    6MPD1    H513902   2.813   4.651  12.624 -0.5429  0.9527 -1.3277
    6MPD1    N113903   2.397   0.318  12.741  0.3091 -0.4098 -0.6006
    6MPD1    H613904   2.342   0.368  12.671 -0.9675  0.6335  1.1618
    6MPD1    H713905   2.341   0.242  12.779  0.2359  0.1840  0.4590
    7MPD2     C13906   2.597   4.040  13.117  0.8104 -0.2338 -0.3265
    7MPD2    C113907   2.717   4.099  13.160  0.1728 -0.4233 -0.4620
    7MPD2    C213908   2.792   4.033  13.254  0.1091  0.5481  0.6862
    7MPD2    C313909   2.757   3.905  13.305  0.0036  0.2239  0.1842
    7MPD2    C413910   2.642   3.842  13.251 -0.2424  0.4708  0.0729
    7MPD2    C513911   2.566   3.912  13.162 -0.9200  0.2012  0.1025
    7MPD2     H13912   2.889   4.076  13.274  1.7047 -2.3303 -0.9110
    7MPD2    H113913   2.616   3.742  13.281 -1.1551  0.0438 -2.1066
    7MPD2    H213914   2.530   4.094  13.051 -1.1119 -0.8477  1.1345
    7MPD2    H313915   2.473   3.873  13.122  0.4301 -2.8375 -0.0908
    7MPD2     N13916   2.842   3.835  13.395 -0.7344 -0.1705  0.2284
    7MPD2    H513917   2.814   3.742  13.424  0.6096 -0.3269  1.0093
    7MPD2    N113918   2.754   4.225  13.108  0.1744  0.5936  0.5891
    7MPD2    H713919   2.697   4.259  13.031 -2.3384 -1.1113  1.6716
    8TMC3    C113920   3.058   3.779  13.452  0.8250 -0.1750 -0.2652
    8TMC3    C213921   3.169   3.835  13.507  0.8181  0.2574 -0.1222
    8TMC3    C313922   3.286   3.828  13.432  0.0278 -0.1832  0.3410
    8TMC3    C413923   3.065   3.711  13.328  0.0527 -0.1343 -0.1822
    8TMC3    C513924   3.182   3.711  13.254 -0.4273  0.2895 -0.5487
    8TMC3    C613925   3.300   3.763  13.315  0.2612 -0.3754  0.4224
    8TMC3     C13926   2.957   3.888  13.447 -1.0502  0.3170  0.9472
    8TMC3     O13927   3.000   4.000  13.436  0.5973 -0.9430  0.3142
    8TMC3     H13928   3.164   3.894  13.598  0.9439 -0.7739  0.5543
    8TMC3    H113929   2.979   3.658  13.290 -0.6229  1.2567 -0.6042
    8TMC3    H213930   3.390   3.737  13.260 -0.7055 -1.9213 -0.4435
    8TMC3    C713931   3.185   3.742  13.111 -0.8542  0.7764 -0.1697
    8TMC3    C813932   3.407   3.878  13.489 -0.5299  0.1682 -0.5670
    8TMC3    O113933   3.286   3.784  13.057  0.0149  0.6422  0.0261
    8TMC3    O213934   3.410   3.911  13.609 -0.0985  0.3380  0.3851
    9TMC3    C113935   2.808   4.515  12.843 -0.2197  0.3585 -0.0563
    9TMC3    C213936   2.913   4.478  12.768  1.0875  0.1840  0.1414
    9TMC3    C313937   3.003   4.399  12.830  0.6568  0.3800  0.3703
    9TMC3    C413938   2.786   4.467  12.971  0.4270  0.2292 -0.8604
    9TMC3    C513939   2.892   4.399  13.033 -0.4631 -0.5700 -0.1927
    9TMC3    C613940   3.006   4.373  12.964 -0.4964 -0.1992 -0.1953
    9TMC3     C13941   2.710   4.611  12.798  0.3502 -0.0595 -0.2048
    9TMC3     O13942   2.618   4.632  12.878 -0.2668 -0.1137  0.3869
    9TMC3     H13943   2.912   4.492  12.660  1.8382  0.9144  0.2224
    9TMC3    H113944   2.689   4.477  13.018  0.4753 -0.8083 -0.5407
    9TMC3    H213945   3.078   4.306  13.010  1.9578  1.6806 -1.2728
    9TMC3    C713946   2.869   4.296  13.135  0.3249  0.1324  0.1154
    9TMC3    C813947   3.010   4.271  12.757 -0.4555 -0.6325 -0.3313
    9TMC3    O113948   2.958   4.272  13.214  0.3725 -0.5071 -0.2200
    9TMC3    O213949   2.947   4.261  12.653 -0.3532 -0.1749  0.8230
   10MPD2     C13950   2.868   3.830  12.935  0.3030  0.5719 -0.6450
   10MPD2    C113951   3.002   3.841  12.967  0.8841 -0.2972 -0.3080
   10MPD2    C213952   3.071   3.947  12.925  0.0143  0.1321  0.0631
   10MPD2    C313953   3.009   4.045  12.853 -0.7300 -0.3204 -0.1265
   10MPD2    C413954   2.880   4.030  12.814  0.3002  0.6743 -0.6824
   10MPD2    C513955   2.807   3.921  12.856  0.2580  0.8823 -0.0758
   10MPD2     H13956   3.179   3.955  12.936  0.2408 -0.1399 -1.8344
   10MPD2    H113957   2.820   4.107  12.767 -1.1768 -0.0985 -0.0630
   10MPD2    H213958   2.808   3.751  12.979 -0.0644  1.8750  1.2069
   10MPD2    H313959   2.703   3.904  12.831  0.6782 -0.2534 -1.0416
   10MPD2     N13960   3.071   4.169  12.828  0.4202 -0.1229  0.3659
   10MPD2    H513961   3.153   4.192  12.883  0.4579 -1.0394  0.6931
   10MPD2    N113962   3.051   3.752  13.064 -0.0669 -0.0320  0.0166
   10MPD2    H713963   2.979   3.694  13.105  2.0954 -3.2556 -0.6478
   11MPD2     C13964   3.831   3.534  14.332  0.6977 -0.0979  0.2225
   11MPD2    C113965   3.954   3.495  14.280 -0.4578 -0.3795 -0.1073
   11MPD2    C213966   4.012   3.567  14.178 -0.3159 -0.0800  0.0674
   11MPD2    C313967   3.965   3.683  14.138  0.8624 -0.7222  0.0106
   11MPD2    C413968   3.843   3.728  14.192 -0.0433 -0.2297  0.4824
   11MPD2    C513969   3.783   3.651  14.277 -0.1962  0.6397 -0.3355
   11MPD2     H13970   4.100   3.524  14.131  0.1474 -0.5225  1.3418
   11MPD2    H113971   3.815   3.832  14.177 -2.8560 -1.1402 -0.5388
   11MPD2    H213972   3.774   3.493  14.415 -0.7568 -1.0599 -1.2361
   11MPD2    H313973   3.687   3.690  14.310  1.2784  1.3228  3.1542
   11MPD2     N13974   4.018   3.755  14.036  0.6272 -0.0121 -0.8766
   11MPD2    H513975   3.965   3.818  13.976  2.4133  2.4646  0.1479
   11MPD2    N113976   4.010   3.373  14.306 -0.3707 -0.0892 -0.5508
   11MPD2    H713977   4.093   3.351  14.252  0.3830 -0.7680  0.8828
    1MPD1     C13978   1.132   3.567  17.537 -0.2120  0.0208  0.5534
    1MPD1    C113979   1.150   3.649  17.642  0.2942  0.2686 -0.5080
    1MPD1    C213980   1.223   3.764  17.618 -0.9710  0.7314 -0.4231
    1MPD1    C313981   1.250   3.815  17.489 -0.2813 -0.1538  0.1935
    1MPD1    C413982   1.216   3.731  17.388 -0.0255  0.9137  0.3682
    1MPD1    C513983   1.164   3.611  17.412  0.2233 -0.5226  0.2121
    1MPD1     H13984   1.243   3.830   0.020 -3.5539  1.1224 -0.1205
    1MPD1    H113985   1.228   3.771  17.288 -2.2590  1.4692  0.3261
    1MPD1    H213986   1.090   3.470  17.565 -1.9489  0.3955 -0.7766
    1MPD1    H313987   1.142   3.547  17.327  0.9035 -0.6416  0.1235
    1MPD1     N13988   1.326   3.932  17.462  0.1162  0.4651 -0.4643
    1MPD1    H513989   1.353   3.940  17.365 -0.0819  1.2601 -0.4552
    1MPD1    N113990   1.132   3.616   0.089 -0.7444 -0.2491 -0.5336
    1MPD1    H613991   1.110   3.692   0.152  0.7006  0.4949 -0.9341
    1MPD1    H713992   1.063   3.542   0.101 -1.5666  0.6451  0.2452
    2MPD1     C13993   2.054   4.690   0.195 -0.0474  0.1649  0.1071
    2MPD1    C113994   2.082   4.671   0.061  0.3038 -0.4901  0.2645
    2MPD1    C213995   2.012   4.581  17.664 -0.1688  0.2433  0.5358
    2MPD1    C313996   1.906   4.505   0.044  0.1568 -0.6940  0.3810
    2MPD1    C413997   1.878   4.528   0.177  0.5732  0.0006 -0.4666
    2MPD1    C513998   1.947   4.621   0.249  0.2996 -1.0071  0.0903
    2MPD1     H13999   2.039   4.577  17.559  0.1785  3.4621  0.5132
    2MPD1    H114000   1.800   4.476   0.231  0.5336 -2.3176 -2.7779
    2MPD1    H214001   2.092   0.060   0.244  2.2703 -0.1463 -1.1406
    2MPD1    H314002   1.905   4.641   0.347 -1.9593  0.7887 -1.2011
    2MPD1     N14003   1.824   4.420  17.638 -0.0191  0.1484 -0.8480
    2MPD1    H514004   1.855   4.412  17.542 -2.0454  0.6758 -1.5447
    2MPD1    N114005   2.169   0.046  17.680 -0.4365 -0.4322 -0.4913
    2MPD1    H614006   2.244   0.075   0.061 -2.0895  0.4246  1.0785
    2MPD1    H714007   2.218   0.002  17.602  1.8804  0.8390  0.2339
    3TMC3    C114008   1.642   4.276  17.572  0.8880  0.2584 -0.2695
    3TMC3    C214009   1.722   4.235  17.470  1.2269  0.5105 -0.5051
    3TMC3    C314010   1.667   4.139  17.386 -0.4837 -0.0110  0.3697
    3TMC3    C414011   1.519   4.215  17.591  0.3246 -0.1932 -0.1524
    3TMC3    C514012   1.477   4.115  17.509  0.7236  0.4085  0.0905
    3TMC3    C614013   1.545   4.081  17.396 -0.5316  0.0129 -0.7182
    3TMC3     C14014   1.705   4.361  17.676 -0.8902 -0.4424 -0.2667
    3TMC3     O14015   1.655   4.363   0.107 -0.1891 -0.0385  0.5266
    3TMC3     H14016   1.830   4.242  17.466  1.3186 -0.8963 -0.5487
    3TMC3    H114017   1.458   4.239  17.678  2.1020 -1.6211  1.5013
    3TMC3    H214018   1.513   4.001  17.330 -1.8356 -1.0441  1.1854
    3TMC3    C714019   1.370   4.024  17.560 -0.4706 -0.0776 -0.6740
    3TMC3    C814020   1.727   4.122  17.246  0.1667 -0.2054 -0.2640
    3TMC3    O114021   1.349   4.034   0.001 -0.2205 -0.2623 -0.3275
    3TMC3    O214022   1.678   4.034  17.180  0.0340 -0.4887 -0.1528
    4MPD1     C14023   2.031   4.247  16.843 -0.2161 -0.1811  0.7784
    4MPD1    C114024   2.068   4.323  16.947  1.3148  0.1059 -0.0232
    4MPD1    C214025   1.991   4.314  17.066  0.3619  0.0698 -1.0869
    4MPD1    C314026   1.894   4.209  17.091 -0.0276  0.4675 -0.1815
    4MPD1    C414027   1.863   4.128  16.981  0.1382 -0.5847  0.7252
    4MPD1    C514028   1.929   4.150  16.862 -0.0783  0.0692  0.1674
    4MPD1     H14029   2.022   4.377  17.149 -0.7905  2.6472 -2.6111
    4MPD1    H114030   1.784   4.053  16.978 -0.2582 -0.1450 -0.0534
    4MPD1    H214031   2.069   4.249  16.742 -0.5206 -3.1493  0.5885
    4MPD1    H314032   1.907   4.079  16.784 -3.2012  0.7362  0.4055
    4MPD1     N14033   1.833   4.207  17.216 -0.0927 -0.2349 -0.1725
    4MPD1    H514034   1.874   4.275  17.279  0.3862  1.0975 -1.9416
    4MPD1    N114035   2.159   4.430  16.928  0.5323 -0.0195  0.3462
    4MPD1    H614036   2.214   4.454  17.010 -0.8798 -0.6115  1.4634
    4MPD1    H714037   2.226   4.421  16.852 -0.0239  0.1619 -0.1644
    1TCq1    O114038   3.447   3.672  11.131 -0.2502 -0.3714  0.3429
    1TCq1    C114039   3.484   3.771  11.052  0.0905 -0.0523  0.6146
    1TCq1    O214040   3.502   3.752  10.931  0.1518 -0.0092  0.9943
    1TCq1    C214041   3.494   3.893  11.122  0.4785 -0.7398 -0.1374
    1TCq1    C314042   3.519   3.996  11.042 -0.1279  0.0158 -0.0046
    1TCq1    C414043   3.516   4.118  11.100  0.2401 -0.2571 -0.3668
    1TCq1    C514044   3.480   4.125  11.232  0.3354 -0.2527  0.0921
    1TCq1    C614045   3.473   4.016  11.309 -0.4236  1.1975 -0.0580
    1TCq1    C714046   3.471   3.896  11.252  0.7044  0.1499  0.0397
    1TCq1    C814047   3.442   4.022  11.453  0.3185 -1.1099 -0.4255
    1TCq1    O414048   3.404   3.921  11.513  0.2180 -1.0273  0.0024
    1TCq1    C914049   3.507   4.242  11.022  0.0513  0.1452 -0.5047
    1TCq1    O514050   3.502   4.225  10.898  0.2155  0.5454 -0.5201
    1TCq1    O614051   3.495   4.357  11.078  0.5937  0.0990  0.4586
    1TCq1    H114052   3.393   3.695  11.210 -0.3353 -0.5000  0.3219
    1TCq1    H214053   3.514   3.982  10.935  0.1859 -0.3519  0.0316
    1TCq1    H314054   3.478   4.225  11.274 -0.5638 -0.5832  0.8398
    1TCq1    H414055   3.456   3.814  11.321 -1.0919  0.0547 -0.4484
    2MPD1     C14056   3.354   4.297  11.883 -0.9672  0.0044  0.3888
    2MPD1    C114057   3.380   4.391  11.781  0.0197 -0.4302 -0.1254
    2MPD1    C214058   3.402   4.337  11.657  0.3788 -0.4317 -0.6858
    2MPD1    C314059   3.422   4.196  11.633 -0.4792 -0.5455 -0.2714
    2MPD1    C414060   3.418   4.113  11.746 -0.2084 -0.1182 -0.2298
    2MPD1    C514061   3.379   4.164  11.866  0.2184  0.4588 -0.1985
    2MPD1     H14062   3.407   4.404  11.573 -1.2974  1.0773  0.4292
    2MPD1    H114063   3.434   4.005  11.742 -3.7053 -0.6617  0.5092
    2MPD1    H214064   3.329   4.331  11.983 -0.1433  1.7321  0.0042
    2MPD1    H314065   3.378   4.088  11.942  0.3574 -0.1505 -0.8049
    2MPD1     N14066   3.444   4.154  11.501  0.0731  0.0256  0.1421
    2MPD1    H514067   3.471   4.224  11.433  0.1424 -2.0491 -1.9859
    2MPD1    N114068   3.370   4.530  11.806 -0.1869  0.4162  0.3445
    2MPD1    H614069   3.406   4.564  11.895  0.7591  2.1787 -0.7174
    2MPD1    H714070   3.417   4.588  11.737  1.6437 -0.3810  0.9256
    1TCq1    O114071   2.752   2.882   8.759 -0.3047 -0.6718  0.4859
    1TCq1    C114072   2.707   2.757   8.712 -0.1554 -1.1342 -0.2141
    1TCq1    O214073   2.617   2.741   8.633 -0.3798  0.3991  0.1060
    1TCq1    C214074   2.772   2.657   8.784 -0.2021  0.3252  0.0333
    1TCq1    C314075   2.907   2.661   8.803 -0.1728  0.2142  0.0762
    1TCq1    C414076   2.958   2.551   8.854 -0.0402 -0.1643 -0.3108
    1TCq1    C514077   2.879   2.456   8.922  0.2823 -0.2042 -0.3894
    1TCq1    C614078   2.751   2.447   8.890  0.3537  0.5508  0.2871
    1TCq1    C714079   2.694   2.553   8.821  0.2653  0.0668 -0.5602
    1TCq1    C814080   2.656   2.363   8.963  0.1401  0.3939 -0.1246
    1TCq1    O414081   2.540   2.365   8.920 -0.3355 -0.7900 -0.1975
    1TCq1    C914082   3.099   2.551   8.885  0.3085  0.6628 -0.2975
    1TCq1    O514083   3.156   2.452   8.926  0.7875 -0.0136  0.1561
    1TCq1    O614084   3.163   2.650   8.835  0.3608 -0.3331  0.8090
    1TCq1    H114085   2.811   2.883   8.838 -0.6343 -0.4660  0.7304
    1TCq1    H214086   2.973   2.733   8.754  1.3059 -1.5765 -0.5970
    1TCq1    H314087   2.933   2.380   8.978  0.8679 -0.2017 -0.9490
    1TCq1    H414088   2.587   2.560   8.807  0.3403  0.5958 -0.8616
    2MPD1     C14089   2.540   2.101   9.390 -0.5752 -0.3959 -0.4437
    2MPD1    C114090   2.676   2.128   9.391 -0.8725  0.6206  0.6938
    2MPD1    C214091   2.728   2.202   9.287  0.2527  0.0616 -0.0769
    2MPD1    C314092   2.655   2.245   9.181 -0.1090 -0.3919  0.2024
    2MPD1    C414093   2.517   2.214   9.179  0.0797 -0.0869 -0.1014
    2MPD1    C514094   2.465   2.136   9.283  0.0334 -0.4692  0.5525
    2MPD1     H14095   2.833   2.228   9.279  0.1683  0.9694  1.8992
    2MPD1    H114096   2.459   2.242   9.092 -0.5453  1.2566  0.7553
    2MPD1    H214097   2.497   2.040   9.468 -1.1384  2.9384  1.8613
    2MPD1    H314098   2.363   2.101   9.275 -0.0328 -0.3136  0.7024
    2MPD1     N14099   2.714   2.324   9.079  0.0300  0.4883  0.1127
    2MPD1    H514100   2.814   2.334   9.087 -0.1399  2.4744 -0.1708
    2MPD1    N114101   2.765   2.094   9.497 -0.5636  0.1938 -0.1827
    2MPD1    H614102   2.709   2.093   9.582  2.2404  2.2114  1.6783
    2MPD1    H714103   2.836   2.164   9.513 -1.1086  0.4443  1.0937
    1MPD1     C14104   3.862   4.630  11.413  0.7904  0.2018 -0.5161
    1MPD1    C114105   3.979   4.557  11.421  0.6274  0.9981 -0.1565
    1MPD1    C214106   4.080   4.610  11.352 -0.4735  0.0415  0.5548
    1MPD1    C314107   4.063   4.716  11.264 -0.0451 -0.2753  0.4985
    1MPD1    C414108   3.945   0.055  11.249 -0.3544 -0.2294 -0.5733
    1MPD1    C514109   3.838   0.013  11.329  0.1928  0.2986 -0.0549
    1MPD1     H14110   4.179   4.572  11.373 -0.2226  0.7371  0.6325
    1MPD1    H114111   3.930   0.150  11.199  0.3763 -0.4368 -1.1763
    1MPD1    H214112   3.783   4.610  11.485  0.7311 -1.0804 -0.9336
    1MPD1    H314113   3.743   0.066  11.337 -0.1170 -0.5275  1.8837
    1MPD1     N14114   4.179   0.044  11.202 -0.2032  0.5878  0.0634
    1MPD1    H514115   4.270   0.011  11.233  0.1156 -0.1024 -1.6104
    1MPD1    N114116   4.012   4.473  11.529 -0.0375 -0.3347 -0.2287
    1MPD1    H614117   3.926   4.435  11.568  0.2808  0.9129  1.7009
    1MPD1    H714118   4.068   4.393  11.500  0.0302 -0.3819  0.0345
    2MPD1     C14119   4.421   3.978  12.276  0.0266  0.4733  0.7995
    2MPD1    C114120   4.331   4.062  12.216  0.0073 -0.4625 -0.8194
    2MPD1    C214121   4.315   4.071  12.078  0.2090 -0.6768 -0.1543
    2MPD1    C314122   4.374   3.976  12.001  0.7833  0.5112  0.0424
    2MPD1    C414123   4.456   3.879  12.055  1.2407  0.2001 -0.4489
    2MPD1    C514124   4.478   3.883  12.192 -0.1209 -0.1237 -0.1633
    2MPD1     H14125   4.250   4.148  12.036  1.3841  0.3733 -0.0582
    2MPD1    H114126   4.501   3.801  11.996  1.8419  0.8165 -0.8148
    2MPD1    H214127   4.444   3.971  12.382  1.1791  1.8545  0.6328
    2MPD1    H314128   4.549   3.815  12.237  1.0898  1.7370  0.7872
    2MPD1     N14129   4.359   3.961  11.860  0.9978  0.1123  0.0866
    2MPD1    H514130   4.399   3.881  11.811  0.3930 -0.1351 -0.0059
    2MPD1    N114131   4.274   4.157  12.297 -0.5538 -0.7161  0.0362
    2MPD1    H614132   4.291   4.131  12.394  0.1021 -2.2525 -0.4927
    2MPD1    H714133   4.309   4.252  12.293  0.7137 -1.2088 -0.7050
    3MPD1     C14134   4.155   4.382  10.873 -0.5506 -0.3247 -0.6126
    3MPD1    C114135   4.156   4.248  10.856  0.2436 -0.5128 -0.3664
    3MPD1    C214136   4.177   4.168  10.968  0.3281  0.4656 -0.4728
    3MPD1    C314137   4.175   4.214  11.100 -0.4053  0.3771  0.2258
    3MPD1    C414138   4.179   4.349  11.116 -0.3212  0.3338 -0.3218
    3MPD1    C514139   4.172   4.429  11.004 -0.6209 -0.1788 -0.0256
    3MPD1     H14140   4.188   4.062  10.948 -1.1675 -0.1468  1.9949
    3MPD1    H114141   4.180   4.388  11.217  0.2418 -0.8797  0.1379
    3MPD1    H214142   4.149   4.454  10.793  0.4740  0.4556  0.0068
    3MPD1    H314143   4.157   4.534  11.027 -0.2368 -0.5203  1.8001
    3MPD1     N14144   4.183   4.128  11.210 -0.5639 -0.2595  0.1720
    3MPD1    H514145   4.197   4.032  11.180  2.1107  0.3001 -0.3535
    3MPD1    N114146   4.170   4.199  10.721 -0.1544  0.2083  0.5067
    3MPD1    H614147   4.128   4.266  10.657 -1.4071 -0.1713  0.9262
    3MPD1    H714148   4.126   4.108  10.711 -1.0075  0.6085  0.5656
    4MPD2     C14149   0.025   0.065  10.688  0.3623  0.2726  0.1060
    4MPD2    C114150   0.049   0.108  10.819  0.8130  0.5079  0.2116
    4MPD2    C214151   0.166   0.065  10.881 -0.4479  0.6963  0.2515
    4MPD2    C314152   0.248   4.695  10.821 -0.2798  0.5168 -0.2864
    4MPD2    C414153   0.217   4.642  10.694 -0.3229 -0.1016 -0.1125
    4MPD2    C514154   0.111   4.698  10.627 -0.7077  0.2012 -0.9382
    4MPD2     H14155   0.191   0.096  10.981  0.1208  2.7839 -0.5205
    4MPD2    H114156   0.278   4.566  10.646 -0.5608 -0.0387 -0.5187
    4MPD2    H214157   4.658   0.102  10.634 -0.6128 -1.7101  0.2865
    4MPD2    H314158   0.080   4.672  10.526  0.8434 -0.8572 -1.1407
    4MPD2     N14159   0.357   4.643  10.904 -0.4524  0.0594  0.2840
    4MPD2    H514160   0.375   4.701  10.985 -1.5997 -0.5220  0.9468
    4MPD2    N114161   4.682   0.193  10.899  0.1886  0.7420 -0.0023
    4MPD2    H714162   0.003   0.207  10.992  1.8688  0.0175 -0.6255
    5TMC3    C114163   4.497   0.297  10.989 -0.0844  0.6764 -0.1747
    5TMC3    C214164   4.366   0.256  10.994 -0.4632  0.5812  0.7422
    5TMC3    C314165   4.326   0.195  11.109 -0.6477 -0.4157 -0.2935
    5TMC3    C414166   4.575   0.302  11.100  0.0302 -0.3595  0.0900
    5TMC3    C514167   4.534   0.245  11.219  0.4424 -0.2649 -0.6311
    5TMC3    C614168   4.406   0.198  11.224  0.4026 -0.8220 -0.0180
    5TMC3     C14169   4.558   0.237  10.875 -0.2202 -0.3032 -1.2440
    5TMC3     O14170   4.498   0.208  10.774  0.7491 -0.7235 -0.0266
    5TMC3     H14171   4.290   0.276  10.920 -0.0247 -0.3321  0.0436
    5TMC3    H114172   4.678   0.336  11.093 -0.7477  1.3738 -3.3156
    5TMC3    H214173   4.375   0.145  11.313 -0.7296  0.0033  0.0747
    5TMC3    C714174   4.640   0.164  11.275 -0.1400 -0.1253  0.4140
    5TMC3    C814175   4.184   0.147  11.117  0.0006  0.4591  0.5658
    5TMC3    O114176   0.010   0.147  11.193  0.7230  0.6439  0.9198
    5TMC3    O214177   4.101   0.203  11.045 -0.1396  0.2773 -0.0480
    6TMC3    C114178   4.313   4.018  11.641 -0.3214 -0.0371 -0.3261
    6TMC3    C214179   4.218   4.068  11.563 -0.2014  0.5048 -0.3190
    6TMC3    C314180   4.239   4.053  11.426  0.0444  0.5382  0.2782
    6TMC3    C414181   4.415   3.941  11.604  0.7387  0.3175 -1.1053
    6TMC3    C514182   4.434   3.931  11.469  0.2620  0.0014 -0.8359
    6TMC3    C614183   4.345   3.982  11.377 -0.3784 -0.9123 -0.4018
    6TMC3     C14184   4.284   4.040  11.778  0.0768 -0.2816  0.5219
    6TMC3     O14185   4.200   4.123  11.810  0.1148 -0.2565  0.4848
    6TMC3     H14186   4.139   4.134  11.598  0.8204  2.0083 -0.8080
    6TMC3    H114187   4.492   3.893  11.663 -0.3886 -2.4122 -1.8868
    6TMC3    H214188   4.372   4.005  11.274 -1.1578  0.1898 -0.3621
    6TMC3    C714189   4.575   3.941  11.433 -0.5522 -0.1327  0.0183
    6TMC3    C814190   4.188   4.166  11.340 -0.4140 -0.5866 -0.8163
    6TMC3    O114191   4.648   4.015  11.502 -0.0254  0.1065  0.4307
    6TMC3    O214192   4.151   4.263  11.404 -0.3005 -0.3623 -0.1550
    7MPD2     C14193   0.151   4.558  11.580  0.2525 -0.6919  0.2627
    7MPD2    C114194   0.187   4.614  11.462  0.6797  0.3026  0.1245
    7MPD2    C214195   0.110   4.716  11.407 -0.0404 -0.0074 -0.5985
    7MPD2    C314196   4.711   0.034  11.468  0.0008 -0.0567  0.4753
    7MPD2    C414197   4.676   4.703  11.593 -0.0771  0.0665 -0.1498
    7MPD2    C514198   0.042   4.609  11.649 -0.0525  0.3337 -0.2923
    7MPD2     H14199   0.143   0.043  11.315  1.2445  0.8564  0.3095
    7MPD2    H114200   4.577   4.719  11.634 -0.4405 -4.1398  0.5994
    7MPD2    H214201   0.208   4.478  11.625  1.7769  0.0244 -0.3531
    7MPD2    H314202   0.022   4.554  11.740  0.1901 -1.3511 -1.2524
    7MPD2     N14203   4.618   0.120  11.396 -0.3768  0.0176 -0.1989
    7MPD2    H514204   4.536   0.153  11.446 -1.4333  0.6266 -2.3047
    7MPD2    N114205   0.297   4.564  11.387 -0.2018 -0.0413 -0.3388
    7MPD2    H714206   0.336   4.475  11.417 -0.7590 -0.3812 -0.6205
    8TMC3    C114207   0.439   4.521  11.213 -0.6825  0.7083 -0.1422
    8TMC3    C214208   0.390   4.389  11.214  0.0206  0.6494  1.0739
    8TMC3    C314209   0.421   4.308  11.106 -0.1887  0.1896 -0.0380
    8TMC3    C414210   0.497   4.571  11.097  0.6780  0.3635  0.0587
    8TMC3    C514211   0.511   4.487  10.989 -0.5572 -0.6181  0.0613
    8TMC3    C614212   0.496   4.358  10.998 -0.7098  0.2503 -0.0660
    8TMC3     C14213   0.354   4.616  11.269  0.0469 -0.1406 -0.4555
    8TMC3     O14214   0.340   0.005  11.212  0.2802  0.1056  0.8496
    8TMC3     H14215   0.340   4.344  11.299 -0.1675 -1.4773 -0.1541
    8TMC3    H114216   0.525   4.675  11.085  2.8906 -0.5083 -2.5006
    8TMC3    H214217   0.524   4.290  10.919 -0.0574  1.4218 -0.8258
    8TMC3    C714218   0.424   4.523  10.884 -0.0096  0.3700 -0.3188
    8TMC3    C814219   0.386   4.168  11.106  0.1333 -0.1289 -1.0708
    8TMC3    O114220   0.417   4.437  10.796  0.0287 -0.2665 -0.1471
    8TMC3    O214221   0.451   4.096  11.032 -0.6694  0.6857  0.0226
    9MPD2     C14222   0.211   3.941  11.051 -0.9292 -0.4263  0.0192
    9MPD2    C114223   0.182   4.038  11.153 -0.6114  0.3957  0.2829
    9MPD2    C214224   0.073   4.013  11.241 -0.1561 -0.4596 -0.0103
    9MPD2    C314225   4.707   3.911  11.221  0.1276 -0.4372 -0.0344
    9MPD2    C414226   0.015   3.826  11.122  1.2657  0.0744 -0.1034
    9MPD2    C514227   0.136   3.829  11.045 -0.3580  0.2752 -0.0288
    9MPD2     H14228   0.064   4.080  11.327  1.0598  0.3263 -0.4817
    9MPD2    H114229   4.667   3.743  11.111  0.1797  1.0710 -0.9514
    9MPD2    H214230   0.285   3.951  10.973 -1.3811  0.0544 -0.3419
    9MPD2    H314231   0.150   3.767  10.958  1.7338 -1.2804  1.4314
    9MPD2     N14232   4.599   3.885  11.308  1.0925 -0.4383 -0.2626
    9MPD2    H514233   4.537   3.811  11.277 -0.7290  0.3171  1.6048
    9MPD2    N114234   0.265   4.143  11.174 -0.5008 -0.1778 -0.5383
    9MPD2    H714235   0.232   4.205  11.248  0.8583 -1.8976  1.4938
    1MPD1     C14236   3.357   3.552  16.458  0.1856 -0.0586 -0.2855
    1MPD1    C114237   3.387   3.540  16.322  0.0815 -0.0125  0.2708
    1MPD1    C214238   3.513   3.508  16.290  0.1337 -0.3145  0.0917
    1MPD1    C314239   3.609   3.500  16.385  0.2399  0.0342  0.5593
    1MPD1    C414240   3.581   3.506  16.523 -0.1197 -0.6772  0.9776
    1MPD1    C514241   3.450   3.523  16.552 -0.2257  0.3284 -0.5941
    1MPD1     H14242   3.539   3.501  16.185  1.4210  2.8881  0.2012
    1MPD1    H114243   3.657   3.486  16.598 -0.0833  2.2746  1.7252
    1MPD1    H214244   3.258   3.563  16.501  1.3447  3.1006  1.5974
    1MPD1    H314245   3.423   3.525  16.657 -0.9060  1.3971 -0.7901
    1MPD1     N14246   3.748   3.470  16.354 -0.1592 -0.6819  0.5500
    1MPD1    H514247   3.807   3.460  16.435  1.6008  0.2009 -0.6271
    1MPD1    N114248   3.283   3.567  16.230  0.2724 -0.2435  0.0174
    1MPD1    H614249   3.316   3.522  16.145 -3.6227 -0.9525 -1.1292
    1MPD1    H714250   3.192   3.534  16.261 -0.2235  1.9082  0.8681
    2MPD1     C14251   4.679   3.467  16.725  0.4588 -0.5530  0.0250
    2MPD1    C114252   4.678   3.349  16.656 -0.1839 -0.4069 -0.3593
    2MPD1    C214253   4.576   3.330  16.562 -0.4893 -0.2185  0.0065
    2MPD1    C314254   4.464   3.411  16.561  0.7023 -0.1426 -0.1529
    2MPD1    C414255   4.462   3.521  16.643 -0.3985 -0.5917  0.0731
    2MPD1    C514256   4.573   3.548  16.723 -0.7755  0.4732 -0.1132
    2MPD1     H14257   4.590   3.244  16.498 -0.4243 -2.0026  2.4232
    2MPD1    H114258   4.373   3.582  16.647 -0.9464 -1.4948  1.4955
    2MPD1    H214259   0.039   3.500  16.791 -0.6330  1.9191  0.0787
    2MPD1    H314260   4.566   3.642  16.776 -0.5105  0.1838  0.4373
    2MPD1     N14261   4.353   3.365  16.479  0.2003 -0.4463 -0.0569
    2MPD1    H514262   4.369   3.285  16.419 -1.9047 -0.9041  0.0138
    2MPD1    N114263   0.072   3.271  16.656  0.0542  0.0137 -0.3295
    2MPD1    H614264   0.056   3.174  16.629  0.8155 -0.9801  2.7784
    2MPD1    H714265   0.123   3.272  16.744 -0.8679 -0.9471  0.2129
    3TCq2    C114266   4.230   3.423  16.480 -0.8849  0.5718  0.0729
    3TCq2    O214267   4.178   3.497  16.565 -1.0828  0.4832 -0.2330
    3TCq2    C214268   4.140   3.391  16.365 -0.1709  0.3342  0.3815
    3TCq2    C314269   4.198   3.328  16.246 -0.3224 -0.3506  0.4934
    3TCq2    C414270   4.121   3.315  16.139  0.4671  0.7597 -0.6065
    3TCq2    C514271   3.990   3.351  16.137 -0.4866 -0.4716  0.5111
    3TCq2    C614272   3.940   3.407  16.248 -0.3327  0.9807 -0.7025
    3TCq2    C714273   4.010   3.434  16.363  0.0208 -0.5795  0.0640
    3TCq2    C814274   3.801   3.448  16.236  0.2749 -0.6845 -0.3644
    3TCq2    O414275   3.747   3.432  16.128  0.5092  0.2131  0.1947
    3TCq2    C914276   4.173   3.258  16.021 -0.0840  0.6861  0.1033
    3TCq2    O514277   4.293   3.222  16.026 -0.3420  0.3024  0.2969
    3TCq2    O614278   4.099   3.246  15.921 -0.3292 -0.0542  0.2941
    3TCq2    H214279   4.301   3.295  16.241 -0.6758 -1.5650  1.2150
    3TCq2    H314280   3.938   3.342  16.043  1.3595 -0.8295 -0.4790
    3TCq2    H414281   3.969   3.498  16.441  1.8615  2.1396 -1.1850
    1TCq1    O114282   2.018   2.961  13.011  0.0528  0.0801  0.0432
    1TCq1    C114283   2.077   2.857  12.941 -0.6978 -0.0255 -0.0530
    1TCq1    O214284   2.139   2.863  12.838  0.1875 -0.2985  0.5956
    1TCq1    C214285   2.115   2.757  13.046 -0.5671  0.4183  0.3569
    1TCq1    C314286   2.020   2.700  13.121 -0.9206  0.0852 -0.8364
    1TCq1    C414287   2.060   2.612  13.217  0.1351  0.2457 -0.2976
    1TCq1    C514288   2.192   2.576  13.228  0.0142 -0.3213  0.2837
    1TCq1    C614289   2.288   2.637  13.146  0.7001  0.2160 -0.3351
    1TCq1    C714290   2.249   2.726  13.055 -0.4087  0.2060 -0.4229
    1TCq1    C814291   2.430   2.624  13.179 -0.0844  0.5316  0.6467
    1TCq1    O414292   2.507   2.662  13.089  0.2950  0.5073 -0.0605
    1TCq1    C914293   1.964   2.527  13.276 -0.2195 -0.6805 -0.4870
    1TCq1    O514294   1.842   2.557  13.267 -0.9538  0.5286 -0.4166
    1TCq1    O614295   2.008   2.458  13.369 -0.1088 -0.3934 -0.2212
    1TCq1    H114296   1.980   2.950  13.101  0.3582  0.0119  0.1630
    1TCq1    H214297   1.912   2.709  13.110 -0.7525  1.4247 -1.4399
    1TCq1    H314298   2.211   2.501  13.304  1.9770 -0.9977 -0.8726
    1TCq1    H414299   2.316   2.783  12.991 -1.8281  0.2275 -1.8838
    2MPD2     C14300   2.694   2.546  13.290  1.1286 -0.6043  0.5049
    2MPD2    C114301   2.585   2.586  13.365 -0.8299 -0.5075  0.0957
    2MPD2    C214302   2.600   2.606  13.502  0.4102 -0.0717 -0.5980
    2MPD2    C314303   2.725   2.604  13.563  0.3834 -0.1796 -0.2622
    2MPD2    C414304   2.834   2.577  13.479 -0.0546  0.3313 -0.0625
    2MPD2    C514305   2.815   2.545  13.344  0.0199  0.3772 -0.5506
    2MPD2     H14306   2.516   2.638  13.561  1.8530  2.0211  0.3334
    2MPD2    H114307   2.937   2.582  13.514  0.2745 -2.4005 -0.6632
    2MPD2    H214308   2.686   2.528  13.184 -3.0323  0.0866  0.6811
    2MPD2    H314309   2.904   2.529  13.285 -1.0797 -1.6561 -1.6901
    2MPD2     N14310   2.741   2.614  13.704  0.3617  0.6415 -0.6842
    2MPD2    H514311   2.659   2.629  13.762 -0.1178  2.1391 -1.7658
    2MPD2    N114312   2.454   2.601  13.311  0.4520 -0.0361 -0.0733
    2MPD2    H714313   2.376   2.625  13.371 -0.8870 -2.2482 -0.9644
    3TCq1    O114314   2.820   2.946  14.207  0.4499  0.1468  0.0756
    3TCq1    C114315   2.786   2.909  14.087 -0.0705 -0.8054  0.7958
    3TCq1    O214316   2.787   2.986  13.989  0.0533 -0.3135  0.0783
    3TCq1    C214317   2.821   2.765  14.080  0.1478  0.0976  0.4755
    3TCq1    C314318   2.933   2.720  14.147 -0.0409 -0.1430  0.3067
    3TCq1    C414319   3.013   2.622  14.092 -0.0387 -0.0824 -0.3994
    3TCq1    C514320   2.980   2.567  13.979 -0.1790 -0.5579 -0.1468
    3TCq1    C614321   2.864   2.606  13.913 -0.0384  0.4999  0.3127
    3TCq1    C714322   2.788   2.704  13.960 -0.8665  0.1106 -0.0211
    3TCq1    C814323   2.862   2.585  13.767 -0.1491 -0.5965 -0.2353
    3TCq1    O414324   2.960   2.523  13.721  0.5716  0.1176 -0.1587
    3TCq1    C914325   3.131   2.586  14.158  0.1069 -0.5561  0.1569
    3TCq1    O514326   3.186   2.470  14.135  0.6252 -0.4744 -0.3038
    3TCq1    O614327   3.183   2.677  14.230  0.1731  0.5150 -0.2227
    3TCq1    H114328   2.818   2.870  14.269  0.0751  4.4617  5.2962
    3TCq1    H214329   2.955   2.767  14.242 -0.5772  0.3010  0.2099
    3TCq1    H314330   3.044   2.487  13.944 -0.4745 -0.8367 -0.0482
    3TCq1    H414331   2.705   2.745  13.903  1.7774  2.1418 -2.3703
    1MPD2     C14332   2.194   3.198  15.081 -0.6840 -0.8601 -0.2714
    1MPD2    C114333   2.159   3.068  15.073  0.4824  0.7290  0.2738
    1MPD2    C214334   2.249   2.972  15.023  0.0161 -0.3512  0.7085
    1MPD2    C314335   2.379   3.013  14.985  1.0907 -0.4059 -0.3659
    1MPD2    C414336   2.416   3.136  15.015  0.0805  0.6279  0.4130
    1MPD2    C514337   2.324   3.228  15.056 -0.6832 -1.0314  0.1816
    1MPD2     H14338   2.222   2.867  15.025  2.0996 -0.8918 -0.0292
    1MPD2    H114339   2.516   3.171  14.994 -0.6758  1.4129 -1.8651
    1MPD2    H214340   2.126   3.273  15.121 -0.6614 -1.6649  1.2449
    1MPD2    H314341   2.365   3.328  15.060  0.8380 -1.6524  0.1663
    1MPD2     N14342   2.475   2.921  14.940  0.2186 -0.4303 -0.0423
    1MPD2    H514343   2.570   2.955  14.927  0.3293 -1.6125 -2.2485
    1MPD2    N114344   2.027   3.039  15.122  0.8859  0.6380  0.5614
    1MPD2    H714345   1.975   3.119  15.156 -2.4116 -1.0332 -0.6219
    2TMC3    C114346   1.833   2.898  15.132  0.5121  0.2830 -0.9143
    2TMC3    C214347   1.800   2.786  15.070 -0.0857  0.7437  0.3615
    2TMC3    C314348   1.695   2.788  14.988  0.3780 -0.0687 -0.9668
    2TMC3    C414349   1.751   3.009  15.128 -0.0659  0.2173 -0.4441
    2TMC3    C514350   1.636   3.007  15.052 -0.1335 -0.1507  0.3445
    2TMC3    C614351   1.606   2.891  14.989 -0.0851  0.9154 -0.0293
    2TMC3     C14352   1.982   2.908  15.142  0.2485 -0.6021  0.0919
    2TMC3     O14353   2.040   2.803  15.125 -0.0212 -0.2167  0.1355
    2TMC3     H14354   1.857   2.694  15.078 -1.3108 -0.1812 -1.2481
    2TMC3    H114355   1.797   3.097  15.170  0.9380 -1.0726  1.1948
    2TMC3    H214356   1.521   2.893  14.921 -0.2427 -0.5567  0.1286
    2TMC3    C714357   1.523   3.094  15.091  0.0192  0.1414  0.5937
    2TMC3    C814358   1.724   2.724  14.861  0.2672  0.5730  0.0103
    2TMC3    O114359   1.411   3.045  15.097  0.3339 -0.4155  0.1208
    2TMC3    O214360   1.648   2.747  14.770 -0.0564  0.5268 -0.0294
    3TCq1    O114361   1.646   4.104  15.235 -0.0028  0.8311 -0.2867
    3TCq1    C114362   1.608   4.143  15.358  0.4388 -0.6265 -0.3437
    3TCq1    O214363   1.500   4.199  15.374 -0.2844 -0.9339 -0.2054
    3TCq1    C214364   1.651   4.027  15.433  1.2748  0.3096 -0.7565
    3TCq1    C314365   1.776   3.986  15.422 -0.0425  0.3697  0.6108
    3TCq1    C414366   1.801   3.851  15.453 -0.7049  0.3697 -0.3311
    3TCq1    C514367   1.704   3.767  15.488 -0.3135 -0.4322 -0.6311
    3TCq1    C614368   1.577   3.815  15.499  0.0401  0.1184 -0.1636
    3TCq1    C714369   1.545   3.943  15.463 -0.2359 -0.1031  0.2809
    3TCq1    C814370   1.482   3.715  15.470 -0.6390 -0.2399 -0.2440
    3TCq1    O414371   1.364   3.752  15.464 -0.1860  0.5588 -0.1914
    3TCq1    C914372   1.940   3.804  15.465  0.9165  0.4098  0.0261
    3TCq1    O514373   2.015   3.889  15.521 -0.1510 -0.7597  0.2026
    3TCq1    O614374   1.960   3.677  15.457  0.3446  0.3981 -0.3214
    3TCq1    H114375   1.682   4.013  15.233 -0.5135  0.6468 -1.1540
    3TCq1    H214376   1.853   4.058  15.397  1.1673 -0.0678  3.0378
    3TCq1    H314377   1.733   3.673  15.531  1.9045  1.8043  2.7616
    3TCq1    H414378   1.447   3.988  15.454  0.1236  0.9920  1.8503
    4MPD2     C14379   1.333   3.508  15.307  0.0943  0.5716  0.3702
    4MPD2    C114380   1.468   3.509  15.325 -1.0745  0.9780 -0.2240
    4MPD2    C214381   1.545   3.409  15.275  0.5380 -0.1775  0.2661
    4MPD2    C314382   1.483   3.310  15.201  0.2160 -0.6164 -0.2310
    4MPD2    C414383   1.347   3.307  15.184  0.2517 -0.0856 -0.2032
    4MPD2    C514384   1.272   3.410  15.230 -0.7246  0.5670 -0.1978
    4MPD2     H14385   1.651   3.412  15.299  1.1226 -4.3733 -1.7007
    4MPD2    H114386   1.288   3.241  15.122  1.6940 -1.6127  0.0422
    4MPD2    H214387   1.263   3.572  15.359  0.2118  2.3161 -1.6123
    4MPD2    H314388   1.164   3.406  15.217 -0.8891 -0.9499  1.7852
    4MPD2     N14389   1.564   3.215  15.136  0.0104 -0.5550  0.2619
    4MPD2    H514390   1.665   3.229  15.143 -0.0793 -0.2689  0.9644
    4MPD2    N114391   1.527   3.599  15.419 -0.4027  0.1196 -0.1179
    4MPD2    H714392   1.627   3.584  15.430 -0.3466  1.6386  1.5066
    5TMC2    C114393   2.501   2.557  14.660  0.2591  0.4407 -0.6354
    5TMC2    C214394   2.578   2.627  14.567 -0.4518  0.4406  0.0941
    5TMC2    C314395   2.617   2.755  14.605  0.1669  0.1197  0.0099
    5TMC2    C414396   2.498   2.594  14.789 -0.0955 -0.5026 -0.1527
    5TMC2    C514397   2.543   2.717  14.827  0.3012 -0.1853 -0.1058
    5TMC2    C614398   2.600   2.796  14.735 -0.1064  0.1864 -0.8886
    5TMC2     C14399   2.370   2.544  14.607  0.6449  0.2621  0.4340
    5TMC2     O14400   2.356   2.493  14.496 -0.2756  0.3657 -0.8027
    5TMC2     H14401   2.560   2.606  14.461 -2.7430 -0.9866  0.7448
    5TMC2    H114402   2.446   2.536  14.864 -0.1029  0.2054  0.3847
    5TMC2    H214403   2.631   2.896  14.764  0.4880 -0.3052  0.1437
    5TMC2    C714404   2.451   2.781  14.916  0.7065 -0.5637 -0.3180
    5TMC2    C814405   2.691   2.836  14.505 -0.5849  0.7440 -0.6000
    5TMC2    O114406   2.349   2.720  14.943  0.3530 -0.2206  0.3022
    5TMC2    O214407   2.743   2.782  14.409 -0.0193  0.2294 -0.1722
    5TMC2    O514408   2.651   2.953  14.516  0.8611  0.0040 -0.0486
    5TMC2    H514409   2.559   2.954  14.550  0.4045 -2.7058 -1.2329
    6MPD2     C14410   1.859   2.572  14.643 -0.3229 -0.3540 -0.5851
    6MPD2    C114411   1.915   2.614  14.758  0.1835 -0.7294 -0.1501
    6MPD2    C214412   2.051   2.604  14.776 -0.2059 -0.2396 -0.3672
    6MPD2    C314413   2.133   2.554  14.673 -0.4227 -0.4210 -0.8045
    6MPD2    C414414   2.075   2.500  14.563 -0.2198  0.5255 -0.6227
    6MPD2    C514415   1.939   2.510  14.552  0.2170 -0.2172  0.1729
    6MPD2     H14416   2.103   2.627  14.868  0.1974  3.2501 -1.4499
    6MPD2    H114417   2.127   2.438  14.490 -1.1729 -0.1318 -0.7430
    6MPD2    H214418   1.752   2.574  14.625 -0.1818 -3.1020 -1.6353
    6MPD2    H314419   1.895   2.466  14.464  0.8141 -0.3089 -0.0814
    6MPD2     N14420   2.270   2.563  14.703  0.7125  0.4862  0.3460
    6MPD2    H514421   2.296   2.595  14.796 -0.5503 -1.1662  1.2877
    6MPD2    N114422   1.851   2.682  14.859 -0.3115 -0.5555  0.5369
    6MPD2    H714423   1.899   2.713  14.943  1.9635  1.3458 -1.4764
  945NH4     N114424   4.475   2.306  16.896 -0.2389 -0.3434  0.4667
  945NH4     H214425   4.444   2.213  16.859  2.9104 -0.7068 -1.2166
  945NH4     H314426   4.438   2.377  16.829  0.3508 -2.0708 -1.6900
  945NH4     H414427   4.577   2.312  16.910  0.1833  0.3778 -2.7359
  945NH4     H514428   4.421   2.323  16.983 -0.6183  1.8368 -0.1780
  946SOD     NA14429   1.370   1.577   9.883  0.2024  0.2033 -0.4825
  947SOD     NA14430   1.641   2.517   8.790  0.0920  0.4807 -0.4723
  948SOD     NA14431   1.162   0.319  10.191 -0.3364 -0.1174 -0.4485
  949SOD     NA14432   3.488   1.202  16.951 -0.3345 -0.2727 -0.1566
  950SOD     NA14433   0.317   3.223   2.802  0.1069  0.1102 -0.0356
  951SOD     NA14434   3.617   1.042   5.608  0.1825  0.2137 -0.1470
  952SOD     NA14435   4.202   3.173  15.731 -0.2441  0.3561 -0.3318
  953SOD     NA14436   3.646   3.388  15.425 -0.4300 -0.1231  0.4366
  954SOD     NA14437   0.203   4.714  14.470  0.2457  0.5732  0.1248
  955SOD     NA14438   0.081   3.243  12.878  0.2898  0.0184  0.1841
  956SOD     NA14439   1.812   2.428  13.485  0.3376 -0.2770  0.1270
  957SOD     NA14440   3.258   2.864  11.503  0.3879  0.1293  0.2699
  958SOD     NA14441   2.220   3.937  15.506 -0.3601 -0.4783 -0.2127
  959SOD     NA14442   4.606   1.941   0.459 -0.0824  0.0694 -0.2249
  960SOD     NA14443   0.479   0.500  11.526  0.1243  0.4397  0.5157
  961SOD     NA14444   2.933   1.683   0.585  0.0924 -0.3617  0.4020
  962SOD     NA14445   1.375   2.387  10.214  0.4858  0.0396  0.3848
  963SOD     NA14446   2.088   4.346   9.396 -0.0296  0.3465  0.3732
  964SOD     NA14447   1.783   4.388   1.217 -0.3488  0.0877 -0.5331
  965SOD     NA14448   3.829   3.975  12.640  0.1515  0.4260  0.0940
  966SOD     NA14449   2.687   3.080  11.591  0.8244 -0.4983  0.0371
  967SOD     NA14450   1.658   4.189  13.564  0.0876  0.4774 -0.0581
  968SOD     NA14451   1.983   2.262   1.532  0.2289 -0.4514  0.3249
  969SOD     NA14452   1.026   1.752   8.610  0.3674 -0.2843  0.6115
  970SOD     NA14453   0.768   0.333   8.466  0.6777 -0.0199 -0.6756
  971SOD     NA14454   4.224   2.168  11.531 -0.0542  0.1052  0.4345
  972SOD     NA14455   3.268   3.870  14.259  0.0317  0.4105 -0.0186
  973SOD     NA14456   1.190   2.605  10.419 -0.0495  0.3373 -0.1122
  974SOD     NA14457   3.182   2.371  17.646 -0.1923 -0.3318  0.0362
  975SOD     NA14458   1.348   2.754  10.200 -0.3521 -0.1092  0.5447
  976SOD     NA14459   3.418   2.292  13.318  0.0427 -0.2815 -0.0273
  977SOD     NA14460   2.400   2.662  11.277  0.0636  0.2562  0.5706
  978SOD     NA14461   2.918   2.828  11.423 -0.1329 -0.2166  0.2618
  979SOD     NA14462   2.921   2.742   7.724 -0.4142 -0.0255  0.0456
  980SOD     NA14463   0.099   2.996  14.878 -0.1028  0.1003  0.0885
  981SOD     NA14464   1.455   1.827  12.694 -0.4557  0.0213  0.0324
  982SOD     NA14465   4.440   1.306  13.456  0.1294  0.2237  0.0253
  983SOD     NA14466   4.284   1.867   1.133 -0.4639  0.4758 -0.1042
  984SOD     NA14467   2.352   3.662   1.985 -0.3476  0.2876 -0.2176
  985SOD     NA14468   0.734   4.339   4.411 -0.2669  0.1054  0.0440
  986SOD     NA14469   4.454   2.000   0.759 -0.4304 -0.1216 -0.1326
  987SOD     NA14470   1.631   2.523  13.243 -0.0118 -0.3159  0.4030
  988SOD     NA14471   1.847   4.614   9.663 -0.0690  0.0820  0.1393
  989SOD     NA14472   3.455   4.414  17.365  0.1197  0.1502 -0.4568
  990SOD     NA14473   1.751   2.372  10.011  0.5552  0.1318  0.1824
  991SOD     NA14474   3.491   2.554  14.520  0.1831 -0.0791 -0.0181
  992SOD     NA14475   1.126   2.823  14.840 -0.1123  0.0164  0.1079
  993SOD     NA14476   2.630   2.602  12.323 -0.0835  0.2416 -0.2537
  994SOD     NA14477   4.086   4.475  12.328  0.3110  0.2785 -0.2841
  995SOD     NA14478   0.126   0.708   9.362 -0.2676 -0.0366  0.4876
  996SOD     NA14479   3.512   1.928  13.215 -0.0336  0.2207 -0.3311
  997SOD     NA14480   1.553   2.101  10.139 -0.1041  0.2584  0.1214
  998SOD     NA14481   0.684   2.767  11.071  0.0230 -0.0270 -0.3786
  999SOD     NA14482   1.670   3.185   8.343 -0.0783  0.3239  0.2286
 1000SOD     NA14483   2.165   3.625  15.537 -0.4020 -0.6916 -0.0607
 1001SOD     NA14484   2.124   1.777  11.220 -0.4106 -0.1595 -0.0196
 1002SOD     NA14485   1.268   3.663   3.182  0.0136  0.2017 -0.1482
 1003SOD     NA14486   0.874   2.160   4.431  0.1173  0.2951  0.3435
 1004SOD     NA14487   3.382   2.531  14.239 -1.2327  0.0933 -0.1838
 1005SOD     NA14488   3.430   0.496   2.544  0.0211  0.1893  0.0686
 1006SOD     NA14489   3.254   2.730  14.436  0.0232  0.4798 -0.1565
 1007SOD     NA14490   2.952   2.630   5.444  0.2559  0.1160  0.6689
 1008SOD     NA14491   3.874   3.010  10.906 -0.2156  0.4175  0.5630
 1009SOD     NA14492   1.303   2.650   1.727 -0.4918 -0.4749  0.5555
 1010SOD     NA14493   1.139   2.686  12.849 -0.1310  0.4658 -0.4064
 1011SOL     OW14494   2.086   4.224   7.093  0.1093 -0.1598  0.0477
 1011SOL    HW114495   2.083   4.133   7.064 -0.6356 -1.0633  3.0500
 1011SOL    HW214496   2.179   4.244   7.081  0.2505 -1.5879 -1.2307
 1012SOL     OW14497   2.829   0.484   6.564 -0.0309  0.5541  0.0289
 1012SOL    HW114498   2.829   0.455   6.655  3.7333 -0.7121 -0.3506
 1012SOL    HW214499   2.900   0.433   6.525 -0.2548  2.3716 -2.7465
 1013SOL     OW14500   1.422   4.444   8.052  0.2567  0.2579 -0.9633
 1013SOL    HW114501   1.412   4.535   8.082 -1.2819 -0.5451  1.0139
 1013SOL    HW214502   1.379   4.393   8.120 -1.4654 -0.9137 -2.9310
 1014SOL     OW14503   2.047   4.481   3.582 -0.4502  0.4609  0.2491
 1014SOL    HW114504   1.999   4.562   3.594 -0.6499  0.1660  1.4738
 1014SOL    HW214505   1.988   4.410   3.608 -0.8423  1.2037  1.4140
 1015SOL     OW14506   1.442   2.601   7.319 -0.8404  0.0469 -0.1480
 1015SOL    HW114507   1.511   2.655   7.358 -2.9233  3.2749 -0.9252
 1015SOL    HW214508   1.480   2.587   7.232  1.3436  0.3084  0.7620
 1016SOL     OW14509   1.664   2.548   3.641 -0.0809 -0.0587  0.4266
 1016SOL    HW114510   1.604   2.618   3.615 -1.1967 -0.2982  2.3446
 1016SOL    HW214511   1.730   2.600   3.686  0.4881 -0.0093 -0.4653
 1017SOL     OW14512   3.603   4.411  16.194  0.5549 -0.1257 -0.3907
 1017SOL    HW114513   3.674   4.459  16.237  0.3649 -0.4825  0.3178
 1017SOL    HW214514   3.607   4.454  16.109 -3.0350  0.3128 -0.3084
 1018SOL     OW14515   3.422   2.680   4.724  0.1487  0.5956  0.2595
 1018SOL    HW114516   3.489   2.628   4.767 -1.2905 -1.2372  0.3036
 1018SOL    HW214517   3.483   2.703   4.654 -0.2497  1.0295  0.0560
 1019SOL     OW14518   2.053   4.479  14.374  0.0331 -0.4926 -0.1668
 1019SOL    HW114519   2.121   4.540  14.403  0.3531 -0.8324 -0.2040
 1019SOL    HW214520   1.986   4.537  14.339 -1.4633 -2.6094 -0.8184
 1020SOL     OW14521   2.898   2.921   6.605  0.1251 -0.5160  0.4037
 1020SOL    HW114522   2.958   2.994   6.589 -0.1490 -0.6788 -1.2994
 1020SOL    HW214523   2.829   2.939   6.541  1.0512  0.6515 -0.2496
 1021SOL     OW14524   3.532   3.014   3.778  0.5604  0.0755  0.2219
 1021SOL    HW114525   3.618   3.055   3.763 -1.1475  3.6493  0.3455
 1021SOL    HW214526   3.557   2.927   3.746 -0.6915 -0.4377  0.6386
 1022SOL     OW14527   3.726   0.443   5.757 -0.0086 -0.1150 -0.3915
 1022SOL    HW114528   3.796   0.418   5.696  0.0223  1.6401 -1.0852
 1022SOL    HW214529   3.708   0.533   5.730 -1.4025 -0.1375  0.4846
 1023SOL     OW14530   3.104   2.991   0.373  0.5061 -0.4899  0.8289
 1023SOL    HW114531   3.187   2.947   0.352  0.7651  0.5281 -0.2382
 1023SOL    HW214532   3.053   2.962   0.298 -1.5455  0.5000  1.8404
 1024SOL     OW14533   4.379   4.384   4.888  0.0243 -0.5167 -0.4293
 1024SOL    HW114534   4.418   4.394   4.801  1.1584  2.3222  0.3699
 1024SOL    HW214535   4.367   4.478   4.903  2.6638 -0.5599  2.0914
 1025SOL     OW14536   4.707   2.673  12.428  0.2672 -0.2267 -0.0629
 1025SOL    HW114537   0.028   2.652  12.513  1.3196  0.3931 -0.4056
 1025SOL    HW214538   4.696   2.765  12.453  0.4851 -0.3078  0.3458
 1026SOL     OW14539   0.203   0.085   0.258 -0.5803  0.7056  0.1188
 1026SOL    HW114540   0.193   0.042   0.343 -0.0531 -2.1440 -1.2820
 1026SOL    HW214541   0.129   0.145   0.266 -0.5146  0.4283  2.8871
 1027SOL     OW14542   2.593   3.963   6.547 -0.1093  0.2655 -0.0445
 1027SOL    HW114543   2.609   4.038   6.490  0.2979  2.4416  2.9595
 1027SOL    HW214544   2.567   4.008   6.627 -0.3363 -1.3203  0.7851
 1028SOL     OW14545   1.968   1.570   4.291  0.2088 -0.3726  0.5520
 1028SOL    HW114546   1.920   1.519   4.355 -1.3295  0.9429  0.4417
 1028SOL    HW214547   2.011   1.497   4.248 -1.4669 -0.4916 -0.9338
 1029SOL     OW14548   2.219   1.843   8.380  0.1174 -0.1051 -1.0506
 1029SOL    HW114549   2.210   1.794   8.462  0.6185  1.3861 -0.1029
 1029SOL    HW214550   2.312   1.848   8.361 -0.0202  0.7276 -1.4904
 1030SOL     OW14551   2.444   1.914   1.756  0.0794 -0.0804  0.3787
 1030SOL    HW114552   2.519   1.855   1.746 -0.6889 -0.7303 -1.6235
 1030SOL    HW214553   2.393   1.865   1.821 -1.0681 -0.1608 -0.5902
 1031SOL     OW14554   0.376   4.235   6.065  0.6549 -0.2893  0.2468
 1031SOL    HW114555   0.399   4.204   5.978  0.5000 -0.2714  0.1990
 1031SOL    HW214556   0.458   4.211   6.108  1.8215  1.9857 -0.7312
 1032SOL     OW14557   2.893   0.605  17.481 -0.2193  0.2649 -0.1473
 1032SOL    HW114558   2.962   0.543  17.505 -2.6537 -1.9950  0.9224
 1032SOL    HW214559   2.843   0.588  17.561  0.3049 -0.2234  0.0778
 1033SOL     OW14560   3.274   2.382  16.870  0.3572  0.6366  0.1282
 1033SOL    HW114561   3.229   2.467  16.866 -2.4167 -0.8820 -1.4023
 1033SOL    HW214562   3.234   2.334  16.798  0.5565 -1.6436  1.5370
 1034SOL     OW14563   1.409   2.339  16.152  0.3162 -0.1211 -0.1831
 1034SOL    HW114564   1.414   2.249  16.183 -0.1674  0.0585  0.4162
 1034SOL    HW214565   1.500   2.370  16.159 -0.0901  1.1845 -0.6814
 1035SOL     OW14566   3.529   0.111   7.476  0.4459  0.5171 -0.5947
 1035SOL    HW114567   3.504   0.042   7.415 -0.5070  1.8018 -1.6653
 1035SOL    HW214568   3.595   0.062   7.525  1.9328  2.2130 -0.8903
 1036SOL     OW14569   2.291   0.204   2.607 -0.2734  0.2380  0.1308
 1036SOL    HW114570   2.385   0.214   2.623 -0.0177 -3.3066  0.8703
 1036SOL    HW214571   2.278   0.287   2.560 -0.6965  0.1613  0.1126
 1037SOL     OW14572   1.460   4.673  16.718  0.4300 -0.1029 -0.6101
 1037SOL    HW114573   1.391   0.017  16.734  0.8214  0.0883  0.3197
 1037SOL    HW214574   1.530   4.716  16.767 -0.2951 -0.8997  1.1350
 1038SOL     OW14575   3.510   4.268   4.181  0.1610  0.1892  0.4358
 1038SOL    HW114576   3.422   4.277   4.217 -0.1864 -0.3938 -0.2543
 1038SOL    HW214577   3.511   4.340   4.118 -0.3058 -0.4778 -0.3381
 1039SOL     OW14578   1.035   0.315   0.913 -0.6187 -0.5720  0.2057
 1039SOL    HW114579   1.001   0.379   0.852 -0.1157 -0.8056 -0.3213
 1039SOL    HW214580   1.103   0.260   0.874 -1.4119 -0.6406 -1.0367
 1040SOL     OW14581   4.507   4.500   1.738 -0.4156 -0.1498 -0.0913
 1040SOL    HW114582   4.426   4.537   1.771  0.1833  2.6107 -1.7117
 1040SOL    HW214583   4.500   4.405   1.747 -0.3763 -0.2211 -0.7823
 1041SOL     OW14584   3.056   4.153   3.021  0.0022 -0.2711  0.0744
 1041SOL    HW114585   3.105   4.178   2.943  1.2591  1.0709  1.2958
 1041SOL    HW214586   3.098   4.215   3.080  1.8630  0.1981 -1.7531
 1042SOL     OW14587   0.533   4.145   9.228  0.2766 -0.3232 -0.6932
 1042SOL    HW114588   0.546   4.096   9.309  1.9345  0.8404 -0.2702
 1042SOL    HW214589   0.565   4.233   9.249  0.1149 -1.3684  4.0493
 1043SOL     OW14590   1.581   2.984   8.400 -0.3997 -0.0589  0.0403
 1043SOL    HW114591   1.593   2.889   8.405 -0.6351  0.0277  2.1055
 1043SOL    HW214592   1.515   3.006   8.464  0.1461  0.8440  0.2858
 1044SOL     OW14593   4.337   2.740   0.479  0.4094  0.1515 -0.5204
 1044SOL    HW114594   4.367   2.649   0.485  1.8987  0.4274 -3.5136
 1044SOL    HW214595   4.257   2.747   0.532  1.0790  1.2103  0.3368
 1045SOL     OW14596   2.408   2.931   0.446  0.7099 -0.2644  0.2707
 1045SOL    HW114597   2.499   2.952   0.425 -0.0202  1.5131 -1.0809
 1045SOL    HW214598   2.358   3.011   0.433 -0.6442 -1.0384  0.7373
 1046SOL     OW14599   4.645   2.556  14.770  0.1505 -0.5553  0.0142
 1046SOL    HW114600   4.650   2.646  14.737  1.8069 -0.1861  1.2551
 1046SOL    HW214601   4.613   2.576  14.858  0.2956 -0.5449  0.0659
 1047SOL     OW14602   1.113   1.910   5.486  0.7244  0.2933 -0.0829
 1047SOL    HW114603   1.105   2.005   5.474 -0.5336  0.1407 -0.4972
 1047SOL    HW214604   1.092   1.907   5.579  1.3317 -1.5606 -0.0093
 1048SOL     OW14605   2.252   3.357   5.387 -0.0649  0.0895 -0.3253
 1048SOL    HW114606   2.204   3.394   5.314  0.2291 -1.3921 -1.2822
 1048SOL    HW214607   2.188   3.307   5.439  0.1733  0.3604  0.2312
 1049SOL     OW14608   1.161   2.276  15.245  0.2277  0.6921  0.6093
 1049SOL    HW114609   1.124   2.189  15.261  3.6474 -0.8759  0.1039
 1049SOL    HW214610   1.219   2.277  15.321  0.4022 -0.0255  0.4882
 1050SOL     OW14611   4.479   2.145   2.775  0.1123  0.3031 -0.4123
 1050SOL    HW114612   4.555   2.092   2.799  1.1365  1.6890 -0.5213
 1050SOL    HW214613   4.409   2.090   2.809  1.2947 -0.6962  0.4306
 1051SOL     OW14614   0.713   4.032   5.347  0.5775 -0.0965  0.1139
 1051SOL    HW114615   0.695   4.124   5.363  0.5183 -0.4050  1.8263
 1051SOL    HW214616   0.745   4.033   5.257 -0.1252 -2.2850 -0.1846
 1052SOL     OW14617   2.506   1.468   6.780 -0.0554  0.1002  0.2160
 1052SOL    HW114618   2.549   1.551   6.758 -1.6657  1.0803  0.6839
 1052SOL    HW214619   2.537   1.411   6.710  0.5163  0.4398  0.1937
 1053SOL     OW14620   4.275   1.724  11.378 -0.7998  0.0176  0.0779
 1053SOL    HW114621   4.243   1.643  11.417  0.7030  0.4028  2.1140
 1053SOL    HW214622   4.355   1.697  11.332 -0.3814  0.4914  0.5189
 1054SOL     OW14623   1.930   0.735   8.468 -0.5771  0.5381 -0.1890
 1054SOL    HW114624   1.878   0.703   8.395 -0.9593  3.0449 -1.0277
 1054SOL    HW214625   1.899   0.826   8.470 -0.2386  0.6509  0.0975
 1055SOL     OW14626   4.286   4.091   8.983  0.8945 -0.5847 -0.3286
 1055SOL    HW114627   4.353   4.135   8.931 -0.7310 -0.8066 -2.6015
 1055SOL    HW214628   4.284   4.143   9.064 -0.0531  0.4231 -0.9852
 1056SOL     OW14629   3.114   2.980  17.553 -0.2423  0.3362 -0.8339
 1056SOL    HW114630   3.099   3.037  17.629  0.6910  0.3722 -0.6865
 1056SOL    HW214631   3.136   3.052  17.494 -0.7740  1.5623  0.4584
 1057SOL     OW14632   1.930   2.180   3.746  0.5584 -0.3824  0.2099
 1057SOL    HW114633   1.994   2.216   3.685  0.9149 -0.9454  0.2492
 1057SOL    HW214634   1.916   2.094   3.706 -1.1520 -0.1533  0.3334
 1058SOL     OW14635   2.688   4.235   3.349 -0.4291 -1.0099  0.1251
 1058SOL    HW114636   2.661   4.153   3.309 -0.9776 -0.4256 -0.6938
 1058SOL    HW214637   2.604   4.282   3.352 -0.4532 -1.1885  2.4970
 1059SOL     OW14638   0.730   1.028   9.102 -0.5250  0.4926  0.4581
 1059SOL    HW114639   0.688   1.113   9.099  0.6576  0.9989 -1.5240
 1059SOL    HW214640   0.664   0.974   9.059  1.7809 -1.3423 -0.7990
 1060SOL     OW14641   0.942   2.572   5.345  0.2546  0.5491 -0.1906
 1060SOL    HW114642   0.964   2.518   5.269  1.8824  0.6748  0.1929
 1060SOL    HW214643   0.860   2.615   5.320 -0.4619 -0.8689 -0.2884
 1061SOL     OW14644   0.595   0.846   5.623  0.0400  0.5542 -0.4284
 1061SOL    HW114645   0.526   0.796   5.580  1.0484 -0.1607 -1.1970
 1061SOL    HW214646   0.586   0.930   5.579 -4.6836  0.1580 -0.1737
 1062SOL     OW14647   2.424   3.299   2.756  0.2581  0.1504  0.2409
 1062SOL    HW114648   2.352   3.361   2.748 -0.5172 -0.6846  0.7495
 1062SOL    HW214649   2.494   3.364   2.748  1.5987 -1.2046  1.0223
 1063SOL     OW14650   1.673   2.146  13.127  0.2539  0.0129  0.2504
 1063SOL    HW114651   1.578   2.150  13.140  0.2567 -1.2265  0.6774
 1063SOL    HW214652   1.697   2.061  13.091 -3.2251  0.7017 -3.7527
 1064SOL     OW14653   1.992   1.824   0.124 -0.4192 -0.5221  0.1655
 1064SOL    HW114654   2.036   1.743   0.148  2.0730  0.6952 -0.3065
 1064SOL    HW214655   2.053   1.895   0.146  1.2204 -1.5280 -1.1267
 1065SOL     OW14656   4.670   2.170   0.410 -0.4008 -0.2117 -0.0608
 1065SOL    HW114657   4.674   2.233   0.482 -0.2460 -0.0838 -0.1823
 1065SOL    HW214658   0.037   2.177   0.369  0.7299 -2.2435  1.9720
 1066SOL     OW14659   3.158   3.195  10.569  0.5364 -0.4479  0.2310
 1066SOL    HW114660   3.209   3.115  10.575  2.0094  0.3776 -1.1300
 1066SOL    HW214661   3.205   3.251  10.506  0.4256 -1.0259 -0.3619
 1067SOL     OW14662   4.700   0.498  14.881  0.0987  0.7185  0.0498
 1067SOL    HW114663   4.617   0.452  14.874  0.7632 -0.4906  0.0235
 1067SOL    HW214664   0.003   0.528  14.793 -2.1382  0.5652 -0.5647
 1068SOL     OW14665   4.679   1.887  14.444 -0.1079 -0.1514  0.1085
 1068SOL    HW114666   0.049   1.912  14.421  0.4804 -1.3490  1.0675
 1068SOL    HW214667   4.639   1.963  14.487 -0.5496 -0.1008 -0.3958
 1069SOL     OW14668   4.136   3.244   4.238  0.3285  0.4514 -0.1520
 1069SOL    HW114669   4.149   3.203   4.323 -0.6275  0.4737 -0.0051
 1069SOL    HW214670   4.205   3.205   4.184  0.2090  1.1399 -0.8040
 1070SOL     OW14671   1.416   2.415   8.811 -1.0120 -0.6416 -0.4982
 1070SOL    HW114672   1.456   2.332   8.838  2.6429  1.2558 -0.1041
 1070SOL    HW214673   1.362   2.422   8.889 -1.9078  0.3171 -1.2024
 1071SOL     OW14674   2.075   3.694  12.078  0.4303  0.3765  0.3960
 1071SOL    HW114675   2.124   3.681  11.997  2.2181 -0.3758  1.6078
 1071SOL    HW214676   1.990   3.655  12.059  0.1458  0.8958  0.6021
 1072SOL     OW14677   1.028   0.340   5.028  0.4124  0.1106  0.1335
 1072SOL    HW114678   0.971   0.391   5.085  0.3344  0.6358 -0.4168
 1072SOL    HW214679   1.112   0.370   5.063 -0.5226 -0.1637  2.5611
 1073SOL     OW14680   0.543   4.053   3.754 -0.1100  0.4264 -0.5911
 1073SOL    HW114681   0.534   3.966   3.793 -0.7330 -0.4030 -2.5908
 1073SOL    HW214682   0.451   4.072   3.736 -0.4542 -2.2789 -1.7430
 1074SOL     OW14683   1.747   0.644   5.741  0.6645 -0.4854 -0.3444
 1074SOL    HW114684   1.775   0.623   5.652  0.5842 -0.7225 -0.3125
 1074SOL    HW214685   1.672   0.586   5.754 -0.0206  0.2065 -1.1986
 1075SOL     OW14686   4.697   4.035  14.008 -0.4252  0.1612 -0.2216
 1075SOL    HW114687   4.683   3.972  14.079 -0.0768 -0.9287 -1.1248
 1075SOL    HW214688   4.665   3.991  13.928 -1.5435 -0.1552  0.3933
 1076SOL     OW14689   0.289   3.922   9.832  0.4678 -0.2161 -0.1806
 1076SOL    HW114690   0.238   3.842   9.818  1.2614 -0.9032  0.9272
 1076SOL    HW214691   0.257   3.948   9.918 -0.2814 -0.7499 -0.2983
 1077SOL     OW14692   2.055   0.566   9.247  0.7428  0.3654 -0.1504
 1077SOL    HW114693   1.976   0.596   9.290  1.9201  0.0488  2.2655
 1077SOL    HW214694   2.028   0.482   9.209 -0.9621 -0.5789  3.1740
 1078SOL     OW14695   0.199   3.618   6.095 -0.0452 -0.1097 -0.4518
 1078SOL    HW114696   0.192   3.537   6.146 -1.2708  1.4434  1.8134
 1078SOL    HW214697   0.294   3.629   6.093 -0.1206  0.6804  0.2724
 1079SOL     OW14698   2.244   4.196   6.763 -0.6747  0.5835  0.5344
 1079SOL    HW114699   2.169   4.140   6.744  1.5361 -2.7157  1.6010
 1079SOL    HW214700   2.311   4.127   6.764  0.1660  1.4300  2.6077
 1080SOL     OW14701   3.365   2.361  11.419 -0.1569 -0.2910 -0.2681
 1080SOL    HW114702   3.306   2.397  11.353  0.4549 -0.9345 -1.1617
 1080SOL    HW214703   3.328   2.397  11.500  0.4661 -0.0684 -0.0821
 1081SOL     OW14704   3.236   3.111   5.499  0.3683  0.3813 -0.4669
 1081SOL    HW114705   3.331   3.109   5.507  0.2866 -0.5496  0.2634
 1081SOL    HW214706   3.225   3.204   5.477  1.7302  0.3499 -1.3025
 1082SOL     OW14707   0.640   3.800  12.186 -0.1668 -0.0446 -0.7433
 1082SOL    HW114708   0.617   3.841  12.103 -0.7034 -0.3561 -0.7466
 1082SOL    HW214709   0.734   3.818  12.175  0.4118 -1.8349  1.1765
 1083SOL     OW14710   3.746   1.048  13.524 -0.6492 -0.5696  0.0152
 1083SOL    HW114711   3.776   0.960  13.547  0.7486 -0.5565 -1.7589
 1083SOL    HW214712   3.673   1.022  13.469  0.0281 -0.7615 -0.8016
 1084SOL     OW14713   2.408   2.553   3.240 -0.3643  0.0757 -0.3704
 1084SOL    HW114714   2.330   2.573   3.293 -0.4589 -4.8612  1.3402
 1084SOL    HW214715   2.451   2.638   3.231 -0.7217  0.4000  0.9176
 1085SOL     OW14716   4.432   3.770   6.520 -0.1042  0.0380 -0.0560
 1085SOL    HW114717   4.522   3.804   6.527 -0.0290 -0.7236  2.6802
 1085SOL    HW214718   4.455   3.680   6.497  0.6284 -0.0338  0.9125
 1086SOL     OW14719   0.595   2.359   3.639 -0.3374  0.0050 -0.3941
 1086SOL    HW114720   0.500   2.357   3.652 -0.5021 -0.0502 -1.6635
 1086SOL    HW214721   0.605   2.350   3.545  0.5108 -1.4360 -0.1724
 1087SOL     OW14722   2.348   0.000  15.404 -0.0953 -0.2353 -0.2441
 1087SOL    HW114723   2.305   4.698  15.487  1.0870 -2.0912 -0.1155
 1087SOL    HW214724   2.327   0.094  15.406 -0.3555 -0.2713 -1.4751
 1088SOL     OW14725   2.835   3.328   5.579 -0.4203  0.0398 -0.0545
 1088SOL    HW114726   2.810   3.326   5.487  2.5325  0.2154 -0.8602
 1088SOL    HW214727   2.760   3.353   5.633  0.6319  4.0520 -0.4374
 1089SOL     OW14728   0.859   1.626  13.681  0.3340  0.3076  0.0052
 1089SOL    HW114729   0.951   1.602  13.694  0.3846  0.0348 -0.8630
 1089SOL    HW214730   0.844   1.660  13.769  0.3897 -0.6973  0.4090
 1090SOL     OW14731   4.070   4.394   5.078  0.1640  0.2166  0.5296
 1090SOL    HW114732   4.112   4.445   5.010  0.5105  0.3397  0.8329
 1090SOL    HW214733   3.978   4.418   5.071 -0.1948 -1.6314 -1.0016
 1091SOL     OW14734   0.506   0.944  14.762  0.1048  0.0820 -0.0033
 1091SOL    HW114735   0.422   0.903  14.742  0.0601  0.0245  0.2946
 1091SOL    HW214736   0.499   0.956  14.857  2.4108 -0.1058  0.1980
 1092SOL     OW14737   0.923   1.370   5.412  0.5631 -0.2985 -0.0925
 1092SOL    HW114738   0.884   1.371   5.500  0.3296 -0.0757 -0.1967
 1092SOL    HW214739   1.016   1.363   5.434  0.4573 -2.2026 -0.3176
 1093SOL     OW14740   1.836   2.990   6.023  0.0319 -0.2145  0.0793
 1093SOL    HW114741   1.902   3.059   6.023 -0.1113 -0.0788 -0.1793
 1093SOL    HW214742   1.851   2.943   5.941  1.0971 -0.7407  0.5748
 1094SOL     OW14743   1.067   4.334   4.762 -0.0851  0.1882 -0.6620
 1094SOL    HW114744   1.064   4.255   4.816 -0.4148  1.5185  1.2639
 1094SOL    HW214745   1.135   4.386   4.805 -2.2105  2.3506  0.0570
 1095SOL     OW14746   0.867   3.579   0.350 -0.0536 -0.2135 -0.2499
 1095SOL    HW114747   0.847   3.602   0.441  1.0643 -1.4705  0.3190
 1095SOL    HW214748   0.900   3.665   0.324 -1.3243  0.6720  1.0888
 1096SOL     OW14749   1.639   2.781  10.323  0.2572  0.0209  0.2223
 1096SOL    HW114750   1.714   2.769  10.381  0.2458 -0.7468  0.0693
 1096SOL    HW214751   1.577   2.833  10.375 -0.0655 -0.4324  0.2945
 1097SOL     OW14752   1.859   0.808   7.607 -0.0661 -0.3095 -0.5476
 1097SOL    HW114753   1.894   0.775   7.524  1.8311  0.5688 -0.1025
 1097SOL    HW214754   1.828   0.730   7.653  1.6239  0.1712  1.3934
 1098SOL     OW14755   1.800   3.056  14.054 -0.0780  0.3371 -0.8067
 1098SOL    HW114756   1.849   3.085  14.131 -1.2743  0.8639 -0.2548
 1098SOL    HW214757   1.744   3.133  14.042 -0.4637  0.0597 -0.7842
 1099SOL     OW14758   1.871   2.522   5.180  0.1972 -0.7935 -0.2371
 1099SOL    HW114759   1.825   2.586   5.126  1.4346  0.0887 -0.2528
 1099SOL    HW214760   1.904   2.461   5.114 -1.9724 -0.6709 -1.4495
 1100SOL     OW14761   1.521   0.381   5.572  0.0087 -0.5219  0.6476
 1100SOL    HW114762   1.428   0.361   5.566 -0.2144  0.8589 -0.4814
 1100SOL    HW214763   1.525   0.453   5.635  0.0164  0.4946 -0.5182
 1101SOL     OW14764   1.590   3.037   3.698  0.1021  0.3119  0.1128
 1101SOL    HW114765   1.649   3.062   3.627 -0.6495  0.5353 -0.4310
 1101SOL    HW214766   1.595   2.942   3.691 -2.3891  0.2104 -0.4084
 1102SOL     OW14767   2.071   4.003   1.948  0.3500 -0.4237 -0.2348
 1102SOL    HW114768   1.999   4.049   1.904 -2.4904 -1.8575  2.9092
 1102SOL    HW214769   2.122   3.977   1.872 -0.1307 -1.8946 -0.0611
 1103SOL     OW14770   3.365   0.141   2.290  0.0508 -0.1079  0.1997
 1103SOL    HW114771   3.360   0.223   2.240  1.1019 -1.1125 -1.5715
 1103SOL    HW214772   3.296   0.091   2.246 -2.0531  1.9654  1.1114
 1104SOL     OW14773   0.732   1.664   7.210  0.3571  0.3400  0.1332
 1104SOL    HW114774   0.757   1.586   7.260  0.0471 -0.3364 -0.7707
 1104SOL    HW214775   0.642   1.672   7.240 -0.1030 -0.8596 -0.9325
 1105SOL     OW14776   0.818   2.161  11.689 -0.4819  0.2310  0.2975
 1105SOL    HW114777   0.811   2.256  11.696 -1.9372  0.0217  1.6045
 1105SOL    HW214778   0.850   2.148  11.600 -1.3653  1.4232 -0.1864
 1106SOL     OW14779   0.360   0.994  11.418  0.2407 -0.4663  0.3012
 1106SOL    HW114780   0.385   1.026  11.331  0.0187 -1.1065 -0.0010
 1106SOL    HW214781   0.282   1.046  11.440  0.2850  0.3123 -1.3558
 1107SOL     OW14782   2.733   4.387  15.423  0.5031  0.2328  0.3717
 1107SOL    HW114783   2.796   4.326  15.460 -0.3615 -0.3609  0.8559
 1107SOL    HW214784   2.790   4.438  15.366 -0.5664 -1.7065 -2.4224
 1108SOL     OW14785   3.125   0.614   7.261  0.5649  0.9581 -0.0701
 1108SOL    HW114786   3.147   0.538   7.207  0.3707  0.9494 -0.1366
 1108SOL    HW214787   3.099   0.582   7.348  0.0504  0.4634 -0.4091
 1109SOL     OW14788   3.659   1.560   8.854  0.0359  0.0785 -0.3648
 1109SOL    HW114789   3.675   1.474   8.814 -0.6012 -0.5095  0.6575
 1109SOL    HW214790   3.708   1.551   8.935  0.4606 -0.8607 -0.7242
 1110SOL     OW14791   1.275   3.710  14.344 -0.7708  1.2834 -0.2895
 1110SOL    HW114792   1.210   3.769  14.382 -1.0051  0.6354  0.3248
 1110SOL    HW214793   1.320   3.775  14.291  0.5874 -1.1428 -2.0942
 1111SOL     OW14794   2.609   3.436  14.878 -0.1571  0.6106  0.2285
 1111SOL    HW114795   2.689   3.489  14.871 -0.8074  1.6921  0.9708
 1111SOL    HW214796   2.626   3.389  14.960 -1.6156  1.0419  0.7612
 1112SOL     OW14797   0.961   0.083   1.344 -0.0858  0.2051  0.1956
 1112SOL    HW114798   1.017   0.101   1.420 -2.7288  2.0809  1.7097
 1112SOL    HW214799   0.975   0.159   1.287 -0.8158 -0.1972 -0.5080
 1113SOL     OW14800   3.663   4.545   3.799  0.0979  0.4399  0.1087
 1113SOL    HW114801   3.709   4.477   3.749 -0.7931 -3.0607  4.0735
 1113SOL    HW214802   3.724   4.616   3.782  0.6044  0.2884  1.3028
 1114SOL     OW14803   3.540   3.626   5.779  0.6115  0.2292  0.5936
 1114SOL    HW114804   3.446   3.630   5.764  1.1958  0.6287 -3.0121
 1114SOL    HW214805   3.562   3.714   5.747  0.4496  0.1837  0.3562
 1115SOL     OW14806   2.727   0.064   6.886 -0.1579  0.2972  0.1081
 1115SOL    HW114807   2.672   0.019   6.949  0.6203 -1.7668 -0.6806
 1115SOL    HW214808   2.809   0.015   6.894  0.0306  0.2357 -2.0478
 1116SOL     OW14809   3.315   1.583   6.805 -0.3238 -0.2299  0.4023
 1116SOL    HW114810   3.320   1.676   6.830 -0.1131 -0.5227  1.4607
 1116SOL    HW214811   3.384   1.542   6.857  0.0659  0.4861  0.4453
 1117SOL     OW14812   2.004   2.263  10.907  0.0442  0.5346 -0.5579
 1117SOL    HW114813   2.007   2.272  10.812 -0.1426 -1.9394 -0.8009
 1117SOL    HW214814   1.946   2.188  10.917  1.2530 -0.0617  1.9231
 1118SOL     OW14815   3.782   1.819   7.236  1.1795 -0.1263  0.3466
 1118SOL    HW114816   3.746   1.846   7.152 -0.9850 -0.8964  1.0357
 1118SOL    HW214817   3.833   1.742   7.209  1.5516  0.4119 -0.4858
 1119SOL     OW14818   0.812   1.874   2.505 -0.4391 -0.0837  0.1872
 1119SOL    HW114819   0.763   1.907   2.431 -1.0251 -0.5379  0.3727
 1119SOL    HW214820   0.891   1.927   2.494 -0.5051  0.2107  1.0955
 1120SOL     OW14821   0.880   4.648  17.261  0.1083 -1.0910 -0.1395
 1120SOL    HW114822   0.829   4.707  17.317  1.5852  0.7344 -0.7214
 1120SOL    HW214823   0.828   4.651  17.181 -1.6603 -2.3785  0.9270
 1121SOL     OW14824   2.400   1.003   8.142 -0.3348 -0.0164 -0.2335
 1121SOL    HW114825   2.478   1.026   8.092  0.5669 -0.5581  0.9289
 1121SOL    HW214826   2.345   1.081   8.139 -2.2063 -1.2261  2.5018
 1122SOL     OW14827   1.657   2.039   1.488  0.2839  0.8350 -0.8034
 1122SOL    HW114828   1.737   2.068   1.532 -0.0730 -2.0144  1.6903
 1122SOL    HW214829   1.635   1.960   1.537  0.2405  1.1577 -0.2987
 1123SOL     OW14830   0.618   2.581   4.929  0.1805  0.4897  0.2927
 1123SOL    HW114831   0.611   2.486   4.925  2.2520  0.2721  1.8076
 1123SOL    HW214832   0.649   2.603   4.841 -0.3563  1.5060  0.3491
 1124SOL     OW14833   2.784   1.534   0.703  0.1676  0.0956 -0.6404
 1124SOL    HW114834   2.856   1.484   0.741  0.2816  0.2190 -0.6941
 1124SOL    HW214835   2.702   1.486   0.718  0.8737 -0.4137  1.6508
 1125SOL     OW14836   1.441   2.978  14.677  0.4994 -0.2302  0.4009
 1125SOL    HW114837   1.404   2.974  14.589 -1.3499 -1.9772  1.2697
 1125SOL    HW214838   1.389   2.913  14.723  1.4754 -2.2942 -1.4720
 1126SOL     OW14839   3.702   0.511   4.733  0.3704  0.3318 -0.1009
 1126SOL    HW114840   3.739   0.432   4.694 -0.9581 -1.0739  1.4909
 1126SOL    HW214841   3.671   0.482   4.819 -0.8304 -0.9392 -0.9653
 1127SOL     OW14842   3.345   2.371   0.139  0.2739 -0.2346 -0.0531
 1127SOL    HW114843   3.295   2.416   0.207  0.2167 -0.3656 -0.0093
 1127SOL    HW214844   3.434   2.365   0.174  0.0188 -0.5911  0.5393
 1128SOL     OW14845   0.854   0.619  11.656  0.1371 -0.0299  0.2070
 1128SOL    HW114846   0.872   0.667  11.737 -0.1972  0.9815 -0.3031
 1128SOL    HW214847   0.768   0.580  11.672  0.0142 -0.9724 -2.7070
 1129SOL     OW14848   1.163   2.472  12.793 -0.2530 -0.5118 -0.3173
 1129SOL    HW114849   1.109   2.399  12.825 -1.3736 -0.9106 -3.1229
 1129SOL    HW214850   1.216   2.423  12.730  1.5092  1.2292 -0.1902
 1130SOL     OW14851   2.731   3.220   6.496 -0.2119  0.0850 -0.5395
 1130SOL    HW114852   2.791   3.290   6.525  1.0881 -0.2960 -2.3361
 1130SOL    HW214853   2.712   3.170   6.575 -0.3178  2.0558  0.7073
 1131SOL     OW14854   3.697   1.485  13.153 -0.0265  0.5953  0.0109
 1131SOL    HW114855   3.666   1.410  13.202 -2.2350  3.0039  2.2640
 1131SOL    HW214856   3.741   1.427  13.091 -0.9434 -0.9258  0.8077
 1132SOL     OW14857   2.236   2.595  15.164  0.2487 -0.6528  0.2050
 1132SOL    HW114858   2.164   2.623  15.221  0.5738 -0.8475  0.7074
 1132SOL    HW214859   2.250   2.684  15.130 -1.4499  0.2752  1.9474
 1133SOL     OW14860   3.360   2.277   7.190  0.5570  0.4900 -0.0720
 1133SOL    HW114861   3.279   2.275   7.240 -0.2141 -1.6090 -1.4387
 1133SOL    HW214862   3.334   2.344   7.127  3.1929  3.0096  1.5031
 1134SOL     OW14863   0.433   4.573   5.660 -0.0830  0.0758 -0.2159
 1134SOL    HW114864   0.459   4.524   5.738  0.1130  0.0962 -0.2682
 1134SOL    HW214865   0.514   4.619   5.638  0.3002 -1.3404 -1.7892
 1135SOL     OW14866   3.769   2.734   7.161 -0.0740  1.0456 -0.0734
 1135SOL    HW114867   3.698   2.672   7.175 -1.4782  2.3005 -1.6717
 1135SOL    HW214868   3.835   2.681   7.117  0.1570  1.5452 -0.3253
 1136SOL     OW14869   4.011   2.496   8.849  0.1952 -0.0716  0.1458
 1136SOL    HW114870   4.087   2.524   8.798  0.1845  0.9390  0.6835
 1136SOL    HW214871   4.015   2.401   8.843  0.7808  0.0398 -1.1203
 1137SOL     OW14872   0.262   4.258   9.406  0.5090 -0.2032  0.4523
 1137SOL    HW114873   0.303   4.316   9.469  0.5837 -2.3131  2.3433
 1137SOL    HW214874   0.309   4.177   9.426  0.6729 -0.3807 -0.6326
 1138SOL     OW14875   3.450   0.115   2.769 -0.1264 -0.0374 -0.1802
 1138SOL    HW114876   3.392   0.054   2.724 -1.2149  0.1430  0.9579
 1138SOL    HW214877   3.530   0.106   2.718  0.1574  1.0186  0.0797
 1139SOL     OW14878   3.766   0.934   5.173  0.3254  0.2312  0.0769
 1139SOL    HW114879   3.857   0.925   5.201  0.0877  1.7219  1.2866
 1139SOL    HW214880   3.781   0.999   5.104 -1.2537 -0.5504 -1.0135
 1140SOL     OW14881   2.929   1.392  15.647 -0.3467 -0.2635  0.2886
 1140SOL    HW114882   2.884   1.339  15.582 -2.3736  0.9824  0.6738
 1140SOL    HW214883   2.946   1.322  15.711 -1.8016 -1.2240 -0.3852
 1141SOL     OW14884   3.044   4.306   4.560 -0.0072 -0.5303  0.2908
 1141SOL    HW114885   3.066   4.394   4.591 -0.2985 -0.0639 -0.8170
 1141SOL    HW214886   3.099   4.297   4.482 -0.3455 -0.5772  0.0542
 1142SOL     OW14887   1.602   2.205   7.807  0.2838 -0.0890 -0.0710
 1142SOL    HW114888   1.530   2.266   7.824 -0.7035 -1.0684 -0.7737
 1142SOL    HW214889   1.547   2.127   7.806  2.3025 -1.4925 -2.3088
 1143SOL     OW14890   0.640   1.876  15.757  0.0111 -0.4267  0.2363
 1143SOL    HW114891   0.608   1.864  15.668  1.1539 -0.1388 -0.2092
 1143SOL    HW214892   0.598   1.803  15.801  0.8975 -0.6479  0.7239
 1144SOL     OW14893   2.300   0.278  15.454  0.0048 -0.5318 -0.0643
 1144SOL    HW114894   2.371   0.330  15.490 -2.4481  2.0225  1.0460
 1144SOL    HW214895   2.239   0.277  15.529 -0.4989 -1.4889 -0.4808
 1145SOL     OW14896   1.948   1.825  11.054  0.1812  0.2502  0.1182
 1145SOL    HW114897   1.925   1.915  11.077 -1.4464  0.1281 -1.0305
 1145SOL    HW214898   1.985   1.839  10.966 -0.1186  1.7591  0.2240
 1146SOL     OW14899   2.606   1.350  10.205  0.1147  0.5642 -0.2360
 1146SOL    HW114900   2.630   1.396  10.124 -1.9363  0.0179 -1.1442
 1146SOL    HW214901   2.629   1.261  10.175 -0.9983  0.4261 -0.6834
 1147SOL     OW14902   1.882   1.589   7.144  0.2419  0.7818 -0.3443
 1147SOL    HW114903   1.970   1.578   7.180 -0.2684  3.4343  1.7290
 1147SOL    HW214904   1.895   1.564   7.053  0.6057  1.6117 -0.5192
 1148SOL     OW14905   0.229   2.634   8.200  0.0907 -0.1230  0.7890
 1148SOL    HW114906   0.150   2.586   8.175  0.0256  0.9186 -0.9906
 1148SOL    HW214907   0.208   2.719   8.161  0.3875  1.0404  3.1640
 1149SOL     OW14908   2.007   1.173   7.263  0.1387  0.0716 -0.1502
 1149SOL    HW114909   2.082   1.125   7.299 -1.0932 -1.0185  0.9762
 1149SOL    HW214910   2.022   1.252   7.315  2.7493  0.2818 -1.1950
 1150SOL     OW14911   0.476   3.390  14.222  0.2666  0.2852  0.1387
 1150SOL    HW114912   0.465   3.391  14.127  1.1716  1.8501  0.0507
 1150SOL    HW214913   0.551   3.331  14.231  0.0016 -0.2194 -1.0079
 1151SOL     OW14914   0.513   4.544   6.379  0.3799 -0.2156  0.6017
 1151SOL    HW114915   0.500   4.459   6.422  1.6640 -0.4204  0.5769
 1151SOL    HW214916   0.526   4.599   6.457  3.6909  0.9700 -0.8061
 1152SOL     OW14917   3.176   4.274   4.980 -0.1661  0.6005  0.2086
 1152SOL    HW114918   3.182   4.367   4.958 -0.1582  0.0832 -1.9457
 1152SOL    HW214919   3.266   4.266   5.009  0.0337 -1.3521 -0.9670
 1153SOL     OW14920   3.042   2.089   2.795  0.0441  0.4833  0.4683
 1153SOL    HW114921   2.953   2.084   2.761 -1.0916  1.9056  3.2530
 1153SOL    HW214922   3.100   2.097   2.719  0.1470 -0.9156  0.3969
 1154SOL     OW14923   4.647   3.436   9.607  1.4589 -0.1721  0.1774
 1154SOL    HW114924   4.634   3.528   9.585  0.8359 -0.7494 -1.8439
 1154SOL    HW214925   0.013   3.431   9.649  1.9525 -0.5768 -0.9060
 1155SOL     OW14926   0.383   0.256   1.999  0.3206 -0.0294 -0.0350
 1155SOL    HW114927   0.475   0.232   2.009  0.1214  0.0242  1.9319
 1155SOL    HW214928   0.332   0.179   2.025 -2.3850  0.6003 -3.3937
 1156SOL     OW14929   3.858   0.997  13.054  0.6753  0.5324  0.3038
 1156SOL    HW114930   3.939   0.953  13.080  0.5838  0.9785  1.3275
 1156SOL    HW214931   3.868   1.081  13.098  1.1516  1.2676 -1.1951
 1157SOL     OW14932   4.039   2.669   0.384 -0.7015  0.3046  0.0934
 1157SOL    HW114933   4.024   2.691   0.292 -2.3968  1.8850  0.7494
 1157SOL    HW214934   4.089   2.587   0.386 -1.0340  0.1036  0.0716
 1158SOL     OW14935   1.989   3.648   5.574  0.7438 -0.4080  0.3377
 1158SOL    HW114936   1.898   3.636   5.548  1.1287  0.6239 -1.4347
 1158SOL    HW214937   1.974   3.732   5.617  1.4385  0.8078 -1.8334
 1159SOL     OW14938   2.709   3.419   1.735  0.1713  0.5608 -0.1338
 1159SOL    HW114939   2.723   3.513   1.719  0.6546  0.5625  0.2912
 1159SOL    HW214940   2.790   3.384   1.700  1.2438  2.5943  0.2642
 1160SOL     OW14941   1.020   0.122   2.008 -0.6330 -0.1640 -0.0549
 1160SOL    HW114942   0.962   0.064   1.958 -0.2598 -0.5297 -0.0611
 1160SOL    HW214943   0.986   0.208   1.983  1.1415  0.3667 -0.5933
 1161SOL     OW14944   2.953   1.571   2.488 -0.2306  0.0345  0.2869
 1161SOL    HW114945   3.004   1.635   2.538 -1.3216  1.2760 -0.1578
 1161SOL    HW214946   2.995   1.569   2.402 -0.4723 -0.2397  0.1751
 1162SOL     OW14947   2.016   4.685   6.488 -0.1541  0.2247  0.6979
 1162SOL    HW114948   1.938   4.720   6.532 -1.0296  1.1411 -1.5614
 1162SOL    HW214949   1.977   4.615   6.437  2.6503  1.3109 -2.9221
 1163SOL     OW14950   2.724   4.110  16.441  0.1428 -0.5619  0.7247
 1163SOL    HW114951   2.813   4.096  16.409  0.1008 -0.4465  0.5575
 1163SOL    HW214952   2.708   4.192  16.394  2.0516 -0.4901  0.1889
 1164SOL     OW14953   2.199   4.017   1.136 -0.8106  0.0635 -0.6054
 1164SOL    HW114954   2.230   3.950   1.074  0.7680  0.1989  0.0375
 1164SOL    HW214955   2.105   4.017   1.119 -0.8958 -3.2644 -0.0939
 1165SOL     OW14956   2.587   4.247   8.573  0.0773 -0.3024  0.3047
 1165SOL    HW114957   2.671   4.290   8.559 -0.8341  1.1446 -0.6118
 1165SOL    HW214958   2.530   4.324   8.577  0.6475  0.1610 -0.6972
 1166SOL     OW14959   2.936   3.824   5.874  0.3692 -0.4912  0.3236
 1166SOL    HW114960   2.886   3.743   5.876  0.6856 -0.6790  0.8922
 1166SOL    HW214961   2.886   3.882   5.932 -0.4123 -1.7178  0.8889
 1167SOL     OW14962   1.256   3.816  16.697 -0.2360  0.6375 -0.1086
 1167SOL    HW114963   1.297   3.789  16.780 -1.2434 -1.2112 -0.1957
 1167SOL    HW214964   1.220   3.904  16.710 -1.6059  0.0891 -0.1054
 1168SOL     OW14965   0.894   2.227  16.020 -0.5028 -0.1473  0.0751
 1168SOL    HW114966   0.831   2.156  16.011 -0.7704  0.2952 -1.4591
 1168SOL    HW214967   0.886   2.263  15.932  1.2437  1.6147  0.6381
 1169SOL     OW14968   1.360   2.005   8.682 -0.3087 -0.3876  0.0377
 1169SOL    HW114969   1.407   2.055   8.749 -0.0983  0.1653 -0.5326
 1169SOL    HW214970   1.396   1.916   8.684 -1.7862 -0.9472  2.3366
 1170SOL     OW14971   3.081   1.314  12.367 -0.1212 -0.0102  0.1613
 1170SOL    HW114972   3.030   1.256  12.311 -1.2071  1.0574  0.0559
 1170SOL    HW214973   3.161   1.324  12.315  0.6391 -0.0647  1.3231
 1171SOL     OW14974   2.777   0.579   3.672  0.0219  0.6241  0.2865
 1171SOL    HW114975   2.855   0.595   3.618 -0.8223  1.2628 -0.7204
 1171SOL    HW214976   2.759   0.665   3.711  2.6632  0.3433  2.1291
 1172SOL     OW14977   2.743   4.598   8.388  0.5863 -0.0887  0.0403
 1172SOL    HW114978   2.675   4.654   8.424 -0.0942 -1.6725  1.1957
 1172SOL    HW214979   2.819   4.656   8.397 -0.0033  0.3008  2.3806
 1173SOL     OW14980   3.826   1.484  15.844  1.0138 -0.0230  0.6302
 1173SOL    HW114981   3.784   1.568  15.826  1.8420  0.4471  0.9113
 1173SOL    HW214982   3.848   1.451  15.757 -2.2492 -0.9774  0.1377
 1174SOL     OW14983   0.030   4.117   1.008 -0.0970 -0.0560  0.2986
 1174SOL    HW114984   4.715   4.104   0.919 -0.9557  0.1855  0.5976
 1174SOL    HW214985   4.674   4.096   1.062  0.0635  0.6660  0.8061
 1175SOL     OW14986   2.555   3.427   8.487 -0.5218 -0.9025 -0.3288
 1175SOL    HW114987   2.520   3.430   8.576 -1.4199 -1.3730 -0.6656
 1175SOL    HW214988   2.627   3.367   8.503  0.4461 -0.0247 -1.3922
 1176SOL     OW14989   3.011   4.545   4.985  0.0418 -0.0397 -0.5081
 1176SOL    HW114990   3.078   4.507   4.929  1.1204  1.8067 -0.4561
 1176SOL    HW214991   3.023   4.635   4.956  1.0152 -0.0951 -0.2684
 1177SOL     OW14992   2.791   1.162   5.255 -0.0994  0.6854 -0.0716
 1177SOL    HW114993   2.785   1.253   5.284  1.1941  0.7234  0.0755
 1177SOL    HW214994   2.746   1.122   5.330 -0.9125  2.3689  0.3297
 1178SOL     OW14995   3.697   0.885   3.154 -0.2459  0.0888 -0.6408
 1178SOL    HW114996   3.751   0.957   3.185  0.6694 -0.7646 -0.2447
 1178SOL    HW214997   3.729   0.861   3.067 -0.1567  0.5055 -0.7198
 1179SOL     OW14998   0.806   1.754   4.450 -1.0255 -0.2890  0.3392
 1179SOL    HW114999   0.891   1.714   4.430 -0.4217 -0.0354  2.4380
 1179SOL    HW215000   0.772   1.688   4.510 -2.6870  0.6551  0.4251
 1180SOL     OW15001   2.310   2.393  17.631  0.5488  0.0137  0.5112
 1180SOL    HW115002   2.221   2.370  17.658  0.1487 -1.0316 -1.6620
 1180SOL    HW215003   2.288   2.414  17.540 -1.0032 -0.8632  0.6817
 1181SOL     OW15004   2.263   3.596   8.705 -0.2606  0.1340 -0.0391
 1181SOL    HW115005   2.324   3.524   8.710 -1.0494 -0.6349 -1.3839
 1181SOL    HW215006   2.321   3.670   8.685  1.5222 -0.5371  2.7070
 1182SOL     OW15007   2.333   0.802   0.526  0.1499 -0.3923  0.4026
 1182SOL    HW115008   2.343   0.868   0.458 -0.4342 -1.7336 -0.9811
 1182SOL    HW215009   2.263   0.841   0.579 -1.1948 -1.0768 -0.8499
 1183SOL     OW15010   3.940   1.592   7.209  0.1499 -0.9207  0.6409
 1183SOL    HW115011   4.027   1.588   7.170  0.6085 -0.7741  1.6425
 1183SOL    HW215012   3.936   1.500   7.236 -0.7466 -0.6832  1.3331
 1184SOL     OW15013   4.074   3.098   0.469 -0.0743  0.2048 -0.5528
 1184SOL    HW115014   4.009   3.156   0.508 -1.0583  0.0589 -1.9773
 1184SOL    HW215015   4.061   3.119   0.376  0.2301  2.5771 -0.0510
 1185SOL     OW15016   1.988   2.326   5.024  0.0544  0.2094 -0.3711
 1185SOL    HW115017   2.064   2.374   5.058 -0.4585  0.1663  0.8163
 1185SOL    HW215018   2.023   2.237   5.023  0.5351  0.3511  3.3076
 1186SOL     OW15019   3.559   0.166   4.237  0.1313 -0.8502 -0.1933
 1186SOL    HW115020   3.580   0.117   4.157  1.9255  0.4981 -0.5692
 1186SOL    HW215021   3.467   0.148   4.252 -0.9072  4.4800 -0.2409
 1187SOL     OW15022   1.896   0.408   8.700 -0.0114 -0.0315 -0.0472
 1187SOL    HW115023   1.906   0.367   8.613  1.1105  0.7628 -0.2861
 1187SOL    HW215024   1.938   0.492   8.682 -1.7804  0.9711  0.4719
 1188SOL     OW15025   4.466   0.272   4.767  0.0902  0.0361  0.8026
 1188SOL    HW115026   4.518   0.250   4.844 -1.1485  2.0793  2.2463
 1188SOL    HW215027   4.495   0.362   4.755  1.4578 -0.0583  3.3646
 1189SOL     OW15028   4.577   0.512   9.737  0.6042  0.3590 -0.0564
 1189SOL    HW115029   4.504   0.490   9.679  1.6034 -0.7510 -0.9046
 1189SOL    HW215030   4.648   0.521   9.673  0.7366  0.2291  0.0729
 1190SOL     OW15031   0.573   2.278   0.479  0.4399 -0.5925  0.0972
 1190SOL    HW115032   0.572   2.184   0.461 -0.3213 -0.7257  0.8343
 1190SOL    HW215033   0.515   2.317   0.414 -0.9440  2.3627  3.1185
 1191SOL     OW15034   3.294   0.547  13.916  0.1213  0.2290  0.0927
 1191SOL    HW115035   3.375   0.590  13.941  1.7244 -1.9710 -1.3285
 1191SOL    HW215036   3.278   0.593  13.833 -1.1917 -1.3125 -0.5036
 1192SOL     OW15037   3.430   3.614  14.959 -0.1576 -0.0419 -0.5835
 1192SOL    HW115038   3.440   3.667  15.038 -1.1286  1.4809 -1.4919
 1192SOL    HW215039   3.475   3.538  14.995 -0.0569  0.3256  0.0708
 1193SOL     OW15040   3.382   1.306   6.861 -0.8511  0.3676  0.4805
 1193SOL    HW115041   3.308   1.362   6.839 -0.8066  0.4318  0.4936
 1193SOL    HW215042   3.389   1.260   6.778 -2.9988  0.4467  0.2577
 1194SOL     OW15043   1.874   2.396   9.208  0.5777 -0.0147 -0.8851
 1194SOL    HW115044   1.934   2.407   9.282 -0.6461  0.2947  0.0597
 1194SOL    HW215045   1.894   2.483   9.173  2.4626  0.1517  0.5817
 1195SOL     OW15046   1.466   1.785   2.806 -0.0699 -0.2124  0.0211
 1195SOL    HW115047   1.502   1.868   2.839 -2.4034 -0.1444  2.3910
 1195SOL    HW215048   1.525   1.726   2.852  0.6529  0.6018  0.1411
 1196SOL     OW15049   2.626   0.078   5.362  0.3764  0.0713  0.1136
 1196SOL    HW115050   2.659   0.021   5.292 -0.8530 -0.1159 -0.3254
 1196SOL    HW215051   2.711   0.099   5.400  0.3738  0.1748  0.0607
 1197SOL     OW15052   3.528   2.997  15.159  0.3980 -0.5946  0.3195
 1197SOL    HW115053   3.547   2.915  15.204  2.4766  0.1761  0.8493
 1197SOL    HW215054   3.581   2.978  15.081  0.5408 -0.4096  0.3720
 1198SOL     OW15055   0.994   1.362   1.800  0.3345 -0.1463  0.2996
 1198SOL    HW115056   0.904   1.394   1.798  1.1426  1.8768 -3.5211
 1198SOL    HW215057   0.993   1.339   1.893  0.8855 -1.7910 -0.0983
 1199SOL     OW15058   1.383   4.687   6.043  0.3737  0.4255  0.4736
 1199SOL    HW115059   1.360   0.026   6.115 -0.2176  1.1993 -0.3358
 1199SOL    HW215060   1.307   4.690   5.985 -0.3025  5.3089  1.6443
 1200SOL     OW15061   2.834   0.062   8.728 -0.1895  0.3618 -0.1220
 1200SOL    HW115062   2.762   0.012   8.765  0.9794 -2.0005 -1.0466
 1200SOL    HW215063   2.866   0.005   8.658 -3.1266  1.0733 -2.0293
 1201SOL     OW15064   3.344   1.269   2.411 -0.4119  0.3178  0.4795
 1201SOL    HW115065   3.364   1.298   2.322 -0.5463  0.2113  0.4138
 1201SOL    HW215066   3.303   1.186   2.383  1.0702 -0.3049  0.1556
 1202SOL     OW15067   1.358   3.608   5.367 -0.5151 -0.4378 -0.2818
 1202SOL    HW115068   1.436   3.637   5.320  0.4075 -0.1553  1.4243
 1202SOL    HW215069   1.377   3.535   5.425  0.2609  0.3198  0.4127
 1203SOL     OW15070   1.899   4.101   1.725 -0.5701 -0.0455 -0.5314
 1203SOL    HW115071   1.891   4.058   1.640 -2.4494 -0.5798 -0.0862
 1203SOL    HW215072   1.806   4.116   1.736 -0.5635 -0.3323 -0.0732
 1204SOL     OW15073   2.816   4.303  17.137  0.3707 -0.3510 -0.2296
 1204SOL    HW115074   2.734   4.351  17.130  0.0933 -0.9414 -0.9589
 1204SOL    HW215075   2.891   4.357  17.110 -0.7535  0.6087 -1.4176
 1205SOL     OW15076   0.690   3.292   5.648  0.3007 -0.1003 -0.1175
 1205SOL    HW115077   0.607   3.250   5.668 -0.9514  1.5854 -1.8191
 1205SOL    HW215078   0.741   3.294   5.729 -1.1894 -1.3281  0.8563
 1206SOL     OW15079   2.110   0.151  16.949  0.7746 -0.0357  0.0886
 1206SOL    HW115080   2.184   0.154  16.889 -2.9263  1.1524 -4.4208
 1206SOL    HW215081   2.074   0.240  16.952  1.1497  0.1799 -2.7624
 1207SOL     OW15082   4.604   4.245   8.523  0.1215 -0.1774  0.2150
 1207SOL    HW115083   4.588   4.174   8.462 -0.5564 -0.2619  0.4991
 1207SOL    HW215084   4.527   4.225   8.575 -0.4394  2.0310  0.2590
 1208SOL     OW15085   2.384   0.505  15.845  0.7104 -0.6748 -0.9583
 1208SOL    HW115086   2.464   0.553  15.863 -0.8224  0.9088  1.6891
 1208SOL    HW215087   2.377   0.431  15.905  2.4737 -0.7074 -0.8125
 1209SOL     OW15088   4.662   3.040  13.228  0.2226 -0.2115 -0.1671
 1209SOL    HW115089   4.627   3.069  13.312  1.1600  1.7084 -0.4328
 1209SOL    HW215090   4.608   2.962  13.214  0.8900 -0.7019 -0.0313
 1210SOL     OW15091   2.356   1.446   7.008 -0.7038  0.6315 -0.1727
 1210SOL    HW115092   2.324   1.531   7.039  0.7094  1.4354 -0.8902
 1210SOL    HW215093   2.425   1.467   6.945 -0.6495  2.2373  0.4083
 1211SOL     OW15094   3.040   2.885  10.542  0.0740 -0.3071  0.2541
 1211SOL    HW115095   3.119   2.890  10.487  0.5160 -1.3880  0.7911
 1211SOL    HW215096   2.971   2.872  10.478 -0.1792 -1.6531  0.8039
 1212SOL     OW15097   2.624   0.724   5.440  0.6141  0.7149 -0.1362
 1212SOL    HW115098   2.536   0.688   5.428  1.2434  0.0012 -2.5998
 1212SOL    HW215099   2.626   0.744   5.534 -1.6054  1.6804 -0.2962
 1213SOL     OW15100   1.655   3.287  14.107  0.4903  0.1190 -0.4439
 1213SOL    HW115101   1.570   3.246  14.126  1.3991 -1.2734  0.6598
 1213SOL    HW215102   1.634   3.344  14.033 -1.2386  0.1754  0.0871
 1214SOL     OW15103   2.762   3.030   6.098 -0.3175 -0.3010 -0.2908
 1214SOL    HW115104   2.839   3.017   6.153  0.0768 -2.0778 -1.2895
 1214SOL    HW215105   2.716   3.093   6.154 -0.2498 -0.2940 -0.2428
 1215SOL     OW15106   0.419   3.766   5.027  0.2537  0.2190 -0.3882
 1215SOL    HW115107   0.470   3.812   5.094 -0.3680  1.2523 -0.6305
 1215SOL    HW215108   0.398   3.844   4.975 -1.5486  0.0973  0.1777
 1216SOL     OW15109   2.180   2.425   8.479  0.2041 -0.4735 -0.0635
 1216SOL    HW115110   2.154   2.343   8.437  1.8807 -1.9007  1.6859
 1216SOL    HW215111   2.263   2.407   8.523  1.0744 -0.0601 -1.5196
 1217SOL     OW15112   0.257   2.225   6.482  0.1396 -0.0405  0.0319
 1217SOL    HW115113   0.189   2.273   6.435  0.4984  0.4161 -0.0163
 1217SOL    HW215114   0.238   2.247   6.573 -1.9147 -2.7504  0.2877
 1218SOL     OW15115   2.770   1.168   8.633 -0.1430  0.3493  0.1915
 1218SOL    HW115116   2.730   1.142   8.550  1.7666 -2.7718  0.2602
 1218SOL    HW215117   2.782   1.081   8.670  0.4614 -0.7175 -2.4899
 1219SOL     OW15118   2.470   1.543   0.935 -0.2874  0.1970  0.3459
 1219SOL    HW115119   2.422   1.548   0.852  1.8992  0.5230 -0.8923
 1219SOL    HW215120   2.477   1.449   0.953 -1.1357  0.1007  0.1910
 1220SOL     OW15121   2.973   3.810  13.991  0.5533  0.4746  0.3062
 1220SOL    HW115122   3.048   3.785  13.937  1.5981  2.5168  0.7952
 1220SOL    HW215123   2.976   3.734  14.049 -0.8670 -0.0459 -0.3164
 1221SOL     OW15124   0.822   3.723   2.448  0.5871 -0.2590 -0.0799
 1221SOL    HW115125   0.787   3.810   2.429 -1.4070 -1.3956 -1.5339
 1221SOL    HW215126   0.743   3.674   2.470 -0.0578 -0.0012 -1.8488
 1222SOL     OW15127   2.001   3.302  10.465  0.5892 -0.0126  0.1876
 1222SOL    HW115128   1.977   3.214  10.497 -0.2833 -0.0078 -0.4411
 1222SOL    HW215129   2.095   3.303  10.482  0.4272 -0.0986  1.1289
 1223SOL     OW15130   0.755   0.076   9.599  0.5383 -0.1461  0.6721
 1223SOL    HW115131   0.710   0.158   9.577 -0.8887 -1.1275 -0.0843
 1223SOL    HW215132   0.697   0.046   9.669  0.9250 -0.6142  0.7908
 1224SOL     OW15133   4.479   2.241   8.406 -0.6331 -0.3553 -0.7752
 1224SOL    HW115134   4.543   2.201   8.348 -0.2663  0.5772 -1.0153
 1224SOL    HW215135   4.516   2.328   8.426 -1.1464 -0.6816  1.6645
 1225SOL     OW15136   3.062   1.679   3.471 -0.4246  0.2679  0.2497
 1225SOL    HW115137   3.032   1.674   3.380 -1.1692 -0.1784  0.5133
 1225SOL    HW215138   3.013   1.607   3.510 -0.8949 -1.8455 -4.2862
 1226SOL     OW15139   2.489   3.722  14.873 -0.4280  0.2720  0.0278
 1226SOL    HW115140   2.553   3.674  14.925 -0.9614  0.1952  0.6171
 1226SOL    HW215141   2.406   3.685  14.903 -0.1403 -0.1406  0.3260
 1227SOL     OW15142   0.350   4.424   7.597  0.3777 -0.0904  0.1641
 1227SOL    HW115143   0.388   4.396   7.513 -0.8791  0.8234 -0.7229
 1227SOL    HW215144   0.297   4.348   7.622 -0.3928 -0.1188 -1.5136
 1228SOL     OW15145   4.107   0.424   3.341 -0.4958  0.0336  0.1682
 1228SOL    HW115146   4.146   0.348   3.385  1.2109 -0.3874 -2.0424
 1228SOL    HW215147   4.110   0.491   3.409  1.1077 -1.7729  1.8770
 1229SOL     OW15148   3.937   0.519  10.499 -0.1582  0.3274 -0.7703
 1229SOL    HW115149   4.001   0.535  10.568 -0.6358 -1.4216  0.1011
 1229SOL    HW215150   3.894   0.434  10.509 -0.2080  0.5033  0.5002
 1230SOL     OW15151   2.882   2.985   4.871 -0.8966 -0.0806  0.3415
 1230SOL    HW115152   2.870   3.041   4.795 -3.4986 -1.6582 -0.4057
 1230SOL    HW215153   2.892   2.896   4.837  1.1283  0.0308  0.6288
 1231SOL     OW15154   0.067   0.887  16.759  0.0328  0.5424  0.2897
 1231SOL    HW115155   0.054   0.862  16.851 -2.1475 -0.0744 -0.1837
 1231SOL    HW215156   4.713   0.948  16.759 -2.1963 -2.1488 -3.6022
 1232SOL     OW15157   2.141   2.167  15.292 -0.1125  0.0871 -0.2990
 1232SOL    HW115158   2.075   2.123  15.345  0.0018 -0.8532 -0.9446
 1232SOL    HW215159   2.161   2.105  15.222 -0.0568 -1.4991  1.1418
 1233SOL     OW15160   0.446   2.172   4.094  0.1759  0.1984  0.5333
 1233SOL    HW115161   0.480   2.183   4.005 -1.6330 -1.1961 -0.3283
 1233SOL    HW215162   0.440   2.077   4.099  0.9211  0.1366  0.2198
 1234SOL     OW15163   3.403   3.116   8.060  0.1115  0.4901 -0.7226
 1234SOL    HW115164   3.320   3.163   8.069 -0.0631 -0.8631  4.5436
 1234SOL    HW215165   3.421   3.091   8.150  2.2811  1.2239 -0.9670
 1235SOL     OW15166   2.567   1.303   8.729  0.5126  0.2440  0.3707
 1235SOL    HW115167   2.593   1.307   8.821 -0.5752 -2.7167  0.7824
 1235SOL    HW215168   2.619   1.232   8.692 -1.6454 -0.7896 -0.6160
 1236SOL     OW15169   3.111   2.591   5.608  0.6214  0.0597  0.5233
 1236SOL    HW115170   3.191   2.553   5.571 -0.6481  0.3179 -2.4449
 1236SOL    HW215171   3.125   2.611   5.701 -1.0198  1.3521  0.4802
 1237SOL     OW15172   2.553   3.451   2.394 -0.1493  0.0214  0.0604
 1237SOL    HW115173   2.505   3.374   2.363  2.2057 -1.4925  0.1633
 1237SOL    HW215174   2.588   3.484   2.311  0.7000  0.0582  0.4307
 1238SOL     OW15175   4.489   4.590  10.592  0.4175 -0.1244 -0.0146
 1238SOL    HW115176   4.472   4.648  10.666  2.1552  0.6168 -0.2037
 1238SOL    HW215177   4.535   4.521  10.641  0.4595 -0.1576 -0.1007
 1239SOL     OW15178   4.301   0.576   5.412 -0.0060  0.6866  0.6442
 1239SOL    HW115179   4.329   0.488   5.440 -1.7842 -0.3830 -0.9567
 1239SOL    HW215180   4.335   0.621   5.489 -0.2491  1.7681  0.1161
 1240SOL     OW15181   3.654   3.514  15.625  0.2761 -0.2032 -0.0502
 1240SOL    HW115182   3.654   3.450  15.696 -1.1877  0.7651  0.8367
 1240SOL    HW215183   3.706   3.588  15.659 -0.4809  0.1410  0.3690
 1241SOL     OW15184   0.828   0.852   5.786  0.2415  0.5561 -1.0126
 1241SOL    HW115185   0.875   0.930   5.755  1.5424 -0.2930 -1.1649
 1241SOL    HW215186   0.749   0.856   5.732 -1.7204 -0.3464  1.8375
 1242SOL     OW15187   2.743   3.138   6.863 -0.4587  0.1368 -0.1148
 1242SOL    HW115188   2.802   3.070   6.894  0.3403  0.9863  0.2539
 1242SOL    HW215189   2.686   3.084   6.809 -0.6172  0.2990 -0.1085
 1243SOL     OW15190   0.787   2.637   3.728  0.0212  0.1584  0.1476
 1243SOL    HW115191   0.719   2.700   3.701  1.2374  1.8297  1.0147
 1243SOL    HW215192   0.847   2.699   3.770 -2.4065 -0.2052  4.1937
 1244SOL     OW15193   2.664   0.940  12.238 -0.0737 -0.5915  0.3872
 1244SOL    HW115194   2.692   0.943  12.330 -2.0493 -0.1710  0.9680
 1244SOL    HW215195   2.689   1.028  12.209  1.0426 -1.4472 -1.2635
 1245SOL     OW15196   4.423   3.418   3.196 -0.6131 -0.0138 -0.8682
 1245SOL    HW115197   4.434   3.506   3.161 -0.6936  1.0016  1.6465
 1245SOL    HW215198   4.426   3.371   3.113 -1.2967 -0.5708 -0.5803
 1246SOL     OW15199   1.001   2.356   8.350 -0.0121  0.3510  0.0862
 1246SOL    HW115200   0.992   2.451   8.358  0.9855  0.2720  2.0987
 1246SOL    HW215201   0.911   2.328   8.337  0.4799 -1.8107  1.3989
 1247SOL     OW15202   4.680   4.285   3.402  0.0916 -0.1111  0.1086
 1247SOL    HW115203   0.048   4.251   3.422 -0.0876 -0.0106  1.0796
 1247SOL    HW215204   4.688   4.322   3.314 -0.5781  1.1089  0.5566
 1248SOL     OW15205   3.677   0.790  12.031 -0.3539  0.3785  0.5800
 1248SOL    HW115206   3.658   0.748  11.948 -0.8001 -0.7159  1.2403
 1248SOL    HW215207   3.694   0.881  12.009 -0.6230  0.9294  2.5803
 1249SOL     OW15208   2.300   0.002   7.995  0.2036  0.4967  0.1052
 1249SOL    HW115209   2.243   0.032   7.924 -0.2803 -1.6056 -0.4134
 1249SOL    HW215210   2.235   4.703   8.063 -0.3270 -1.4020 -0.8979
 1250SOL     OW15211   4.298   1.090   3.901 -0.3731  0.0103  0.2121
 1250SOL    HW115212   4.391   1.097   3.877 -0.3648 -1.8641 -0.3051
 1250SOL    HW215213   4.252   1.076   3.818  0.4500  2.5822 -0.6647
 1251SOL     OW15214   3.833   4.654   7.844 -0.0705  0.2698  0.2149
 1251SOL    HW115215   3.921   4.689   7.834 -1.3338  3.6530  1.1003
 1251SOL    HW215216   3.844   4.570   7.888  1.0948  0.7939  0.9104
 1252SOL     OW15217   1.308   3.452   4.220 -0.2598  0.3625  0.1738
 1252SOL    HW115218   1.287   3.450   4.314 -1.1739  1.2843  0.0010
 1252SOL    HW215219   1.349   3.538   4.213  0.5767 -0.2260 -2.0390
 1253SOL     OW15220   3.798   4.460   4.980  0.1171 -0.5991  0.2331
 1253SOL    HW115221   3.727   4.494   4.926  2.4675 -1.4059 -3.3603
 1253SOL    HW215222   3.854   4.423   4.911  0.3080  0.9562 -0.4459
 1254SOL     OW15223   3.373   0.590   5.704  0.6694  0.0785 -0.0153
 1254SOL    HW115224   3.362   0.542   5.786 -1.7035  0.9633  0.1959
 1254SOL    HW215225   3.451   0.640   5.728  0.5746 -0.0135  0.4930
 1255SOL     OW15226   0.553   2.391   8.802 -0.0410 -0.2692 -0.6077
 1255SOL    HW115227   0.625   2.354   8.853 -1.4886 -0.8365  1.0698
 1255SOL    HW215228   0.546   2.469   8.858 -0.5884 -0.5896 -0.2221
 1256SOL     OW15229   0.247   1.659   5.058  0.0051 -0.4138  0.0481
 1256SOL    HW115230   0.162   1.639   5.098  0.7643 -0.4981  1.6258
 1256SOL    HW215231   0.281   1.727   5.116 -0.3691 -0.2011  0.0200
 1257SOL     OW15232   3.260   2.263  13.140  0.5568  0.0731  0.3666
 1257SOL    HW115233   3.214   2.317  13.075  2.1816 -0.5067 -1.2674
 1257SOL    HW215234   3.185   2.233  13.192  0.6961 -0.4098  0.2931
 1258SOL     OW15235   0.068   0.242  15.309 -0.1960  0.0979  0.0263
 1258SOL    HW115236   0.071   0.329  15.349  0.0356 -1.1039  2.5683
 1258SOL    HW215237   0.116   0.190  15.373  0.0154 -0.8128 -0.8673
 1259SOL     OW15238   1.426   3.120  12.652 -0.2017  0.3175 -0.1227
 1259SOL    HW115239   1.479   3.170  12.589  1.9458  1.4711  2.6103
 1259SOL    HW215240   1.337   3.116  12.618 -0.4043  0.5419  0.3787
 1260SOL     OW15241   3.904   2.819   5.018  0.3128  0.2315 -0.4031
 1260SOL    HW115242   3.927   2.743   5.071 -1.0668 -0.6589 -1.0810
 1260SOL    HW215243   3.916   2.896   5.074 -0.2429  1.1861 -1.5904
 1261SOL     OW15244   2.386   4.497   3.788 -0.1832 -0.7015  0.4274
 1261SOL    HW115245   2.343   4.465   3.867 -1.6952 -0.5147 -0.3335
 1261SOL    HW215246   2.395   4.590   3.811  1.7794 -0.9376  0.6205
 1262SOL     OW15247   0.093   1.193  11.853 -0.7817 -0.4108 -0.6458
 1262SOL    HW115248   0.019   1.253  11.844  0.3056  1.3637  2.4009
 1262SOL    HW215249   0.157   1.230  11.792  0.3248 -0.9780  0.1772
 1263SOL     OW15250   2.372   2.379   2.038 -0.1437 -0.2010 -0.1023
 1263SOL    HW115251   2.279   2.361   2.024 -0.0912 -2.2705  2.2204
 1263SOL    HW215252   2.395   2.420   1.954 -0.2995 -0.3573 -0.2196
 1264SOL     OW15253   1.106   0.086   8.576  0.0165  0.7048 -0.1052
 1264SOL    HW115254   1.029   0.136   8.602 -0.1489 -0.2017  1.1909
 1264SOL    HW215255   1.083   0.065   8.486 -2.6815  0.3907  0.6553
 1265SOL     OW15256   4.671   3.166   2.727 -0.4688  0.4833 -0.6060
 1265SOL    HW115257   0.014   3.190   2.659  0.5219  2.3023  0.9697
 1265SOL    HW215258   0.016   3.135   2.790 -0.4345  0.6382 -0.5647
 1266SOL     OW15259   3.708   3.588   7.156  0.1007 -0.3872  0.5081
 1266SOL    HW115260   3.732   3.524   7.089 -2.5786 -0.9730  0.1100
 1266SOL    HW215261   3.676   3.530   7.225 -0.3810  0.3929  0.9473
 1267SOL     OW15262   0.805   3.848   6.209 -0.0893 -0.2785  0.2801
 1267SOL    HW115263   0.791   3.754   6.199  1.0117 -0.6535  2.2230
 1267SOL    HW215264   0.809   3.868   6.116  0.1565 -1.5310  0.0339
 1268SOL     OW15265   2.285   2.189   5.110  0.1055  0.0454  0.3840
 1268SOL    HW115266   2.265   2.281   5.126 -1.2291 -0.0522 -0.6194
 1268SOL    HW215267   2.301   2.188   5.015 -1.6386  0.5008  0.0790
 1269SOL     OW15268   2.557   2.280   6.835 -0.1876  0.4043  0.7220
 1269SOL    HW115269   2.572   2.267   6.741 -2.1726 -0.7185  0.5679
 1269SOL    HW215270   2.606   2.360   6.856  2.9160 -1.2151 -0.2748
 1270SOL     OW15271   4.592   3.743   5.502  0.1761  0.8988 -0.3494
 1270SOL    HW115272   4.660   3.772   5.441  0.2842  1.2283 -0.0733
 1270SOL    HW215273   4.629   3.668   5.549  1.2367  0.6961 -1.5147
 1271SOL     OW15274   1.425   0.308   6.453  0.3084  0.0327 -0.2028
 1271SOL    HW115275   1.475   0.239   6.408 -0.1046  0.4055 -1.2320
 1271SOL    HW215276   1.423   0.371   6.381 -0.1727  1.9563  1.4989
 1272SOL     OW15277   4.656   1.803   8.172 -0.0380 -0.0147  0.0460
 1272SOL    HW115278   4.635   1.732   8.233 -0.2580 -2.6083 -3.0406
 1272SOL    HW215279   4.648   1.757   8.088 -0.3200  0.4646 -0.1895
 1273SOL     OW15280   1.344   3.871  13.399 -0.1341 -0.1982 -0.3943
 1273SOL    HW115281   1.376   3.782  13.413  0.2557  0.0162  0.0824
 1273SOL    HW215282   1.333   3.896  13.491  0.1338 -1.6003  0.0231
 1274SOL     OW15283   3.776   1.618   5.238 -0.1155  0.4170  0.3570
 1274SOL    HW115284   3.696   1.594   5.191  0.9545 -1.7214 -0.3336
 1274SOL    HW215285   3.781   1.712   5.222 -1.2381  0.8299  2.4095
 1275SOL     OW15286   1.875   1.379  13.210  0.0133 -0.2808 -0.7234
 1275SOL    HW115287   1.899   1.392  13.302 -2.0291 -0.5827 -0.1481
 1275SOL    HW215288   1.952   1.335  13.173 -1.3104 -2.1994 -1.1743
 1276SOL     OW15289   1.927   4.285   8.797 -0.1032 -0.4903  0.3220
 1276SOL    HW115290   1.943   4.206   8.850  0.3671 -2.0161 -2.0871
 1276SOL    HW215291   1.859   4.329   8.848  0.1224 -0.0250  0.2116
 1277SOL     OW15292   0.968   2.966   4.802  0.6822 -0.2268 -0.3908
 1277SOL    HW115293   0.889   2.924   4.837  1.9408 -2.2357  0.0064
 1277SOL    HW215294   0.928   3.038   4.753 -0.7369 -0.6539  0.1263
 1278SOL     OW15295   3.205   4.339   3.138  0.3109 -0.3912 -0.0367
 1278SOL    HW115296   3.232   4.422   3.098  2.0877 -0.1943  1.5859
 1278SOL    HW215297   3.287   4.292   3.124 -1.1844 -1.7710 -4.0752
 1279SOL     OW15298   3.142   1.833   2.908 -0.3912  0.6160 -0.1208
 1279SOL    HW115299   3.227   1.839   2.951 -1.2356  1.1546  1.4561
 1279SOL    HW215300   3.121   1.926   2.908  0.7480  0.8706  0.2414
 1280SOL     OW15301   1.258   1.091   4.432  0.2614 -0.1389  0.1993
 1280SOL    HW115302   1.219   1.074   4.518  2.2980 -2.1678  0.7177
 1280SOL    HW215303   1.305   1.174   4.443  2.3718 -1.5552  1.9706
 1281SOL     OW15304   3.784   3.092   5.692  0.5687  0.0471 -0.4916
 1281SOL    HW115305   3.780   3.055   5.781  4.9845  1.6169  0.3510
 1281SOL    HW215306   3.694   3.079   5.662  0.5213 -0.6846 -0.0277
 1282SOL     OW15307   2.037   4.095   8.128  1.4547 -0.4708  0.8330
 1282SOL    HW115308   2.108   4.031   8.127  0.8415 -1.1462  0.4068
 1282SOL    HW215309   2.081   4.157   8.186 -1.1023 -0.6082  2.9333
 1283SOL     OW15310   4.110   2.116   3.450 -0.0381  0.2598 -0.1250
 1283SOL    HW115311   4.090   2.056   3.522 -2.5820 -0.9527 -1.8451
 1283SOL    HW215312   4.047   2.187   3.462  1.8927  1.6946  1.5362
 1284SOL     OW15313   0.869   1.696   8.392 -0.3723 -0.4865  0.5004
 1284SOL    HW115314   0.856   1.791   8.397 -2.1887 -0.6105 -1.9641
 1284SOL    HW215315   0.800   1.658   8.447  0.3159 -0.8046  1.1482
 1285SOL     OW15316   4.255   3.713   1.920 -0.0637 -0.1068  0.0243
 1285SOL    HW115317   4.171   3.692   1.880  0.3101  0.8618 -1.2605
 1285SOL    HW215318   4.250   3.671   2.006  2.1700  0.0120  0.2171
 1286SOL     OW15319   1.389   0.043   5.651 -0.2501 -0.3212 -0.4235
 1286SOL    HW115320   1.344   0.115   5.606  0.2745 -0.0119 -0.4540
 1286SOL    HW215321   1.401   4.701   5.579  0.0468 -0.0963 -0.5675
 1287SOL     OW15322   3.524   0.301   2.465 -0.0236  0.0168 -0.1471
 1287SOL    HW115323   3.479   0.227   2.425  1.3361 -0.7754 -0.2207
 1287SOL    HW215324   3.614   0.305   2.432 -0.8558  2.6070 -2.0992
 1288SOL     OW15325   2.363   3.229   6.433 -0.1722 -0.2524 -0.2016
 1288SOL    HW115326   2.271   3.202   6.434  0.3712 -2.0737  1.9195
 1288SOL    HW215327   2.408   3.144   6.428  0.4710 -0.0745  2.2018
 1289SOL     OW15328   1.931   0.908   5.603  0.3112 -0.1807  0.4190
 1289SOL    HW115329   1.897   0.869   5.683 -1.2041  2.6025  1.1228
 1289SOL    HW215330   1.872   0.872   5.537 -0.3947 -0.5910  1.2754
 1290SOL     OW15331   4.679   4.222  13.653  0.3212 -0.0659  0.3532
 1290SOL    HW115332   4.719   4.225  13.566  1.9406 -2.7317  0.9909
 1290SOL    HW215333   4.623   4.144  13.652  0.9507 -0.5198 -0.6835
 1291SOL     OW15334   4.063   3.369  12.269 -0.2625 -0.2629 -0.0823
 1291SOL    HW115335   4.092   3.437  12.208  0.7480 -0.4594  0.1810
 1291SOL    HW215336   4.052   3.410  12.355  0.6973  2.3999 -1.2501
 1292SOL     OW15337   0.672   0.388  12.952 -0.1775 -0.5611  0.1958
 1292SOL    HW115338   0.741   0.429  12.900  0.5369 -1.9502  0.0330
 1292SOL    HW215339   0.616   0.459  12.982 -0.4191 -0.5757 -0.2149
 1293SOL     OW15340   3.454   1.814   5.966  0.0451  0.5267 -0.1115
 1293SOL    HW115341   3.525   1.773   5.917  1.3417  0.0939  2.1376
 1293SOL    HW215342   3.506   1.845   6.040  0.0743 -0.1778  0.1638
 1294SOL     OW15343   3.679   2.567   6.768 -0.7522  0.2550 -0.4283
 1294SOL    HW115344   3.732   2.512   6.825 -0.0431 -0.5459 -1.8373
 1294SOL    HW215345   3.590   2.532   6.780 -0.0301 -1.9540 -1.3169
 1295SOL     OW15346   3.030   1.255  15.187  0.6597  0.3651 -0.8061
 1295SOL    HW115347   3.115   1.229  15.224  0.9976  0.4611 -1.4945
 1295SOL    HW215348   3.019   1.336  15.236  0.3139  0.3464 -0.8529
 1296SOL     OW15349   2.234   0.710   3.742 -0.0538  0.2362 -0.4564
 1296SOL    HW115350   2.244   0.684   3.834  1.6726 -0.7521 -0.9268
 1296SOL    HW215351   2.302   0.777   3.731  0.8272 -1.2953 -4.1762
 1297SOL     OW15352   4.290   3.718   7.253  0.2739 -0.1159  0.1512
 1297SOL    HW115353   4.360   3.703   7.189  0.2480 -0.5161  0.2138
 1297SOL    HW215354   4.293   3.812   7.271 -0.0722 -0.0344 -0.2354
 1298SOL     OW15355   2.970   3.835   1.380 -0.0237  0.0298  0.0409
 1298SOL    HW115356   3.040   3.861   1.320  0.9167 -0.7427  0.8199
 1298SOL    HW215357   2.994   3.742   1.381 -1.1796 -0.2814 -0.6760
 1299SOL     OW15358   0.901   2.379  12.210  0.0035 -0.3478  0.0025
 1299SOL    HW115359   0.916   2.474  12.213  0.2976 -0.3898 -0.1123
 1299SOL    HW215360   0.828   2.356  12.267  0.0282  0.9979  0.5725
 1300SOL     OW15361   4.703   3.870   2.698 -0.3349  0.4172  0.0979
 1300SOL    HW115362   4.710   3.903   2.609 -1.7575 -0.2919 -0.2702
 1300SOL    HW215363   0.017   3.953   2.733 -2.5042  1.8820 -1.2635
 1301SOL     OW15364   0.469   2.921  11.790 -0.1475  0.2273  0.0977
 1301SOL    HW115365   0.561   2.904  11.773 -0.5398  0.3234 -2.1657
 1301SOL    HW215366   0.444   2.970  11.711  0.8757  0.0702 -0.3284
 1302SOL     OW15367   4.294   0.735   8.088 -0.0098 -0.2551 -0.0819
 1302SOL    HW115368   4.389   0.735   8.080 -0.1092  1.7347 -1.4047
 1302SOL    HW215369   4.290   0.757   8.181 -3.1121  1.0233 -0.5358
 1303SOL     OW15370   1.180   3.781   1.015  0.0757  0.6919 -0.7790
 1303SOL    HW115371   1.199   3.812   1.104 -1.9347 -0.7175  0.1544
 1303SOL    HW215372   1.156   3.860   0.967 -1.4637 -0.0407 -1.2212
 1304SOL     OW15373   0.984   0.402   8.486  0.8237  0.1774  0.0976
 1304SOL    HW115374   1.031   0.409   8.403  0.5870 -0.3321 -0.0760
 1304SOL    HW215375   1.046   0.440   8.549  1.0827 -0.3465  0.1618
 1305SOL     OW15376   2.951   4.477   6.151 -0.4183 -0.5570 -0.4071
 1305SOL    HW115377   2.905   4.394   6.134 -1.7428 -0.2761  1.8352
 1305SOL    HW215378   2.956   4.486   6.246  1.5057  1.8463 -0.7478
 1306SOL     OW15379   1.736   4.373   7.555  0.2564  0.4314  0.5030
 1306SOL    HW115380   1.818   4.362   7.507  1.2670  2.1696  1.8066
 1306SOL    HW215381   1.672   4.323   7.504  0.3247  1.4497 -0.5877
 1307SOL     OW15382   2.188   4.186  12.524 -0.2460  0.7776 -0.0766
 1307SOL    HW115383   2.189   4.180  12.428  1.7072  2.9505 -0.1869
 1307SOL    HW215384   2.247   4.257  12.549  1.7883 -0.4806 -1.3366
 1308SOL     OW15385   0.277   3.097   5.924  0.1200  0.4389  0.0547
 1308SOL    HW115386   0.220   3.025   5.897  0.3615 -0.8253  2.9968
 1308SOL    HW215387   0.299   3.066   6.011  0.2479  0.6197  0.0880
 1309SOL     OW15388   1.170   2.270   2.658  0.0950 -0.7185  0.0727
 1309SOL    HW115389   1.262   2.244   2.665  0.5311  0.9288  0.5866
 1309SOL    HW215390   1.125   2.244   2.738  4.2986 -2.2794  1.9338
 1310SOL     OW15391   3.858   3.886  16.974  0.3392  0.1601 -0.2221
 1310SOL    HW115392   3.818   3.955  17.027  0.4973 -0.0498  0.1668
 1310SOL    HW215393   3.947   3.922  16.970  0.4337  0.1359  1.8328
 1311SOL     OW15394   1.837   2.195   7.669 -0.7402  0.3452  0.4188
 1311SOL    HW115395   1.790   2.226   7.591 -0.1577 -0.4644 -0.2630
 1311SOL    HW215396   1.764   2.202   7.730 -1.8519 -3.2085 -0.4612
 1312SOL     OW15397   2.327   3.901   6.757  0.3215  0.3196 -0.1876
 1312SOL    HW115398   2.323   3.805   6.752 -1.3600  0.4115 -0.6919
 1312SOL    HW215399   2.233   3.916   6.751 -0.1217 -2.0991  0.6080
 1313SOL     OW15400   3.932   0.701  12.162 -0.1203  0.7309 -0.0011
 1313SOL    HW115401   3.984   0.738  12.233 -0.6866  1.3696  0.0902
 1313SOL    HW215402   3.863   0.768  12.160 -1.0236 -0.2809 -2.0957
 1314SOL     OW15403   0.554   3.674   3.102 -0.9034  0.7764  0.3849
 1314SOL    HW115404   0.645   3.667   3.075 -2.0407  0.4348 -3.3678
 1314SOL    HW215405   0.550   3.605   3.168  0.8468  1.3482  1.0604
 1315SOL     OW15406   1.811   3.530   6.481  0.2391  0.1807  0.1628
 1315SOL    HW115407   1.868   3.530   6.558 -0.1106  0.9640  0.4212
 1315SOL    HW215408   1.795   3.618   6.446 -1.6408  0.1841  1.0565
 1316SOL     OW15409   0.810   0.399   0.624 -0.0646  0.4104  0.6202
 1316SOL    HW115410   0.750   0.474   0.614  1.3208  1.6499  1.6069
 1316SOL    HW215411   0.832   0.380   0.533  4.0647 -0.5180  1.8341
 1317SOL     OW15412   0.501   3.777  14.128  0.7504 -0.6622  0.0667
 1317SOL    HW115413   0.487   3.730  14.210  0.1457 -1.2813 -0.3952
 1317SOL    HW215414   0.482   3.695  14.083  0.7448  0.0855 -1.2941
 1318SOL     OW15415   2.158   0.238  13.597  0.4321 -0.1994  0.6529
 1318SOL    HW115416   2.238   0.228  13.545 -0.7512 -2.0042 -0.8068
 1318SOL    HW215417   2.176   0.326  13.631  1.4622 -0.7116  1.4533
 1319SOL     OW15418   2.369   1.207   7.151  0.3783 -0.2220 -0.1418
 1319SOL    HW115419   2.364   1.286   7.096  0.8027 -0.1338 -0.0537
 1319SOL    HW215420   2.362   1.138   7.086 -2.4792  0.5915 -0.6813
 1320SOL     OW15421   2.893   2.912  12.062  0.0469 -0.1524 -0.2226
 1320SOL    HW115422   2.982   2.914  12.027  0.2160  0.4685  0.2457
 1320SOL    HW215423   2.865   3.003  12.071  1.4157  0.2113  0.3484
 1321SOL     OW15424   0.010   0.486   1.752  0.0533 -0.1558  0.2886
 1321SOL    HW115425   4.712   0.405   1.703  1.6411 -0.0281 -0.4880
 1321SOL    HW215426   0.104   0.470   1.761 -0.1172 -1.7825 -0.8192
 1322SOL     OW15427   3.429   1.670   8.846 -0.6784  0.2637  0.2142
 1322SOL    HW115428   3.509   1.618   8.859 -0.6242  0.7137  1.6730
 1322SOL    HW215429   3.369   1.601   8.873 -0.9748  0.6684  0.5956
 1323SOL     OW15430   4.024   1.052   8.555 -0.7761  0.5230  0.0008
 1323SOL    HW115431   4.054   1.139   8.583 -0.1199  0.6330 -1.0523
 1323SOL    HW215432   3.985   1.020   8.637 -0.6120  1.0666  0.2944
 1324SOL     OW15433   3.211   2.983   6.412 -0.4755  0.2175  0.2593
 1324SOL    HW115434   3.201   2.969   6.318 -2.5449  0.0824  0.5066
 1324SOL    HW215435   3.298   3.023   6.408 -0.8365  1.0824  1.0395
 1325SOL     OW15436   3.444   0.974   8.380 -0.0983 -0.0118 -0.1151
 1325SOL    HW115437   3.480   0.887   8.364 -1.4580 -0.9804  2.0195
 1325SOL    HW215438   3.435   0.993   8.287  0.3726 -0.5159 -0.2635
 1326SOL     OW15439   1.685   0.812   1.332  0.0558 -0.7668  0.5276
 1326SOL    HW115440   1.603   0.845   1.369 -0.5667 -2.4051  0.6260
 1326SOL    HW215441   1.642   0.793   1.248  0.2938  0.6023  0.0971
 1327SOL     OW15442   3.307   0.070  15.725 -0.2228  0.3979 -0.5728
 1327SOL    HW115443   3.389   0.107  15.757 -0.4047 -1.4032  1.9535
 1327SOL    HW215444   3.253   0.129  15.777  1.2867  0.5338  0.8449
 1328SOL     OW15445   2.279   1.781   1.957 -0.5150 -0.5327 -0.1432
 1328SOL    HW115446   2.309   1.692   1.938 -0.0827 -0.3005 -0.5534
 1328SOL    HW215447   2.184   1.774   1.954 -0.3514 -3.0230  0.9648
 1329SOL     OW15448   3.368   0.697   7.079 -0.5153 -0.1411  0.3172
 1329SOL    HW115449   3.296   0.757   7.060 -0.2944 -0.6590 -2.1084
 1329SOL    HW215450   3.437   0.750   7.117 -0.9353  1.0512 -0.5889
 1330SOL     OW15451   0.580   2.953   8.212  0.2907  0.2270  0.5738
 1330SOL    HW115452   0.613   3.043   8.208 -3.1272  1.2870 -2.9659
 1330SOL    HW215453   0.495   2.961   8.169 -0.5743  1.9833  2.5588
 1331SOL     OW15454   4.124   0.325  11.444  0.5799  0.2360 -0.3040
 1331SOL    HW115455   4.118   0.232  11.464  0.2719  0.4628  0.6463
 1331SOL    HW215456   4.135   0.366  11.530 -1.5278  0.4286 -0.1237
 1332SOL     OW15457   0.304   0.839  13.797 -0.2765  0.4426 -0.2268
 1332SOL    HW115458   0.398   0.850  13.805 -0.2501 -0.6452  0.9274
 1332SOL    HW215459   0.264   0.907  13.851  1.2004  1.7687 -0.8117
 1333SOL     OW15460   2.752   1.603  14.275  0.2812 -0.4068  0.2758
 1333SOL    HW115461   2.807   1.656  14.218 -0.2523 -0.5550 -0.3816
 1333SOL    HW215462   2.808   1.527  14.295  1.5980  0.6291  0.5067
 1334SOL     OW15463   4.194   3.307   7.687  0.0557  0.6626  0.2605
 1334SOL    HW115464   4.166   3.286   7.776  0.0263 -1.4612 -0.2467
 1334SOL    HW215465   4.190   3.403   7.686 -2.6890  0.5335 -0.3089
 1335SOL     OW15466   0.272   2.382  16.948 -0.3411 -0.8773 -0.5358
 1335SOL    HW115467   0.299   2.296  16.915  1.4895 -0.2355 -0.6550
 1335SOL    HW215468   0.355   2.406  16.988 -0.8702  0.5007 -0.2657
 1336SOL     OW15469   0.623   1.196   4.907  0.3858  0.6376 -0.4920
 1336SOL    HW115470   0.639   1.205   4.813  1.2586  1.3364 -0.2744
 1336SOL    HW215471   0.579   1.277   4.932  1.0315  0.0447  2.5957
 1337SOL     OW15472   0.604   4.598   4.893 -0.2994 -0.6851 -0.1731
 1337SOL    HW115473   0.619   4.558   4.808  0.0286  0.0307 -0.4505
 1337SOL    HW215474   0.626   4.689   4.875 -0.4863 -0.6036  0.0074
 1338SOL     OW15475   1.380   3.570   7.370  0.1846 -0.8337 -0.6641
 1338SOL    HW115476   1.472   3.549   7.357  0.1664  0.5228 -2.9033
 1338SOL    HW215477   1.342   3.484   7.391  0.9972 -0.7309  1.1610
 1339SOL     OW15478   0.258   2.235  10.272 -0.0236 -0.3218  0.0608
 1339SOL    HW115479   0.246   2.239  10.177  2.5778 -0.1187 -0.2589
 1339SOL    HW215480   0.329   2.172  10.285  0.4811 -0.3590 -2.8629
 1340SOL     OW15481   0.768   2.468   1.912 -0.2351 -0.1292 -0.2280
 1340SOL    HW115482   0.733   2.425   1.990 -0.2297  0.4428  0.0943
 1340SOL    HW215483   0.761   2.396   1.849  1.7645 -0.5032 -0.0091
 1341SOL     OW15484   1.197   0.758   7.673  0.3981  0.1308 -0.1533
 1341SOL    HW115485   1.152   0.842   7.684  0.9971  0.5382 -0.8273
 1341SOL    HW215486   1.146   0.697   7.726 -0.1524 -0.2361 -1.0965
 1342SOL     OW15487   3.109   3.699   1.854 -0.3459  0.4262 -0.0948
 1342SOL    HW115488   3.043   3.662   1.911 -0.8956  0.3735 -0.7652
 1342SOL    HW215489   3.172   3.629   1.836  1.0266  1.5518  0.2850
 1343SOL     OW15490   1.070   1.522   8.617 -0.4508  0.1799 -0.0224
 1343SOL    HW115491   1.037   1.437   8.591 -0.6694  0.4224 -0.5415
 1343SOL    HW215492   1.162   1.497   8.602 -1.1375 -0.7997 -2.6078
 1344SOL     OW15493   4.520   2.429   7.123 -0.1597  0.2947 -0.4668
 1344SOL    HW115494   4.478   2.514   7.137 -1.3115 -0.2446 -0.6178
 1344SOL    HW215495   4.605   2.451   7.162 -0.3305 -2.7590  1.5940
 1345SOL     OW15496   4.109   1.365   5.547  0.0591 -0.2401  0.5826
 1345SOL    HW115497   4.079   1.449   5.511 -0.9129 -0.2812  1.2997
 1345SOL    HW215498   4.073   1.313   5.476 -2.3159  0.5167  1.2426
 1346SOL     OW15499   3.889   3.472   5.225 -0.2493 -0.2969  0.5482
 1346SOL    HW115500   3.795   3.489   5.223 -0.2001 -0.3373 -2.3879
 1346SOL    HW215501   3.901   3.441   5.315 -2.1234  0.4994  1.0837
 1347SOL     OW15502   3.655   4.558   6.000 -0.3790 -0.6835  0.1103
 1347SOL    HW115503   3.676   4.651   6.006  3.1506 -1.3311 -2.5010
 1347SOL    HW215504   3.565   4.564   5.968 -0.4810 -0.4502  0.4399
 1348SOL     OW15505   3.986   3.417   5.772  0.2892 -0.3021  0.2987
 1348SOL    HW115506   3.985   3.513   5.773  0.3523 -0.2917 -0.7411
 1348SOL    HW215507   3.915   3.389   5.714 -0.4015 -1.5169  1.7160
 1349SOL     OW15508   4.375   3.899   0.264 -0.1988 -0.1023  0.1905
 1349SOL    HW115509   4.375   3.979   0.212  2.6743  0.4080  1.0078
 1349SOL    HW215510   4.442   3.853   0.215  1.0472  1.7367  0.1838
 1350SOL     OW15511   3.206   4.651   7.257 -0.1108  0.0015 -0.1772
 1350SOL    HW115512   3.194   0.025   7.241  0.1270 -0.3145 -2.1745
 1350SOL    HW215513   3.299   4.641   7.236 -0.1865  0.8003 -0.9071
 1351SOL     OW15514   3.311   2.515  17.544  0.1916  0.1728 -0.4242
 1351SOL    HW115515   3.270   2.587  17.497  0.0283 -0.3538 -1.0910
 1351SOL    HW215516   3.403   2.540  17.537  0.3208 -0.0163  0.5641
 1352SOL     OW15517   0.564   1.192   3.264 -0.4770 -0.2071 -0.7978
 1352SOL    HW115518   0.492   1.129   3.253 -1.2505  0.4870  0.3553
 1352SOL    HW215519   0.524   1.250   3.200  0.9138  0.2985 -1.2068
 1353SOL     OW15520   4.101   0.643   5.256  0.3397  0.2274 -0.1110
 1353SOL    HW115521   4.122   0.668   5.166 -3.3854 -0.7631 -1.2620
 1353SOL    HW215522   4.185   0.639   5.302 -1.2556 -0.9601  2.6989
 1354SOL     OW15523   3.727   2.179  13.086 -0.4061  0.1388  0.2851
 1354SOL    HW115524   3.754   2.261  13.129  3.2380 -0.7071 -0.3434
 1354SOL    HW215525   3.696   2.215  13.003 -1.3491 -1.1433  0.0811
 1355SOL     OW15526   0.953   1.156   3.097  0.2128  0.6497  0.2183
 1355SOL    HW115527   0.894   1.081   3.095 -0.7800  1.4345  0.3270
 1355SOL    HW215528   0.899   1.233   3.114  0.6492  0.6720  1.4557
 1356SOL     OW15529   2.850   2.152   2.177 -0.1777 -0.1955  0.1385
 1356SOL    HW115530   2.761   2.186   2.166 -0.2078  0.0374  1.0474
 1356SOL    HW215531   2.837   2.062   2.206 -3.5879  0.4875  0.8027
 1357SOL     OW15532   3.341   2.074   3.743  0.5438 -0.0411 -0.2986
 1357SOL    HW115533   3.354   1.980   3.756  1.3449  0.2224  0.8443
 1357SOL    HW215534   3.430   2.108   3.753  0.2061  0.2870  1.6836
 1358SOL     OW15535   2.742   2.956  11.790  0.2884 -0.0608  0.3412
 1358SOL    HW115536   2.740   3.018  11.863  1.8493  1.1992 -0.6866
 1358SOL    HW215537   2.825   2.917  11.818  1.5343  0.5940 -2.4422
 1359SOL     OW15538   2.287   3.778  12.384  0.6412  0.1390 -0.8030
 1359SOL    HW115539   2.208   3.819  12.348  2.4551  2.6803 -1.8553
 1359SOL    HW215540   2.352   3.803  12.318  0.5885 -2.5558 -1.8784
 1360SOL     OW15541   3.404   4.656   7.744  0.7186 -0.1330  0.1547
 1360SOL    HW115542   3.396   0.029   7.720 -2.9922 -0.3432  0.5302
 1360SOL    HW215543   3.336   4.647   7.811  0.4345 -0.1094 -0.1307
 1361SOL     OW15544   0.237   3.343  15.851  0.1518  0.1760  0.5415
 1361SOL    HW115545   0.295   3.409  15.815 -0.3450  0.8389  0.9516
 1361SOL    HW215546   0.173   3.403  15.890  0.4242 -0.2109  1.6036
 1362SOL     OW15547   0.382   4.260   6.788  0.0238 -0.1852  0.1724
 1362SOL    HW115548   0.445   4.218   6.729  0.2263 -0.1323  0.3522
 1362SOL    HW215549   0.383   4.353   6.763 -0.7463  0.1680  1.5070
 1363SOL     OW15550   1.079   2.386   9.220  0.1762  0.9807 -0.6932
 1363SOL    HW115551   1.060   2.428   9.304  3.3452  0.2280  0.4006
 1363SOL    HW215552   0.992   2.389   9.180 -0.5446  0.8257  0.8787
 1364SOL     OW15553   4.315   4.448  12.301  0.2285 -0.0838  0.1445
 1364SOL    HW115554   4.357   4.445  12.387 -1.7818 -2.4922  1.0680
 1364SOL    HW215555   4.385   4.488  12.250  0.5304 -0.8655 -0.0515
 1365SOL     OW15556   2.366   3.968   1.527 -0.0741  0.2293  0.8170
 1365SOL    HW115557   2.318   3.991   1.607  0.2443  2.0988  0.4788
 1365SOL    HW215558   2.445   4.020   1.539  1.0516 -1.1452 -0.8042
 1366SOL     OW15559   0.976   4.500   5.963 -0.1634  0.1448 -0.0626
 1366SOL    HW115560   0.959   4.585   6.004  1.0442  0.1846  0.3663
 1366SOL    HW215561   1.044   4.537   5.907  1.9206  1.4331  3.3200
 1367SOL     OW15562   4.380   2.704   6.112 -0.2621  0.1477 -0.2761
 1367SOL    HW115563   4.321   2.633   6.087 -1.5292  1.0073  0.2109
 1367SOL    HW215564   4.374   2.760   6.035 -0.8116  0.8322  0.2544
 1368SOL     OW15565   1.352   1.603   6.424 -0.1415 -0.0432 -0.4055
 1368SOL    HW115566   1.322   1.543   6.492 -2.1924  0.2761 -1.0152
 1368SOL    HW215567   1.422   1.650   6.469 -1.6494  1.2504  0.5634
 1369SOL     OW15568   0.788   2.252  16.413 -0.3490  0.1633  0.0483
 1369SOL    HW115569   0.706   2.210  16.386 -0.0537 -0.0550 -0.5190
 1369SOL    HW215570   0.801   2.314  16.341  0.5558 -1.3190 -1.0932
 1370SOL     OW15571   0.091   4.198   3.166  0.2541 -0.3232  0.5448
 1370SOL    HW115572   0.135   4.274   3.127 -0.8289 -0.6275 -1.2758
 1370SOL    HW215573   0.166   4.144   3.192 -0.8024 -1.6834  0.7308
 1371SOL     OW15574   0.435   0.328   0.604 -0.5027  0.4273 -0.0181
 1371SOL    HW115575   0.418   0.371   0.520 -0.3326 -0.8182 -0.6931
 1371SOL    HW215576   0.460   0.407   0.653 -0.9997  1.5625 -1.5763
 1372SOL     OW15577   4.536   1.777   6.051  0.0900  0.0500 -0.4025
 1372SOL    HW115578   4.517   1.724   6.129  1.5865  0.0797 -0.0001
 1372SOL    HW215579   4.618   1.820   6.076  0.3843 -1.7378  1.7123
 1373SOL     OW15580   4.388   1.244   6.911  0.0505 -0.4154 -0.5144
 1373SOL    HW115581   4.483   1.252   6.913  0.0803 -0.9709  0.3728
 1373SOL    HW215582   4.357   1.308   6.976 -1.8483 -2.4996  0.6090
 1374SOL     OW15583   1.799   1.250   7.614 -0.4907 -0.8874  0.4352
 1374SOL    HW115584   1.775   1.286   7.699  0.8941  2.4292 -0.6135
 1374SOL    HW215585   1.877   1.198   7.636  0.8032  1.0089  0.2965
 1375SOL     OW15586   3.464   4.127  13.743 -0.0127  0.4057  0.1752
 1375SOL    HW115587   3.457   4.034  13.722  0.1292  0.5884 -0.6946
 1375SOL    HW215588   3.450   4.180  13.664 -0.9126 -0.5116 -0.2724
 1376SOL     OW15589   1.220   1.758   7.557  1.0662 -0.2806  0.1542
 1376SOL    HW115590   1.201   1.821   7.626 -0.4127  1.3276 -1.7208
 1376SOL    HW215591   1.313   1.748   7.573  1.0537 -2.1166 -0.9187
 1377SOL     OW15592   0.909   3.152  16.260 -0.0455  0.1765 -0.0038
 1377SOL    HW115593   0.953   3.123  16.340  0.8680 -1.3664 -1.1008
 1377SOL    HW215594   0.849   3.079  16.246 -0.5985  0.2525  1.9878
 1378SOL     OW15595   2.629   1.207  14.955 -0.2973 -0.3802 -0.2351
 1378SOL    HW115596   2.709   1.259  14.962 -0.2082 -0.5294 -0.1322
 1378SOL    HW215597   2.659   1.138  14.896 -0.0142 -0.2755 -0.2142
 1379SOL     OW15598   3.881   1.110   6.531  0.5243 -0.0360  0.7700
 1379SOL    HW115599   3.976   1.121   6.523  0.6866 -1.0180  1.3062
 1379SOL    HW215600   3.877   1.016   6.549 -0.6140  0.0004  0.6897
 1380SOL     OW15601   1.415   0.690  11.267 -0.1068  0.5955  0.2667
 1380SOL    HW115602   1.326   0.716  11.245  0.0556 -0.4358 -1.6323
 1380SOL    HW215603   1.470   0.727  11.198 -0.8509  0.1247 -0.5774
 1381SOL     OW15604   1.229   0.455   5.872  0.2931  0.0885 -0.2585
 1381SOL    HW115605   1.318   0.476   5.843 -0.1006  2.1993  0.0655
 1381SOL    HW215606   1.178   0.536   5.870 -0.5324 -0.4023  1.6320
 1382SOL     OW15607   2.230   2.951  11.280 -0.4838 -0.3738  0.1477
 1382SOL    HW115608   2.309   2.970  11.230  1.0915 -2.8107  1.7160
 1382SOL    HW215609   2.156   2.990  11.234  0.4142 -1.2968 -2.0332
 1383SOL     OW15610   0.850   2.471   8.735  0.1681 -0.1990  0.6334
 1383SOL    HW115611   0.808   2.437   8.814 -2.2591 -1.3591 -1.1834
 1383SOL    HW215612   0.816   2.407   8.672 -1.2224  0.2565  0.9168
 1384SOL     OW15613   0.286   3.161   0.552  0.0437  0.3392  0.1346
 1384SOL    HW115614   0.257   3.113   0.475  2.6501 -1.7802  0.4658
 1384SOL    HW215615   0.279   3.094   0.620  1.5240 -0.1860 -0.2411
 1385SOL     OW15616   0.319   1.145   2.867 -0.4259 -0.3651  0.2519
 1385SOL    HW115617   0.225   1.144   2.845 -0.2404  0.4834 -0.5308
 1385SOL    HW215618   0.359   1.135   2.781 -1.2480 -0.5266 -0.1207
 1386SOL     OW15619   3.958   3.467  13.528 -0.1972 -0.1099 -0.0879
 1386SOL    HW115620   3.899   3.395  13.508 -2.3005  1.7843 -0.6557
 1386SOL    HW215621   3.990   3.493  13.442  0.5519  0.0150  0.2261
 1387SOL     OW15622   0.538   0.060   3.991  0.5256  0.0473  0.1851
 1387SOL    HW115623   0.562   0.152   3.979 -0.6275  0.2972 -0.2440
 1387SOL    HW215624   0.517   0.024   3.905 -0.4731 -1.4887  1.0783
 1388SOL     OW15625   2.701   1.769   1.794  0.5157  0.0092 -0.6031
 1388SOL    HW115626   2.637   1.713   1.751 -0.8242  2.9344 -2.4082
 1388SOL    HW215627   2.767   1.758   1.725 -0.0809  1.3425 -1.3865
 1389SOL     OW15628   3.718   1.904   6.987  0.1286 -0.0070  0.6434
 1389SOL    HW115629   3.636   1.948   7.008  0.7671  1.5599 -0.1357
 1389SOL    HW215630   3.705   1.864   6.901 -0.2061 -0.8371  1.0836
 1390SOL     OW15631   0.552   4.518   3.521  0.4811 -0.3501 -0.6699
 1390SOL    HW115632   0.468   4.498   3.480 -0.0021  1.1853 -0.4390
 1390SOL    HW215633   0.559   4.475   3.607 -1.2390  0.8950  0.0871
 1391SOL     OW15634   4.643   0.346   7.844  0.2899  0.5273  0.1244
 1391SOL    HW115635   4.635   0.268   7.789 -2.6603  1.0408 -0.1456
 1391SOL    HW215636   0.013   0.353   7.878  0.1936  1.1789  0.2490
 1392SOL     OW15637   2.799   4.619  10.223  0.1700  0.2619 -0.3953
 1392SOL    HW115638   2.820   4.525  10.228 -2.1877 -0.2335  0.1760
 1392SOL    HW215639   2.718   4.631  10.271 -0.8455 -2.2516 -1.4622
 1393SOL     OW15640   2.002   2.408   7.292  0.0852  0.2705 -0.4288
 1393SOL    HW115641   1.997   2.503   7.303  1.2041  0.0670  1.7722
 1393SOL    HW215642   2.066   2.387   7.360 -1.7247  0.3270  1.2717
 1394SOL     OW15643   1.120   1.916   8.738 -0.0605  0.3466 -0.6562
 1394SOL    HW115644   1.108   1.924   8.832  3.5521 -0.1041 -0.1761
 1394SOL    HW215645   1.200   1.968   8.731  0.7163 -0.8000 -0.3326
 1395SOL     OW15646   2.304   4.469   9.786  0.2848  0.1537 -0.3148
 1395SOL    HW115647   2.294   4.522   9.866 -0.8014 -0.7690  0.1552
 1395SOL    HW215648   2.370   4.515   9.735 -0.3026  0.5496 -0.7184
 1396SOL     OW15649   0.540   3.394  10.383 -0.0863 -0.1571  0.1583
 1396SOL    HW115650   0.617   3.444  10.408  1.3562 -1.6837 -1.2505
 1396SOL    HW215651   0.558   3.320  10.441 -2.7145 -1.7885 -1.0853
 1397SOL     OW15652   4.445   4.178  10.773  0.2810  0.0182  0.4699
 1397SOL    HW115653   4.479   4.170  10.862 -0.9266 -0.7558  0.8684
 1397SOL    HW215654   4.350   4.182  10.787 -0.1190  0.4081 -2.3381
 1398SOL     OW15655   0.772   1.857  11.643  0.9081 -0.3633  0.2378
 1398SOL    HW115656   0.861   1.861  11.677  0.9146  2.4203 -0.1058
 1398SOL    HW215657   0.751   1.946  11.617 -0.4130  0.0972  2.8516
 1399SOL     OW15658   3.410   1.887   8.722 -0.2348 -0.2434  0.2319
 1399SOL    HW115659   3.355   1.857   8.650 -3.0987  3.1573  0.9713
 1399SOL    HW215660   3.408   1.810   8.779 -1.5935  1.1245  2.0702
 1400SOL     OW15661   3.415   3.335   4.963  0.3932 -0.6781  0.0535
 1400SOL    HW115662   3.370   3.326   5.047  1.3145  2.4345  0.8819
 1400SOL    HW215663   3.441   3.427   4.961  0.3002 -0.6664 -0.5442
 1401SOL     OW15664   2.095   2.253   7.699  0.7987  0.1037  0.5874
 1401SOL    HW115665   2.004   2.226   7.714  1.4103 -1.8117  0.8871
 1401SOL    HW215666   2.077   2.346   7.691  0.8090  0.1486  1.1065
 1402SOL     OW15667   4.690   2.391  17.187 -0.1165  0.0570 -0.4906
 1402SOL    HW115668   4.698   2.434  17.102 -0.4279  0.1699 -0.4611
 1402SOL    HW215669   0.049   2.433  17.222  0.4054 -2.5006  1.4012
 1403SOL     OW15670   1.918   4.017   7.267  0.2494  0.8503 -0.4893
 1403SOL    HW115671   1.851   4.045   7.205 -0.8688 -0.5918  0.0888
 1403SOL    HW215672   1.977   3.990   7.197  1.9227  1.0282  0.8513
 1404SOL     OW15673   1.120   2.764  15.052 -0.0275 -0.8262  0.2813
 1404SOL    HW115674   1.098   2.678  15.088 -0.3584 -0.9291 -0.1712
 1404SOL    HW215675   1.092   2.818  15.126  0.2681 -0.6473  0.2642
 1405SOL     OW15676   4.044   2.499   1.983 -0.2140 -0.8174 -0.1635
 1405SOL    HW115677   4.137   2.484   1.963  0.7678  1.6000  2.6143
 1405SOL    HW215678   4.051   2.579   2.035  0.6433 -0.9372 -0.0832
 1406SOL     OW15679   0.315   4.341   6.328 -0.2162  0.3518 -0.7334
 1406SOL    HW115680   0.331   4.317   6.237  1.4103  0.0239 -0.3696
 1406SOL    HW215681   0.340   4.262   6.376 -0.3995  0.1321 -0.9968
 1407SOL     OW15682   3.442   3.041   2.554  0.2138  0.1106  0.3960
 1407SOL    HW115683   3.517   3.009   2.604 -0.5622  0.2745  1.6671
 1407SOL    HW215684   3.463   3.009   2.466 -0.3830  0.8047  0.0049
 1408SOL     OW15685   0.843   4.141   1.346  0.1567 -0.0528  0.5352
 1408SOL    HW115686   0.766   4.107   1.392 -0.4080  0.0266 -0.3489
 1408SOL    HW215687   0.811   4.214   1.293 -0.6483 -0.7637  0.0451
 1409SOL     OW15688   1.851   4.435  14.816 -0.3024  0.3784 -0.0597
 1409SOL    HW115689   1.793   4.369  14.854  0.3223 -1.2604 -1.9489
 1409SOL    HW215690   1.919   4.387  14.769  0.3383 -0.1103  1.3678
 1410SOL     OW15691   3.387   1.517   3.985  0.1824 -0.5051 -0.4199
 1410SOL    HW115692   3.302   1.531   4.028 -0.8058  0.0284 -2.5631
 1410SOL    HW215693   3.385   1.423   3.967 -1.9386 -0.5953  0.2645
 1411SOL     OW15694   0.660   3.513  16.872 -0.1259 -0.1954  0.5469
 1411SOL    HW115695   0.684   3.488  16.961 -0.0598 -0.9940  0.2982
 1411SOL    HW215696   0.603   3.588  16.892  0.3329  0.5207 -0.7802
 1412SOL     OW15697   0.434   3.791   6.999 -0.0206 -0.0888 -0.6649
 1412SOL    HW115698   0.386   3.729   6.944 -0.9791  0.6017 -0.5908
 1412SOL    HW215699   0.491   3.737   7.055 -2.6872 -0.0804  2.0628
 1413SOL     OW15700   0.435   3.357   6.583  0.3441  0.2925  0.2655
 1413SOL    HW115701   0.400   3.305   6.510  2.0684  0.2911 -0.5628
 1413SOL    HW215702   0.382   3.316   6.651 -0.6809 -1.5621 -1.6552
 1414SOL     OW15703   3.388   4.688   1.324  0.6801  0.2201 -0.0066
 1414SOL    HW115704   3.453   0.023   1.369 -0.6487  2.4736 -0.8137
 1414SOL    HW215705   3.324   0.038   1.306  0.4611  0.0283  0.0290
 1415SOL     OW15706   3.873   0.254  14.555 -0.1143  0.0040  0.3800
 1415SOL    HW115707   3.965   0.263  14.581  0.0974 -0.8599 -0.0874
 1415SOL    HW215708   3.873   0.161  14.533 -0.9932 -0.2365  1.3596
 1416SOL     OW15709   4.041   3.891   2.393 -0.0834  0.1422 -0.1698
 1416SOL    HW115710   4.127   3.932   2.398  0.5275 -0.8853 -2.4611
 1416SOL    HW215711   4.013   3.885   2.484 -0.1779 -1.9984 -0.3433
 1417SOL     OW15712   1.836   4.651   7.316 -0.4151 -0.1575 -0.5491
 1417SOL    HW115713   1.905   4.638   7.382  2.2378 -1.0128 -3.5051
 1417SOL    HW215714   1.870   4.605   7.240 -0.8253  0.2506 -0.9771
 1418SOL     OW15715   3.184   1.362   8.577  0.5930 -0.3705 -0.0351
 1418SOL    HW115716   3.153   1.273   8.558 -1.0785  0.3159 -0.5340
 1418SOL    HW215717   3.247   1.373   8.507 -0.2597  0.6837 -0.6367
 1419SOL     OW15718   1.901   1.421   3.129 -0.0661 -0.6769 -0.4377
 1419SOL    HW115719   1.905   1.330   3.160  2.3148 -0.8845 -1.3827
 1419SOL    HW215720   1.887   1.410   3.035  1.2205 -0.5971 -0.6323
 1420SOL     OW15721   3.038   1.527   4.837 -0.0120  0.4219 -0.4550
 1420SOL    HW115722   2.978   1.595   4.807 -0.9105 -0.3557 -0.4438
 1420SOL    HW215723   3.090   1.523   4.756 -0.3536 -1.1753 -0.6096
 1421SOL     OW15724   3.329   2.673  12.654 -0.1468 -0.3016 -0.0314
 1421SOL    HW115725   3.254   2.673  12.593  1.0092 -0.0261 -1.4586
 1421SOL    HW215726   3.394   2.708  12.592 -0.1538 -2.4233 -1.2431
 1422SOL     OW15727   2.698   0.187  16.921 -0.5993  0.0786  0.0736
 1422SOL    HW115728   2.606   0.194  16.945 -0.6827 -0.7620 -0.0135
 1422SOL    HW215729   2.730   0.252  16.985 -0.9216 -0.5841  0.9123
 1423SOL     OW15730   4.130   4.384   8.144  0.0592  0.7171 -0.1065
 1423SOL    HW115731   4.114   4.433   8.225 -0.6366 -0.9636  0.7671
 1423SOL    HW215732   4.114   4.291   8.162  1.1928  0.7043  0.7885
 1424SOL     OW15733   1.887   3.915  12.814  0.0006  0.0719  0.1662
 1424SOL    HW115734   1.959   3.854  12.801 -0.7067 -0.9110  0.9714
 1424SOL    HW215735   1.934   3.998  12.804  1.1317 -0.8039 -1.8112
 1425SOL     OW15736   0.183   2.921   0.382 -0.7200 -0.1028 -0.3830
 1425SOL    HW115737   0.144   2.946   0.298 -1.6834  1.3128  0.4801
 1425SOL    HW215738   0.100   2.912   0.429 -0.2567  1.2019  0.6764
 1426SOL     OW15739   3.844   3.644   6.261  0.4478  0.4115 -0.1446
 1426SOL    HW115740   3.903   3.576   6.293  0.5054 -0.1014 -1.3515
 1426SOL    HW215741   3.761   3.616   6.301  0.9163  0.6052  0.9614
 1427SOL     OW15742   2.634   1.039   7.879  0.4101 -0.5202 -0.3462
 1427SOL    HW115743   2.613   1.116   7.826  2.4118  1.2614  1.4153
 1427SOL    HW215744   2.710   1.005   7.832  0.1335 -1.1257 -0.3560
 1428SOL     OW15745   2.399   0.337   3.588 -0.0020 -0.6301  0.0058
 1428SOL    HW115746   2.486   0.353   3.553  0.1890  1.4987  1.4610
 1428SOL    HW215747   2.421   0.344   3.681  0.5738 -0.3938 -0.1534
 1429SOL     OW15748   0.498   0.217   2.803 -0.4055 -0.0521  0.2088
 1429SOL    HW115749   0.472   0.307   2.787 -0.4629 -0.4643 -2.0361
 1429SOL    HW215750   0.500   0.177   2.716 -0.4701  0.4949 -0.0431
 1430SOL     OW15751   1.874   1.077   1.346  0.2648 -0.4986 -0.5807
 1430SOL    HW115752   1.815   1.114   1.412  0.0572 -1.4795 -0.2128
 1430SOL    HW215753   1.811   1.009   1.323  0.4466 -1.4155  1.6590
 1431SOL     OW15754   2.643   0.566  15.964 -0.1352 -0.4765  0.0973
 1431SOL    HW115755   2.702   0.557  16.039 -0.6861  1.9145  0.8272
 1431SOL    HW215756   2.669   0.490  15.911  0.6903 -0.6607  0.7704
 1432SOL     OW15757   2.293   1.054   2.437 -0.7934 -0.1144 -0.4647
 1432SOL    HW115758   2.286   1.016   2.525 -0.8589  0.1354 -0.3614
 1432SOL    HW215759   2.202   1.055   2.407 -0.9057  2.0142 -0.0716
 1433SOL     OW15760   3.839   4.237   6.964  0.6426 -0.5065  0.3434
 1433SOL    HW115761   3.836   4.230   7.060 -1.6958 -2.0290  0.1580
 1433SOL    HW215762   3.836   4.324   6.925  0.7483 -0.2249  0.9635
 1434SOL     OW15763   2.368   3.572   7.837  0.0745  0.7346 -0.4805
 1434SOL    HW115764   2.428   3.516   7.886 -0.8562 -0.4465 -0.6913
 1434SOL    HW215765   2.285   3.532   7.863 -0.3508  0.8225 -1.6573
 1435SOL     OW15766   2.743   0.330  15.504  0.3370  0.1490 -0.2689
 1435SOL    HW115767   2.659   0.365  15.533 -1.0411 -1.2134 -2.6048
 1435SOL    HW215768   2.718   0.294  15.419 -0.3400  1.0265 -0.4507
 1436SOL     OW15769   3.467   3.076   6.356 -0.2018 -0.0281  0.4749
 1436SOL    HW115770   3.555   3.107   6.376 -1.3932  3.4660  0.2429
 1436SOL    HW215771   3.458   3.118   6.270 -1.0593  1.1133  1.1230
 1437SOL     OW15772   3.325   4.534  16.021 -0.1414 -0.0010 -0.7403
 1437SOL    HW115773   3.405   4.585  16.010 -1.3399  1.5835 -2.2512
 1437SOL    HW215774   3.324   4.523  16.116  0.8417 -0.2039 -0.7593
 1438SOL     OW15775   1.417   0.478   6.263 -0.2548 -0.0710 -0.3606
 1438SOL    HW115776   1.470   0.462   6.185  0.1636 -0.5192  0.0171
 1438SOL    HW215777   1.374   0.559   6.233  2.5649  1.2360 -0.8451
 1439SOL     OW15778   3.395   1.858  15.884 -0.4423  0.0768 -0.4791
 1439SOL    HW115779   3.301   1.841  15.894  0.2272 -3.1415  0.1376
 1439SOL    HW215780   3.385   1.879  15.791  0.9248 -0.9899 -0.8665
 1440SOL     OW15781   0.641   2.614   7.130  0.1219  0.0549 -0.2284
 1440SOL    HW115782   0.714   2.582   7.184  2.0426  2.7283 -1.2311
 1440SOL    HW215783   0.601   2.685   7.181  0.4543  0.5796 -0.7011
 1441SOL     OW15784   4.250   2.295   7.505  0.1055 -0.5249 -0.0696
 1441SOL    HW115785   4.328   2.312   7.557  0.1797 -2.9985  0.6199
 1441SOL    HW215786   4.247   2.201   7.486 -2.3315 -0.6635  1.0352
 1442SOL     OW15787   2.164   0.179   7.836 -0.0558  0.3371 -0.5373
 1442SOL    HW115788   2.145   0.268   7.865  0.5125  1.0876 -2.5002
 1442SOL    HW215789   2.101   0.169   7.765 -2.1712  2.0254  1.1025
 1443SOL     OW15790   4.538   1.390   4.252  0.3315  0.0528  0.6269
 1443SOL    HW115791   4.605   1.454   4.275  1.2659 -0.4345 -0.7234
 1443SOL    HW215792   4.588   1.342   4.186 -0.0363 -0.4274  0.6990
 1444SOL     OW15793   0.341   3.861   6.283  0.5076  0.2106  0.1745
 1444SOL    HW115794   0.364   3.770   6.267 -0.9667  0.4142 -3.1893
 1444SOL    HW215795   0.353   3.890   6.192  0.1045 -0.6271 -0.1446
 1445SOL     OW15796   2.668   3.123   2.878 -0.8050 -0.4877 -0.2402
 1445SOL    HW115797   2.754   3.143   2.915  1.1771 -5.0659 -2.3901
 1445SOL    HW215798   2.674   3.028   2.890  1.0022 -0.3161  0.1495
 1446SOL     OW15799   1.558   2.059   9.709  0.1095  0.0892 -0.1883
 1446SOL    HW115800   1.507   2.107   9.644 -1.3127 -1.3906 -0.1686
 1446SOL    HW215801   1.634   2.117   9.712 -1.5595  2.3771 -2.0276
 1447SOL     OW15802   0.158   4.192  11.695  0.0412 -0.3460 -0.3410
 1447SOL    HW115803   0.116   4.245  11.763 -0.3630 -0.2807 -0.6387
 1447SOL    HW215804   0.098   4.201  11.621 -1.9426  0.3066  1.3339
 1448SOL     OW15805   3.604   4.613   4.522  0.1903  0.0968 -0.0414
 1448SOL    HW115806   3.651   4.561   4.457  2.6476  0.7179  1.2201
 1448SOL    HW215807   3.618   4.697   4.478 -2.0691  0.9272  0.8218
 1449SOL     OW15808   3.657   2.603  14.669 -0.6296  0.4256  0.1058
 1449SOL    HW115809   3.733   2.605  14.610 -0.5131  0.9779  0.2785
 1449SOL    HW215810   3.704   2.658  14.731  0.8052  1.3659 -1.7876
 1450SOL     OW15811   0.069   2.839  14.703 -0.2565 -0.5825 -0.0186
 1450SOL    HW115812   0.022   2.837  14.620  0.0445  1.6924 -0.2404
 1450SOL    HW215813   0.137   2.772  14.698  0.1194 -0.2924  1.3189
 1451SOL     OW15814   1.338   1.311   2.309 -0.0755 -0.2572  0.5351
 1451SOL    HW115815   1.350   1.400   2.275  0.2980  0.2957  2.1271
 1451SOL    HW215816   1.374   1.321   2.397 -0.8838 -0.1031  0.8457
 1452SOL     OW15817   0.133   0.584   3.008 -0.7727  0.3045  0.0144
 1452SOL    HW115818   0.193   0.655   2.987 -1.7878  1.0757 -0.2921
 1452SOL    HW215819   0.129   0.536   2.926  0.1652 -2.1267  1.4156
 1453SOL     OW15820   4.109   0.443   9.166  0.5939 -0.2306  0.0664
 1453SOL    HW115821   4.112   0.441   9.261  3.2760 -1.1414 -0.0364
 1453SOL    HW215822   4.053   0.519   9.150  1.3021  0.1473 -0.6188
 1454SOL     OW15823   0.651   1.626  15.908 -0.3572 -0.0966 -0.2790
 1454SOL    HW115824   0.604   1.558  15.957  0.2864 -0.9301 -0.8190
 1454SOL    HW215825   0.655   1.686  15.982 -0.0882 -0.4932  0.0266
 1455SOL     OW15826   3.953   3.376   1.727  0.2518  0.4223 -0.0193
 1455SOL    HW115827   3.916   3.331   1.651  0.0993  2.2098 -1.0207
 1455SOL    HW215828   3.871   3.396   1.772 -0.8464  2.0034 -2.6646
 1456SOL     OW15829   3.234   3.510   3.604  0.0235  0.2281  0.1999
 1456SOL    HW115830   3.300   3.448   3.635 -0.0089  0.0054 -0.1805
 1456SOL    HW215831   3.183   3.516   3.685  1.0626 -0.1134  0.8745
 1457SOL     OW15832   3.764   1.022   8.060 -0.1678  0.3031 -0.6575
 1457SOL    HW115833   3.787   1.102   8.014  0.7412 -0.5709 -1.7408
 1457SOL    HW215834   3.849   0.984   8.082 -1.1843 -0.7551  1.4603
 1458SOL     OW15835   4.481   0.977  14.695 -0.2460  0.1945 -0.3731
 1458SOL    HW115836   4.573   0.972  14.670 -0.0620  0.0605  0.3557
 1458SOL    HW215837   4.442   0.943  14.614  0.1433 -0.4272 -0.2958
 1459SOL     OW15838   2.490   0.010  16.664  0.0621 -1.0635  0.4591
 1459SOL    HW115839   2.433   4.655  16.642  0.4541 -1.8877  2.2212
 1459SOL    HW215840   2.515   4.711  16.754 -0.8620  0.5165  1.0492
 1460SOL     OW15841   3.127   3.913   5.722  0.2003 -0.2487 -0.3319
 1460SOL    HW115842   3.057   3.881   5.780  0.9246 -0.9757  0.1407
 1460SOL    HW215843   3.088   3.994   5.690 -2.4553 -1.5720 -0.4827
 1461SOL     OW15844   4.687   0.658   2.659 -0.3736  0.5091  0.3268
 1461SOL    HW115845   0.019   0.736   2.636 -1.0628  0.8935  0.0843
 1461SOL    HW215846   4.601   0.697   2.640 -0.2869  0.6963  0.3205
 1462SOL     OW15847   3.374   4.529   5.968  0.2251  0.2459  0.4198
 1462SOL    HW115848   3.374   4.489   6.054  0.3155  1.5954  1.0510
 1462SOL    HW215849   3.282   4.553   5.955 -0.2247 -1.8417 -0.2415
 1463SOL     OW15850   2.730   2.421   6.567  0.2142 -0.1899  0.3984
 1463SOL    HW115851   2.656   2.383   6.519 -0.0232  2.7638 -1.5844
 1463SOL    HW215852   2.762   2.488   6.506  2.2750  1.8233  3.7255
 1464SOL     OW15853   1.470   2.910   6.473  0.1948 -0.5487 -0.0605
 1464SOL    HW115854   1.413   2.983   6.500  3.9401  2.5901 -0.6303
 1464SOL    HW215855   1.442   2.887   6.384 -0.7175 -1.4640  0.4650
 1465SOL     OW15856   4.682   2.268  10.309  0.2171  0.0104 -0.4433
 1465SOL    HW115857   4.607   2.302  10.260 -0.9564 -3.4269 -1.0570
 1465SOL    HW215858   0.024   2.284  10.238 -0.0944 -1.9366 -1.1612
 1466SOL     OW15859   3.544   0.684  16.207  0.2900  0.1300  0.4225
 1466SOL    HW115860   3.593   0.700  16.127 -1.1383 -1.3517 -0.7382
 1466SOL    HW215861   3.557   0.589  16.214  1.7629  0.3796  1.0487
 1467SOL     OW15862   3.018   0.614   5.443  0.5274 -0.0175 -0.0827
 1467SOL    HW115863   3.066   0.642   5.520  2.5059 -1.5198 -0.7690
 1467SOL    HW215864   3.079   0.650   5.379  1.2433  1.9609  1.7193
 1468SOL     OW15865   4.684   3.582  12.647  0.2087  0.0676 -0.2517
 1468SOL    HW115866   0.026   3.560  12.578  0.3211 -0.9830  0.1898
 1468SOL    HW215867   0.003   3.529  12.717  0.1096 -0.8342 -0.8829
 1469SOL     OW15868   3.614   1.167  16.755  0.3703 -0.5019  0.7110
 1469SOL    HW115869   3.681   1.211  16.702  0.3908 -0.7684  0.5171
 1469SOL    HW215870   3.647   1.079  16.739  2.4610  0.1797  1.2930
 1470SOL     OW15871   3.145   4.636   4.528  0.3676 -0.4687  0.3271
 1470SOL    HW115872   3.148   0.011   4.514  2.4441 -0.6451 -0.4210
 1470SOL    HW215873   3.083   4.613   4.459  0.9763  1.3238 -0.8094
 1471SOL     OW15874   2.697   3.326  13.239 -0.2171  0.0023 -0.1227
 1471SOL    HW115875   2.624   3.341  13.179  0.4964  1.1408 -0.6881
 1471SOL    HW215876   2.656   3.298  13.321  0.3921  1.1149  0.5549
 1472SOL     OW15877   0.505   0.453   2.177  0.7243  0.0188 -0.3743
 1472SOL    HW115878   0.427   0.505   2.158  1.3731  0.9629 -0.4568
 1472SOL    HW215879   0.501   0.388   2.107  0.3308 -0.1979 -0.1497
 1473SOL     OW15880   3.449   4.141   6.568 -0.4138  0.2089 -0.6226
 1473SOL    HW115881   3.529   4.154   6.517 -1.5168  1.9750 -1.9282
 1473SOL    HW215882   3.483   4.152   6.656 -0.6686  0.6534 -0.5809
 1474SOL     OW15883   0.557   3.946   3.133  0.2794  0.1935  0.1047
 1474SOL    HW115884   0.540   3.852   3.130  0.9217  0.1090 -0.7751
 1474SOL    HW215885   0.493   3.978   3.197 -2.5781 -2.5206 -1.3867
 1475SOL     OW15886   1.672   2.859   2.685  0.4848 -0.9042 -0.0658
 1475SOL    HW115887   1.654   2.949   2.711 -0.2975 -0.4693 -2.1266
 1475SOL    HW215888   1.676   2.869   2.590 -2.0369  2.3051  0.1528
 1476SOL     OW15889   4.539   2.910   1.364 -0.0381 -0.1090  0.4025
 1476SOL    HW115890   4.569   2.927   1.454 -0.4590 -0.8305  0.6757
 1476SOL    HW215891   4.599   2.839   1.343 -0.0099  0.3879 -1.1640
 1477SOL     OW15892   4.392   4.607   7.277  0.0230  0.1636  0.5516
 1477SOL    HW115893   4.302   4.635   7.262  0.1337 -0.5467 -1.4847
 1477SOL    HW215894   4.433   4.692   7.291  0.7650 -0.2389  0.8585
 1478SOL     OW15895   2.068   0.109   2.164  0.3806  0.1755 -1.0479
 1478SOL    HW115896   2.038   0.034   2.215  0.5959  2.1116  1.9143
 1478SOL    HW215897   2.162   0.099   2.148  0.6436 -0.7423  1.0179
 1479SOL     OW15898   4.655   4.413   2.878  0.6835  0.0528 -0.4631
 1479SOL    HW115899   4.601   4.472   2.826  0.0049 -0.2321 -0.0734
 1479SOL    HW215900   0.015   4.400   2.825  0.2488  0.3876 -1.2013
 1480SOL     OW15901   3.482   0.892   2.352 -0.1455  0.2385 -0.0817
 1480SOL    HW115902   3.519   0.979   2.335 -1.0933  0.2594 -2.0756
 1480SOL    HW215903   3.499   0.889   2.446 -0.8786  0.2808  0.0457
 1481SOL     OW15904   3.312   2.769  17.156 -0.3896 -0.7107 -0.1714
 1481SOL    HW115905   3.337   2.724  17.075 -0.3676 -0.6083 -0.2231
 1481SOL    HW215906   3.252   2.710  17.202 -1.3407 -0.7781 -1.4816
 1482SOL     OW15907   3.475   4.578   7.212 -0.2583 -0.2563  0.3407
 1482SOL    HW115908   3.471   4.533   7.296 -0.6764 -0.4473  0.2176
 1482SOL    HW215909   3.526   4.510   7.167  0.6121 -0.0959  1.0808
 1483SOL     OW15910   1.926   2.676   6.424  0.4745 -0.2682  0.0628
 1483SOL    HW115911   1.951   2.749   6.368 -0.2588 -0.2513 -0.2407
 1483SOL    HW215912   1.842   2.699   6.464 -0.4387 -1.8146 -0.9532
 1484SOL     OW15913   0.300   0.065   4.126  0.4683 -0.2292 -0.3354
 1484SOL    HW115914   0.330   0.044   4.215  0.9840 -0.9293 -0.6743
 1484SOL    HW215915   0.379   0.091   4.078  0.7706 -0.5551 -0.0204
 1485SOL     OW15916   0.539   0.270  17.589 -0.1399  0.2375 -0.4013
 1485SOL    HW115917   0.517   0.206  17.521  0.6169 -1.1388  0.6599
 1485SOL    HW215918   0.486   0.247  17.666  0.8642  0.8069  0.4542
 1486SOL     OW15919   4.184   2.071   2.415  0.2217 -0.6762 -0.3026
 1486SOL    HW115920   4.120   2.112   2.357  2.5431  0.0261 -2.3349
 1486SOL    HW215921   4.136   1.989   2.426  0.0870 -0.3962  1.1751
 1487SOL     OW15922   1.672   1.391   8.961 -0.1093  0.3328 -0.2037
 1487SOL    HW115923   1.753   1.381   9.011  0.0014  2.0073 -0.0584
 1487SOL    HW215924   1.627   1.320   9.007  0.4051  0.5209  0.5914
 1488SOL     OW15925   2.222   3.352   0.925  1.0724 -0.1784 -0.0583
 1488SOL    HW115926   2.218   3.352   1.021 -0.0556 -1.2336 -0.1097
 1488SOL    HW215927   2.227   3.447   0.916 -0.7955  0.0247  1.1450
 1489SOL     OW15928   2.637   4.026   3.161  0.5696  0.5089  0.1704
 1489SOL    HW115929   2.546   4.056   3.157 -0.0757 -1.5904 -1.0554
 1489SOL    HW215930   2.645   3.994   3.071 -1.1975  0.1143  0.1378
 1490SOL     OW15931   0.284   1.980   6.402  0.0932 -0.3369  0.0491
 1490SOL    HW115932   0.313   1.942   6.485 -0.4718  1.8485  1.2548
 1490SOL    HW215933   0.275   2.074   6.420  2.9939 -0.1352  0.4651
 1491SOL     OW15934   0.274   3.323  10.031 -0.1664 -0.3725  0.3341
 1491SOL    HW115935   0.311   3.241  10.064  1.7193  0.4866  0.3755
 1491SOL    HW215936   0.272   3.381  10.106 -0.0580 -1.3645  1.1106
 1492SOL     OW15937   2.035   3.444   2.801  0.0639 -0.0438  0.6861
 1492SOL    HW115938   2.101   3.499   2.843 -0.0435  2.4031 -2.4082
 1492SOL    HW215939   2.040   3.476   2.712 -1.1863 -2.3868 -0.2283
 1493SOL     OW15940   3.737   3.764   3.094  0.1366  0.3097 -0.3404
 1493SOL    HW115941   3.825   3.736   3.070 -0.2396 -0.7323 -0.4987
 1493SOL    HW215942   3.688   3.691   3.056  1.9271 -1.1997  0.2488
 1494SOL     OW15943   0.217   0.389   5.633 -0.0271 -0.2328  0.2846
 1494SOL    HW115944   0.199   0.330   5.560 -2.2387  0.5758  0.1708
 1494SOL    HW215945   0.298   0.430   5.603 -0.0366 -0.2168  0.2812
 1495SOL     OW15946   2.611   0.698   9.349  0.1323  0.2198  0.1652
 1495SOL    HW115947   2.570   0.616   9.377 -1.5439  1.2149  0.6043
 1495SOL    HW215948   2.702   0.671   9.334 -0.1464 -1.0193  0.6577
 1496SOL     OW15949   1.374   1.200   2.811 -0.3691  0.5514 -0.4033
 1496SOL    HW115950   1.294   1.209   2.861  0.2036 -1.0006  0.8208
 1496SOL    HW215951   1.425   1.276   2.837  0.7081 -0.4407  0.4291
 1497SOL     OW15952   0.820   0.832   5.415 -0.3049 -0.1974 -0.2099
 1497SOL    HW115953   0.734   0.809   5.381 -0.8110 -2.5608  2.6036
 1497SOL    HW215954   0.797   0.845   5.507 -0.6005  1.5638 -0.5446
 1498SOL     OW15955   3.639   1.537   6.175 -0.9754  0.2501 -0.4970
 1498SOL    HW115956   3.666   1.625   6.150 -1.6011  0.5111 -0.2490
 1498SOL    HW215957   3.719   1.500   6.212  0.3312  1.3298 -2.2651
 1499SOL     OW15958   0.691   1.499   2.544 -0.0080 -0.0601 -0.6321
 1499SOL    HW115959   0.711   1.427   2.484  0.4506 -0.9432  0.5692
 1499SOL    HW215960   0.642   1.554   2.483  0.7906  0.3835 -0.8665
 1500SOL     OW15961   3.472   3.197   6.114  0.2241 -0.2266  0.1203
 1500SOL    HW115962   3.531   3.246   6.057  1.0113 -0.6045  0.6087
 1500SOL    HW215963   3.411   3.267   6.134 -0.2691 -0.2498 -1.3049
 1501SOL     OW15964   2.512   0.224   5.065 -0.0460 -0.7213 -0.6132
 1501SOL    HW115965   2.603   0.254   5.067 -0.0216 -0.8524  0.8770
 1501SOL    HW215966   2.511   0.130   5.048  0.3450 -0.6766 -0.8863
 1502SOL     OW15967   1.145   2.945   8.376  0.5489  0.3280 -0.1216
 1502SOL    HW115968   1.169   2.854   8.393  0.8445  0.9209  2.6116
 1502SOL    HW215969   1.196   2.996   8.439  1.2810 -1.5460  0.7794
 1503SOL     OW15970   3.430   4.148   8.054  0.1972  0.1508  0.0032
 1503SOL    HW115971   3.476   4.231   8.040 -1.4220  0.6819 -2.3039
 1503SOL    HW215972   3.487   4.107   8.119 -1.7803  1.4266  2.5700
 1504SOL     OW15973   2.281   1.543   2.827  0.1335  0.0179  0.5043
 1504SOL    HW115974   2.323   1.463   2.796  0.1974  0.1361  0.2788
 1504SOL    HW215975   2.266   1.522   2.919  1.4731  2.6704  1.3269
 1505SOL     OW15976   3.165   0.980   2.781  0.0843  0.3224 -0.0292
 1505SOL    HW115977   3.205   0.976   2.694  0.0138  0.5618 -0.0719
 1505SOL    HW215978   3.129   0.892   2.795 -1.6893  1.2762  1.4358
 1506SOL     OW15979   2.540   0.566   3.911  0.0971  0.5540  0.3271
 1506SOL    HW115980   2.615   0.606   3.867 -0.2384  1.7978  0.8700
 1506SOL    HW215981   2.515   0.638   3.969  0.6797  2.7740 -2.1662
 1507SOL     OW15982   3.126   1.163  10.865  0.4491 -0.1634  0.0546
 1507SOL    HW115983   3.118   1.185  10.958  3.1767  1.5080 -0.0722
 1507SOL    HW215984   3.213   1.125  10.853 -0.8139 -2.6693 -0.9335
 1508SOL     OW15985   1.784   2.695   0.173  0.1262 -0.1528 -0.1525
 1508SOL    HW115986   1.864   2.748   0.180  0.2755 -0.9461  4.1725
 1508SOL    HW215987   1.817   2.606   0.186 -0.1733 -0.6527 -2.8484
 1509SOL     OW15988   4.056   4.479   4.083  0.2485  0.2481 -0.2669
 1509SOL    HW115989   4.077   4.554   4.139  2.2614  0.3271 -1.1416
 1509SOL    HW215990   4.111   4.410   4.118  1.0457  1.5561  1.0501
 1510SOL     OW15991   4.053   2.934   1.740  0.2757  0.0846 -0.2216
 1510SOL    HW115992   4.036   2.904   1.651  0.7289 -2.3375  0.5157
 1510SOL    HW215993   4.118   2.868   1.763  2.2246  1.1807 -2.6023
 1511SOL     OW15994   1.268   3.588   3.686 -0.0855  0.0485 -0.2536
 1511SOL    HW115995   1.318   3.509   3.664 -3.1831 -1.6555 -1.0667
 1511SOL    HW215996   1.318   3.627   3.758 -2.5726  0.3147  1.3002
 1512SOL     OW15997   3.819   4.032   8.733  0.2695  0.0683 -0.1398
 1512SOL    HW115998   3.862   4.108   8.772 -1.5859  0.1916  1.7041
 1512SOL    HW215999   3.890   3.991   8.685  0.0565 -1.0035  0.4692
 1513SOL     OW16000   3.285   2.469   1.765  0.4233  0.0508  0.4335
 1513SOL    HW116001   3.289   2.512   1.851 -0.7178  1.2469 -0.1089
 1513SOL    HW216002   3.377   2.468   1.740  0.0064  0.7864 -1.1706
 1514SOL     OW16003   3.757   1.550   8.040 -0.0613 -0.1856  0.3307
 1514SOL    HW116004   3.829   1.561   7.978  0.1798  1.2757  0.8498
 1514SOL    HW216005   3.695   1.619   8.012  1.1256 -0.3014 -2.6243
 1515SOL     OW16006   3.823   3.708   2.449 -0.0073  0.1727 -0.1414
 1515SOL    HW116007   3.914   3.730   2.431  0.3350 -0.8878  0.2633
 1515SOL    HW216008   3.828   3.612   2.447 -2.0743  0.0740 -0.6736
 1516SOL     OW16009   0.408   1.823  10.722 -0.2823  0.2056 -0.5588
 1516SOL    HW116010   0.401   1.735  10.758 -3.0830  0.4857 -0.4256
 1516SOL    HW216011   0.477   1.808  10.656 -0.8806 -0.1331 -1.1070
 1517SOL     OW16012   1.434   2.744   4.209  0.0068 -0.2079 -0.3232
 1517SOL    HW116013   1.455   2.829   4.247  0.8616  0.2698 -1.8502
 1517SOL    HW216014   1.339   2.733   4.215 -0.0982  0.3954 -0.9692
 1518SOL     OW16015   2.186   2.124   2.689 -0.3059  0.0449  0.1081
 1518SOL    HW116016   2.270   2.101   2.729  0.5709 -0.8398 -2.2501
 1518SOL    HW216017   2.147   2.158   2.770  0.8275  1.5850  0.0015
 1519SOL     OW16018   0.899   3.598   7.923  0.4387  0.1577 -0.3939
 1519SOL    HW116019   0.922   3.592   8.016  3.0003  0.1712 -1.0211
 1519SOL    HW216020   0.803   3.597   7.923  0.4357 -0.8861 -3.0314
 1520SOL     OW16021   0.215   1.534  13.913 -0.3822  0.4104  0.2521
 1520SOL    HW116022   0.128   1.516  13.948 -0.7188 -0.7776 -1.1924
 1520SOL    HW216023   0.269   1.513  13.989 -0.4813 -1.3444 -0.1681
 1521SOL     OW16024   1.690   1.545   3.544 -0.1624  0.1614 -0.6832
 1521SOL    HW116025   1.760   1.524   3.605 -1.0883 -1.4345 -0.1618
 1521SOL    HW216026   1.738   1.570   3.465 -0.3415  3.1321  0.1487
 1522SOL     OW16027   1.845   3.913   2.322 -0.1414 -0.0030 -0.7114
 1522SOL    HW116028   1.863   3.999   2.285 -0.1194 -0.9735 -2.9326
 1522SOL    HW216029   1.855   3.934   2.415  0.2210 -1.8958 -0.3289
 1523SOL     OW16030   1.156   0.815  15.613  0.5717  0.9285  0.0449
 1523SOL    HW116031   1.107   0.738  15.643  1.1644  0.1516 -0.9775
 1523SOL    HW216032   1.099   0.880  15.653  1.7200  1.7218  0.4116
 1524SOL     OW16033   4.495   2.140   4.142 -0.2507 -0.7170 -0.7785
 1524SOL    HW116034   4.573   2.137   4.086  0.8028  3.5535  0.4905
 1524SOL    HW216035   4.425   2.165   4.080  1.1768 -0.9413 -2.4924
 1525SOL     OW16036   4.107   3.001   0.953 -0.4426  0.4686 -0.3357
 1525SOL    HW116037   4.047   3.031   0.885 -0.1662  0.6932 -0.4770
 1525SOL    HW216038   4.176   3.066   0.941 -0.6715  0.5339 -1.2782
 1526SOL     OW16039   0.128   0.149   9.844  0.1451  0.2867 -0.1661
 1526SOL    HW116040   0.099   0.236   9.874  1.1695  0.7591 -0.5292
 1526SOL    HW216041   0.062   0.088   9.876  0.4107 -0.1644 -0.4934
 1527SOL     OW16042   4.245   4.645  11.934 -0.0111  0.5032 -0.3557
 1527SOL    HW116043   4.170   4.645  11.873 -0.0244 -0.0098 -0.3383
 1527SOL    HW216044   4.202   4.604  12.009 -0.7393 -1.5804 -1.9358
 1528SOL     OW16045   2.669   3.252   1.451  0.4559 -0.6738  0.0334
 1528SOL    HW116046   2.652   3.174   1.504  0.6830 -2.4526 -2.4867
 1528SOL    HW216047   2.579   3.271   1.426  0.5952 -0.7123 -0.4911
 1529SOL     OW16048   1.573   3.241   6.933  0.8833  0.7800 -0.1799
 1529SOL    HW116049   1.554   3.276   6.845  1.7151 -1.4097 -1.2171
 1529SOL    HW216050   1.486   3.224   6.968  0.8899 -0.2803 -0.7017
 1530SOL     OW16051   0.775   0.652  10.622 -0.0476  0.4469  0.0577
 1530SOL    HW116052   0.770   0.577  10.563  1.1574  0.1955  0.2708
 1530SOL    HW216053   0.685   0.687  10.622 -1.5367 -3.3341  4.0774
 1531SOL     OW16054   1.677   4.358  16.002 -0.4315 -0.7979 -0.6604
 1531SOL    HW116055   1.609   4.337  16.067  1.1903  1.3524  1.7304
 1531SOL    HW216056   1.741   4.291  16.023 -1.0566 -0.4191  2.4712
 1532SOL     OW16057   0.164   3.453   7.223  0.4127 -0.2586 -0.0540
 1532SOL    HW116058   0.194   3.450   7.132 -0.3059  1.1918 -0.3425
 1532SOL    HW216059   0.122   3.539   7.224 -0.3814 -0.6565  0.7225
 1533SOL     OW16060   2.872   4.542  11.424 -0.3789  0.3862  0.1326
 1533SOL    HW116061   2.941   4.516  11.485 -0.9258  0.9185  0.9786
 1533SOL    HW216062   2.799   4.486  11.448 -0.7374 -0.0938 -2.0460
 1534SOL     OW16063   1.796   0.286  11.197  0.0150  0.1623 -0.2397
 1534SOL    HW116064   1.723   0.348  11.187 -0.9909 -1.3227 -2.2115
 1534SOL    HW216065   1.873   0.329  11.161  0.2391 -1.0267 -1.1974
 1535SOL     OW16066   0.675   0.742   4.513 -0.1217  0.3867  0.5837
 1535SOL    HW116067   0.736   0.810   4.483  0.9718 -0.7023  0.3283
 1535SOL    HW216068   0.620   0.793   4.572  0.4128 -0.9380  2.2084
 1536SOL     OW16069   0.064   4.450   8.520 -0.2114 -0.0584 -0.2492
 1536SOL    HW116070   0.105   4.430   8.605 -2.1767  1.3630  1.0448
 1536SOL    HW216071   4.713   4.386   8.532 -1.3966  1.0439 -1.3604
 1537SOL     OW16072   2.834   2.936   7.031 -0.3873  0.7487  0.0272
 1537SOL    HW116073   2.914   2.953   7.079 -0.1476 -1.0386  0.2834
 1537SOL    HW216074   2.775   2.910   7.102 -0.6028  0.7518 -0.1505
 1538SOL     OW16075   4.272   0.117   6.294  1.0550  0.0937  0.6992
 1538SOL    HW116076   4.235   0.162   6.218  2.0941  0.0500  0.1719
 1538SOL    HW216077   4.290   0.027   6.267  0.9293  0.7585 -1.6430
 1539SOL     OW16078   4.328   2.659   3.537 -1.0428 -0.3003 -0.7806
 1539SOL    HW116079   4.417   2.656   3.502 -0.9494 -0.7411 -0.5007
 1539SOL    HW216080   4.305   2.566   3.538 -0.5786 -0.3972  0.6241
 1540SOL     OW16081   0.622   3.608  13.949 -1.0721  0.1745  0.3149
 1540SOL    HW116082   0.615   3.582  13.857  0.1084  0.2722  0.1936
 1540SOL    HW216083   0.698   3.667  13.953 -0.9657  0.0844 -0.3977
 1541SOL     OW16084   2.737   0.273   8.519  0.3930  0.3769  0.4750
 1541SOL    HW116085   2.774   0.269   8.608  2.0224 -1.7577 -0.3018
 1541SOL    HW216086   2.643   0.261   8.532  0.6159 -2.6693 -0.6820
 1542SOL     OW16087   4.078   2.656   5.491 -0.4951  0.0445 -0.5345
 1542SOL    HW116088   4.017   2.606   5.544  1.0386 -0.2128  0.9684
 1542SOL    HW216089   4.041   2.743   5.506  0.6674  0.8228 -2.0979
 1543SOL     OW16090   1.021   4.436  17.206 -0.0594  0.5731  0.1574
 1543SOL    HW116091   1.103   4.484  17.195 -0.3656  0.9231 -0.6353
 1543SOL    HW216092   0.971   4.497  17.260  0.1007  1.0680 -0.2509
 1544SOL     OW16093   2.482   4.210   6.455  0.0703 -0.2472  0.1895
 1544SOL    HW116094   2.505   4.178   6.367 -1.6642 -0.2424 -0.2614
 1544SOL    HW216095   2.394   4.238   6.431  0.3600  0.0105 -0.5929
 1545SOL     OW16096   2.793   2.856   5.589  0.1996  0.3417 -0.3274
 1545SOL    HW116097   2.878   2.873   5.548 -1.1951  1.7023 -2.6669
 1545SOL    HW216098   2.805   2.900   5.673  2.0245 -1.1843  0.1978
 1546SOL     OW16099   2.871   4.563   4.344  0.0047  0.0679  0.4868
 1546SOL    HW116100   2.852   4.474   4.315  0.9802  0.7706 -2.3335
 1546SOL    HW216101   2.933   4.593   4.278  0.7344 -1.7486  0.3698
 1547SOL     OW16102   2.707   1.963   2.014  0.5540  0.1141  0.7490
 1547SOL    HW116103   2.757   2.015   1.952 -0.1843  0.5295  0.5002
 1547SOL    HW216104   2.697   1.882   1.962 -0.9352  0.7108  0.0945
 1548SOL     OW16105   2.031   0.447  15.241  0.8686 -0.2213  0.0292
 1548SOL    HW116106   2.101   0.492  15.287 -1.8129  2.4371  1.5009
 1548SOL    HW216107   2.075   0.363  15.228  1.5154  0.0780  0.3336
 1549SOL     OW16108   4.458   2.696   4.947  0.0852 -0.2751 -0.4687
 1549SOL    HW116109   4.534   2.655   4.987  1.5609  3.0789  0.2016
 1549SOL    HW216110   4.448   2.771   5.006  0.1548  0.1439 -0.9838
 1550SOL     OW16111   4.435   0.009   5.858  0.3450 -0.0711  0.1293
 1550SOL    HW116112   4.360   4.693   5.906 -1.2516 -1.2151 -3.1437
 1550SOL    HW216113   4.396   0.000   5.771 -2.0389  1.7512  1.0033
 1551SOL     OW16114   3.071   0.780   6.195 -0.2305 -0.5178 -0.2810
 1551SOL    HW116115   3.009   0.716   6.230  0.8531 -0.5680  1.5376
 1551SOL    HW216116   3.116   0.801   6.278 -0.1395 -0.9250 -0.2285
 1552SOL     OW16117   2.019   4.647   4.247  0.0628  0.4580 -0.1425
 1552SOL    HW116118   1.992   0.017   4.227  0.3990  0.7194  0.5895
 1552SOL    HW216119   2.007   4.654   4.341 -1.1053  0.6114 -0.3031
 1553SOL     OW16120   0.295   3.452   4.666  0.0010  0.4432 -0.1005
 1553SOL    HW116121   0.201   3.439   4.665  0.2788 -1.5205 -0.9977
 1553SOL    HW216122   0.308   3.539   4.629  1.6614  0.8499  1.3991
 1554SOL     OW16123   0.169   1.172   9.589 -0.3202  0.0713 -0.3475
 1554SOL    HW116124   0.117   1.232   9.642  0.0171  1.5280 -1.6544
 1554SOL    HW216125   0.162   1.091   9.640 -0.6427 -0.0665 -0.6113
 1555SOL     OW16126   3.616   0.973  13.262 -0.4958  0.6167  0.3843
 1555SOL    HW116127   3.603   1.051  13.208  1.1918  0.8809  0.3749
 1555SOL    HW216128   3.544   0.979  13.325 -2.6491 -1.5716 -1.8186
 1556SOL     OW16129   4.273   0.644   4.310 -0.0900  0.2982 -0.3751
 1556SOL    HW116130   4.342   0.625   4.374 -1.9240 -0.5623  1.3474
 1556SOL    HW216131   4.333   0.695   4.255  1.7147 -2.1862 -0.7138
 1557SOL     OW16132   1.873   0.705   6.165 -0.0003 -0.0412 -0.0574
 1557SOL    HW116133   1.957   0.675   6.198  0.2453  0.8981  0.1838
 1557SOL    HW216134   1.847   0.640   6.100 -0.0200  1.3965 -1.4963
 1558SOL     OW16135   1.639   3.493   7.374  0.3502  0.5875  0.1942
 1558SOL    HW116136   1.684   3.477   7.292  2.0089 -1.6946  1.5553
 1558SOL    HW216137   1.691   3.565   7.408 -0.9006  2.0721 -1.0210
 1559SOL     OW16138   2.151   2.011   7.567  0.6739  0.4917 -0.5166
 1559SOL    HW116139   2.132   2.103   7.551 -0.2018  0.2202 -1.0355
 1559SOL    HW216140   2.082   1.992   7.631 -2.4202  1.4111 -3.6079
 1560SOL     OW16141   0.490   3.208   3.226 -0.2024  0.0548  0.0925
 1560SOL    HW116142   0.437   3.133   3.203  0.3705 -0.5206  0.6596
 1560SOL    HW216143   0.495   3.195   3.321 -1.3435  0.3013  0.1781
 1561SOL     OW16144   3.265   1.856   0.616 -0.3311  0.2369 -0.0018
 1561SOL    HW116145   3.244   1.764   0.634 -1.7551  0.9202  1.7707
 1561SOL    HW216146   3.355   1.850   0.586 -0.6445 -0.3444 -0.8311
 1562SOL     OW16147   2.515   3.125   5.795 -0.0107  0.2082 -0.3335
 1562SOL    HW116148   2.479   3.179   5.866 -2.0813 -3.0456  1.1004
 1562SOL    HW216149   2.438   3.106   5.742 -0.2308 -0.4600  0.2271
 1563SOL     OW16150   1.507   2.452   7.554 -1.1916 -0.0092  0.2523
 1563SOL    HW116151   1.487   2.495   7.471 -0.2243  0.4340  0.2405
 1563SOL    HW216152   1.450   2.376   7.552  0.2415 -1.0595 -0.4788
 1564SOL     OW16153   1.758   4.497   2.791 -0.6855 -0.5913 -0.1581
 1564SOL    HW116154   1.706   4.568   2.754  0.1119  1.3774  2.5137
 1564SOL    HW216155   1.817   4.549   2.846 -0.0911 -1.0461 -0.3663
 1565SOL     OW16156   0.328   3.435  16.837 -0.1954 -0.0046  0.0566
 1565SOL    HW116157   0.340   3.344  16.808  1.2192  0.2141 -0.0238
 1565SOL    HW216158   0.338   3.422  16.931 -1.0736 -0.2968  0.1106
 1566SOL     OW16159   2.375   3.243   6.014 -0.3923 -0.5015  0.2135
 1566SOL    HW116160   2.305   3.197   6.060 -1.9880  1.0650 -0.6385
 1566SOL    HW216161   2.345   3.334   6.025  2.9564  0.6583 -0.2371
 1567SOL     OW16162   3.832   4.113   2.304  0.0575 -0.5155  0.3340
 1567SOL    HW116163   3.764   4.055   2.268  1.8461 -2.8283  0.6457
 1567SOL    HW216164   3.899   4.045   2.313 -2.1488 -2.8217 -0.5586
 1568SOL     OW16165   2.405   1.555   3.567 -0.1812 -0.5629 -0.2205
 1568SOL    HW116166   2.382   1.546   3.475 -0.2530 -1.4831 -0.1055
 1568SOL    HW216167   2.500   1.540   3.563 -0.2833 -0.8891 -1.4489
 1569SOL     OW16168   1.887   2.555  17.580  0.1150 -0.0119  0.3798
 1569SOL    HW116169   1.923   2.497  17.648  0.0910 -0.9468 -0.3916
 1569SOL    HW216170   1.932   2.638  17.595  2.1981 -0.7532 -1.5917
 1570SOL     OW16171   2.237   0.788   4.140  0.0455 -0.3497 -0.1883
 1570SOL    HW116172   2.184   0.747   4.072 -1.4943  0.1548  0.7149
 1570SOL    HW216173   2.173   0.822   4.202 -0.8254  0.3555 -1.4989
 1571SOL     OW16174   1.848   1.185  14.657 -0.7882 -0.3626 -0.9996
 1571SOL    HW116175   1.795   1.222  14.727  3.1094  0.4389  1.5639
 1571SOL    HW216176   1.921   1.150  14.709 -1.0342  1.5672  0.6507
 1572SOL     OW16177   2.166   4.154  15.630  0.1753 -0.0192 -0.3652
 1572SOL    HW116178   2.229   4.225  15.619 -1.2690  1.1251 -1.3248
 1572SOL    HW216179   2.113   4.187  15.704  0.6579  0.4168 -0.2150
 1573SOL     OW16180   4.406   2.455   8.177 -0.4911  0.2024  0.9187
 1573SOL    HW116181   4.347   2.412   8.239 -0.5964  0.7534  1.1992
 1573SOL    HW216182   4.353   2.531   8.152 -0.2204 -0.0272 -0.3291
 1574SOL     OW16183   2.353   4.188   7.132  0.0747 -0.3047  0.5518
 1574SOL    HW116184   2.377   4.198   7.225  1.0847 -1.7765  0.4486
 1574SOL    HW216185   2.386   4.100   7.115 -1.8293 -1.2978  2.0133
 1575SOL     OW16186   3.823   4.359   6.631 -0.2353 -0.2435  0.1245
 1575SOL    HW116187   3.902   4.304   6.633 -0.4631 -0.5612  0.4297
 1575SOL    HW216188   3.784   4.320   6.553 -0.6722  0.1257  0.1580
 1576SOL     OW16189   0.614   1.310  13.033 -0.2000  0.1536 -0.2666
 1576SOL    HW116190   0.656   1.338  12.951 -0.6691 -0.2620 -0.6463
 1576SOL    HW216191   0.662   1.374  13.085 -3.4264  0.9946  1.6549
 1577SOL     OW16192   4.489   0.408   2.464  0.1054  0.2249  0.2340
 1577SOL    HW116193   4.544   0.481   2.435  0.2055  0.1692  0.2811
 1577SOL    HW216194   4.435   0.388   2.388 -0.2889  1.5141  0.1753
 1578SOL     OW16195   3.364   0.688  12.438 -0.4980 -0.4943 -0.3071
 1578SOL    HW116196   3.366   0.600  12.402  0.6741  0.0982 -1.7300
 1578SOL    HW216197   3.443   0.719  12.392 -0.3284 -0.2306  0.1555
 1579SOL     OW16198   4.662   3.462   4.832 -0.0468  0.0976 -0.2371
 1579SOL    HW116199   4.690   3.440   4.743 -2.8056  0.7448 -1.2599
 1579SOL    HW216200   4.621   3.548   4.818  0.3624  0.5129  1.1174
 1580SOL     OW16201   4.291   2.567  15.048  0.0739  0.3637 -0.2822
 1580SOL    HW116202   4.265   2.650  15.008 -0.5569 -0.2829 -1.2215
 1580SOL    HW216203   4.226   2.509  15.008  0.5089  0.8268 -1.6606
 1581SOL     OW16204   3.300   1.073   6.675  0.1043 -0.2249 -0.2901
 1581SOL    HW116205   3.315   1.087   6.582 -1.3120  0.7699 -0.3904
 1581SOL    HW216206   3.361   1.006   6.703  1.4358  1.0140 -0.2344
 1582SOL     OW16207   3.138   1.732  12.175  0.2224  0.2600  0.4853
 1582SOL    HW116208   3.123   1.641  12.149  0.2292  0.1400  0.9141
 1582SOL    HW216209   3.135   1.727  12.270  1.2949  0.1527  0.5062
 1583SOL     OW16210   1.995   3.101   5.238 -0.3356  0.2482 -0.0446
 1583SOL    HW116211   1.902   3.103   5.218 -0.6596 -1.6413  1.2362
 1583SOL    HW216212   2.009   3.006   5.238 -1.2297  0.1142  1.1808
 1584SOL     OW16213   0.968   3.031   6.060  0.0886 -0.2182  0.2994
 1584SOL    HW116214   1.019   2.959   6.096 -0.8750 -1.7314 -1.3542
 1584SOL    HW216215   0.990   3.013   5.969  0.7617 -0.8906  0.5935
 1585SOL     OW16216   1.361   4.188   7.091 -0.3053  0.0318 -0.3426
 1585SOL    HW116217   1.299   4.115   7.089  1.5225 -1.4855 -1.3637
 1585SOL    HW216218   1.324   4.243   7.021  0.9888  0.4606 -0.6967
 1586SOL     OW16219   4.014   3.888   6.634 -0.4348 -0.2851  0.3275
 1586SOL    HW116220   4.059   3.888   6.550 -1.1168 -0.8257 -0.0429
 1586SOL    HW216221   4.001   3.982   6.647  2.3688  0.4571 -2.3809
 1587SOL     OW16222   2.574   4.680   2.300 -0.1005 -0.0072  0.1967
 1587SOL    HW116223   2.559   4.628   2.379  0.7720 -0.6289 -0.0523
 1587SOL    HW216224   2.505   4.645   2.244  1.6203 -0.5001 -1.6307
 1588SOL     OW16225   0.353   0.753   5.521 -0.5763 -0.8335 -0.8816
 1588SOL    HW116226   0.334   0.765   5.428 -1.0993  0.4861 -0.6027
 1588SOL    HW216227   0.264   0.762   5.556 -0.3414  2.4848 -1.0909
 1589SOL     OW16228   2.336   2.201   7.338 -0.4213  0.2256  0.1881
 1589SOL    HW116229   2.306   2.207   7.429  0.4680  0.0869  0.4930
 1589SOL    HW216230   2.422   2.242   7.343 -0.0769 -0.3394 -1.0070
 1590SOL     OW16231   1.744   3.995  13.475  0.1563 -0.0258 -0.2495
 1590SOL    HW116232   1.827   3.953  13.498 -2.0458 -3.0258  2.1976
 1590SOL    HW216233   1.705   3.931  13.415 -0.5286  1.3019 -1.2123
 1591SOL     OW16234   1.598   1.066   4.203  0.4395  0.0959  0.3172
 1591SOL    HW116235   1.607   1.111   4.119 -3.4220 -2.4191 -1.4581
 1591SOL    HW216236   1.502   1.062   4.211  0.1747  0.5851 -2.2790
 1592SOL     OW16237   2.367   4.358   6.918 -0.0966  0.0780 -0.0641
 1592SOL    HW116238   2.306   4.311   6.860  0.2660 -3.2601  2.2309
 1592SOL    HW216239   2.382   4.291   6.985 -0.7232  1.7740  1.7437
 1593SOL     OW16240   4.411   3.871   7.592  0.1719  0.3568  0.0963
 1593SOL    HW116241   4.345   3.822   7.544  1.6017 -2.9715  1.5512
 1593SOL    HW216242   4.364   3.950   7.619  1.5108  0.6527  1.5676
 1594SOL     OW16243   0.539   1.890   5.062 -0.1441 -0.3232 -0.5425
 1594SOL    HW116244   0.448   1.881   5.033 -0.3883 -3.3195  1.1227
 1594SOL    HW216245   0.527   1.884   5.157  0.3408 -1.1816 -0.5338
 1595SOL     OW16246   0.324   3.323   6.978 -0.2463 -0.6267  0.7036
 1595SOL    HW116247   0.417   3.318   6.956 -0.6222 -5.5469  0.2292
 1595SOL    HW216248   0.285   3.237   6.963  0.1208 -0.2846 -2.1259
 1596SOL     OW16249   2.173   1.755   4.342 -0.0883  0.0324  0.0072
 1596SOL    HW116250   2.128   1.832   4.379 -1.2953  0.2409 -1.8867
 1596SOL    HW216251   2.099   1.700   4.314  0.0565 -0.5849  0.8377
 1597SOL     OW16252   1.426   0.588   4.670 -0.2785 -0.1979  0.2888
 1597SOL    HW116253   1.484   0.655   4.707 -1.4796  0.7644  0.4103
 1597SOL    HW216254   1.341   0.631   4.672 -0.8137 -1.1132 -1.9832
 1598SOL     OW16255   2.691   2.995   0.432 -0.2689  0.4597 -0.0841
 1598SOL    HW116256   2.724   2.923   0.378 -2.4214 -1.8005  1.6262
 1598SOL    HW216257   2.766   3.017   0.486 -1.9452  1.3008  1.9060
 1599SOL     OW16258   4.136   2.449   8.360  0.4704  0.0814  0.2157
 1599SOL    HW116259   4.112   2.424   8.271 -0.5998  1.7193  0.0637
 1599SOL    HW216260   4.053   2.448   8.408  0.1656 -1.2911 -0.3477
 1600SOL     OW16261   3.421   2.201   8.107  0.7245  0.3806 -0.3370
 1600SOL    HW116262   3.511   2.178   8.083  0.9634  0.6194  0.3495
 1600SOL    HW216263   3.429   2.295   8.095 -0.6881  0.6063  0.4755
 1601SOL     OW16264   0.091   0.463   6.094  0.3180 -0.4218  0.0281
 1601SOL    HW116265   0.175   0.501   6.116 -0.6084  2.2738 -1.0976
 1601SOL    HW216266   0.117   0.391   6.036  0.2084 -0.5988  0.1959
 1602SOL     OW16267   3.667   1.386   6.892  0.2829  0.0038 -0.0841
 1602SOL    HW116268   3.582   1.342   6.885  0.5204 -0.4653 -0.0251
 1602SOL    HW216269   3.645   1.468   6.936 -2.3303 -1.8563  2.0248
 1603SOL     OW16270   1.843   3.767   7.685 -0.0097  0.3819  0.1749
 1603SOL    HW116271   1.845   3.673   7.702 -1.2863  0.1901 -0.7071
 1603SOL    HW216272   1.810   3.801   7.768 -2.6632  0.7299 -1.0154
 1604SOL     OW16273   3.406   2.682   1.236  0.3713 -0.0787  0.5824
 1604SOL    HW116274   3.447   2.595   1.234  1.7230  0.6306 -2.5764
 1604SOL    HW216275   3.369   2.683   1.324 -1.5242 -2.2051 -0.1894
 1605SOL     OW16276   2.414   2.270   8.140  0.0318  0.6620 -0.0808
 1605SOL    HW116277   2.363   2.236   8.066  1.6134  0.5162 -1.1055
 1605SOL    HW216278   2.359   2.347   8.156 -1.3803 -0.7952  2.0760
 1606SOL     OW16279   0.479   0.149   0.170 -0.1015 -0.7098 -0.3045
 1606SOL    HW116280   0.388   0.120   0.178 -0.3160 -0.1348 -0.6495
 1606SOL    HW216281   0.515   0.062   0.189  1.1979  0.0892  0.8142
 1607SOL     OW16282   1.440   4.069   9.244  0.2820  0.2790 -0.3625
 1607SOL    HW116283   1.379   4.003   9.211  0.7995  0.0746 -0.9204
 1607SOL    HW216284   1.370   4.126   9.277  0.6560 -0.0560  0.9903
 1608SOL     OW16285   4.460   4.443   7.496  0.5317 -0.0160  0.0530
 1608SOL    HW116286   4.436   4.481   7.411  2.8744  1.4105  0.0257
 1608SOL    HW216287   4.537   4.494   7.521  0.2449 -0.2038  1.2815
 1609SOL     OW16288   4.706   1.892  17.613 -0.4980 -0.2057  0.4960
 1609SOL    HW116289   4.671   1.845   0.008 -2.4376 -0.5185 -0.6084
 1609SOL    HW216290   4.637   1.876  17.548 -1.3739  0.9391  1.1485
 1610SOL     OW16291   4.187   2.198   6.683 -0.7511  0.1399 -0.1462
 1610SOL    HW116292   4.162   2.290   6.677 -0.5586 -0.0506 -3.4423
 1610SOL    HW216293   4.098   2.166   6.695 -1.4165  1.1946 -2.4258
 1611SOL     OW16294   3.024   0.080  10.282 -0.0149  0.0717 -0.5262
 1611SOL    HW116295   2.949   0.036  10.320  0.0497 -0.0558 -0.5471
 1611SOL    HW216296   3.034   0.033  10.199 -1.0031  2.0857 -1.8164
 1612SOL     OW16297   3.282   4.129   9.885 -0.0844  0.1169 -0.7795
 1612SOL    HW116298   3.349   4.122   9.816 -1.5535 -3.0377 -1.8713
 1612SOL    HW216299   3.285   4.043   9.929 -0.7057  1.5574  2.0685
 1613SOL     OW16300   0.755   3.295   7.327 -0.0715  0.3091  0.2983
 1613SOL    HW116301   0.782   3.379   7.290  1.0066  0.0485  0.5166
 1613SOL    HW216302   0.796   3.233   7.267 -1.5420 -1.2428  0.9077
 1614SOL     OW16303   3.112   2.878   8.251  0.1961  0.4306 -0.5834
 1614SOL    HW116304   3.126   2.891   8.345 -2.3117  3.3551 -0.6074
 1614SOL    HW216305   3.197   2.851   8.217 -0.1933  0.6841 -1.7387
 1615SOL     OW16306   1.164   4.625   2.849  0.3958  0.4854 -0.3866
 1615SOL    HW116307   1.226   4.688   2.813 -1.4584  1.9321 -1.0505
 1615SOL    HW216308   1.172   4.629   2.944  1.3106  1.3859 -0.5075
 1616SOL     OW16309   4.548   2.400   3.910  0.2454 -0.8122 -0.2854
 1616SOL    HW116310   4.558   2.405   3.815 -2.2042  1.8596 -0.4121
 1616SOL    HW216311   4.459   2.372   3.931  1.2457 -2.5545  1.6164
 1617SOL     OW16312   2.537   3.913   6.979 -0.1557 -0.4081  0.0484
 1617SOL    HW116313   2.476   3.915   6.905 -0.6163 -2.0127  0.3695
 1617SOL    HW216314   2.528   3.820   7.001  1.6459 -0.3904  0.8240
 1618SOL     OW16315   3.600   1.098   2.839 -0.4140  0.0846 -0.0732
 1618SOL    HW116316   3.662   1.028   2.819 -1.7712 -0.8016 -1.1736
 1618SOL    HW216317   3.649   1.178   2.820 -0.0610  0.4065  2.1491
 1619SOL     OW16318   4.343   1.661   6.745 -0.3245 -0.1205  0.3676
 1619SOL    HW116319   4.270   1.686   6.802 -0.9855  0.1183 -0.5947
 1619SOL    HW216320   4.415   1.661   6.809 -0.5341  0.2866  0.6050
 1620SOL     OW16321   0.639   0.292   0.865 -0.1985  0.1514 -0.0840
 1620SOL    HW116322   0.668   0.373   0.823  0.2523  0.3186  0.5461
 1620SOL    HW216323   0.596   0.244   0.795  0.1808 -1.5170  0.8374
 1621SOL     OW16324   3.669   2.081   6.558 -0.3136  0.9981 -0.2899
 1621SOL    HW116325   3.670   2.026   6.480 -0.5989 -0.0264  0.4340
 1621SOL    HW216326   3.585   2.123   6.539 -1.9206 -1.3223  1.5575
 1622SOL     OW16327   3.136   1.938  11.603 -0.0789 -0.4824  0.5493
 1622SOL    HW116328   3.162   2.004  11.539  0.8206  0.8627  2.2894
 1622SOL    HW216329   3.090   1.873  11.550 -1.4210  1.3351 -0.5044
 1623SOL     OW16330   0.907   1.582   7.740 -0.7274  0.1339  0.1801
 1623SOL    HW116331   0.959   1.554   7.665 -0.0672 -0.9445  1.0445
 1623SOL    HW216332   0.898   1.492   7.771  0.0844  0.2380  0.7150
 1624SOL     OW16333   3.421   2.069   4.633  0.1783  0.2646 -0.3740
 1624SOL    HW116334   3.483   1.998   4.647 -0.2292  0.5223  2.8730
 1624SOL    HW216335   3.355   2.029   4.577 -2.1976  1.4041  1.6089
 1625SOL     OW16336   2.518   0.463   2.134  0.1811  0.0346 -0.5356
 1625SOL    HW116337   2.495   0.524   2.204  0.3425 -0.8626  0.2841
 1625SOL    HW216338   2.439   0.470   2.080 -0.0575  0.4093 -0.1313
 1626SOL     OW16339   4.105   2.801   8.548 -0.1439  0.2177  0.3260
 1626SOL    HW116340   4.067   2.830   8.631  3.7740 -0.1488  2.2606
 1626SOL    HW216341   4.133   2.712   8.568 -0.6288  0.4877  2.1262
 1627SOL     OW16342   4.694   0.502  17.639  0.2698 -0.6186  0.2647
 1627SOL    HW116343   4.614   0.449  17.633  0.1452 -0.2714 -1.2357
 1627SOL    HW216344   0.005   0.488   0.047  2.6161  1.5618 -0.2085
 1628SOL     OW16345   4.442   0.580  13.627 -0.6207 -0.3046  0.1267
 1628SOL    HW116346   4.355   0.616  13.606 -0.6004  0.1033  0.7291
 1628SOL    HW216347   4.416   0.498  13.670  0.7894  0.1520  1.8476
 1629SOL     OW16348   0.733   2.378   9.258  0.1461 -0.2517 -0.1953
 1629SOL    HW116349   0.657   2.320   9.266 -1.9458  2.5928  0.4024
 1629SOL    HW216350   0.737   2.405   9.350  0.0009 -2.0203  0.3329
 1630SOL     OW16351   0.942   4.550  16.253  0.3329 -0.0848  0.2138
 1630SOL    HW116352   0.903   4.575  16.337 -1.4790 -1.0178 -0.3523
 1630SOL    HW216353   1.031   4.580  16.268  0.6028 -0.1675 -1.2374
 1631SOL     OW16354   0.592   1.299  11.290  0.3149  0.0948 -0.7500
 1631SOL    HW116355   0.672   1.350  11.276  0.2281  0.5833  0.4870
 1631SOL    HW216356   0.623   1.209  11.285  1.4681  0.5436 -1.6421
 1632SOL     OW16357   4.574   3.121   0.309 -0.0620  0.1180  0.4385
 1632SOL    HW116358   4.514   3.049   0.289 -0.3502  1.2542 -2.7415
 1632SOL    HW216359   4.591   3.106   0.402  2.0726 -2.1149 -0.3025
 1633SOL     OW16360   2.161   2.632   4.685 -0.2177 -0.5251  0.7843
 1633SOL    HW116361   2.168   2.558   4.745 -0.7393  0.7189  2.3619
 1633SOL    HW216362   2.239   2.680   4.713 -1.0041  0.1724  1.8014
 1634SOL     OW16363   0.790   0.411  15.619 -0.0407 -0.1654 -0.3503
 1634SOL    HW116364   0.724   0.478  15.637 -0.8341 -1.3195  1.0765
 1634SOL    HW216365   0.789   0.410  15.523 -0.1702 -0.6142 -0.3467
 1635SOL     OW16366   2.852   2.930   9.007 -0.0100  0.3953  0.0019
 1635SOL    HW116367   2.805   2.854   9.041 -0.1857  0.3164 -0.4114
 1635SOL    HW216368   2.887   2.974   9.084 -0.0077 -2.1878  1.4805
 1636SOL     OW16369   2.721   2.574   1.335  0.0148 -0.1653 -0.0118
 1636SOL    HW116370   2.754   2.499   1.286 -2.1413 -0.9046 -0.3029
 1636SOL    HW216371   2.666   2.620   1.271 -1.6833 -1.6302  0.4224
 1637SOL     OW16372   1.701   0.760   5.172 -0.0438 -0.1527 -0.3478
 1637SOL    HW116373   1.759   0.748   5.097  0.9867  2.9199 -0.0434
 1637SOL    HW216374   1.764   0.775   5.243 -0.3315 -0.9439  0.0657
 1638SOL     OW16375   0.138   4.086   2.805  0.3267  0.0944 -0.3420
 1638SOL    HW116376   0.108   4.170   2.769  1.0319 -0.3613 -2.0163
 1638SOL    HW216377   0.231   4.100   2.820  0.8156 -0.9232 -2.4637
 1639SOL     OW16378   1.546   3.050   9.284  0.5774 -0.3567  0.1318
 1639SOL    HW116379   1.578   3.002   9.361  0.9469 -0.6940 -0.2278
 1639SOL    HW216380   1.583   2.993   9.216 -1.3457 -1.3013 -0.1346
 1640SOL     OW16381   0.384   4.198   0.298  0.2261 -0.1597 -0.5226
 1640SOL    HW116382   0.475   4.169   0.293  0.1822 -0.7614  1.8199
 1640SOL    HW216383   0.348   4.125   0.348  0.6632  0.1327  0.2171
 1641SOL     OW16384   3.337   1.210   7.939 -0.1683  0.0499 -0.8009
 1641SOL    HW116385   3.256   1.220   7.991  0.2028 -0.5726 -0.1004
 1641SOL    HW216386   3.359   1.117   7.943 -1.4531 -0.2423 -0.3033
 1642SOL     OW16387   2.114   1.525   2.517 -0.0846  0.1900  0.1043
 1642SOL    HW116388   2.080   1.490   2.600  1.7961 -2.7721 -0.4029
 1642SOL    HW216389   2.028   1.537   2.476 -0.5828 -0.0842  1.0502
 1643SOL     OW16390   4.493   2.683   1.042 -0.1098 -0.1458 -0.1140
 1643SOL    HW116391   4.512   2.682   0.948 -1.7414  1.0395 -0.4614
 1643SOL    HW216392   4.580   2.686   1.080  0.2752  0.7436 -1.0711
 1644SOL     OW16393   1.849   1.418   2.864  0.2348  0.1721 -0.5281
 1644SOL    HW116394   1.920   1.366   2.825 -0.4925 -0.7837 -0.5687
 1644SOL    HW216395   1.799   1.431   2.784  0.8927 -1.1039 -1.1373
 1645SOL     OW16396   2.601   0.542   3.026  0.0559  0.0949  0.4063
 1645SOL    HW116397   2.528   0.589   3.068  0.5078  0.9025  0.2838
 1645SOL    HW216398   2.652   0.507   3.099 -0.7310  0.6527  1.2277
 1646SOL     OW16399   2.139   2.355   1.368 -0.2448 -0.5315 -0.2021
 1646SOL    HW116400   2.131   2.447   1.342 -1.6886 -0.4507  0.5157
 1646SOL    HW216401   2.204   2.326   1.305 -0.6517  0.6942 -1.1882
 1647SOL     OW16402   3.635   0.624   7.203  0.1568  0.2523  0.5917
 1647SOL    HW116403   3.665   0.661   7.120 -0.0231  0.2504  0.5266
 1647SOL    HW216404   3.703   0.649   7.266 -0.0971  0.4829  0.7724
 1648SOL     OW16405   1.952   3.683   6.176  0.3103  0.0190 -0.2307
 1648SOL    HW116406   2.002   3.619   6.226 -0.2949  1.6850  2.5221
 1648SOL    HW216407   2.026   3.719   6.128  0.0106  0.7451 -0.1517
 1649SOL     OW16408   1.315   0.436  16.311 -0.0423 -0.1728  0.1654
 1649SOL    HW116409   1.223   0.448  16.289  0.3842 -2.3273 -2.7265
 1649SOL    HW216410   1.363   0.519  16.321  0.4442 -0.1659 -2.1724
 1650SOL     OW16411   3.685   0.021   1.216  0.4353  0.2491 -0.2327
 1650SOL    HW116412   3.631   0.010   1.295 -2.5057  1.3154 -2.0844
 1650SOL    HW216413   3.771   0.007   1.255  0.5612 -1.0140 -0.9686
 1651SOL     OW16414   1.820   1.118   5.872 -0.6662  0.1296 -0.3298
 1651SOL    HW116415   1.898   1.115   5.817 -0.1229  0.0467  0.4484
 1651SOL    HW216416   1.778   1.034   5.854  3.5769 -2.2069  0.6259
 1652SOL     OW16417   0.888   2.868   0.464  0.2247  0.2924  0.0876
 1652SOL    HW116418   0.974   2.908   0.479  0.3511  0.1223 -0.1678
 1652SOL    HW216419   0.895   2.800   0.532 -0.1306 -1.7935 -1.9438
 1653SOL     OW16420   4.004   1.225   4.451 -0.1867  0.5445  0.0985
 1653SOL    HW116421   3.953   1.303   4.473 -1.1027 -0.5265  1.8250
 1653SOL    HW216422   3.943   1.161   4.414  2.1169 -1.5858 -0.0203
 1654SOL     OW16423   1.054   2.140   2.272 -0.3509  0.2762  0.3124
 1654SOL    HW116424   1.037   2.061   2.221 -2.9012 -0.1960  1.8949
 1654SOL    HW216425   1.018   2.116   2.358  1.8960 -0.0092  1.1885
 1655SOL     OW16426   0.025   1.859   7.777  0.6066  0.1760 -0.0040
 1655SOL    HW116427   0.025   1.932   7.838  0.6232 -0.8329  1.2042
 1655SOL    HW216428   0.106   1.873   7.727  1.2131  1.1500  1.2367
 1656SOL     OW16429   1.947   0.840  17.334  0.2195  0.7269 -0.6651
 1656SOL    HW116430   1.911   0.804  17.253  0.5195 -1.9022  0.3617
 1656SOL    HW216431   1.976   0.760  17.379 -0.3660  1.3864  0.8935
 1657SOL     OW16432   4.398   1.487   0.553  0.1494 -0.6538  0.2341
 1657SOL    HW116433   4.351   1.442   0.483  0.2940  0.9068 -0.8678
 1657SOL    HW216434   4.485   1.449   0.537  0.1917 -1.4899  2.4677
 1658SOL     OW16435   1.466   4.110   5.801 -0.3280 -0.4181 -0.0402
 1658SOL    HW116436   1.528   4.151   5.862 -1.3861  0.7521  0.2602
 1658SOL    HW216437   1.458   4.021   5.835 -1.4620 -0.7924 -1.2839
 1659SOL     OW16438   3.274   3.470   2.228 -0.2270 -0.1401 -0.2390
 1659SOL    HW116439   3.226   3.470   2.311 -0.2019 -0.0084 -0.2248
 1659SOL    HW216440   3.266   3.375   2.215 -0.7701 -0.0498 -0.5403
 1660SOL     OW16441   0.850   4.602  10.737  0.3733 -0.0147  0.0347
 1660SOL    HW116442   0.851   4.518  10.692 -0.8927  0.6948 -1.2903
 1660SOL    HW216443   0.823   4.580  10.826  1.8144  1.6339  0.8940
 1661SOL     OW16444   2.895   4.155  10.439 -0.2267 -0.6137 -0.6580
 1661SOL    HW116445   2.852   4.071  10.454  0.3753 -0.5736  1.3620
 1661SOL    HW216446   2.945   4.156  10.521 -0.3867  0.7348 -0.5742
 1662SOL     OW16447   1.245   3.208   6.114 -0.4750  0.4424 -0.3002
 1662SOL    HW116448   1.156   3.175   6.104 -0.3303  0.0567 -0.2940
 1662SOL    HW216449   1.236   3.296   6.078  2.3657 -0.0428 -2.1619
 1663SOL     OW16450   1.868   1.467  14.550 -0.0521 -0.1757 -0.8332
 1663SOL    HW116451   1.838   1.376  14.561 -2.0231  0.0878 -3.7617
 1663SOL    HW216452   1.873   1.489  14.643 -3.7130 -1.2975 -0.3419
 1664SOL     OW16453   1.884   3.907   1.209  0.0867 -0.2206 -0.4019
 1664SOL    HW116454   1.815   3.920   1.144 -1.3553 -0.0071  1.1983
 1664SOL    HW216455   1.933   3.829   1.182  0.7251 -0.4712  1.4784
 1665SOL     OW16456   3.903   0.396   8.030  0.8203 -0.3827 -0.3039
 1665SOL    HW116457   3.911   0.321   8.089  0.2516  0.6275  1.0606
 1665SOL    HW216458   3.977   0.452   8.055 -0.0838  0.9901 -0.6852
 1666SOL     OW16459   4.429   4.131   3.820  0.3811 -0.2787  0.1247
 1666SOL    HW116460   4.395   4.174   3.741  2.0845 -2.3259 -1.6894
 1666SOL    HW216461   4.390   4.046   3.802 -0.2550  0.3379 -1.4151
 1667SOL     OW16462   0.302   3.193   7.254 -0.5495 -0.1133  0.0542
 1667SOL    HW116463   0.224   3.140   7.237 -1.2412  0.9963 -0.1954
 1667SOL    HW216464   0.256   3.275   7.236  2.0502  1.2218 -0.5138
 1668SOL     OW16465   3.454   0.386   6.217  0.0588 -0.7392  0.4861
 1668SOL    HW116466   3.438   0.308   6.271 -0.6167 -2.0374 -1.6044
 1668SOL    HW216467   3.539   0.361   6.179  0.0760  1.0493 -0.6422
 1669SOL     OW16468   3.020   4.639  14.583 -0.3553  0.5299 -0.0438
 1669SOL    HW116469   3.074   4.562  14.563  0.0482  0.1678  2.3898
 1669SOL    HW216470   3.084   4.710  14.578  1.5407 -1.0186  2.5983
 1670SOL     OW16471   3.570   2.918   8.768  0.2603 -0.2042  0.3596
 1670SOL    HW116472   3.647   2.930   8.823  1.1780 -0.5180 -0.8564
 1670SOL    HW216473   3.531   2.841   8.811 -1.9350  0.9202  0.3821
 1671SOL     OW16474   4.198   3.430   9.361 -0.5315 -0.1240  0.1449
 1671SOL    HW116475   4.219   3.463   9.274  1.4262 -2.8389 -0.4041
 1671SOL    HW216476   4.245   3.347   9.356  1.7903  1.2184  0.0782
 1672SOL     OW16477   2.221   2.898   4.149 -0.7266  0.1542  0.0065
 1672SOL    HW116478   2.313   2.897   4.123 -0.0282 -0.7752  2.5035
 1672SOL    HW216479   2.223   2.812   4.190  0.0583  0.5224  0.7646
 1673SOL     OW16480   2.361   1.431   2.589 -0.0353 -0.0577  0.3656
 1673SOL    HW116481   2.433   1.493   2.576 -2.2861  2.1531 -1.6055
 1673SOL    HW216482   2.284   1.478   2.557  1.0224  1.0536 -0.5237
 1674SOL     OW16483   0.960   2.587  17.202 -0.1161 -0.1858  0.2966
 1674SOL    HW116484   0.887   2.633  17.161  0.2499 -0.2103 -0.3849
 1674SOL    HW216485   0.920   2.505  17.229  1.3923 -0.2975  2.1572
 1675SOL     OW16486   1.574   3.694   0.588  0.0273 -0.5570  0.3138
 1675SOL    HW116487   1.511   3.658   0.651 -1.6453 -0.3562 -1.2500
 1675SOL    HW216488   1.516   3.745   0.532  1.3241 -0.7285 -1.1749
 1676SOL     OW16489   1.860   0.216   0.059  0.6363 -0.1528  0.2304
 1676SOL    HW116490   1.944   0.252   0.029  0.1679  1.6655  1.0623
 1676SOL    HW216491   1.829   0.154  17.675  0.7250 -0.1056  0.1434
 1677SOL     OW16492   2.800   1.169   6.686 -0.4962  0.1476 -0.0326
 1677SOL    HW116493   2.745   1.103   6.729 -0.5543 -0.9867 -1.8269
 1677SOL    HW216494   2.760   1.166   6.599  0.3974 -1.1837 -0.4022
 1678SOL     OW16495   0.118   1.159   4.547 -0.8947  0.0498 -0.6628
 1678SOL    HW116496   0.157   1.143   4.462  0.9931  0.2864  0.1625
 1678SOL    HW216497   0.045   1.097   4.552 -0.0012 -0.8460  1.3492
 1679SOL     OW16498   4.094   4.373  12.554  0.2780 -0.2833  0.1690
 1679SOL    HW116499   4.072   4.411  12.639 -0.5148 -0.2794 -0.0353
 1679SOL    HW216500   4.129   4.287  12.577  1.8541  0.1674 -0.5716
 1680SOL     OW16501   2.032   3.764   4.493 -0.2426  0.3428  0.6173
 1680SOL    HW116502   1.982   3.814   4.429 -1.3348  0.7327  1.7994
 1680SOL    HW216503   2.118   3.807   4.491  0.3337 -0.8154  0.2063
 1681SOL     OW16504   4.620   3.464   2.822  0.0129 -0.0272  0.2907
 1681SOL    HW116505   4.546   3.424   2.775 -0.6355 -1.3580  2.4343
 1681SOL    HW216506   4.685   3.396   2.806  3.9346  3.2465  2.5187
 1682SOL     OW16507   2.436   2.969   2.727  0.1414  0.0479 -0.0519
 1682SOL    HW116508   2.487   3.047   2.750 -1.4627  0.6164  1.5345
 1682SOL    HW216509   2.398   2.948   2.812 -0.9223  2.0689 -0.0283
 1683SOL     OW16510   2.536   1.997   6.306  0.3437 -0.6448 -0.2720
 1683SOL    HW116511   2.537   2.003   6.210 -1.1143 -1.4406 -0.3435
 1683SOL    HW216512   2.501   1.910   6.328  3.4996 -2.1608 -1.1360
 1684SOL     OW16513   2.298   2.478   8.872  0.1211 -0.1912  0.6264
 1684SOL    HW116514   2.376   2.428   8.896  1.1115  0.6379 -0.8582
 1684SOL    HW216515   2.334   2.535   8.803 -0.4242 -0.4159  0.1598
 1685SOL     OW16516   2.862   1.609  12.412 -0.3950 -0.1664 -0.5640
 1685SOL    HW116517   2.857   1.634  12.319  1.3078 -1.5960 -1.0324
 1685SOL    HW216518   2.822   1.522  12.416 -1.1706  0.3125  2.0071
 1686SOL     OW16519   4.132   2.662   7.661  0.1232 -0.1985  0.1522
 1686SOL    HW116520   4.095   2.749   7.648 -1.7078 -1.1737 -1.1102
 1686SOL    HW216521   4.111   2.620   7.577 -0.2018 -2.0745  1.1550
 1687SOL     OW16522   0.132   1.100   8.340  0.2513 -0.3547  0.2762
 1687SOL    HW116523   0.207   1.158   8.331 -1.3481  1.7376  0.3207
 1687SOL    HW216524   0.172   1.034   8.395 -0.1728 -1.1247 -0.3333
 1688SOL     OW16525   3.174   1.279   8.166 -0.3139 -0.2134 -0.0092
 1688SOL    HW116526   3.249   1.293   8.224 -0.4675 -0.4691  0.2504
 1688SOL    HW216527   3.149   1.369   8.145 -0.3512 -0.0214  0.8643
 1689SOL     OW16528   4.463   1.184  11.991 -0.4182  0.1616  0.9531
 1689SOL    HW116529   4.476   1.227  12.075 -0.0982  2.6888 -0.3844
 1689SOL    HW216530   4.417   1.108  12.027 -1.0398  0.9168  1.7194
 1690SOL     OW16531   1.773   3.951   3.320 -0.2003  0.6802  0.1160
 1690SOL    HW116532   1.813   3.869   3.348  2.6442  1.4218 -1.7639
 1690SOL    HW216533   1.833   3.985   3.254 -2.7802  1.8521 -1.6351
 1691SOL     OW16534   4.558   2.001  11.838 -0.1783 -0.2927 -0.2895
 1691SOL    HW116535   4.580   1.994  11.746  1.8357 -0.1894  0.1841
 1691SOL    HW216536   4.642   1.980  11.878 -0.6424 -0.6654  0.5153
 1692SOL     OW16537   1.465   2.233   5.478  0.1517  0.6140 -0.0509
 1692SOL    HW116538   1.511   2.299   5.425  2.0067 -0.6899 -0.0369
 1692SOL    HW216539   1.535   2.170   5.492 -0.5511 -0.7648 -2.8109
 1693SOL     OW16540   1.213   4.268   3.366 -0.4951  0.1668 -0.0430
 1693SOL    HW116541   1.141   4.219   3.326 -0.0843 -0.0411 -0.5317
 1693SOL    HW216542   1.170   4.350   3.388 -1.5237 -0.3957  0.0630
 1694SOL     OW16543   1.956   0.489  15.753 -0.3126 -0.3220  0.6272
 1694SOL    HW116544   1.933   0.396  15.757 -2.1874  0.1608  0.9909
 1694SOL    HW216545   1.963   0.517  15.844 -1.6720 -0.9123  0.9133
 1695SOL     OW16546   3.301   3.220   8.659  0.1831 -0.0204 -0.5020
 1695SOL    HW116547   3.245   3.178   8.725 -1.9195 -1.5416 -3.2638
 1695SOL    HW216548   3.384   3.227   8.708  0.7139  2.3512 -1.7644
 1696SOL     OW16549   0.756   0.010   3.522 -0.2594 -0.3519 -0.1017
 1696SOL    HW116550   0.744   0.084   3.461  2.1839  0.0298 -0.0881
 1696SOL    HW216551   0.695   4.660   3.497  0.1483 -1.7877  2.8736
 1697SOL     OW16552   1.081   0.922   3.950 -0.4078  0.0827  0.5708
 1697SOL    HW116553   1.067   1.016   3.944 -0.4040  0.1170  1.1146
 1697SOL    HW216554   1.175   0.921   3.968 -0.2427  1.5622 -0.1842
 1698SOL     OW16555   2.635   0.990   7.486 -0.1267 -0.4921 -0.0554
 1698SOL    HW116556   2.687   0.982   7.406 -1.0868  1.3569 -0.8627
 1698SOL    HW216557   2.617   1.083   7.498  0.5545 -0.5279  1.2760
 1699SOL     OW16558   3.074   3.370   4.678 -0.2186 -0.1752 -0.1543
 1699SOL    HW116559   3.140   3.304   4.701  0.4303 -0.0202 -1.5662
 1699SOL    HW216560   3.032   3.366   4.764  1.9397  0.7616  0.9708
 1700SOL     OW16561   2.050   3.437  16.475  0.2373  0.0904  0.1398
 1700SOL    HW116562   1.967   3.464  16.515  0.6175  1.6877 -0.1688
 1700SOL    HW216563   2.017   3.386  16.401  0.2383 -0.2791  0.3951
 1701SOL     OW16564   2.038   4.640  15.895  0.4043  0.1945 -0.6258
 1701SOL    HW116565   2.023   4.710  15.959  1.9273 -0.3178  0.2937
 1701SOL    HW216566   1.948   4.624  15.864  0.0934 -0.6356  0.6947
 1702SOL     OW16567   4.582   0.743   4.911  0.1142  0.0354 -0.0020
 1702SOL    HW116568   4.526   0.677   4.952  0.1104  0.7450  1.1139
 1702SOL    HW216569   4.522   0.811   4.880 -1.0867 -0.1177  2.0322
 1703SOL     OW16570   4.267   1.231   6.637  0.0417 -0.1157  0.2155
 1703SOL    HW116571   4.311   1.235   6.722  0.4563 -2.2935  0.1227
 1703SOL    HW216572   4.236   1.321   6.638  0.3671 -0.0277  2.0755
 1704SOL     OW16573   1.378   0.056   7.205  0.0339  0.2498 -0.4469
 1704SOL    HW116574   1.325   0.012   7.272  0.5827 -0.6299 -0.5802
 1704SOL    HW216575   1.459   0.063   7.255 -0.4046  0.5043  0.2242
 1705SOL     OW16576   2.004   1.759  14.717 -0.0644  0.1810  0.3262
 1705SOL    HW116577   1.960   1.820  14.659  0.9035  0.9113  0.3682
 1705SOL    HW216578   1.938   1.691  14.729 -0.4426  0.3059 -1.0113
 1706SOL     OW16579   0.957   2.308   5.721  0.4923  0.2314 -0.2773
 1706SOL    HW116580   0.884   2.293   5.781  0.8485  0.9492  0.3337
 1706SOL    HW216581   0.986   2.395   5.748  2.7326 -1.2945  2.2186
 1707SOL     OW16582   2.223   1.354   1.436  0.2561  0.1539 -0.9907
 1707SOL    HW116583   2.187   1.313   1.515  0.0336 -2.0520 -2.2333
 1707SOL    HW216584   2.145   1.394   1.396  1.4502  1.9601 -1.5073
 1708SOL     OW16585   4.298   0.027   6.549  0.0667  0.3402  0.0170
 1708SOL    HW116586   4.283   0.078   6.469  1.5041  2.0311  0.8239
 1708SOL    HW216587   4.245   4.667   6.547 -0.0473  0.4054  0.4999
 1709SOL     OW16588   0.796   0.097   0.532  0.0343  0.2243  0.6098
 1709SOL    HW116589   0.809   0.085   0.626  2.9364 -0.8872  0.0556
 1709SOL    HW216590   0.701   0.097   0.528  0.0243  0.5033  0.8560
 1710SOL     OW16591   4.316   0.881  16.890 -0.1580  0.2448 -0.0444
 1710SOL    HW116592   4.228   0.864  16.921 -1.2582  0.2729 -3.1775
 1710SOL    HW216593   4.363   0.805  16.924  0.0977  0.4287  0.0201
 1711SOL     OW16594   4.297   4.111  15.145  0.0899  0.0157 -0.7072
 1711SOL    HW116595   4.255   4.189  15.181 -0.0559  0.2513 -1.3869
 1711SOL    HW216596   4.259   4.096  15.058  0.5363 -1.4773 -0.6428
 1712SOL     OW16597   2.160   4.386   0.939 -0.0148  0.4259  0.2661
 1712SOL    HW116598   2.132   4.438   0.863  1.3473 -0.7364 -1.0539
 1712SOL    HW216599   2.204   4.457   0.986  1.5523 -1.3371  1.4340
 1713SOL     OW16600   3.564   4.713   8.610  0.1847  0.3046 -0.1738
 1713SOL    HW116601   3.550   0.070   8.666  1.6799  0.0404  0.5611
 1713SOL    HW216602   3.628   0.019   8.544 -0.7548  0.7556 -0.9161
 1714SOL     OW16603   0.002   1.510   6.034 -0.0970  0.4189 -0.5797
 1714SOL    HW116604   4.646   1.569   6.040  0.5138  1.1462 -0.0324
 1714SOL    HW216605   4.674   1.427   6.038  0.6789 -0.0560 -1.3738
 1715SOL     OW16606   0.494   1.188   2.203  0.1909 -0.1838  0.5069
 1715SOL    HW116607   0.408   1.189   2.245  0.7335 -2.7276  1.6322
 1715SOL    HW216608   0.477   1.221   2.114  0.6755 -1.3972 -0.0295
 1716SOL     OW16609   3.575   2.403  11.224 -0.2127 -0.2458  0.4760
 1716SOL    HW116610   3.663   2.369  11.241 -0.4070 -2.1520 -2.3266
 1716SOL    HW216611   3.529   2.382  11.305 -0.2274  0.2302  0.5923
 1717SOL     OW16612   0.118   1.163  17.214  0.2503 -0.1746 -0.0775
 1717SOL    HW116613   0.077   1.087  17.254 -0.9362 -0.1458 -1.2552
 1717SOL    HW216614   0.199   1.163  17.265 -1.0749 -1.8951  1.9904
 1718SOL     OW16615   4.468   2.883  14.697  1.1681  0.1604 -0.4345
 1718SOL    HW116616   4.516   2.938  14.758 -1.8477  1.7909  0.5094
 1718SOL    HW216617   4.530   2.881  14.624  0.1432 -2.4718 -1.2650
 1719SOL     OW16618   4.118   3.445   6.350  0.2539  0.8553 -1.0007
 1719SOL    HW116619   4.032   3.406   6.360  0.4243  0.0433 -2.6321
 1719SOL    HW216620   4.093   3.529   6.388 -0.9405 -0.5275  1.2589
 1720SOL     OW16621   3.481   2.046   7.052 -0.1805  0.4039  0.2289
 1720SOL    HW116622   3.430   2.102   7.110 -0.4593  0.4810 -0.0920
 1720SOL    HW216623   3.539   2.114   7.018 -0.0011 -0.1802 -0.6075
 1721SOL     OW16624   1.212   2.264   5.369 -0.1262 -0.1654 -0.7781
 1721SOL    HW116625   1.298   2.242   5.405  0.2146  0.5113 -1.1756
 1721SOL    HW216626   1.241   2.351   5.341 -2.2586  0.7973  0.0679
 1722SOL     OW16627   1.275   1.406   3.919 -0.0718  0.1220 -0.6733
 1722SOL    HW116628   1.304   1.426   3.830 -1.9029 -0.6430 -1.4229
 1722SOL    HW216629   1.309   1.480   3.971  1.2354 -0.2943 -0.9360
 1723SOL     OW16630   2.383   1.228   8.411  0.4045  0.9262 -0.2911
 1723SOL    HW116631   2.466   1.257   8.373  0.5222 -0.8657 -1.4421
 1723SOL    HW216632   2.369   1.296   8.477  2.0752  1.5908 -0.6267
 1724SOL     OW16633   4.570   2.669   0.789  0.0603 -0.3255 -0.3566
 1724SOL    HW116634   4.655   2.671   0.744  0.4574  0.3312  0.4303
 1724SOL    HW216635   4.555   2.763   0.798 -2.6810 -0.7643 -0.4056
 1725SOL     OW16636   2.710   0.650   7.924  0.1426 -0.5522  0.1000
 1725SOL    HW116637   2.786   0.674   7.977 -1.1066 -2.0016  2.5335
 1725SOL    HW216638   2.649   0.712   7.966 -0.5387 -1.2692  0.1593
 1726SOL     OW16639   1.925   0.465  17.569 -0.6887  0.4005 -0.2521
 1726SOL    HW116640   1.831   0.458  17.586 -0.7837  2.1518 -0.1169
 1726SOL    HW216641   1.970   0.468  17.654  1.5850  0.1001 -1.4405
 1727SOL     OW16642   2.798   0.842   4.646 -0.5227 -0.2809  0.6149
 1727SOL    HW116643   2.842   0.834   4.730  0.7770 -2.6837 -0.2928
 1727SOL    HW216644   2.780   0.936   4.639  1.4850  0.2350  2.5490
 1728SOL     OW16645   2.203   4.357   8.749 -0.1848 -0.5358  0.2266
 1728SOL    HW116646   2.111   4.332   8.758 -0.0238 -0.2500  2.6814
 1728SOL    HW216647   2.227   4.397   8.833 -0.1023 -2.2200  1.0267
 1729SOL     OW16648   1.079   1.923   8.275 -0.1644 -0.2664  0.4240
 1729SOL    HW116649   1.117   1.854   8.330  2.0200 -0.0929 -0.8477
 1729SOL    HW216650   1.054   1.979   8.348 -0.6829  3.1512 -2.4151
 1730SOL     OW16651   2.386   0.211  15.939  0.1062  0.1613 -0.1572
 1730SOL    HW116652   2.384   0.243  16.029 -0.7408  0.1783 -0.1782
 1730SOL    HW216653   2.452   0.142  15.948 -1.3330 -1.2399 -0.3185
 1731SOL     OW16654   4.715   0.894   6.774 -0.1612  0.8054  0.0295
 1731SOL    HW116655   4.688   0.947   6.850  1.1642  2.4309 -0.6266
 1731SOL    HW216656   4.681   0.940   6.697 -0.0612  0.9324  0.0608
 1732SOL     OW16657   3.567   1.083   7.673 -0.3440 -0.1441 -0.1740
 1732SOL    HW116658   3.500   1.017   7.691  0.0580 -0.3494  0.5543
 1732SOL    HW216659   3.562   1.094   7.578  0.0085 -1.2569 -0.3351
 1733SOL     OW16660   2.013   2.932   3.362  0.3538 -0.0157  0.1985
 1733SOL    HW116661   1.919   2.922   3.380  0.4515  1.0137  1.3588
 1733SOL    HW216662   2.035   2.856   3.309  0.6114 -0.3481  0.7849
 1734SOL     OW16663   1.695   3.457   0.123  0.0271 -0.6784 -0.1874
 1734SOL    HW116664   1.712   3.512   0.199 -2.3088  0.9517 -0.8498
 1734SOL    HW216665   1.748   3.382   0.148 -1.4816 -1.9603 -0.8389
 1735SOL     OW16666   0.780   1.097   8.039 -0.3563 -0.3611 -0.2924
 1735SOL    HW116667   0.737   1.116   7.956 -0.7463 -1.1798 -0.2728
 1735SOL    HW216668   0.823   1.014   8.016 -2.0900 -1.3507  0.0062
 1736SOL     OW16669   0.733   1.765  17.093  0.1411  0.3550  0.2401
 1736SOL    HW116670   0.711   1.858  17.082 -0.8680 -0.0459 -1.1136
 1736SOL    HW216671   0.824   1.756  17.124 -0.6453  1.0198  2.7417
 1737SOL     OW16672   3.056   2.932   2.679  0.4399 -0.4974 -0.1057
 1737SOL    HW116673   2.994   2.991   2.637  0.9721  1.5476  1.9713
 1737SOL    HW216674   3.081   2.869   2.611  1.0025 -0.2668 -0.1137
 1738SOL     OW16675   2.511   0.714  12.385 -0.2991  0.1635  0.1832
 1738SOL    HW116676   2.576   0.784  12.388 -3.0556  2.7853 -1.1270
 1738SOL    HW216677   2.563   0.634  12.373  0.9595  0.8759  0.9118
 1739SOL     OW16678   2.818   4.217   5.421 -0.1775  0.0068 -0.5224
 1739SOL    HW116679   2.811   4.121   5.427 -0.6186 -0.1750 -3.7248
 1739SOL    HW216680   2.855   4.229   5.333  1.4644  1.9519  0.4300
 1740SOL     OW16681   4.217   2.260   5.158  0.0407 -0.2128  0.2781
 1740SOL    HW116682   4.231   2.335   5.100  2.7784 -1.5333 -0.7614
 1740SOL    HW216683   4.232   2.299   5.245 -1.2813  1.4154 -0.2140
 1741SOL     OW16684   2.709   1.310   5.693 -0.0391 -0.7726 -0.1030
 1741SOL    HW116685   2.680   1.400   5.701  1.0673 -0.4603  0.4265
 1741SOL    HW216686   2.734   1.293   5.784  0.8435  0.9522 -0.0233
 1742SOL     OW16687   2.126   1.692  12.596 -0.2981 -0.1536 -0.1014
 1742SOL    HW116688   2.170   1.773  12.624 -0.6246 -0.5994  1.6818
 1742SOL    HW216689   2.198   1.629  12.588 -0.0704 -0.3417  3.3265
 1743SOL     OW16690   3.017   0.119   6.075  0.1403 -0.0831  0.1136
 1743SOL    HW116691   3.079   0.134   6.146  0.8253 -2.0897 -0.0523
 1743SOL    HW216692   3.065   0.058   6.019  1.3677  0.6080  0.4279
 1744SOL     OW16693   3.189   0.867  12.335  0.1254  0.0782  0.1700
 1744SOL    HW116694   3.264   0.822  12.376  0.1797 -0.5339 -0.6030
 1744SOL    HW216695   3.123   0.801  12.359  1.2114 -0.6979  1.0499
 1745SOL     OW16696   4.389   1.835   4.788 -0.2266  0.4791  0.7558
 1745SOL    HW116697   4.462   1.807   4.843  0.7516 -0.5585 -1.0692
 1745SOL    HW216698   4.429   1.892   4.723  0.8974 -0.6992  0.4254
 1746SOL     OW16699   1.300   1.115   9.123 -0.6713  0.6781  0.1554
 1746SOL    HW116700   1.232   1.099   9.188 -2.5176  0.2878 -1.8890
 1746SOL    HW216701   1.256   1.186   9.077 -1.0252 -0.6715 -1.6031
 1747SOL     OW16702   2.341   0.085   3.424  0.4186 -0.0242  0.8594
 1747SOL    HW116703   2.260   0.134   3.436  0.2758 -0.0638  0.0887
 1747SOL    HW216704   2.404   0.157   3.417  0.9286 -0.4375  1.1947
 1748SOL     OW16705   1.332   0.450   8.127 -0.3503 -0.2423 -0.0675
 1748SOL    HW116706   1.343   0.365   8.084 -2.2516 -1.5292  1.9997
 1748SOL    HW216707   1.388   0.437   8.203  0.0979  1.0189 -0.1815
 1749SOL     OW16708   3.655   2.785   2.119 -0.2432  0.6181  0.2003
 1749SOL    HW116709   3.672   2.874   2.148  0.8848  0.9033 -1.3297
 1749SOL    HW216710   3.732   2.733   2.145 -0.6807 -0.1356 -0.0136
 1750SOL     OW16711   4.614   0.735   8.105 -0.5178 -0.3001  0.0365
 1750SOL    HW116712   4.644   0.735   8.195 -0.1237 -2.0807 -0.0875
 1750SOL    HW216713   4.620   0.828   8.085  0.2590 -0.4169 -0.2869
 1751SOL     OW16714   2.319   2.983   2.430 -0.4085  0.4787 -0.3652
 1751SOL    HW116715   2.362   2.991   2.515  0.3931  3.3867 -1.0464
 1751SOL    HW216716   2.279   2.897   2.435  0.1740  0.1456 -1.4287
 1752SOL     OW16717   2.506   2.926   0.953  0.6256 -0.0207 -0.3022
 1752SOL    HW116718   2.582   2.971   0.917  0.1654  0.1568 -1.0609
 1752SOL    HW216719   2.441   2.935   0.882  0.5808  2.6000  0.0619
 1753SOL     OW16720   2.502   2.299   6.476  0.1783 -0.4773 -0.0264
 1753SOL    HW116721   2.427   2.313   6.534 -0.1348 -0.4785 -0.4339
 1753SOL    HW216722   2.471   2.239   6.409 -0.5348  0.5860 -0.6440
 1754SOL     OW16723   0.670   1.195   3.515  0.7574  0.3692 -0.0885
 1754SOL    HW116724   0.601   1.248   3.555 -0.3067  0.8832 -2.6292
 1754SOL    HW216725   0.637   1.184   3.425 -0.0682 -0.1719  0.2707
 1755SOL     OW16726   1.488   1.067  14.482  0.1459 -1.0882 -0.6775
 1755SOL    HW116727   1.402   1.026  14.482  0.0072 -0.7969  0.8182
 1755SOL    HW216728   1.503   1.068  14.576  1.8428 -0.6232 -0.9457
 1756SOL     OW16729   4.597   0.560  16.149 -0.1666 -0.1994 -0.0152
 1756SOL    HW116730   4.573   0.523  16.064 -0.0465  1.0958 -0.6093
 1756SOL    HW216731   4.686   0.527  16.163 -0.6646 -0.1866  3.2069
 1757SOL     OW16732   2.027   0.873   4.284  0.4185  0.2684 -0.2479
 1757SOL    HW116733   1.964   0.943   4.304 -0.4858 -0.7671  0.5561
 1757SOL    HW216734   2.033   0.842   4.375  0.4993 -0.1930 -0.4131
 1758SOL     OW16735   0.992   3.233   9.258  0.2199  0.1419  0.7428
 1758SOL    HW116736   0.944   3.239   9.175  0.4868 -0.4789  0.5476
 1758SOL    HW216737   0.926   3.194   9.315 -1.5913  1.8743 -0.1501
 1759SOL     OW16738   2.010   0.104  14.949 -0.0573 -0.2565 -0.4973
 1759SOL    HW116739   1.983   0.195  14.938  1.6725  0.5131  1.7898
 1759SOL    HW216740   2.100   0.104  14.918  0.4681  1.4040  1.0271
 1760SOL     OW16741   1.670   1.297   4.649 -0.0047 -0.4782  0.6970
 1760SOL    HW116742   1.756   1.297   4.607  0.0706  1.4754  0.8333
 1760SOL    HW216743   1.676   1.376   4.704  0.8702  1.2853 -1.9414
 1761SOL     OW16744   1.282   0.631   3.526 -0.5198  0.3287 -0.0175
 1761SOL    HW116745   1.223   0.647   3.600  0.6371  1.7422  0.5892
 1761SOL    HW216746   1.296   0.722   3.502 -0.5088  0.1117 -0.8323
 1762SOL     OW16747   3.049   0.018   2.509  0.3518  0.0012  0.5363
 1762SOL    HW116748   2.998   4.676   2.456  0.0085 -1.0211  2.0519
 1762SOL    HW216749   2.983   0.078   2.542  0.1916  0.0052  0.2040
 1763SOL     OW16750   0.652   4.495   2.301  0.1091 -0.6074 -0.2279
 1763SOL    HW116751   0.712   4.454   2.238  0.6522 -0.8524  0.4427
 1763SOL    HW216752   0.673   4.440   2.376 -3.6911 -0.3323  1.0096
 1764SOL     OW16753   0.899   1.507   3.298  0.1795  0.3431  0.5279
 1764SOL    HW116754   0.953   1.561   3.240  2.5108 -0.9600  1.4858
 1764SOL    HW216755   0.828   1.478   3.241 -0.5577  2.0266  0.6017
 1765SOL     OW16756   2.839   2.112  15.744  0.4875  0.3292  0.4413
 1765SOL    HW116757   2.797   2.051  15.684 -0.7574 -0.0250  1.6838
 1765SOL    HW216758   2.764   2.128  15.801  0.1784  0.6029 -0.0479
 1766SOL     OW16759   1.031   1.928  14.513 -0.0203  0.2480 -0.2625
 1766SOL    HW116760   0.936   1.923  14.505 -0.0469  0.7408 -0.2554
 1766SOL    HW216761   1.054   1.959  14.425 -1.4601  1.5490 -0.1712
 1767SOL     OW16762   1.646   3.198  16.986 -0.2350 -0.3698 -0.9926
 1767SOL    HW116763   1.563   3.162  17.018 -1.1743  2.7390  0.0848
 1767SOL    HW216764   1.627   3.200  16.892 -2.3210 -0.1096 -0.5778
 1768SOL     OW16765   2.845   0.702  17.236  0.9799  0.3577  0.6455
 1768SOL    HW116766   2.889   0.699  17.321  0.3423 -0.8590  0.9313
 1768SOL    HW216767   2.770   0.646  17.256  0.1422  0.7135 -1.5701
 1769SOL     OW16768   2.329   2.905   2.973 -0.3475 -0.5481 -0.1934
 1769SOL    HW116769   2.252   2.962   2.965  0.4867  0.9024  2.2753
 1769SOL    HW216770   2.356   2.894   3.064  1.0870 -1.1423 -0.6886
 1770SOL     OW16771   0.932   4.594   6.357 -0.0304  0.0384  0.9862
 1770SOL    HW116772   0.877   4.672   6.361 -0.6215 -0.3154 -0.2231
 1770SOL    HW216773   0.936   4.570   6.450 -1.3659  0.8870  1.2710
 1771SOL     OW16774   1.177   3.361   7.652  0.3147  0.1463 -0.6705
 1771SOL    HW116775   1.212   3.333   7.567  0.5379 -0.2431 -0.4475
 1771SOL    HW216776   1.144   3.450   7.635 -2.0363 -0.4020  1.0339
 1772SOL     OW16777   3.943   0.807   5.410 -0.8604  0.4213  0.1102
 1772SOL    HW116778   4.021   0.846   5.450  0.3090 -1.9337  0.1143
 1772SOL    HW216779   3.984   0.754   5.341 -0.0439 -1.3788  1.9828
 1773SOL     OW16780   3.152   0.346   6.141  0.3614 -0.1997 -0.0678
 1773SOL    HW116781   3.131   0.386   6.226 -0.7848 -3.5778  1.2405
 1773SOL    HW216782   3.243   0.323   6.161 -0.3977 -1.8193  1.5403
 1774SOL     OW16783   1.039   0.509  11.845  0.1810  0.1579 -0.0609
 1774SOL    HW116784   1.022   0.591  11.892  0.1771  1.0100 -1.5689
 1774SOL    HW216785   0.996   0.520  11.760  0.3340 -1.3274 -0.3333
 1775SOL     OW16786   2.029   2.456  12.460  0.0626 -0.0820 -0.1629
 1775SOL    HW116787   2.059   2.376  12.503 -0.3681  1.3424  2.8018
 1775SOL    HW216788   2.099   2.516  12.485  2.0353 -2.2546 -0.4426
 1776SOL     OW16789   0.553   3.945  10.823 -0.3706  0.5820  0.1529
 1776SOL    HW116790   0.504   4.007  10.877  0.6832  1.7882 -0.2727
 1776SOL    HW216791   0.574   3.872  10.881  1.3249  1.2598  0.3934
 1777SOL     OW16792   0.018   2.946   8.251  0.4223 -0.4444 -0.2977
 1777SOL    HW116793   0.027   2.881   8.321 -1.4735  0.4965  0.8261
 1777SOL    HW216794   4.643   2.951   8.237  0.5129 -0.6472 -0.9594
 1778SOL     OW16795   3.874   3.764   6.835  0.8889  0.4747  0.0166
 1778SOL    HW116796   3.933   3.788   6.763  0.7493  0.9489  0.0605
 1778SOL    HW216797   3.884   3.842   6.888 -0.5574 -0.1691  1.2426
 1779SOL     OW16798   3.557   2.882   6.922 -0.0527  0.3834  0.0602
 1779SOL    HW116799   3.596   2.867   6.836 -0.1851 -1.6385  0.3416
 1779SOL    HW216800   3.547   2.789   6.943  0.2657  0.6039  1.1959
 1780SOL     OW16801   0.058   4.351  11.899 -0.0520  0.3126 -0.2316
 1780SOL    HW116802   4.705   4.339  11.961 -0.0544  1.8376  0.0525
 1780SOL    HW216803   0.130   4.334  11.960 -0.4784  1.3361  0.5429
 1781SOL     OW16804   0.669   0.782  13.632  0.1138 -0.2349 -0.7454
 1781SOL    HW116805   0.636   0.779  13.722  1.3929  1.4615 -0.2219
 1781SOL    HW216806   0.763   0.765  13.639 -0.2000 -1.9165 -0.5572
 1782SOL     OW16807   3.073   1.852   4.764  0.4284 -0.2793 -0.0285
 1782SOL    HW116808   2.980   1.851   4.739  0.4667  2.5801 -0.3533
 1782SOL    HW216809   3.096   1.770   4.720 -1.3101  0.4968 -2.4597
 1783SOL     OW16810   4.604   2.172   4.952 -0.3928  0.1325  0.5107
 1783SOL    HW116811   4.677   2.155   4.892 -2.0728  0.7457 -1.7055
 1783SOL    HW216812   4.592   2.266   4.939 -1.7679 -0.0727  0.3377
 1784SOL     OW16813   3.554   3.276   1.462 -0.1062 -0.2623  0.0625
 1784SOL    HW116814   3.526   3.289   1.372 -0.5187 -0.2625  0.1927
 1784SOL    HW216815   3.641   3.237   1.445  0.1551  1.3782 -2.3299
 1785SOL     OW16816   0.729   4.704   2.960 -0.8400 -0.6066  0.0246
 1785SOL    HW116817   0.659   4.705   3.025 -0.1061  0.6988  0.7909
 1785SOL    HW216818   0.761   0.074   2.952 -2.5367 -0.0775 -0.8862
 1786SOL     OW16819   1.936   2.698   5.364  0.4393  0.0072  0.1575
 1786SOL    HW116820   1.913   2.624   5.308  0.4346  1.7720 -2.1765
 1786SOL    HW216821   2.005   2.739   5.311 -1.8948  1.8031 -1.4838
 1787SOL     OW16822   1.898   4.508  16.191 -0.9688 -0.2886  0.1792
 1787SOL    HW116823   1.809   4.473  16.197 -1.1007 -0.2429 -1.4307
 1787SOL    HW216824   1.880   4.600  16.212 -2.3645 -0.2629 -1.0891
 1788SOL     OW16825   1.258   3.475   6.064  0.3090  0.4100  0.4536
 1788SOL    HW116826   1.230   3.562   6.036 -3.2493 -0.8268  0.2972
 1788SOL    HW216827   1.323   3.497   6.131  0.4727  1.1140  0.0662
 1789SOL     OW16828   4.491   2.298   2.533 -0.2012  0.0173  0.6721
 1789SOL    HW116829   4.516   2.266   2.620 -1.3632 -0.0656  0.9658
 1789SOL    HW216830   4.485   2.392   2.552 -0.8475 -0.2255  1.6598
 1790SOL     OW16831   0.079   2.397   7.209 -0.0416  0.1824  0.2860
 1790SOL    HW116832   0.118   2.466   7.263 -0.1540  0.7580 -0.3800
 1790SOL    HW216833   0.102   2.319   7.260  0.3553 -0.3876 -0.7648
 1791SOL     OW16834   3.496   1.830  13.598 -0.1655  0.6374  0.0297
 1791SOL    HW116835   3.540   1.913  13.617  0.3909  0.4328 -0.3493
 1791SOL    HW216836   3.523   1.806  13.509  3.3488  1.1908  0.9551
 1792SOL     OW16837   3.646   3.544   4.641  0.8099  0.7219  0.0663
 1792SOL    HW116838   3.587   3.619   4.645  1.2542  1.0206  0.9713
 1792SOL    HW216839   3.709   3.578   4.704  0.0348  0.4330  1.0102
 1793SOL     OW16840   3.565   2.748   2.505  0.1543 -0.1368 -0.2263
 1793SOL    HW116841   3.620   2.676   2.473  0.6871  0.1303  0.0989
 1793SOL    HW216842   3.606   2.825   2.466 -0.6062  0.3825 -0.0040
 1794SOL     OW16843   2.138   2.097   9.110  0.4417 -0.1940  0.3744
 1794SOL    HW116844   2.151   2.190   9.090 -0.9926  0.4154  2.2468
 1794SOL    HW216845   2.214   2.058   9.068 -0.3552  1.0109 -2.1816
 1795SOL     OW16846   1.986   0.643   8.045  0.1453  0.1204 -0.3614
 1795SOL    HW116847   1.987   0.579   7.975  0.9262 -1.0043  0.6747
 1795SOL    HW216848   2.061   0.610   8.094  1.0300  1.4210 -0.8468
 1796SOL     OW16849   1.051   3.453   5.405 -0.0190  0.1239 -0.3164
 1796SOL    HW116850   0.958   3.437   5.389  0.5590 -2.4076 -1.1430
 1796SOL    HW216851   1.096   3.441   5.321 -0.5092  1.4767 -0.7778
 1797SOL     OW16852   0.928   1.278   8.608 -0.2796  0.4249 -0.7566
 1797SOL    HW116853   0.912   1.239   8.694 -0.5921  2.1394 -0.0388
 1797SOL    HW216854   0.845   1.286   8.561 -0.8553 -0.6675  0.0689
 1798SOL     OW16855   4.001   3.008  17.279 -0.7954  0.5323 -0.0148
 1798SOL    HW116856   3.943   2.933  17.290  0.9602 -0.5088  2.2861
 1798SOL    HW216857   3.938   3.077  17.262 -1.4895 -0.4239 -1.3125
 1799SOL     OW16858   3.763   2.427   1.552 -0.4250  0.4106 -0.0337
 1799SOL    HW116859   3.822   2.403   1.623  0.4124 -1.8046 -1.4735
 1799SOL    HW216860   3.828   2.419   1.483 -1.2531 -0.8348 -0.6871
 1800SOL     OW16861   3.482   3.719   3.753  0.2749  0.1399 -0.0247
 1800SOL    HW116862   3.540   3.674   3.815  0.7646  1.7378  0.6750
 1800SOL    HW216863   3.406   3.663   3.768 -0.4443  1.2749  0.5613
 1801SOL     OW16864   4.284   2.948   3.494 -0.2384  0.3311  0.6929
 1801SOL    HW116865   4.195   2.957   3.461 -0.1083  2.2424  0.8489
 1801SOL    HW216866   4.298   2.858   3.463 -2.9133  0.3049 -0.4525
 1802SOL     OW16867   4.215   4.609   5.303 -0.3402  0.1637  0.2585
 1802SOL    HW116868   4.132   4.561   5.306 -0.5426  0.6175  1.9141
 1802SOL    HW216869   4.273   4.537   5.279  3.0655  2.6761  0.9804
 1803SOL     OW16870   3.373   2.869   7.539 -0.2006 -0.3786 -0.0354
 1803SOL    HW116871   3.352   2.788   7.491 -1.5015 -0.8970  1.3917
 1803SOL    HW216872   3.343   2.935   7.477 -0.5493 -0.2721  0.2443
 1804SOL     OW16873   1.500   4.237   5.193 -0.2326 -0.9531  0.6583
 1804SOL    HW116874   1.547   4.315   5.162 -3.4802  0.3987 -0.8795
 1804SOL    HW216875   1.471   4.273   5.277  0.8429 -1.6330  1.3150
 1805SOL     OW16876   4.699   4.197   2.490  0.4102  0.4811 -0.1700
 1805SOL    HW116877   4.668   4.111   2.463  0.0553 -0.2780  2.6242
 1805SOL    HW216878   4.647   4.253   2.432  1.2681  0.6079 -0.8070
 1806SOL     OW16879   3.612   3.800  15.901  0.4388  0.7367 -0.2993
 1806SOL    HW116880   3.666   3.763  15.832 -0.4337 -0.2760 -0.4302
 1806SOL    HW216881   3.595   3.887  15.864 -1.4056  1.0388  1.2536
 1807SOL     OW16882   2.254   3.272   6.751  0.3221  0.2140 -0.0189
 1807SOL    HW116883   2.159   3.286   6.751  0.0745 -1.5079 -0.8153
 1807SOL    HW216884   2.259   3.177   6.743  2.0326  0.5180 -2.4828
 1808SOL     OW16885   3.568   1.735  17.005 -0.7306 -0.0903 -0.0514
 1808SOL    HW116886   3.497   1.714  16.943 -0.4085  1.1802 -0.8553
 1808SOL    HW216887   3.640   1.724  16.943  0.7574  0.1905  1.6487
 1809SOL     OW16888   0.662   1.876   1.983 -0.7466  0.6905  0.0682
 1809SOL    HW116889   0.690   1.805   2.042 -0.2944 -1.0017 -2.1918
 1809SOL    HW216890   0.705   1.851   1.901 -2.7001  3.5223 -1.8249
 1810SOL     OW16891   1.863   2.759  10.531  0.0398  0.5390  0.3587
 1810SOL    HW116892   1.908   2.760  10.616 -0.6940 -0.1823  0.7482
 1810SOL    HW216893   1.930   2.793  10.471  0.5489  0.5630  0.9317
 1811SOL     OW16894   1.334   2.074   8.249  0.0120 -0.8797 -0.4218
 1811SOL    HW116895   1.245   2.092   8.216 -0.9378  0.3532  2.8340
 1811SOL    HW216896   1.308   2.066   8.341 -1.3784 -0.7678 -0.7996
 1812SOL     OW16897   2.059   1.109   3.579 -0.7550 -0.1320 -0.7324
 1812SOL    HW116898   2.081   1.141   3.491  0.8367  1.1085  0.0891
 1812SOL    HW216899   2.061   1.015   3.564 -2.1492 -0.1472 -0.7702
 1813SOL     OW16900   3.149   2.732   6.610  0.3656  1.0305 -0.1982
 1813SOL    HW116901   3.093   2.753   6.684  2.7375 -1.0591  2.2040
 1813SOL    HW216902   3.190   2.818   6.593  2.1283 -0.0324 -1.3516
 1814SOL     OW16903   0.115   2.910   9.200 -0.2990 -0.7644  0.0343
 1814SOL    HW116904   0.034   2.884   9.155 -1.5374  1.1922  1.1276
 1814SOL    HW216905   0.167   2.954   9.133  1.8110 -0.9218  1.5918
 1815SOL     OW16906   4.009   0.773  10.412  0.4723 -0.0181  0.3794
 1815SOL    HW116907   3.963   0.692  10.434  1.2960 -0.9613 -1.3916
 1815SOL    HW216908   4.090   0.729  10.387 -0.3548 -0.7942 -0.9274
 1816SOL     OW16909   3.230   2.778   1.463  0.0151 -0.3617 -0.7449
 1816SOL    HW116910   3.293   2.717   1.501 -0.2106  1.1862  2.0942
 1816SOL    HW216911   3.184   2.795   1.545  0.0331  0.4015 -0.8951
 1817SOL     OW16912   4.382   1.944   5.366  0.4293 -0.2967  0.0695
 1817SOL    HW116913   4.455   2.005   5.378  0.5934 -0.4716 -0.0436
 1817SOL    HW216914   4.363   1.963   5.274  0.7538 -0.2746  0.0074
 1818SOL     OW16915   3.891   0.443   2.668  0.1628  0.0607  0.3938
 1818SOL    HW116916   3.897   0.355   2.706 -1.0641 -0.5993 -0.9100
 1818SOL    HW216917   3.941   0.431   2.587  0.2221  1.5791  0.2121
 1819SOL     OW16918   2.912   3.597   3.415 -0.3491  0.2523  0.0036
 1819SOL    HW116919   3.003   3.621   3.431 -1.0344  0.8967  2.9644
 1819SOL    HW216920   2.900   3.561   3.327 -1.5058  0.3060  0.1364
 1820SOL     OW16921   0.562   2.653   7.511 -0.5444 -0.2591 -0.4019
 1820SOL    HW116922   0.600   2.735   7.480 -0.1094 -0.2273  0.2226
 1820SOL    HW216923   0.487   2.645   7.452 -0.2229  0.8227 -0.9468
 1821SOL     OW16924   3.626   2.985   7.403 -0.1277  0.0607 -0.5623
 1821SOL    HW116925   3.543   2.945   7.426 -0.1953 -0.1075 -1.0978
 1821SOL    HW216926   3.683   2.926   7.452  0.8759  1.2993 -0.2418
 1822SOL     OW16927   0.709   1.593   4.675 -0.2581  0.5032  0.0770
 1822SOL    HW116928   0.642   1.534   4.640 -0.4997  0.0622  1.2771
 1822SOL    HW216929   0.686   1.609   4.766 -0.0011 -0.3945  0.3060
 1823SOL     OW16930   2.876   1.932   5.405  0.0122  0.4583 -0.2411
 1823SOL    HW116931   2.810   1.863   5.401  1.3732 -0.8778  0.2766
 1823SOL    HW216932   2.810   2.002   5.414 -0.2147  0.2367 -0.1872
 1824SOL     OW16933   3.763   4.128   4.655  0.2757 -0.3982 -0.3765
 1824SOL    HW116934   3.750   4.148   4.562 -1.7612 -0.0710 -0.0123
 1824SOL    HW216935   3.678   4.094   4.681 -0.6573  1.3204 -1.1828
 1825SOL     OW16936   3.544   2.369   1.681  0.1384  0.0815  0.4593
 1825SOL    HW116937   3.542   2.273   1.670  0.0241  0.2199 -0.7627
 1825SOL    HW216938   3.617   2.387   1.621 -0.5237  0.6245 -0.1906
 1826SOL     OW16939   2.843   4.440  16.100 -0.6242 -0.0648 -0.0639
 1826SOL    HW116940   2.898   4.515  16.125  0.1744 -0.9043  0.6612
 1826SOL    HW216941   2.778   4.495  16.055 -0.1560  0.0392 -0.6110
 1827SOL     OW16942   1.724   0.241   1.341  0.5417 -0.8477 -0.1337
 1827SOL    HW116943   1.670   0.171   1.378 -2.2551  0.5184 -1.5669
 1827SOL    HW216944   1.673   0.322   1.343 -2.3886 -2.7274  2.7718
 1828SOL     OW16945   0.093   2.046  14.727 -0.0225  1.0526  1.0357
 1828SOL    HW116946   0.107   2.127  14.678 -1.2609 -0.3206 -1.5803
 1828SOL    HW216947   4.719   2.035  14.710  0.3017  0.1228 -0.0870
 1829SOL     OW16948   0.784   3.356   1.364 -0.0355 -0.2751 -0.2174
 1829SOL    HW116949   0.839   3.301   1.307 -0.8715  1.4486 -2.6736
 1829SOL    HW216950   0.842   3.388   1.433 -0.3957  0.0596 -0.0725
 1830SOL     OW16951   3.412   3.368   5.547 -0.3113  0.2071  0.4157
 1830SOL    HW116952   3.363   3.406   5.474  1.8469  1.0839 -0.5723
 1830SOL    HW216953   3.506   3.372   5.529  0.0034 -0.6294  1.8329
 1831SOL     OW16954   1.232   0.101  15.805  0.0700  0.1711 -0.1938
 1831SOL    HW116955   1.172   0.111  15.731  0.0825 -1.1069 -0.3692
 1831SOL    HW216956   1.218   0.179  15.860 -0.4089  0.9208 -1.3864
 1832SOL     OW16957   1.402   1.917  13.573 -0.1634 -0.0571 -0.3044
 1832SOL    HW116958   1.336   1.958  13.516 -2.0273 -0.7921  1.3246
 1832SOL    HW216959   1.352   1.848  13.617  0.4251 -0.5941 -0.4842
 1833SOL     OW16960   3.149   4.445   2.158 -0.0999 -0.4472  0.3060
 1833SOL    HW116961   3.123   4.384   2.089  1.1407  0.7888 -1.2351
 1833SOL    HW216962   3.159   4.393   2.238  1.2275  1.5521  1.4263
 1834SOL     OW16963   2.425   3.880   3.533 -0.2103  0.1292 -0.4417
 1834SOL    HW116964   2.393   3.970   3.536 -1.1089 -0.2288  0.7320
 1834SOL    HW216965   2.518   3.892   3.551 -0.3600 -2.2997  1.9845
 1835SOL     OW16966   2.019   1.077   3.989  0.0662 -0.7578 -0.3691
 1835SOL    HW116967   1.978   1.021   4.055 -0.9010 -0.2201 -0.5098
 1835SOL    HW216968   1.946   1.108   3.936  0.1818  0.6418  0.2822
 1836SOL     OW16969   3.867   2.095   6.039  0.2790  0.0269  0.1672
 1836SOL    HW116970   3.891   2.006   6.066  1.6842  0.2329 -0.4111
 1836SOL    HW216971   3.804   2.087   5.968  1.7856  1.4837 -1.3100
 1837SOL     OW16972   2.280   0.490   2.519 -0.1147  0.7197 -0.2579
 1837SOL    HW116973   2.199   0.537   2.497 -1.7490 -1.5054  1.0536
 1837SOL    HW216974   2.343   0.548   2.475  0.5295 -0.6195 -1.0960
 1838SOL     OW16975   3.628   1.971   4.359  0.1501  0.1842 -0.3348
 1838SOL    HW116976   3.596   2.060   4.373  0.9944  0.3038  0.7838
 1838SOL    HW216977   3.545   1.930   4.334  0.8254 -0.3206 -1.7666
 1839SOL     OW16978   3.910   2.249   2.899 -0.1801 -0.1572 -0.8082
 1839SOL    HW116979   3.860   2.177   2.938 -1.4441  0.9424 -0.4016
 1839SOL    HW216980   3.848   2.269   2.829 -0.5597  2.4599  0.2653
 1840SOL     OW16981   4.261   3.554   6.908 -0.0189 -0.0818 -0.9137
 1840SOL    HW116982   4.175   3.571   6.946 -0.5242  0.4120 -2.2784
 1840SOL    HW216983   4.285   3.645   6.889  0.9517  0.0450  0.8196
 1841SOL     OW16984   1.375   3.732   4.194  0.0218  0.0344  0.5595
 1841SOL    HW116985   1.316   3.788   4.144 -1.0625 -0.9937  0.6800
 1841SOL    HW216986   1.446   3.722   4.130  0.2159  1.9866  0.4861
 1842SOL     OW16987   4.652   1.266   8.225 -0.5831 -0.5083 -0.0486
 1842SOL    HW116988   4.576   1.234   8.275 -0.3811 -1.8682 -0.6127
 1842SOL    HW216989   0.009   1.218   8.254  0.2189  0.5295 -0.4607
 1843SOL     OW16990   0.945   4.584   3.101  0.0584  0.2199 -0.3958
 1843SOL    HW116991   0.883   4.613   3.034 -0.5214 -1.8832 -0.7656
 1843SOL    HW216992   0.980   4.666   3.135  0.0466 -0.5355  1.4138
 1844SOL     OW16993   1.397   1.266   7.061  0.2270  0.0781 -0.3241
 1844SOL    HW116994   1.477   1.264   7.112 -0.8835  4.1364  1.6053
 1844SOL    HW216995   1.374   1.175   7.043  1.4034 -0.3528  0.3731
 1845SOL     OW16996   1.152   3.697   8.922  0.0027 -0.0973  0.0507
 1845SOL    HW116997   1.205   3.727   8.848 -0.7196  0.7946 -0.1110
 1845SOL    HW216998   1.193   3.614   8.943 -0.9517 -0.9073 -1.3052
 1846SOL     OW16999   4.345   0.233   2.262 -0.1022  0.3259  0.6863
 1846SOL    HW117000   4.324   0.158   2.317  0.4568 -1.2025 -1.1762
 1846SOL    HW217001   4.295   0.218   2.181  1.4999  2.6267 -0.7153
 1847SOL     OW17002   0.549   4.152   4.960  0.0166  0.2312  0.1296
 1847SOL    HW117003   0.502   4.172   5.041  0.3677 -3.5466  1.2975
 1847SOL    HW217004   0.639   4.142   4.993  0.0971  0.3025 -0.0700
 1848SOL     OW17005   4.545   1.552  12.558  0.0709 -0.5272 -0.3565
 1848SOL    HW117006   4.541   1.498  12.479  0.2341 -0.8792 -0.1229
 1848SOL    HW217007   4.638   1.555  12.578 -0.2364  1.2555  0.8099
 1849SOL     OW17008   2.755   4.641   9.611  0.3534 -0.0214  0.3197
 1849SOL    HW117009   2.850   4.639   9.614  0.3188 -1.1145  0.7775
 1849SOL    HW217010   2.737   4.574   9.678 -1.5800  1.0664  0.9023
 1850SOL     OW17011   1.708   4.674   8.895  0.1861  0.0860  0.0382
 1850SOL    HW117012   1.654   4.665   8.817  0.6345  0.2340 -0.2828
 1850SOL    HW217013   1.738   0.045   8.898  0.6112 -0.0457 -0.2850
 1851SOL     OW17014   2.841   4.355   8.516  0.2782  0.2063 -0.0991
 1851SOL    HW117015   2.809   4.422   8.455 -1.1084  1.0138  1.5273
 1851SOL    HW217016   2.933   4.383   8.514  0.5728 -0.8013 -0.5945
 1852SOL     OW17017   2.707   3.982   0.312 -0.3521 -0.4772 -0.2905
 1852SOL    HW117018   2.704   3.933   0.230 -0.0846  0.7550 -1.0357
 1852SOL    HW217019   2.667   4.063   0.281  1.0265  0.6266  0.8219
 1853SOL     OW17020   0.290   3.468   0.940  0.0726 -0.3656 -0.1098
 1853SOL    HW117021   0.276   3.409   1.014 -1.2173 -1.4021 -1.1935
 1853SOL    HW217022   0.348   3.537   0.973  1.2854 -0.8429 -1.2183
 1854SOL     OW17023   1.910   3.976   6.003 -0.8807 -0.2395 -0.5802
 1854SOL    HW117024   1.880   3.994   6.092  1.2554  0.9973 -0.1140
 1854SOL    HW217025   1.956   4.056   5.978  0.8589 -1.1874 -0.4680
 1855SOL     OW17026   1.796   0.773   3.280 -0.4687 -0.2315 -0.1658
 1855SOL    HW117027   1.859   0.722   3.331  1.8655  0.7833 -2.0238
 1855SOL    HW217028   1.719   0.719   3.295 -0.0963 -0.9844 -0.9587
 1856SOL     OW17029   1.807   3.331  14.460 -0.1418 -0.8235 -1.1390
 1856SOL    HW117030   1.714   3.308  14.463 -0.3916  0.7825  3.0311
 1856SOL    HW217031   1.799   3.425  14.448 -0.2946 -0.7251 -0.2608
 1857SOL     OW17032   1.270   4.024   5.600 -0.4045 -0.7107 -0.0060
 1857SOL    HW117033   1.189   3.996   5.558 -0.1012 -2.9400  0.9257
 1857SOL    HW217034   1.234   4.097   5.650  2.1693 -0.7401  1.9222
 1858SOL     OW17035   3.410   1.650   8.323 -0.1790  0.6299 -0.2372
 1858SOL    HW117036   3.390   1.695   8.241  1.2595  0.5136 -0.6497
 1858SOL    HW217037   3.487   1.687   8.365 -2.8075  2.1053  3.3107
 1859SOL     OW17038   3.016   3.574   0.702  0.1575  0.7492 -0.3136
 1859SOL    HW117039   2.955   3.541   0.769  0.0434 -4.3642 -2.8808
 1859SOL    HW217040   2.965   3.647   0.667 -0.6031  1.0245  1.3748
 1860SOL     OW17041   3.457   2.310  13.689  0.0800  0.4419 -0.2432
 1860SOL    HW117042   3.377   2.349  13.724  1.0010  1.4489  0.7383
 1860SOL    HW217043   3.472   2.351  13.604 -0.9688  3.1773  0.9102
 1861SOL     OW17044   3.200   2.519  15.612  0.1439 -0.5948 -0.0859
 1861SOL    HW117045   3.199   2.497  15.519 -3.5774  0.9778 -0.4265
 1861SOL    HW217046   3.144   2.596  15.616 -1.6373 -1.7924 -1.5958
 1862SOL     OW17047   0.702   4.288   1.153 -0.6940  0.0251  0.0332
 1862SOL    HW117048   0.736   4.220   1.095 -1.8554  0.3260 -1.0031
 1862SOL    HW217049   0.720   4.366   1.100  2.6656 -0.9567 -0.2580
 1863SOL     OW17050   3.101   3.497   4.429  0.0936  0.2244 -0.1511
 1863SOL    HW117051   3.080   3.406   4.406 -1.8576  0.4300  0.8166
 1863SOL    HW217052   3.093   3.476   4.522  2.6849  2.6861  0.6087
 1864SOL     OW17053   1.330   4.668   3.793 -0.0727  0.0711 -0.2229
 1864SOL    HW117054   1.255   0.008   3.788  2.7135  3.6361 -0.1928
 1864SOL    HW217055   1.399   0.013   3.808  0.7403 -0.2978 -2.4682
 1865SOL     OW17056   1.673   1.047   2.878  0.1775  0.4268 -0.1338
 1865SOL    HW117057   1.703   0.999   2.956 -0.4177  0.5755  0.1919
 1865SOL    HW217058   1.582   1.063   2.902  1.3712 -0.4863  5.0122
 1866SOL     OW17059   4.361   3.826   8.098 -0.0471  0.2045  0.0468
 1866SOL    HW117060   4.329   3.742   8.063 -1.2237  1.3649 -1.7043
 1866SOL    HW217061   4.449   3.799   8.122  0.7592  2.7292 -0.0881
 1867SOL     OW17062   1.107   3.247  14.243 -0.3779 -0.1573  0.2830
 1867SOL    HW117063   1.127   3.191  14.168  1.4079 -1.0513  1.4068
 1867SOL    HW217064   1.016   3.266  14.224 -0.0771  1.6727  0.6731
 1868SOL     OW17065   4.407   3.646   3.078 -0.1990 -0.0798 -0.0955
 1868SOL    HW117066   4.329   3.689   3.043 -0.3964 -0.1040  0.3185
 1868SOL    HW217067   4.475   3.713   3.068 -0.4439  0.0284 -1.0084
 1869SOL     OW17068   0.398   1.427   6.724  0.4845  0.1693 -0.1411
 1869SOL    HW117069   0.458   1.456   6.655  2.2717 -1.8184  0.5748
 1869SOL    HW217070   0.455   1.382   6.787  2.6756  1.5498 -1.1420
 1870SOL     OW17071   4.180   0.984   6.521  0.1754  0.2061 -0.0253
 1870SOL    HW117072   4.202   1.065   6.566 -1.7331  0.3506  0.6670
 1870SOL    HW217073   4.264   0.939   6.527 -0.1053 -0.2621  0.4630
 1871SOL     OW17074   2.014   3.667   1.167  0.0798  0.3171  0.6220
 1871SOL    HW117075   2.059   3.655   1.084 -0.0425  2.1084  0.3125
 1871SOL    HW217076   1.995   3.575   1.189  0.1848 -0.4686 -2.5660
 1872SOL     OW17077   0.296   4.045   8.815  0.6499 -0.4875 -0.4197
 1872SOL    HW117078   0.354   4.095   8.872  0.9461  0.3301 -1.4349
 1872SOL    HW217079   0.349   3.967   8.796 -0.0430 -0.9653 -0.3769
 1873SOL     OW17080   0.944   3.983   8.969  0.3273 -0.3469 -0.0621
 1873SOL    HW117081   0.941   3.925   9.044  0.0074  2.0572  1.7836
 1873SOL    HW217082   0.915   3.920   8.902 -0.1006  0.5673 -0.7392
 1874SOL     OW17083   1.736   4.073   1.383 -0.1013 -0.2154  0.4094
 1874SOL    HW117084   1.784   4.012   1.327  0.8261  0.7777  0.1208
 1874SOL    HW217085   1.802   4.127   1.426 -0.1926  1.6535 -1.8299
 1875SOL     OW17086   4.630   2.851   7.252 -0.0580  0.0412  0.6944
 1875SOL    HW117087   4.656   2.794   7.180 -1.8287 -2.3242  1.9329
 1875SOL    HW217088   4.542   2.872   7.221 -0.2720  0.4973  1.6165
 1876SOL     OW17089   3.952   4.106   7.671  0.3053 -0.0516 -0.0548
 1876SOL    HW117090   3.969   4.013   7.685 -0.4361 -0.0982  0.5722
 1876SOL    HW217091   3.866   4.128   7.706  1.0148  1.1567  0.9259
 1877SOL     OW17092   2.998   2.420  11.392 -0.1754  0.0927 -0.6099
 1877SOL    HW117093   2.987   2.435  11.298  0.6649  0.3765 -0.6589
 1877SOL    HW217094   2.955   2.497  11.429  1.9475 -0.5255  3.1429
 1878SOL     OW17095   0.339   3.227   2.367 -0.1501 -0.3098 -0.0286
 1878SOL    HW117096   0.282   3.225   2.290 -0.4873  0.5908  0.1976
 1878SOL    HW217097   0.429   3.219   2.337 -0.4017  1.2231 -1.2139
 1879SOL     OW17098   3.932   0.216   9.358 -0.2526 -0.4094  0.0230
 1879SOL    HW117099   3.895   0.258   9.280  0.8767 -1.2891 -0.9908
 1879SOL    HW217100   4.008   0.274   9.369  0.1213 -1.2550  1.8291
 1880SOL     OW17101   0.116   2.148  17.601 -0.0977  0.2423 -0.4401
 1880SOL    HW117102   0.043   2.196  17.561 -1.2494  0.2445  1.6774
 1880SOL    HW217103   0.085   2.060  17.621 -0.2860  0.3952 -0.0587
 1881SOL     OW17104   4.081   2.773   1.523 -0.4597 -0.2573  0.3966
 1881SOL    HW117105   4.058   2.685   1.553 -1.8815 -0.6255 -1.8044
 1881SOL    HW217106   4.036   2.770   1.439 -1.5816  0.8094  0.9597
 1882SOL     OW17107   3.026   2.258  13.245  0.0472  0.2165 -0.4215
 1882SOL    HW117108   2.967   2.289  13.177  0.7756 -0.0388 -1.1634
 1882SOL    HW217109   2.969   2.254  13.322 -0.9407  0.1071 -1.1706
 1883SOL     OW17110   4.414   1.471  15.069  0.1326  0.3584  0.4743
 1883SOL    HW117111   4.367   1.521  15.002  1.5930 -0.0529 -0.8833
 1883SOL    HW217112   4.484   1.535  15.082 -0.8017  1.0766  1.9644
 1884SOL     OW17113   0.980   3.826   8.446 -0.3243  0.1160 -0.1277
 1884SOL    HW117114   0.961   3.756   8.383  0.3284 -1.4591  1.4210
 1884SOL    HW217115   0.997   3.901   8.389  1.6958 -0.1337  0.1631
 1885SOL     OW17116   0.021   1.787  13.061 -0.2397 -0.3506 -0.2079
 1885SOL    HW117117   0.046   1.846  13.132  1.9795  0.0982 -1.3387
 1885SOL    HW217118   0.103   1.778  13.012 -0.2792 -3.7536  0.3480
 1886SOL     OW17119   2.130   2.632   2.430  0.6318  0.4505  0.3220
 1886SOL    HW117120   2.198   2.579   2.388  2.0604  1.2153  1.6656
 1886SOL    HW217121   2.083   2.577   2.493  1.8073 -1.0852 -0.1456
 1887SOL     OW17122   1.435   0.717   5.024  0.5262 -0.0703  0.0428
 1887SOL    HW117123   1.501   0.673   5.078 -0.9945 -1.5354  0.6870
 1887SOL    HW217124   1.488   0.743   4.948  0.6565 -0.9462 -0.1575
 1888SOL     OW17125   0.209   3.545   6.448 -0.3057 -0.5002  0.4493
 1888SOL    HW117126   0.227   3.501   6.365  0.1120  1.5824 -0.5515
 1888SOL    HW217127   0.170   3.471   6.495  0.0342 -2.0945 -1.8282
 1889SOL     OW17128   2.908   1.559   9.834  0.3649 -0.1276 -0.3119
 1889SOL    HW117129   2.873   1.486   9.884 -0.2856  0.8381  0.6401
 1889SOL    HW217130   2.864   1.545   9.750 -0.4779 -0.7319  0.2414
 1890SOL     OW17131   1.200   1.660   2.889 -0.3170 -0.9395  0.6913
 1890SOL    HW117132   1.263   1.666   2.962  1.0373  0.6565 -0.5982
 1890SOL    HW217133   1.122   1.664   2.944  0.6573  1.2926  1.9345
 1891SOL     OW17134   2.397   2.835  14.001  0.1952  0.0157  0.8118
 1891SOL    HW117135   2.469   2.797  13.951  2.1043  2.2084  1.8472
 1891SOL    HW217136   2.434   2.894  14.067  0.1743 -0.0517  0.8834
 1892SOL     OW17137   4.581   3.867   3.071 -0.1547 -0.0834 -0.4952
 1892SOL    HW117138   4.662   3.834   3.032  0.7880 -0.2864  1.6197
 1892SOL    HW217139   4.588   3.960   3.049  1.3706 -0.3324 -1.1031
 1893SOL     OW17140   2.118   3.042   1.012 -0.6653  0.1301 -0.1386
 1893SOL    HW117141   2.040   3.097   1.008 -0.9266 -0.2689 -0.5661
 1893SOL    HW217142   2.158   3.057   0.927  0.1785  0.8615  0.3853
 1894SOL     OW17143   2.534   1.910   2.568 -0.1511  0.3999  0.1935
 1894SOL    HW117144   2.596   1.838   2.582  0.6538  1.1082  0.2273
 1894SOL    HW217145   2.502   1.874   2.485 -2.0179  0.3581  0.9217
 1895SOL     OW17146   3.990   4.140   5.696 -0.6898 -0.5786 -0.3241
 1895SOL    HW117147   3.922   4.189   5.651  1.0490  0.7655 -1.4950
 1895SOL    HW217148   4.041   4.215   5.729 -0.5864 -0.0476 -1.6815
 1896SOL     OW17149   1.269   4.434   6.912 -0.0577  0.6326  0.5088
 1896SOL    HW117150   1.186   4.457   6.952 -1.2257 -1.4959 -0.6758
 1896SOL    HW217151   1.234   4.377   6.843 -0.9259  0.2991  1.2358
 1897SOL     OW17152   0.428   3.374   0.455  0.7572  0.4129 -0.0455
 1897SOL    HW117153   0.509   3.379   0.505 -0.1229  3.6567  1.1156
 1897SOL    HW217154   0.420   3.279   0.454 -3.3494  0.7544 -2.1023
 1898SOL     OW17155   0.706   3.401   0.972 -0.4229  0.8129 -0.4168
 1898SOL    HW117156   0.693   3.386   1.065  0.3565  0.8540 -0.3048
 1898SOL    HW217157   0.670   3.489   0.959 -0.2771  1.2567  2.1429
 1899SOL     OW17158   2.913   2.326  15.576  0.5213  0.2852  0.1824
 1899SOL    HW117159   2.987   2.281  15.535 -0.3074 -0.9146  0.0235
 1899SOL    HW217160   2.886   2.256  15.635  0.0298 -0.3743 -0.8184
 1900SOL     OW17161   0.925   4.207   4.352  1.0731  0.0851 -0.0919
 1900SOL    HW117162   0.977   4.223   4.274  0.2909 -2.6502 -1.1769
 1900SOL    HW217163   0.960   4.131   4.400  0.5680  1.2235  2.1034
 1901SOL     OW17164   0.292   3.558  13.455  0.1840  0.4965 -0.6691
 1901SOL    HW117165   0.333   3.645  13.452 -2.6469  1.8493  0.5924
 1901SOL    HW217166   0.281   3.540  13.361 -0.2701 -2.1525 -0.0999
 1902SOL     OW17167   4.439   2.969  12.403  0.9338  0.7747 -0.1402
 1902SOL    HW117168   4.428   2.961  12.498 -2.1007  1.3538 -0.4480
 1902SOL    HW217169   4.534   2.955  12.403  0.6397 -1.3092 -1.9067
 1903SOL     OW17170   4.616   4.628   8.204  0.4868 -0.3266  0.3436
 1903SOL    HW117171   4.601   4.717   8.175  1.1113  0.3036  1.9489
 1903SOL    HW217172   4.697   4.639   8.254  1.4995  1.7421 -1.7868
 1904SOL     OW17173   1.345   1.500   3.685 -0.3229 -0.6634  0.4199
 1904SOL    HW117174   1.352   1.456   3.601  0.5087 -1.0267  0.6774
 1904SOL    HW217175   1.391   1.582   3.670  0.1019 -0.7556  1.1941
 1905SOL     OW17176   2.620   1.947   4.869  0.7526 -0.1951 -0.1526
 1905SOL    HW117177   2.666   2.029   4.884  1.1652 -0.2721 -0.9969
 1905SOL    HW217178   2.537   1.981   4.838  0.0497 -0.9696  0.8931
 1906SOL     OW17179   0.186   2.842   1.378 -0.1797 -0.6000  0.3895
 1906SOL    HW117180   0.254   2.831   1.445  1.2076  1.3594 -0.6931
 1906SOL    HW217181   0.217   2.917   1.326 -3.0719  1.5893  1.8481
 1907SOL     OW17182   0.964   1.632   0.553  0.2085 -0.9613  0.0055
 1907SOL    HW117183   0.892   1.647   0.492  1.1863 -1.0692 -1.1750
 1907SOL    HW217184   0.925   1.654   0.637  0.0088  0.3127 -0.4285
 1908SOL     OW17185   4.459   1.195  16.045  0.8908  0.4685  0.2046
 1908SOL    HW117186   4.525   1.264  16.059  0.3540  0.8898  0.6461
 1908SOL    HW217187   4.376   1.244  16.046  0.3905 -0.3631 -0.5145
 1909SOL     OW17188   0.914   1.179   6.997 -0.7258 -0.1984  0.0919
 1909SOL    HW117189   0.949   1.226   7.072 -2.0977  1.2697 -0.1823
 1909SOL    HW217190   0.949   1.237   6.930  0.1774 -1.1882 -0.2870
 1910SOL     OW17191   0.011   3.529  10.468 -1.1669  0.3494  0.4371
 1910SOL    HW117192   0.101   3.551  10.488 -0.2769 -2.4199 -0.5336
 1910SOL    HW217193   4.679   3.603  10.500  0.3404  1.6586 -0.1770
 1911SOL     OW17194   4.572   3.317  10.526  0.4887  0.0007 -0.1762
 1911SOL    HW117195   4.496   3.322  10.467 -0.9133 -0.2207  1.6017
 1911SOL    HW217196   4.626   3.394  10.515 -1.1574  1.1627 -0.1777
 1912SOL     OW17197   3.688   2.222   9.246  0.3209 -0.2199  0.6207
 1912SOL    HW117198   3.728   2.160   9.185 -0.1874  1.1962 -1.1682
 1912SOL    HW217199   3.639   2.157   9.296 -1.4454  0.6734  0.0555
 1913SOL     OW17200   0.811   3.182   0.097 -0.4041  0.0911  0.3067
 1913SOL    HW117201   0.721   3.162   0.069  0.1705 -0.7079 -0.9637
 1913SOL    HW217202   0.802   3.149   0.186 -2.9508 -0.3515 -0.1147
 1914SOL     OW17203   3.853   3.072   0.114 -0.0458  0.0987  0.6206
 1914SOL    HW117204   3.865   3.086   0.020 -2.7215 -2.3838 -0.0878
 1914SOL    HW217205   3.916   3.130   0.155 -0.9535  1.7574 -0.3020
 1915SOL     OW17206   2.576   3.043   6.667 -0.5560  0.1663 -0.1130
 1915SOL    HW117207   2.485   3.059   6.691 -0.3256 -0.6925  1.2824
 1915SOL    HW217208   2.584   2.948   6.657  2.5742  0.2176  1.8127
 1916SOL     OW17209   0.219   2.821   2.951 -0.3986 -0.7958  0.1322
 1916SOL    HW117210   0.137   2.779   2.977 -0.8566  0.1140  0.1394
 1916SOL    HW217211   0.261   2.753   2.899  0.2423  0.1930 -0.6482
 1917SOL     OW17212   3.028   1.830   2.358 -0.1032 -0.0144 -0.0305
 1917SOL    HW117213   2.936   1.834   2.331  0.0927 -0.4854 -0.7820
 1917SOL    HW217214   3.072   1.760   2.310  0.8107  0.3989  0.1994
 1918SOL     OW17215   0.113   4.163   7.458 -0.1589  0.2761  0.3111
 1918SOL    HW117216   0.163   4.166   7.539 -1.7960  0.2296  1.3147
 1918SOL    HW217217   0.087   4.071   7.467 -1.7371  0.6508 -0.4179
 1919SOL     OW17218   0.819   0.057   3.764  0.1476 -0.8081 -0.5111
 1919SOL    HW117219   0.803   0.041   3.671  1.4445 -1.4639 -0.6141
 1919SOL    HW217220   0.736   0.091   3.798  0.8704  0.8233 -0.3585
 1920SOL     OW17221   4.629   3.795   7.710 -0.0328 -0.0687  0.1038
 1920SOL    HW117222   4.551   3.818   7.660  0.7352  0.5856 -0.8233
 1920SOL    HW217223   4.638   3.878   7.757 -0.7812 -0.3358  0.7030
 1921SOL     OW17224   0.876   3.813   1.960  0.0089  0.0863  0.0860
 1921SOL    HW117225   0.844   3.878   1.897  0.2656 -0.8954 -1.0655
 1921SOL    HW217226   0.892   3.869   2.036  0.2514 -0.5976  0.5313
 1922SOL     OW17227   0.115   3.356   7.660  0.4969 -0.0557 -0.0541
 1922SOL    HW117228   0.076   3.427   7.711 -1.1210  0.4919 -2.0673
 1922SOL    HW217229   0.106   3.396   7.574  1.0016 -1.2164 -0.6410
 1923SOL     OW17230   3.911   3.357   7.148 -0.0828 -0.0307  0.8367
 1923SOL    HW117231   3.888   3.293   7.215  1.7786 -0.7021  0.8475
 1923SOL    HW217232   3.968   3.416   7.198  0.5275  0.6224 -0.6303
 1924SOL     OW17233   2.407   0.224   2.348 -0.0049 -0.4845 -0.0291
 1924SOL    HW117234   2.403   0.165   2.273  0.4482  0.5088 -0.8360
 1924SOL    HW217235   2.319   0.258   2.330  0.0701 -0.1255  0.2636
 1925SOL     OW17236   4.298   3.038   6.885  0.1351  0.3837  0.0384
 1925SOL    HW117237   4.239   3.107   6.912 -0.4748  0.9265 -2.6964
 1925SOL    HW217238   4.335   3.080   6.807  0.7127 -0.3248 -0.0746
 1926SOL     OW17239   3.261   3.458  12.104  0.1964 -0.0919 -0.1879
 1926SOL    HW117240   3.299   3.479  12.189  0.2076 -0.1117 -0.1880
 1926SOL    HW217241   3.320   3.502  12.043  2.2462 -1.5858  0.7178
 1927SOL     OW17242   3.885   4.292   3.769 -0.5116 -0.2941 -0.4311
 1927SOL    HW117243   3.835   4.232   3.715 -1.4297 -0.1984  0.3105
 1927SOL    HW217244   3.922   4.226   3.828  1.3986  1.4751  0.3933
 1928SOL     OW17245   0.999   3.620   3.711  0.7016  0.6946 -0.1132
 1928SOL    HW117246   0.986   3.547   3.651  0.7119 -0.1742  0.9351
 1928SOL    HW217247   1.094   3.624   3.698  0.8153 -1.3187  0.0734
 1929SOL     OW17248   0.352   0.400   4.516  0.4237  0.0754 -0.0457
 1929SOL    HW117249   0.355   0.309   4.547 -1.1336  0.5646  1.5532
 1929SOL    HW217250   0.445   0.419   4.512  0.6099 -0.8449 -0.1510
 1930SOL     OW17251   1.195   2.012  12.334 -0.2723  0.1292 -0.1953
 1930SOL    HW117252   1.275   2.040  12.289 -0.5275 -0.5194 -1.0689
 1930SOL    HW217253   1.176   1.933  12.283 -1.0821  0.1922  0.0155
 1931SOL     OW17254   1.709   1.301   6.938 -0.3269  0.5033 -0.0045
 1931SOL    HW117255   1.664   1.236   6.992 -0.2901  1.7183  1.4831
 1931SOL    HW217256   1.754   1.252   6.870 -2.3020  1.5869 -2.1138
 1932SOL     OW17257   2.532   0.779   4.056 -0.0075  0.5193  0.5123
 1932SOL    HW117258   2.496   0.826   4.131  0.3969  0.7883  0.5375
 1932SOL    HW217259   2.597   0.842   4.026 -1.9730  1.7754 -1.1455
 1933SOL     OW17260   1.416   2.373   2.133 -0.4630  0.6097 -0.3273
 1933SOL    HW117261   1.472   2.384   2.210 -0.3839  2.8393 -0.7261
 1933SOL    HW217262   1.429   2.278   2.134 -0.7906  0.5748  1.0600
 1934SOL     OW17263   0.463   1.728   4.437 -0.1744  0.3418  0.5395
 1934SOL    HW117264   0.512   1.785   4.378 -0.2034  1.0721  1.2297
 1934SOL    HW217265   0.478   1.640   4.402  2.0203  0.7224  0.5458
 1935SOL     OW17266   1.319   2.663  12.996 -0.1078  0.5309  0.0365
 1935SOL    HW117267   1.411   2.653  13.021 -0.3663 -1.4464  0.1734
 1935SOL    HW217268   1.278   2.633  13.077 -1.2171  2.7131  0.2880
 1936SOL     OW17269   4.099   1.338   4.191 -0.1830  0.4110 -0.8082
 1936SOL    HW117270   4.091   1.330   4.286 -0.4132  1.0294 -0.7744
 1936SOL    HW217271   4.186   1.377   4.184 -0.9379  2.2427  0.0338
 1937SOL     OW17272   0.803   2.877  12.556 -0.3748 -0.4681 -0.5644
 1937SOL    HW117273   0.753   2.937  12.612  2.0052  0.6568  0.3448
 1937SOL    HW217274   0.817   2.934  12.481  1.2454 -2.1970 -1.5656
 1938SOL     OW17275   1.578   4.034   2.683 -0.0577 -0.0783  0.8620
 1938SOL    HW117276   1.498   4.084   2.699  0.1879  0.8004 -0.6640
 1938SOL    HW217277   1.646   4.101   2.673 -0.6670 -0.0048 -2.6592
 1939SOL     OW17278   1.087   0.150  17.146  0.0301 -0.0200  0.0795
 1939SOL    HW117279   1.044   0.066  17.135 -1.6923  0.8129  0.4395
 1939SOL    HW217280   1.048   0.190  17.069  0.1985  0.8110  0.4176
 1940SOL     OW17281   4.672   1.446   0.526  0.3787 -0.4851  0.0138
 1940SOL    HW117282   4.695   1.526   0.574  0.3934 -0.3471 -0.2245
 1940SOL    HW217283   0.003   1.377   0.567 -0.2704 -1.6452 -1.1508
 1941SOL     OW17284   3.899   3.306   4.080  0.3869  0.4841  0.6241
 1941SOL    HW117285   3.971   3.297   4.143 -0.4675  0.8311  1.6491
 1941SOL    HW217286   3.895   3.399   4.061  1.6675  0.1662 -1.2654
 1942SOL     OW17287   0.837   3.993   7.178 -0.1150  0.0436 -0.1344
 1942SOL    HW117288   0.863   3.901   7.175 -0.9092 -0.1371 -2.0171
 1942SOL    HW217289   0.901   4.030   7.117 -2.2005  1.9649 -1.1513
 1943SOL     OW17290   2.898   1.321   4.150  0.0470 -0.2958  0.9188
 1943SOL    HW117291   2.815   1.334   4.103  0.8571  0.2230 -0.3912
 1943SOL    HW217292   2.928   1.240   4.108 -0.3629 -1.2469  2.4600
 1944SOL     OW17293   4.143   1.898   3.883 -0.2590  0.2219 -0.0160
 1944SOL    HW117294   4.205   1.942   3.825 -0.8833 -0.7727 -1.4242
 1944SOL    HW217295   4.202   1.875   3.955 -2.0435 -0.5959  1.2028
 1945SOL     OW17296   1.293   4.062   3.889 -0.5105  0.2069  0.3286
 1945SOL    HW117297   1.236   4.084   3.815 -0.7673 -0.8270  0.2269
 1945SOL    HW217298   1.355   4.135   3.884  0.0271 -0.2203  0.7828
 1946SOL     OW17299   1.167   1.761  12.158 -0.1308  0.1419  0.0254
 1946SOL    HW117300   1.128   1.771  12.071 -0.3583 -0.2276  0.0870
 1946SOL    HW217301   1.242   1.703  12.148 -0.5144 -0.4379  0.5292
 1947SOL     OW17302   1.175   4.522   3.444  0.0321  0.0424 -0.4055
 1947SOL    HW117303   1.170   4.597   3.385 -1.2650 -0.4874 -0.9834
 1947SOL    HW217304   1.103   4.546   3.503  0.1520  0.0160 -0.2509
 1948SOL     OW17305   4.633   2.383   6.639  0.1971 -0.0855  0.0165
 1948SOL    HW117306   4.631   2.298   6.595 -3.1125 -0.3887  0.7322
 1948SOL    HW217307   4.599   2.434   6.566  0.3506 -0.5824 -0.3998
 1949SOL     OW17308   2.317   4.568  16.302  1.0387 -0.0210 -0.3051
 1949SOL    HW117309   2.325   4.524  16.387 -0.0733  0.3295 -0.0189
 1949SOL    HW217310   2.294   4.651  16.343 -1.0204 -1.0477  0.6336
 1950SOL     OW17311   2.578   0.397  11.613 -0.0041  0.1851 -0.1648
 1950SOL    HW117312   2.613   0.356  11.534 -1.8876 -1.1016 -0.3233
 1950SOL    HW217313   2.652   0.406  11.672  0.8115 -0.5897 -1.0717
 1951SOL     OW17314   2.065   4.406   2.720  0.2919  0.1555  0.5678
 1951SOL    HW117315   2.128   4.400   2.792 -0.5673 -1.3138  1.1941
 1951SOL    HW217316   1.983   4.429   2.763  0.4859  2.1317 -0.1143
 1952SOL     OW17317   0.592   3.451   1.200 -0.0242  0.3641  0.1837
 1952SOL    HW117318   0.511   3.431   1.245 -0.9064  0.0587 -1.5333
 1952SOL    HW217319   0.661   3.422   1.260  1.1418  0.7537 -0.9649
 1953SOL     OW17320   1.268   0.181  11.176 -0.8001 -0.4139 -0.1382
 1953SOL    HW117321   1.307   0.194  11.262  0.1173  1.1206 -0.7766
 1953SOL    HW217322   1.252   0.267  11.138 -0.2550 -0.4033 -0.3410
 1954SOL     OW17323   2.409   3.506   3.918  0.0816  0.4394 -0.3909
 1954SOL    HW117324   2.447   3.583   3.960 -0.6460  0.1684  0.7758
 1954SOL    HW217325   2.486   3.454   3.892  0.9809  0.6888  1.7325
 1955SOL     OW17326   1.189   2.377   3.349 -0.2777 -0.4244 -0.2638
 1955SOL    HW117327   1.188   2.462   3.395  1.5046  0.5789 -2.0855
 1955SOL    HW217328   1.101   2.349   3.374  0.6202 -2.5022  0.5009
 1956SOL     OW17329   0.036   1.944   4.637 -0.0719  0.4180  0.0624
 1956SOL    HW117330   0.104   1.973   4.577 -0.4724  0.7159 -0.2459
 1956SOL    HW217331   0.079   1.884   4.698 -0.8217 -1.0596 -0.8663
 1957SOL     OW17332   2.093   1.032  14.798  0.6301 -0.0754 -0.7446
 1957SOL    HW117333   2.095   0.938  14.785 -0.2037 -0.0465 -1.0590
 1957SOL    HW217334   2.186   1.055  14.799  0.1351  1.9522  1.8072
 1958SOL     OW17335   1.232   4.658   9.355 -0.4275  0.5799  0.5978
 1958SOL    HW117336   1.203   4.578   9.399 -1.0338 -0.4816 -1.7322
 1958SOL    HW217337   1.266   4.712   9.426  1.6204  1.6759 -1.2108
 1959SOL     OW17338   2.513   4.361  14.519  0.3782 -0.0718 -0.1680
 1959SOL    HW117339   2.565   4.287  14.552  0.3813  0.3717  0.8241
 1959SOL    HW217340   2.562   4.440  14.542  0.5051 -0.2345  0.1134
 1960SOL     OW17341   3.901   3.231  13.118  0.5506 -0.8030 -0.7018
 1960SOL    HW117342   3.861   3.315  13.096  0.4038 -0.4981  0.7332
 1960SOL    HW217343   3.980   3.259  13.071 -0.1473  0.8525 -0.8681
 1961SOL     OW17344   0.270   2.668   6.981 -0.5824  0.1249  0.4222
 1961SOL    HW117345   0.320   2.587   6.996  2.3962  1.8746 -0.1565
 1961SOL    HW217346   0.337   2.736   6.981 -0.9027  0.4395 -0.1843
 1962SOL     OW17347   2.408   0.546  16.160 -0.7299 -0.2367 -0.5200
 1962SOL    HW117348   2.431   0.603  16.087  0.1584 -0.7634 -0.6572
 1962SOL    HW217349   2.422   0.606  16.234 -2.2857 -1.0902  0.4767
 1963SOL     OW17350   0.613   4.086   0.786 -0.5080 -0.1242  0.2915
 1963SOL    HW117351   0.531   4.128   0.814  1.4844  1.6891  3.4088
 1963SOL    HW217352   0.580   4.006   0.744 -1.7280  0.9163 -0.7481
 1964SOL     OW17353   1.892   0.813   6.482 -0.1341  0.6041  0.0066
 1964SOL    HW117354   1.815   0.758   6.497 -1.3277  1.9632 -1.1507
 1964SOL    HW217355   1.887   0.869   6.560 -1.5074 -0.9194  1.0253
 1965SOL     OW17356   2.236   0.823   9.754  0.2615  0.0747 -0.0106
 1965SOL    HW117357   2.307   0.826   9.690 -0.9557  1.5546 -1.3098
 1965SOL    HW217358   2.162   0.814   9.694  0.4023  0.5208 -0.2500
 1966SOL     OW17359   1.005   0.441   6.344 -0.4878  0.2315 -0.2130
 1966SOL    HW117360   0.934   0.405   6.292 -0.4983  0.3716 -0.2943
 1966SOL    HW217361   1.082   0.400   6.305 -0.5695 -0.3053  0.1831
 1967SOL     OW17362   4.312   3.553   9.808  0.6574 -0.8510  0.2201
 1967SOL    HW117363   4.356   3.595   9.881  0.2965  0.4819 -0.3273
 1967SOL    HW217364   4.296   3.465   9.842  0.4932 -0.5695  0.8596
 1968SOL     OW17365   2.940   3.341   0.444  0.1170  0.9794  0.0984
 1968SOL    HW117366   2.978   3.344   0.356  0.5350 -1.1668  0.2087
 1968SOL    HW217367   2.983   3.416   0.485 -0.3911  1.3319 -0.0157
 1969SOL     OW17368   1.599   4.466   5.094  0.0431 -0.0129  0.2430
 1969SOL    HW117369   1.685   4.503   5.113  0.5287 -0.6261 -0.8326
 1969SOL    HW217370   1.590   4.473   4.999 -1.6949  3.5025  0.6582
 1970SOL     OW17371   0.454   0.286  11.414  0.5112 -0.0161  0.1704
 1970SOL    HW117372   0.372   0.283  11.366  0.1923 -1.5784  0.8147
 1970SOL    HW217373   0.510   0.325  11.347  2.4680 -1.3440  1.0282
 1971SOL     OW17374   4.629   3.624   3.501  0.2595  0.0485  0.6517
 1971SOL    HW117375   0.000   3.601   3.480  0.5350  0.8891  0.9378
 1971SOL    HW217376   4.577   3.545   3.484  0.5359 -0.3716  1.7438
 1972SOL     OW17377   1.599   3.189   9.807  0.1819  0.0473  0.4500
 1972SOL    HW117378   1.612   3.216   9.898 -0.0053 -3.4898  1.5392
 1972SOL    HW217379   1.538   3.250   9.767  0.1656 -0.3950 -0.1918
 1973SOL     OW17380   2.735   3.508  12.907  0.3285 -0.5891 -0.1444
 1973SOL    HW117381   2.757   3.430  12.857 -0.2953 -0.4372 -0.6455
 1973SOL    HW217382   2.649   3.529  12.871  0.0028 -0.0945  0.8994
 1974SOL     OW17383   4.712   0.339   6.733  0.0050  0.1565 -0.0609
 1974SOL    HW117384   0.020   0.423   6.770 -0.7575 -0.3529  1.6872
 1974SOL    HW217385   0.032   0.338   6.646  0.0475 -3.3251 -0.0146
 1975SOL     OW17386   1.766   1.011   9.274 -0.4086 -0.0697  0.7296
 1975SOL    HW117387   1.763   1.100   9.309 -0.2694 -0.4584  1.7444
 1975SOL    HW217388   1.859   0.991   9.278 -0.4452  0.0429  2.0793
 1976SOL     OW17389   4.400   2.210   0.829 -0.5388 -0.3307 -0.1646
 1976SOL    HW117390   4.306   2.204   0.846 -0.1610 -1.6463  1.4008
 1976SOL    HW217391   4.438   2.260   0.901  0.1264  0.4079 -1.0174
 1977SOL     OW17392   4.537   4.686  13.174  0.4603  0.2834 -0.2873
 1977SOL    HW117393   4.483   4.610  13.154  0.2937 -0.2674  2.1705
 1977SOL    HW217394   4.475   0.006  13.236 -0.7914 -0.3970 -1.0987
 1978SOL     OW17395   2.542   3.341  12.472  0.3595  0.8475 -0.1914
 1978SOL    HW117396   2.536   3.258  12.520  0.1127  0.9649 -0.0180
 1978SOL    HW217397   2.476   3.389  12.523  1.1193  1.7211 -0.0368
 1979SOL     OW17398   1.365   2.393   7.847 -0.6290 -0.3921  0.4971
 1979SOL    HW117399   1.378   2.472   7.796  1.3182  0.0650  1.7026
 1979SOL    HW217400   1.270   2.380   7.837 -0.9146  1.0979  1.3192
 1980SOL     OW17401   4.608   0.715   3.634  0.2414 -0.0625 -0.4831
 1980SOL    HW117402   4.691   0.762   3.637  1.3015 -1.8264 -2.1465
 1980SOL    HW217403   4.610   0.684   3.543  0.0091  0.6454 -0.7250
 1981SOL     OW17404   4.469   0.481   9.352  0.1717 -0.4147 -0.3617
 1981SOL    HW117405   4.543   0.430   9.318 -1.2877 -2.2356 -0.8583
 1981SOL    HW217406   4.431   0.426   9.421 -1.7637  1.0291 -0.2892
 1982SOL     OW17407   4.128   0.397  17.040  0.0249 -0.5283  0.4895
 1982SOL    HW117408   4.113   0.455  17.113  2.0244  1.6362 -0.8020
 1982SOL    HW217409   4.168   0.458  16.977  0.0951 -0.7975  0.2685
 1983SOL     OW17410   3.463   3.291   6.923  0.5980 -0.0827  0.8938
 1983SOL    HW117411   3.448   3.284   6.829  2.7293 -3.2059  0.7955
 1983SOL    HW217412   3.556   3.269   6.930  0.0238 -2.4471  1.0128
 1984SOL     OW17413   4.631   4.693   3.598 -0.7179  0.2378 -0.3881
 1984SOL    HW117414   4.644   4.661   3.509  0.6829  1.4072 -0.6070
 1984SOL    HW217415   4.570   0.047   3.595  0.2591  1.0343 -0.6998
 1985SOL     OW17416   2.690   4.359   0.949  0.5096 -0.4601 -0.2845
 1985SOL    HW117417   2.607   4.328   0.913  0.0609  0.5040 -0.0776
 1985SOL    HW217418   2.710   4.277   0.993 -2.5362 -0.3538  1.3045
 1986SOL     OW17419   0.846   0.166   5.814 -0.0964  0.0900  0.6148
 1986SOL    HW117420   0.787   0.235   5.843 -0.6003 -0.3606  0.6568
 1986SOL    HW217421   0.892   0.143   5.895 -1.5661  0.8689  1.6534
 1987SOL     OW17422   2.600   0.329  12.982  0.8326  0.2109  0.0858
 1987SOL    HW117423   2.673   0.353  12.926  2.5123  0.1792  2.2348
 1987SOL    HW217424   2.542   0.337  12.907 -2.2713 -3.9053  2.0191
 1988SOL     OW17425   4.146   2.262   8.841 -0.7233  0.2027  0.1231
 1988SOL    HW117426   4.213   2.262   8.772 -0.7991  0.8551  0.0420
 1988SOL    HW217427   4.194   2.321   8.900 -0.6363  0.0590  0.1958
 1989SOL     OW17428   2.394   3.874  17.610  0.3176 -0.0569 -0.6739
 1989SOL    HW117429   2.347   3.795  17.635 -0.3670 -0.1477 -2.2376
 1989SOL    HW217430   2.484   3.847  17.626  0.0085 -0.6932 -0.0113
 1990SOL     OW17431   1.864   1.597   8.369  0.0953  0.6508 -0.3781
 1990SOL    HW117432   1.862   1.642   8.453  1.4807 -1.3697  0.7259
 1990SOL    HW217433   1.930   1.650   8.323  0.5232 -1.0742 -1.7619
 1991SOL     OW17434   3.868   2.759   3.181  0.4593  0.7262  0.1208
 1991SOL    HW117435   3.782   2.750   3.222  0.0889  0.6102 -0.6742
 1991SOL    HW217436   3.878   2.668   3.152 -0.2354  1.8903 -3.6981
 1992SOL     OW17437   4.170   0.872   2.395  0.3223 -0.0092 -0.9434
 1992SOL    HW117438   4.099   0.815   2.364 -0.2674  0.7722 -1.0489
 1992SOL    HW217439   4.116   0.934   2.444  0.4975 -2.0062  1.7238
 1993SOL     OW17440   4.050   2.186  11.396  0.3989 -0.0519 -0.1507
 1993SOL    HW117441   3.970   2.234  11.375  0.0209 -0.0544  1.2933
 1993SOL    HW217442   4.054   2.129  11.320 -2.4036 -0.5863  0.0888
 1994SOL     OW17443   4.046   0.514  13.790  0.0425  0.5122  0.1350
 1994SOL    HW117444   3.984   0.442  13.780 -1.3120  1.6201  0.5631
 1994SOL    HW217445   4.103   0.481  13.859 -0.2852  2.5792  1.3924
 1995SOL     OW17446   0.032   3.087   7.178  0.5099  0.4566  0.2822
 1995SOL    HW117447   4.669   3.123   7.210 -0.0544 -1.1755  0.6235
 1995SOL    HW217448   0.029   2.995   7.202 -0.9412  0.3606 -0.2716
 1996SOL     OW17449   4.312   4.466  11.629 -0.3908  0.6794 -0.1781
 1996SOL    HW117450   4.340   4.472  11.721 -2.1204  0.0174  0.3850
 1996SOL    HW217451   4.218   4.482  11.628 -0.3094  1.1467 -0.3047
 1997SOL     OW17452   0.898   2.193   0.709 -0.5122 -0.7350  0.0954
 1997SOL    HW117453   0.895   2.227   0.798  1.0614 -1.5103  0.4468
 1997SOL    HW217454   0.830   2.126   0.704 -1.0424 -0.2117  0.2933
 1998SOL     OW17455   2.836   2.997   3.808  0.4469 -0.3251 -0.0432
 1998SOL    HW117456   2.845   2.907   3.774 -0.9453 -0.5318  0.1227
 1998SOL    HW217457   2.840   3.040   3.722 -1.7311 -0.8992 -0.4377
 1999SOL     OW17458   1.277   1.413   5.666  0.5166  0.0840 -0.2594
 1999SOL    HW117459   1.330   1.488   5.694  0.6323 -0.0636 -0.0790
 1999SOL    HW217460   1.212   1.422   5.735  0.8584  0.3023  0.0351
 2000SOL     OW17461   0.210   3.809  14.371 -0.4360 -0.4024  0.3761
 2000SOL    HW117462   0.144   3.739  14.369 -1.5492  0.6311  0.4877
 2000SOL    HW217463   0.289   3.756  14.362  1.7396  2.8116  0.4070
 2001SOL     OW17464   0.491   2.757  16.006 -0.2748 -0.4446 -0.2449
 2001SOL    HW117465   0.570   2.735  15.956 -3.1488 -1.7317 -4.1937
 2001SOL    HW217466   0.433   2.693  15.964 -1.4944 -0.9436  2.1680
 2002SOL     OW17467   3.350   2.256   4.862 -0.5802  0.1445 -0.7107
 2002SOL    HW117468   3.418   2.240   4.796 -3.0430 -1.1906 -2.9235
 2002SOL    HW217469   3.288   2.185   4.844  0.6405 -0.8593 -0.9484
 2003SOL     OW17470   0.549   3.346   7.520 -0.2126 -0.0156 -0.1002
 2003SOL    HW117471   0.617   3.309   7.463  0.2900  1.4486 -0.4308
 2003SOL    HW217472   0.545   3.429   7.473 -1.4446  0.5007  0.9159
 2004SOL     OW17473   2.943   1.167   3.595  0.1772  0.5340 -0.6155
 2004SOL    HW117474   3.005   1.229   3.632 -1.8330  1.4933  1.0986
 2004SOL    HW217475   2.979   1.084   3.626 -0.4822  0.9444  1.2545
 2005SOL     OW17476   3.432   2.464   5.809  0.2182  0.2412 -0.0860
 2005SOL    HW117477   3.398   2.444   5.722  0.8148 -1.0206 -0.0361
 2005SOL    HW217478   3.519   2.502   5.791 -0.7419  2.3191 -0.3103
 2006SOL     OW17479   2.206   2.122   1.608  0.0496  0.5942  0.5076
 2006SOL    HW117480   2.299   2.139   1.593 -0.2179  0.6145 -1.1370
 2006SOL    HW217481   2.192   2.060   1.537  2.9907 -0.1283  0.5659
 2007SOL     OW17482   4.470   1.717  14.424  0.0635  0.0309  0.1121
 2007SOL    HW117483   4.465   1.716  14.328  3.2621 -1.0722 -0.0492
 2007SOL    HW217484   4.535   1.782  14.451  0.4712  0.2673 -1.3968
 2008SOL     OW17485   4.287   3.567   4.667  0.8142 -0.0272 -0.4486
 2008SOL    HW117486   4.259   3.613   4.588  2.3253  0.9259 -0.4199
 2008SOL    HW217487   4.370   3.608   4.690  0.4807  0.5376 -0.2562
 2009SOL     OW17488   1.833   3.791  14.346 -0.0090  0.0042 -0.4080
 2009SOL    HW117489   1.754   3.738  14.333 -1.4069  2.3724 -1.6781
 2009SOL    HW217490   1.798   3.876  14.319  1.4659  0.8366  0.2913
 2010SOL     OW17491   3.620   2.465   7.213 -0.2676  0.2291 -0.1454
 2010SOL    HW117492   3.658   2.403   7.275  1.2752  0.5131 -0.8191
 2010SOL    HW217493   3.530   2.432   7.217 -0.3221  0.2847 -0.9198
 2011SOL     OW17494   1.155   3.798   2.955  0.2097 -0.0506  0.3452
 2011SOL    HW117495   1.163   3.760   2.867 -0.3500  2.0788 -0.6176
 2011SOL    HW217496   1.238   3.846   2.965 -1.7063  3.4605 -0.7638
 2012SOL     OW17497   4.474   1.322  10.151  0.3127 -0.2275 -0.0502
 2012SOL    HW117498   4.414   1.271  10.206  1.5423 -0.4403  1.1028
 2012SOL    HW217499   4.533   1.348  10.222 -1.6353  0.9917  1.1241
 2013SOL     OW17500   4.423   1.841   7.347 -0.6379 -0.6278 -0.5069
 2013SOL    HW117501   4.360   1.887   7.403  1.3422  2.5202 -0.8660
 2013SOL    HW217502   4.473   1.796   7.416  1.8291 -0.5335 -2.2348
 2014SOL     OW17503   0.009   0.738   4.128 -0.4760  0.4894 -0.3175
 2014SOL    HW117504   0.030   0.651   4.163  3.8578  0.6661 -2.3534
 2014SOL    HW217505   0.052   0.793   4.194 -2.9980 -0.6143  2.2209
 2015SOL     OW17506   0.818   4.539   4.332  0.7305 -0.6905  0.1518
 2015SOL    HW117507   0.827   4.574   4.244 -1.3673 -0.1488  0.1393
 2015SOL    HW217508   0.900   4.566   4.372  0.3119  1.8094 -0.6874
 2016SOL     OW17509   3.625   1.101   9.135  0.1056  0.3125 -0.4111
 2016SOL    HW117510   3.630   1.124   9.042 -1.2729 -0.7911 -0.7573
 2016SOL    HW217511   3.663   1.180   9.172 -0.2244 -0.0928  0.7865
 2017SOL     OW17512   4.082   0.563  13.130  0.1353  0.0653  0.2629
 2017SOL    HW117513   4.157   0.617  13.151 -0.6606  1.2021  0.1830
 2017SOL    HW217514   4.015   0.593  13.192  0.0899 -0.5374  0.5095
 2018SOL     OW17515   1.301   3.804   6.948  0.2713  0.0604 -0.6240
 2018SOL    HW117516   1.330   3.795   6.857  0.3551 -1.7170 -0.4191
 2018SOL    HW217517   1.378   3.766   6.989  1.6970  1.0238 -2.3873
 2019SOL     OW17518   2.736   3.377   2.751  0.3840 -0.5240  0.1992
 2019SOL    HW117519   2.675   3.441   2.788  1.0046  1.2880 -1.8886
 2019SOL    HW217520   2.703   3.296   2.789  0.2472 -1.4754 -1.9674
 2020SOL     OW17521   0.113   4.317  11.374 -0.1552 -0.0771 -0.2186
 2020SOL    HW117522   0.115   4.412  11.382  0.0081 -0.3335  2.7540
 2020SOL    HW217523   0.021   4.292  11.361 -0.6236  2.7316 -2.1715
 2021SOL     OW17524   3.608   3.586  16.836 -0.0593  0.3202  0.1183
 2021SOL    HW117525   3.699   3.568  16.859 -0.4166 -2.2121 -0.4127
 2021SOL    HW217526   3.560   3.511  16.873 -0.0100 -0.0379 -0.5406
 2022SOL     OW17527   0.548   3.664   8.499  0.0496  0.3646  0.0086
 2022SOL    HW117528   0.458   3.632   8.509  1.4705 -3.2005  1.3482
 2022SOL    HW217529   0.530   3.753   8.530 -1.3023  1.0811 -2.8108
 2023SOL     OW17530   4.493   4.515   8.412  0.1982  0.1473 -0.5225
 2023SOL    HW117531   4.560   4.457   8.448  0.4158  0.6228 -0.1515
 2023SOL    HW217532   4.535   4.544   8.331  1.1037 -2.7065 -1.0367
 2024SOL     OW17533   0.062   4.093   9.302  0.1307  0.3545  0.1146
 2024SOL    HW117534   0.147   4.134   9.318 -1.5871  4.1828 -0.5399
 2024SOL    HW217535   0.014   4.106   9.384 -0.5850 -1.3809 -0.0323
 2025SOL     OW17536   1.504   1.346   4.259  0.1283  0.3796  0.0059
 2025SOL    HW117537   1.485   1.273   4.200 -1.0190  2.0945 -1.7224
 2025SOL    HW217538   1.492   1.423   4.204 -0.2936 -0.8563 -1.6354
 2026SOL     OW17539   0.228   3.201   4.171 -0.2558 -0.3904  0.3836
 2026SOL    HW117540   0.180   3.211   4.088  0.5381 -1.9249 -0.2488
 2026SOL    HW217541   0.312   3.228   4.135  0.1063  0.8071  2.1160
 2027SOL     OW17542   2.796   0.329   8.796 -0.7453 -0.4654 -0.6902
 2027SOL    HW117543   2.806   0.343   8.890 -1.3483 -0.3261 -0.6481
 2027SOL    HW217544   2.829   0.240   8.789  0.1390  0.0182 -2.8942
 2028SOL     OW17545   3.232   3.758   2.809  0.0462 -0.4625 -0.2498
 2028SOL    HW117546   3.264   3.809   2.884 -0.6632  2.5631 -1.9926
 2028SOL    HW217547   3.200   3.828   2.751 -0.0630  0.5697  1.0492
 2029SOL     OW17548   4.370   2.055  12.550  0.2070 -0.4512 -0.5284
 2029SOL    HW117549   4.425   2.107  12.609  1.8482 -0.6904 -1.8280
 2029SOL    HW217550   4.410   1.969  12.566 -1.4050 -1.2228 -0.6573
 2030SOL     OW17551   1.522   3.496   9.170 -0.1087 -0.0506  0.7471
 2030SOL    HW117552   1.496   3.579   9.128  0.8932 -0.1611 -0.0883
 2030SOL    HW217553   1.446   3.441   9.153 -0.4180  0.3688  0.7507
 2031SOL     OW17554   2.583   3.598   8.234  0.2467  0.5379  0.2002
 2031SOL    HW117555   2.671   3.633   8.217 -0.1636  0.0553 -2.9407
 2031SOL    HW217556   2.590   3.564   8.324 -0.4133 -3.2853 -1.1829
 2032SOL     OW17557   1.920   3.138  10.904  0.7097 -0.2153 -0.1496
 2032SOL    HW117558   1.845   3.197  10.895 -0.0599 -1.2376 -0.4284
 2032SOL    HW217559   1.896   3.081  10.830 -1.1261 -0.2878  0.5195
 2033SOL     OW17560   1.135   1.428   4.186  0.5146 -0.4430  0.1589
 2033SOL    HW117561   1.098   1.458   4.103  0.0541 -2.4080 -0.3509
 2033SOL    HW217562   1.115   1.499   4.246 -2.0468 -0.2131 -0.9465
 2034SOL     OW17563   3.505   3.573   2.349  0.3475  0.0815  0.0740
 2034SOL    HW117564   3.466   3.592   2.434  2.1279  1.3622  0.5957
 2034SOL    HW217565   3.430   3.562   2.291  0.9600 -0.3307 -0.6359
 2035SOL     OW17566   2.940   0.736  16.167  0.1479 -0.0268 -0.2188
 2035SOL    HW117567   2.937   0.658  16.112  1.3481 -0.5096  0.3800
 2035SOL    HW217568   3.033   0.757  16.158 -0.9236  3.8741 -1.7780
 2036SOL     OW17569   3.451   2.055   1.830  0.1479  0.4766 -0.1996
 2036SOL    HW117570   3.361   2.058   1.797 -0.1414 -0.7469  0.4858
 2036SOL    HW217571   3.497   2.057   1.746  0.6238  0.2053  0.0520
 2037SOL     OW17572   3.469   0.023   4.902  0.1409  0.0342  0.5470
 2037SOL    HW117573   3.399   0.037   4.967  1.1695 -1.9182  2.0843
 2037SOL    HW217574   3.456   0.099   4.846  1.8784 -1.6097 -2.0359
 2038SOL     OW17575   1.119   3.201   7.213 -0.1700  0.3481 -0.1967
 2038SOL    HW117576   1.061   3.142   7.261  0.5993 -2.1671 -2.4265
 2038SOL    HW217577   1.085   3.291   7.210 -1.0537 -0.0334 -1.2714
 2039SOL     OW17578   1.103   0.777   8.524 -0.1806  0.0075  0.1727
 2039SOL    HW117579   1.161   0.809   8.456  0.7203  0.5568  1.1940
 2039SOL    HW217580   1.152   0.700   8.551  0.9827  0.8409  0.4221
 2040SOL     OW17581   4.667   1.748  14.040 -0.5316  0.0256 -0.4264
 2040SOL    HW117582   4.585   1.741  13.991 -2.1380  2.9027  1.8186
 2040SOL    HW217583   4.675   1.843  14.052  0.6421 -0.0569 -0.5634
 2041SOL     OW17584   0.812   3.111   2.081  0.0968  0.7863  0.3123
 2041SOL    HW117585   0.776   3.112   1.993 -1.5975  0.7261  0.9984
 2041SOL    HW217586   0.827   3.017   2.095  1.8487  1.5404  3.6840
 2042SOL     OW17587   0.322   2.570   2.394 -0.0614 -0.0918  0.2052
 2042SOL    HW117588   0.372   2.583   2.474 -0.9326 -0.1115  0.7511
 2042SOL    HW217589   0.298   2.478   2.407 -0.8077 -0.0054 -0.5817
 2043SOL     OW17590   3.613   3.867   5.960  0.1251  0.4128 -0.0761
 2043SOL    HW117591   3.685   3.931   5.958  0.4025  0.0743 -0.8537
 2043SOL    HW217592   3.587   3.874   5.868 -0.3927  0.4264  0.0737
 2044SOL     OW17593   3.396   0.757  15.432 -0.1897  0.0530  0.6666
 2044SOL    HW117594   3.363   0.709  15.357  0.4164  0.5744  0.0683
 2044SOL    HW217595   3.483   0.721  15.443 -0.7584 -0.8066  2.3221
 2045SOL     OW17596   4.527   3.701   4.773  0.4551 -0.0454 -0.2406
 2045SOL    HW117597   4.570   3.763   4.715  0.4683  1.8324  1.7379
 2045SOL    HW217598   4.487   3.771   4.826 -0.2969  0.5220 -1.5522
 2046SOL     OW17599   1.409   0.809  15.495  0.0319 -0.4600 -0.8523
 2046SOL    HW117600   1.481   0.824  15.556 -1.0971 -0.7536  0.5714
 2046SOL    HW217601   1.334   0.839  15.547  0.3211 -0.3374 -0.5100
 2047SOL     OW17602   0.684   0.519   2.392  0.0785 -0.3917  0.0441
 2047SOL    HW117603   0.632   0.472   2.327 -1.0466  0.7086  0.1529
 2047SOL    HW217604   0.755   0.455   2.401  1.9850  1.6100 -0.8416
 2048SOL     OW17605   2.411   0.798   9.545 -0.0266  0.1780 -0.3370
 2048SOL    HW117606   2.379   0.757   9.465 -0.5105 -0.0083 -0.0536
 2048SOL    HW217607   2.489   0.843   9.513 -0.7031  1.0825 -0.7105
 2049SOL     OW17608   0.014   3.812   9.354  0.2268  0.2319 -0.3828
 2049SOL    HW117609   4.648   3.813   9.397  1.1057 -0.3945  1.3893
 2049SOL    HW217610   0.023   3.904   9.327 -1.1092  0.7270  0.8614
 2050SOL     OW17611   1.502   3.683   2.304 -0.3177  0.8316 -0.2398
 2050SOL    HW117612   1.511   3.708   2.396  2.2546  4.4900 -1.4920
 2050SOL    HW217613   1.409   3.661   2.297 -0.4453  1.6325 -1.1337
 2051SOL     OW17614   0.494   4.323   7.398  0.2800  0.3898  0.6389
 2051SOL    HW117615   0.549   4.259   7.353 -0.8301  0.8961 -1.4443
 2051SOL    HW217616   0.539   4.407   7.387  2.0842 -0.4049  2.0842
 2052SOL     OW17617   2.086   3.236   5.027  0.2904 -0.2311  0.2179
 2052SOL    HW117618   2.066   3.329   5.027 -0.4319 -0.3824  0.3012
 2052SOL    HW217619   2.037   3.204   5.103  0.4847 -0.6578  0.1632
 2053SOL     OW17620   3.422   2.242  17.051  0.0471 -0.1190 -0.4831
 2053SOL    HW117621   3.368   2.279  16.981 -0.7744 -0.2407  0.0866
 2053SOL    HW217622   3.386   2.284  17.129 -1.8216 -0.5693 -1.0854
 2054SOL     OW17623   3.380   1.921  11.721 -0.2930 -0.8714  0.0788
 2054SOL    HW117624   3.307   1.952  11.667  1.2263 -1.7211 -2.4523
 2054SOL    HW217625   3.339   1.898  11.804 -1.6380  0.7352 -0.1123
 2055SOL     OW17626   3.694   0.403   4.975 -0.2312  0.2750 -0.5192
 2055SOL    HW117627   3.784   0.416   5.005 -0.1886  2.4137 -1.5815
 2055SOL    HW217628   3.680   0.314   5.008 -2.2135  0.9319  0.4443
 2056SOL     OW17629   4.466   0.789   4.184  0.4601  0.1778 -0.1269
 2056SOL    HW117630   4.478   0.883   4.200 -0.5199  0.4006 -0.6720
 2056SOL    HW217631   4.551   0.762   4.151  0.6115 -0.9997  1.2414
 2057SOL     OW17632   3.344   0.386   2.182 -0.6194 -0.5299 -0.4790
 2057SOL    HW117633   3.272   0.431   2.139 -0.8477 -0.0706  0.3791
 2057SOL    HW217634   3.409   0.456   2.192 -0.4118 -0.7880 -0.0141
 2058SOL     OW17635   1.583   4.362  13.694 -0.3976  0.0348 -0.3696
 2058SOL    HW117636   1.524   4.438  13.692 -1.0850 -0.5552 -2.4142
 2058SOL    HW217637   1.643   4.381  13.766  2.1120 -2.4130 -1.8398
 2059SOL     OW17638   3.289   2.078   2.192 -0.4385 -0.0667 -0.1285
 2059SOL    HW117639   3.217   2.141   2.197  0.4798  0.9334  0.6101
 2059SOL    HW217640   3.357   2.130   2.148 -0.9250  0.2801 -0.4699
 2060SOL     OW17641   3.516   1.518   2.465 -0.1140  0.1173 -0.1497
 2060SOL    HW117642   3.591   1.474   2.423 -0.5857 -0.9368  0.1101
 2060SOL    HW217643   3.464   1.438   2.463  2.3567 -1.5177  0.1993
 2061SOL     OW17644   1.493   3.352   5.230 -0.1140 -0.5780  0.0077
 2061SOL    HW117645   1.530   3.434   5.196  2.0286 -1.7042 -0.4253
 2061SOL    HW217646   1.401   3.370   5.215 -0.2213 -1.7882 -0.8167
 2062SOL     OW17647   2.573   3.635   4.136  0.3283 -0.4745 -0.0903
 2062SOL    HW117648   2.646   3.672   4.186  1.6978 -2.5916 -0.5067
 2062SOL    HW217649   2.500   3.660   4.193 -1.1662 -0.9784 -1.7664
 2063SOL     OW17650   4.639   3.963   7.069  0.3360  0.4018 -0.0046
 2063SOL    HW117651   0.000   3.999   7.105 -0.0227 -0.6197  1.8111
 2063SOL    HW217652   4.627   3.905   7.144 -0.0872 -1.0475 -1.1949
 2064SOL     OW17653   1.660   2.259   1.951 -0.1631 -0.3595 -1.3975
 2064SOL    HW117654   1.745   2.273   1.992 -1.0723 -3.2047  1.4847
 2064SOL    HW217655   1.596   2.307   2.005 -0.0901  1.1686 -2.6700
 2065SOL     OW17656   1.587   0.635   3.382  0.0094 -0.2267  0.3582
 2065SOL    HW117657   1.552   0.628   3.293 -0.2876  0.9445  0.3872
 2065SOL    HW217658   1.577   0.543   3.408  0.5123  0.0172  1.4107
 2066SOL     OW17659   2.050   1.102   2.027 -0.6717 -0.1971 -0.1422
 2066SOL    HW117660   1.974   1.157   2.007 -0.0805  0.9995  0.8807
 2066SOL    HW217661   2.101   1.104   1.946  1.1552  2.3894  1.0384
 2067SOL     OW17662   0.703   1.967   6.704 -0.3361 -0.4928  0.3164
 2067SOL    HW117663   0.664   2.052   6.726  0.3518  0.2313 -1.2588
 2067SOL    HW217664   0.671   1.908   6.772  2.0041  2.2223  3.7950
 2068SOL     OW17665   1.493   1.862  17.017 -0.0528 -0.0529 -0.6431
 2068SOL    HW117666   1.511   1.788  17.074  2.2992  0.5412 -0.6098
 2068SOL    HW217667   1.482   1.813  16.935 -0.4535 -0.9894 -0.0240
 2069SOL     OW17668   1.266   1.062   0.556  0.4808 -0.3701  0.0109
 2069SOL    HW117669   1.278   0.987   0.498  1.9152 -1.0839  1.2489
 2069SOL    HW217670   1.356   1.091   0.566 -0.2275  1.9664 -0.4126
 2070SOL     OW17671   1.750   3.754  13.796 -0.1255  0.0922  0.2155
 2070SOL    HW117672   1.786   3.779  13.880 -0.0744 -0.2691  0.3008
 2070SOL    HW217673   1.663   3.731  13.829  0.2969 -1.6074  0.1736
 2071SOL     OW17674   0.870   1.914   7.395  0.2924 -0.4104 -0.4754
 2071SOL    HW117675   0.840   1.972   7.465 -0.0962 -2.5240  1.1169
 2071SOL    HW217676   0.791   1.911   7.342  1.2558 -1.4529 -1.8276
 2072SOL     OW17677   1.234   1.077   9.548  0.1532  0.1059 -0.1529
 2072SOL    HW117678   1.160   1.057   9.606  0.6147 -0.0598  0.3709
 2072SOL    HW217679   1.310   1.026   9.576  0.5671  1.7168  1.6217
 2073SOL     OW17680   2.692   0.004   2.670  0.5148  0.4837 -0.2342
 2073SOL    HW117681   2.736   4.657   2.617 -1.2757  0.1657 -1.3357
 2073SOL    HW217682   2.676   0.083   2.617 -0.7231  0.5288  0.2157
 2074SOL     OW17683   4.566   0.740   8.378  0.1819  0.1479  0.7038
 2074SOL    HW117684   4.652   0.765   8.412  0.0268  0.3611  0.9377
 2074SOL    HW217685   4.513   0.819   8.391 -0.7063 -0.1991 -0.7486
 2075SOL     OW17686   1.370   4.137   6.308  0.3833  0.4084 -0.1241
 2075SOL    HW117687   1.422   4.061   6.334 -1.1738 -0.3020  0.9543
 2075SOL    HW217688   1.404   4.201   6.370  2.0724 -0.1691 -0.4494
 2076SOL     OW17689   3.318   3.024   4.977  0.5082 -0.0543 -0.1809
 2076SOL    HW117690   3.405   3.049   4.947 -0.7255  1.4357 -2.5619
 2076SOL    HW217691   3.312   2.945   4.924 -0.1099 -1.0647  1.3960
 2077SOL     OW17692   4.069   0.105   6.764  0.6864  1.0570  0.0303
 2077SOL    HW117693   4.094   0.103   6.672 -0.6814  1.2155 -0.3429
 2077SOL    HW217694   4.008   0.032   6.778 -0.3690  1.7563 -0.9467
 2078SOL     OW17695   0.074   2.365   8.121 -0.7177  0.0764  0.3031
 2078SOL    HW117696   0.036   2.453   8.117  0.0759  0.3644 -0.9462
 2078SOL    HW217697   0.093   2.346   8.029  1.0033 -0.0910  0.6919
 2079SOL     OW17698   2.190   3.183   4.284  0.2251 -0.7959  0.0057
 2079SOL    HW117699   2.279   3.212   4.307 -0.3130  1.1168 -0.3098
 2079SOL    HW217700   2.201   3.094   4.252  1.2964 -0.2436 -1.1746
 2080SOL     OW17701   2.182   0.653  15.749  0.2082 -0.3221  0.1734
 2080SOL    HW117702   2.256   0.596  15.771  0.0669 -0.8745 -0.7780
 2080SOL    HW217703   2.115   0.589  15.723 -0.4334 -0.6416  2.5593
 2081SOL     OW17704   3.045   3.978   7.361 -0.1462 -0.0882  0.0065
 2081SOL    HW117705   3.021   3.891   7.393  0.4170 -0.5656 -0.8584
 2081SOL    HW217706   3.127   3.952   7.317 -0.2664  1.6003 -1.2031
 2082SOL     OW17707   4.001   2.629   5.214 -0.0895  0.1315 -0.2472
 2082SOL    HW117708   4.084   2.635   5.165  1.4838  1.3838  2.6065
 2082SOL    HW217709   4.026   2.668   5.297  0.6722  0.5910 -0.6926
 2083SOL     OW17710   2.228   4.323  15.343  0.2795 -0.2818  0.1479
 2083SOL    HW117711   2.165   4.386  15.378  1.7290  2.6133 -2.4511
 2083SOL    HW217712   2.304   4.373  15.313 -0.8825  1.6342  0.3986
 2084SOL     OW17713   1.656   3.289   7.574  0.2385  0.3793 -1.2718
 2084SOL    HW117714   1.622   3.338   7.499 -1.5478 -1.5579 -1.7113
 2084SOL    HW217715   1.576   3.279   7.626  0.0173  0.7506 -1.5397
 2085SOL     OW17716   4.257   2.539   0.111 -0.7434 -0.0266 -0.1559
 2085SOL    HW117717   4.277   2.522   0.019  0.5754  0.8510 -0.0234
 2085SOL    HW217718   4.182   2.598   0.105  0.5423  1.7623  1.4142
 2086SOL     OW17719   3.672   1.150   8.880  0.0426  0.0140 -0.3079
 2086SOL    HW117720   3.761   1.115   8.877 -0.1764 -0.7479  1.6545
 2086SOL    HW217721   3.687   1.223   8.820 -0.8504  0.8263  0.4620
 2087SOL     OW17722   1.152   3.912   7.559  0.7899 -0.1551 -0.5355
 2087SOL    HW117723   1.128   3.969   7.632  0.3599 -0.1405 -0.6873
 2087SOL    HW217724   1.103   3.959   7.491  1.0954  2.3467  0.9576
 2088SOL     OW17725   1.504   3.605   7.057  0.2245  0.0698  0.1809
 2088SOL    HW117726   1.540   3.519   7.079  0.0894 -0.1197 -0.3327
 2088SOL    HW217727   1.513   3.644   7.144 -1.6302 -0.0456  0.4241
 2089SOL     OW17728   0.061   0.494   4.296  0.0119  0.0030  0.1338
 2089SOL    HW117729   0.094   0.473   4.383  1.2321 -1.2275 -0.6315
 2089SOL    HW217730   0.112   0.435   4.240 -1.8117 -1.4314 -0.0464
 2090SOL     OW17731   2.132   2.450   8.074  0.4919  0.3026 -0.1710
 2090SOL    HW117732   2.203   2.493   8.123  0.7459 -0.9331  0.5535
 2090SOL    HW217733   2.068   2.521   8.075 -1.7410 -1.7227  0.3229
 2091SOL     OW17734   2.569   1.696  12.436 -0.4844 -0.2191  0.3427
 2091SOL    HW117735   2.660   1.669  12.447 -0.0396  1.1505 -0.0635
 2091SOL    HW217736   2.591   1.785  12.410 -2.9990  0.3071 -0.0073
 2092SOL     OW17737   2.655   4.309   6.678  0.6740  0.3130  0.4338
 2092SOL    HW117738   2.564   4.301   6.648  0.8148  0.0792  0.0744
 2092SOL    HW217739   2.676   4.225   6.719  0.2008  0.2150  0.4792
 2093SOL     OW17740   1.127   0.727   3.723 -0.1859 -0.3275  0.2512
 2093SOL    HW117741   1.201   0.787   3.736 -1.2004  1.0427 -0.1995
 2093SOL    HW217742   1.101   0.724   3.815  0.6897  1.5607  0.5697
 2094SOL     OW17743   1.491   1.819   4.850  0.0663  0.0492  0.6273
 2094SOL    HW117744   1.440   1.823   4.931 -1.4015  0.6055 -0.3077
 2094SOL    HW217745   1.446   1.886   4.798 -0.6007 -1.6929 -1.0592
 2095SOL     OW17746   4.688   2.236   6.926 -0.2170 -0.3787  0.0637
 2095SOL    HW117747   4.639   2.268   6.851  1.1258  2.0423  0.2213
 2095SOL    HW217748   4.704   2.317   6.974 -0.4038 -0.2928 -0.0223
 2096SOL     OW17749   4.513   2.122   5.711  0.0597 -0.3963  0.1323
 2096SOL    HW117750   4.524   2.095   5.802 -1.9975  0.5427  0.6739
 2096SOL    HW217751   4.453   2.056   5.675 -0.0407  0.2578 -0.8993
 2097SOL     OW17752   2.859   1.960   6.808  0.2681  0.0873 -0.0252
 2097SOL    HW117753   2.816   1.974   6.893 -0.5290 -0.4302 -0.3444
 2097SOL    HW217754   2.849   2.047   6.769  2.6719 -1.1163 -3.2553
 2098SOL     OW17755   1.400   0.174   6.791 -0.2525  0.4268 -0.0279
 2098SOL    HW117756   1.428   0.262   6.766 -0.9540  0.4673 -0.6569
 2098SOL    HW217757   1.470   0.130   6.742 -0.1811  0.6246 -0.1022
 2099SOL     OW17758   4.478   2.921   0.847 -0.3779 -0.0013 -0.1273
 2099SOL    HW117759   4.422   2.998   0.858 -0.4833  0.0902 -1.3361
 2099SOL    HW217760   4.529   2.950   0.923 -0.9582 -1.0299  0.6655
 2100SOL     OW17761   1.023   2.394   0.145  0.5311  0.1279  0.4544
 2100SOL    HW117762   0.949   2.371   0.201 -0.3945 -0.1168 -0.8577
 2100SOL    HW217763   1.078   2.447   0.202 -0.0871  0.1715  1.0109
 2101SOL     OW17764   2.175   3.521   5.768 -0.3269  0.5081 -0.0170
 2101SOL    HW117765   2.103   3.464   5.739  0.5609 -0.7920  0.3257
 2101SOL    HW217766   2.172   3.598   5.711  0.7433  0.4712 -0.1252
 2102SOL     OW17767   0.106   4.138   6.196  0.0789 -0.5328  0.0933
 2102SOL    HW117768   0.101   4.130   6.291 -1.7433 -1.0301 -0.0415
 2102SOL    HW217769   0.105   4.045   6.174 -0.2987 -0.5940  0.3702
 2103SOL     OW17770   3.458   2.271   6.268 -0.1803 -0.3984  0.6330
 2103SOL    HW117771   3.399   2.324   6.215  0.1892 -0.9707 -0.3612
 2103SOL    HW217772   3.542   2.315   6.252 -0.7677  0.1833 -0.8020
 2104SOL     OW17773   1.437   3.018  11.221  0.1248  0.2224 -0.3759
 2104SOL    HW117774   1.374   3.085  11.193  3.3478  3.1077 -0.6116
 2104SOL    HW217775   1.494   3.078  11.268  1.0590  0.2086 -1.5053
 2105SOL     OW17776   1.510   3.224   8.196  0.3572 -0.1390 -0.5657
 2105SOL    HW117777   1.464   3.140   8.190  1.6009 -0.9122  0.8703
 2105SOL    HW217778   1.468   3.281   8.131  1.8480 -1.2388 -2.4826
 2106SOL     OW17779   3.531   1.785   2.398 -0.0421 -0.4608 -0.1550
 2106SOL    HW117780   3.531   1.690   2.402  0.7930 -0.4703 -0.3642
 2106SOL    HW217781   3.439   1.798   2.420 -0.7276 -0.7541 -2.9100
 2107SOL     OW17782   3.488   3.063   5.292 -0.0890  0.1746 -0.2985
 2107SOL    HW117783   3.523   3.001   5.228 -1.1678  1.3080 -2.0155
 2107SOL    HW217784   3.551   3.133   5.276  0.4739 -0.2056  0.3221
 2108SOL     OW17785   4.318   3.888   8.517 -0.7748 -0.3951  0.5595
 2108SOL    HW117786   4.406   3.880   8.483 -2.2874 -0.4328 -3.3346
 2108SOL    HW217787   4.267   3.865   8.440 -2.0378  0.4671  1.1173
 2109SOL     OW17788   0.924   4.123   2.492 -0.0728 -0.5407  0.9637
 2109SOL    HW117789   0.964   4.165   2.416  0.6034 -2.0196  0.5101
 2109SOL    HW217790   0.998   4.115   2.552  1.1913  1.2691 -0.3690
 2110SOL     OW17791   0.408   1.935   2.513  0.4226 -0.3010  0.2123
 2110SOL    HW117792   0.488   1.954   2.464  2.6263 -0.4676  3.7309
 2110SOL    HW217793   0.335   1.909   2.457 -0.2453 -0.0535  0.9704
 2111SOL     OW17794   2.471   3.446  13.731 -0.1477 -0.1750  0.3137
 2111SOL    HW117795   2.501   3.372  13.783  1.8499 -0.7285 -1.6355
 2111SOL    HW217796   2.385   3.462  13.770 -0.0886 -0.9155  0.7402
 2112SOL     OW17797   0.135   1.801   6.240  0.1744 -0.0113 -0.3525
 2112SOL    HW117798   0.200   1.850   6.291 -0.1477  1.7240 -1.6122
 2112SOL    HW217799   0.147   1.717   6.284 -1.1548  1.3457  2.6024
 2113SOL     OW17800   3.707   1.817   6.715  0.1409 -0.0495  0.3782
 2113SOL    HW117801   3.675   1.733   6.682  0.4557  0.3590 -0.9774
 2113SOL    HW217802   3.662   1.873   6.651  1.2223 -0.4860 -0.7515
 2114SOL     OW17803   2.488   3.686   7.171 -0.3080  0.3083  0.0725
 2114SOL    HW117804   2.572   3.641   7.162 -0.8635 -1.0407  1.7646
 2114SOL    HW217805   2.457   3.617   7.230 -0.0873 -0.6940 -0.9943
 2115SOL     OW17806   4.671   1.909  11.620  1.0576  0.3625 -0.1420
 2115SOL    HW117807   4.682   1.968  11.546 -0.0995  0.2353 -0.4021
 2115SOL    HW217808   0.042   1.904  11.653  0.6258 -1.5304  0.7461
 2116SOL     OW17809   3.821   4.502   7.484 -0.3780  0.1460  0.7480
 2116SOL    HW117810   3.755   4.559   7.522 -0.0447 -0.2819  1.9770
 2116SOL    HW217811   3.868   4.552   7.418  1.5973 -0.2858  1.8217
 2117SOL     OW17812   0.959   2.369   6.112 -0.2321 -0.0775 -0.4758
 2117SOL    HW117813   0.900   2.429   6.159  2.9097  1.8812  0.9332
 2117SOL    HW217814   0.913   2.337   6.034 -1.1618  0.9827 -0.3572
 2118SOL     OW17815   2.095   2.173   2.935 -0.5268  0.8330  0.1161
 2118SOL    HW117816   2.017   2.210   2.977 -2.4305 -2.5647 -0.3581
 2118SOL    HW217817   2.163   2.187   3.002 -0.4747 -0.8773  0.4284
 2119SOL     OW17818   2.208   3.582   3.716  0.5336 -0.3842  0.2484
 2119SOL    HW117819   2.249   3.652   3.665  0.9255 -0.3023  0.6735
 2119SOL    HW217820   2.277   3.556   3.777  0.6071  0.2594  0.4399
 2120SOL     OW17821   1.222   2.455  11.368 -0.2021 -0.2477  0.7266
 2120SOL    HW117822   1.314   2.439  11.352 -0.1373 -1.7685  2.6400
 2120SOL    HW217823   1.235   2.488  11.457  0.4432  0.1817  0.4678
 2121SOL     OW17824   2.511   4.336  15.692 -0.4117  0.0441 -0.5808
 2121SOL    HW117825   2.434   4.325  15.748 -0.1894  3.2402  0.3777
 2121SOL    HW217826   2.524   4.249  15.655  0.4746 -0.3160  0.5797
 2122SOL     OW17827   2.295   2.310   5.661 -0.3487 -0.0690 -1.3907
 2122SOL    HW117828   2.294   2.339   5.753  1.2267  0.5662 -1.5618
 2122SOL    HW217829   2.232   2.239   5.663 -0.3502 -0.0353 -0.2063
 2123SOL     OW17830   3.466   2.430   4.498  0.0511  0.2228  0.0204
 2123SOL    HW117831   3.552   2.448   4.537 -2.8316  4.0046  4.5340
 2123SOL    HW217832   3.487   2.343   4.464  0.7220  0.6968 -0.8047
 2124SOL     OW17833   1.142   2.816  11.242 -0.1698  0.8131  0.2372
 2124SOL    HW117834   1.091   2.737  11.225 -1.0322  1.1933  1.0755
 2124SOL    HW217835   1.229   2.776  11.235 -0.1341  1.0124 -0.4230
 2125SOL     OW17836   3.813   3.918   0.640 -0.4765 -0.3938  0.0301
 2125SOL    HW117837   3.794   3.987   0.704  0.6983 -2.6091  2.7465
 2125SOL    HW217838   3.729   3.872   0.643 -0.8232  0.2730  0.7191
 2126SOL     OW17839   1.137   3.839   7.970  0.6213  0.1426 -0.5482
 2126SOL    HW117840   1.120   3.919   8.019  0.3197 -0.3805  0.1972
 2126SOL    HW217841   1.106   3.864   7.883 -1.1638 -2.8928 -0.7728
 2127SOL     OW17842   4.667   0.709   6.074  0.1262 -0.5408 -0.1308
 2127SOL    HW117843   4.716   0.626   6.079  1.7771  0.4662  0.4768
 2127SOL    HW217844   4.681   0.740   5.985  0.4289  0.6938  0.3409
 2128SOL     OW17845   1.480   3.413   9.672 -0.2629 -0.4925 -0.1254
 2128SOL    HW117846   1.508   3.409   9.580 -0.5717 -0.9628 -0.2011
 2128SOL    HW217847   1.431   3.494   9.679  1.3326  0.7976 -3.6766
 2129SOL     OW17848   3.450   0.954   3.228  0.2290  0.5821 -0.0665
 2129SOL    HW117849   3.421   0.989   3.144 -0.4599  1.5144  0.5575
 2129SOL    HW217850   3.531   0.909   3.203  0.6557  0.1366  2.1180
 2130SOL     OW17851   2.851   0.329   2.043 -0.0060 -0.0580 -0.1688
 2130SOL    HW117852   2.871   0.347   2.135 -0.6297  2.3369 -0.4901
 2130SOL    HW217853   2.759   0.305   2.037  0.1441 -0.5909 -0.3250
 2131SOL     OW17854   4.707   3.713   6.942 -0.6000  0.5952  0.1407
 2131SOL    HW117855   0.040   3.792   6.962 -0.6909  0.6911  0.0001
 2131SOL    HW217856   0.013   3.695   6.852 -2.7324  2.8196 -0.9178
 2132SOL     OW17857   3.256   2.716  11.685 -0.1380 -0.4922 -0.1434
 2132SOL    HW117858   3.266   2.621  11.679  0.3991 -0.6144  2.6784
 2132SOL    HW217859   3.214   2.718  11.771  0.6975  0.0607  0.2589
 2133SOL     OW17860   1.433   4.674   2.935 -0.0376  0.2308  0.2466
 2133SOL    HW117861   1.494   4.656   2.864 -1.9427  3.1860 -2.1785
 2133SOL    HW217862   1.421   0.049   2.930  0.1686  0.2096 -0.7520
 2134SOL     OW17863   0.668   1.960   8.384  0.6830 -0.4693  0.2322
 2134SOL    HW117864   0.597   2.023   8.401  0.6300 -1.0985  2.2879
 2134SOL    HW217865   0.676   1.973   8.289 -1.7590 -1.3970 -0.1258
 2135SOL     OW17866   0.745   4.006  15.534 -0.0174  0.5279 -1.0906
 2135SOL    HW117867   0.782   4.046  15.455 -0.5710 -0.9333 -2.0963
 2135SOL    HW217868   0.660   3.969  15.509  0.8932 -0.7688 -2.2451
 2136SOL     OW17869   0.188   1.614  13.655  0.3281  0.6566  0.1019
 2136SOL    HW117870   0.195   1.578  13.743  1.4705 -0.7018 -0.5504
 2136SOL    HW217871   0.248   1.688  13.652  0.6198  0.4376  0.5658
 2137SOL     OW17872   4.662   1.172   6.808  0.0148 -0.2185  0.5649
 2137SOL    HW117873   4.657   1.267   6.797  0.9216 -0.0588  1.5033
 2137SOL    HW217874   0.032   1.151   6.782  0.2222 -0.5434  1.5465
 2138SOL     OW17875   4.430   4.621   6.214  0.6304 -0.4571 -0.3970
 2138SOL    HW117876   4.497   4.596   6.277  1.0485 -1.4916 -1.2483
 2138SOL    HW217877   4.483   4.656   6.142  1.1332  0.1075  0.2599
 2139SOL     OW17878   4.013   1.229  13.721 -0.1619 -0.8310  0.7035
 2139SOL    HW117879   3.925   1.243  13.757 -0.2534 -1.2118  0.6270
 2139SOL    HW217880   4.063   1.250  13.799  1.2502  0.6827 -0.6157
 2140SOL     OW17881   3.846   2.913   2.812  0.3829  0.0768 -0.1410
 2140SOL    HW117882   3.898   2.867   2.747  0.8765  0.1160  0.2194
 2140SOL    HW217883   3.768   2.861   2.830 -0.0009  0.3941 -0.8815
 2141SOL     OW17884   0.528   1.866   5.365 -0.1940 -0.3897 -0.2352
 2141SOL    HW117885   0.530   1.837   5.456 -3.0787  0.1897  0.0194
 2141SOL    HW217886   0.484   1.949   5.385  2.8518  1.1962 -0.0475
 2142SOL     OW17887   2.822   1.776   2.954  0.9655  0.6911  1.3282
 2142SOL    HW117888   2.745   1.794   3.008  0.4341  3.8070 -0.4388
 2142SOL    HW217889   2.793   1.694   2.915  0.0686  1.8985 -0.5560
 2143SOL     OW17890   2.308   2.666   8.393 -0.4811  0.0337 -0.4688
 2143SOL    HW117891   2.344   2.656   8.305 -0.2417  0.2379 -0.3934
 2143SOL    HW217892   2.265   2.583   8.414  1.7314 -1.1587 -0.6522
 2144SOL     OW17893   4.397   4.668  10.953 -0.3101 -0.0829  0.3423
 2144SOL    HW117894   4.492   4.673  10.957 -0.5557  3.7311  1.0233
 2144SOL    HW217895   4.393   4.623  11.038 -0.5217 -1.8868 -0.6122
 2145SOL     OW17896   2.736   2.431   9.705  0.4900  0.8204  0.3192
 2145SOL    HW117897   2.782   2.438   9.789  2.0711 -0.7156 -0.4043
 2145SOL    HW217898   2.695   2.345   9.715  2.7596 -0.2596  0.3743
 2146SOL     OW17899   2.925   2.937   1.122 -0.1452  0.1606 -0.1393
 2146SOL    HW117900   3.017   2.918   1.104 -0.1097 -1.6416  2.1182
 2146SOL    HW217901   2.916   2.921   1.215 -0.5919  0.0068 -0.2058
 2147SOL     OW17902   4.355   4.552   9.939 -0.2001 -0.0189 -0.2294
 2147SOL    HW117903   4.385   4.607  10.012 -1.0339 -0.3740  0.3732
 2147SOL    HW217904   4.260   4.559   9.943 -0.1748  0.4366 -0.3789
 2148SOL     OW17905   1.017   1.649   1.200  0.0203  0.0089  0.3320
 2148SOL    HW117906   0.994   1.557   1.211 -0.2418  0.0053 -0.2280
 2148SOL    HW217907   1.107   1.636   1.171 -0.1503  0.4876 -0.4455
 2149SOL     OW17908   0.970   1.282   3.466  0.1893 -0.2772 -0.2527
 2149SOL    HW117909   1.001   1.342   3.398 -0.8907  1.0756  0.4355
 2149SOL    HW217910   0.881   1.316   3.475 -0.9691 -3.1905 -0.9442
 2150SOL     OW17911   3.743   0.202   8.385 -0.5732 -0.0669  0.4070
 2150SOL    HW117912   3.816   0.229   8.330 -1.0362 -0.6864 -0.5151
 2150SOL    HW217913   3.713   0.125   8.337 -0.6748  1.1514 -1.4730
 2151SOL     OW17914   1.043   0.240   6.830 -0.5957 -0.1514 -0.2764
 2151SOL    HW117915   1.094   0.217   6.908  0.0238  1.3348 -0.2278
 2151SOL    HW217916   1.069   0.331   6.811 -1.3995  0.1906  0.2766
 2152SOL     OW17917   0.234   2.192   3.368  0.5291 -0.1891  0.4587
 2152SOL    HW117918   0.307   2.254   3.371 -0.3825  0.8380  1.5135
 2152SOL    HW217919   0.207   2.194   3.460 -1.1841 -0.9574 -0.0360
 2153SOL     OW17920   1.483   1.749   3.668 -0.0976 -0.7383  0.4733
 2153SOL    HW117921   1.561   1.756   3.724 -0.5000  0.4820  0.8890
 2153SOL    HW217922   1.440   1.834   3.677  1.8142  0.1485  1.2533
 2154SOL     OW17923   4.226   0.125   3.390 -1.1222  0.8354 -0.4403
 2154SOL    HW117924   4.274   0.117   3.473  1.0746  0.6358 -1.7394
 2154SOL    HW217925   4.177   0.043   3.387 -2.1807  1.4723 -0.4402
 2155SOL     OW17926   3.272   4.361  17.254  0.4966  0.3204 -0.5221
 2155SOL    HW117927   3.208   4.422  17.217 -1.0959 -1.7120 -1.1561
 2155SOL    HW217928   3.218   4.282  17.256  0.4097  0.3985  0.2665
 2156SOL     OW17929   2.803   2.299   4.027 -0.2354  0.1361 -0.5126
 2156SOL    HW117930   2.751   2.371   3.990  0.2471  1.8504  2.1952
 2156SOL    HW217931   2.873   2.345   4.073 -2.8041  0.9373  2.5528
 2157SOL     OW17932   0.894   1.904  12.142 -0.3829 -0.0826 -0.3528
 2157SOL    HW117933   0.979   1.891  12.099  0.2994  0.0495  0.9437
 2157SOL    HW217934   0.910   1.911  12.236  0.1995  1.2095 -0.5342
 2158SOL     OW17935   2.546   2.356   7.381 -0.0956 -0.6887 -0.1520
 2158SOL    HW117936   2.557   2.448   7.408  0.4488 -1.1745  1.2960
 2158SOL    HW217937   2.588   2.359   7.296 -0.9972 -2.5922 -0.6483
 2159SOL     OW17938   0.856   0.237   7.766  0.1912 -0.8681  0.3755
 2159SOL    HW117939   0.784   0.174   7.768 -2.3641  1.9684 -2.2605
 2159SOL    HW217940   0.806   0.307   7.724  1.9255 -0.0778 -0.3776
 2160SOL     OW17941   4.199   1.536   4.966  0.0576 -0.2001 -0.0041
 2160SOL    HW117942   4.120   1.482   4.965  0.2727 -0.5446  2.4270
 2160SOL    HW217943   4.268   1.481   4.928 -1.4059 -0.5963 -2.0680
 2161SOL     OW17944   0.864   0.621   7.068  0.3379 -0.0273 -0.2253
 2161SOL    HW117945   0.918   0.685   7.114 -0.2016 -0.4167  0.9460
 2161SOL    HW217946   0.892   0.532   7.088  0.0205 -0.2629 -0.8448
 2162SOL     OW17947   4.510   1.798  14.745  0.3326 -0.5304 -0.0494
 2162SOL    HW117948   4.567   1.725  14.722  2.1855  1.3225 -1.2812
 2162SOL    HW217949   4.527   1.855  14.670 -1.6763  0.3496  0.1567
 2163SOL     OW17950   0.746   1.578  12.611  0.3208  0.2211  0.2524
 2163SOL    HW117951   0.754   1.673  12.609  0.0177  0.2058 -1.6627
 2163SOL    HW217952   0.731   1.544  12.523  1.6674 -0.0365  0.1256
 2164SOL     OW17953   0.899   1.778   5.216 -0.1023 -0.6602 -0.8713
 2164SOL    HW117954   0.805   1.761   5.205 -0.7177  0.0140  3.2720
 2164SOL    HW217955   0.907   1.697   5.266 -2.0261  0.6514  1.5940
 2165SOL     OW17956   0.104   0.562   0.444 -0.0796 -0.5574 -0.2256
 2165SOL    HW117957   0.188   0.603   0.466 -0.9621 -0.5302  3.0741
 2165SOL    HW217958   0.076   0.515   0.522  0.1364  0.9640  0.7717
 2166SOL     OW17959   1.340   2.287  11.134 -0.2380  0.5551 -0.0472
 2166SOL    HW117960   1.268   2.239  11.175  1.0227 -0.9238  0.4446
 2166SOL    HW217961   1.401   2.219  11.106 -2.1993 -1.8146  1.4318
 2167SOL     OW17962   0.813   1.502   4.250 -0.2242  0.9961 -0.2440
 2167SOL    HW117963   0.884   1.494   4.186  0.1107 -1.1518  0.4087
 2167SOL    HW217964   0.854   1.476   4.332 -1.1420 -1.2347 -0.4966
 2168SOL     OW17965   0.750   2.412  11.332 -0.6359 -0.1633 -0.2155
 2168SOL    HW117966   0.716   2.370  11.411  3.0328 -0.3190  1.2944
 2168SOL    HW217967   0.665   2.429  11.290  0.5724  2.0789 -1.7775
 2169SOL     OW17968   3.458   4.117   5.556 -0.0931  0.1577 -0.2711
 2169SOL    HW117969   3.407   4.148   5.631  0.1676 -1.1322  0.4520
 2169SOL    HW217970   3.478   4.203   5.519 -0.3016  0.2971 -0.0597
 2170SOL     OW17971   2.727   2.697   0.759  0.4842 -0.0123  0.6612
 2170SOL    HW117972   2.780   2.643   0.700  0.1622  0.4722 -0.0559
 2170SOL    HW217973   2.643   2.700   0.714 -0.9169 -1.8289  3.1483
 2171SOL     OW17974   0.646   2.449   3.911  0.3244  0.3529 -0.1116
 2171SOL    HW117975   0.698   2.493   3.843  0.0862  0.3361 -0.3040
 2171SOL    HW217976   0.570   2.422   3.860 -0.5917 -0.7541  1.8451
 2172SOL     OW17977   3.826   2.629   1.896 -0.5403 -0.1532  0.1847
 2172SOL    HW117978   3.885   2.553   1.899 -0.3272  0.0569  1.5041
 2172SOL    HW217979   3.878   2.686   1.953 -1.0574 -0.9282  1.4441
 2173SOL     OW17980   3.544   2.285   3.345  0.8441  0.3835  0.3207
 2173SOL    HW117981   3.531   2.352   3.278  0.3872  0.0899  0.1106
 2173SOL    HW217982   3.469   2.296   3.403  2.9378  0.0314  3.1100
 2174SOL     OW17983   1.276   4.235   6.574  0.1630  0.5127 -0.2484
 2174SOL    HW117984   1.243   4.315   6.615 -2.0362 -0.4955 -0.0109
 2174SOL    HW217985   1.257   4.172   6.643  1.0380  1.6037  0.9909
 2175SOL     OW17986   2.401   3.526   5.543  0.1952  0.5475 -0.0429
 2175SOL    HW117987   2.348   3.447   5.530 -0.0834  0.5553  1.0233
 2175SOL    HW217988   2.475   3.499   5.488  0.1765  1.0277 -0.3066
 2176SOL     OW17989   3.062   4.195   8.108  0.1796 -0.4644  0.0730
 2176SOL    HW117990   2.994   4.257   8.133  0.5114  0.1095 -0.4540
 2176SOL    HW217991   3.117   4.177   8.184  1.7244 -0.2924 -1.0156
 2177SOL     OW17992   3.290   2.168   5.507  0.4555  0.6690 -0.4307
 2177SOL    HW117993   3.230   2.172   5.433  1.2270 -0.3513 -1.1150
 2177SOL    HW217994   3.226   2.144   5.574 -0.3586 -0.8488 -1.7538
 2178SOL     OW17995   0.122   2.958  16.339  0.1986 -0.1259 -0.1545
 2178SOL    HW117996   0.176   2.943  16.261 -0.0080  0.8437 -0.4858
 2178SOL    HW217997   0.059   3.027  16.319 -1.4202 -1.2667  1.0846
 2179SOL     OW17998   0.920   2.851   3.844 -1.2818  0.5417 -0.4803
 2179SOL    HW117999   0.941   2.858   3.937 -0.8752 -2.4992 -0.3341
 2179SOL    HW218000   0.905   2.944   3.828 -1.9199  0.5632  0.2301
 2180SOL     OW18001   1.250   3.215  13.958 -0.4590 -0.4869 -0.2365
 2180SOL    HW118002   1.207   3.298  13.940  1.0225  0.5231  0.8594
 2180SOL    HW218003   1.195   3.156  13.907 -0.1908 -0.1800 -0.8772
 2181SOL     OW18004   2.947   0.492   2.661  0.5509 -0.5115  0.2993
 2181SOL    HW118005   2.990   0.510   2.577  1.5477 -1.1372  0.6825
 2181SOL    HW218006   2.857   0.520   2.646  0.5660 -0.6696 -0.0839
 2182SOL     OW18007   0.148   3.438   9.770  0.0685 -0.3957 -0.1727
 2182SOL    HW118008   0.190   3.404   9.850  0.0604  0.5733  0.2449
 2182SOL    HW218009   0.226   3.426   9.716 -0.3486  0.6033 -0.9793
 2183SOL     OW18010   3.965   3.243   2.183  0.0959 -0.4182  0.1596
 2183SOL    HW118011   4.037   3.246   2.246 -1.2030  0.6017  1.5996
 2183SOL    HW218012   3.917   3.326   2.187  2.3845  0.9069  0.1889
 2184SOL     OW18013   0.854   2.941   5.540  0.3091  0.0745  0.5234
 2184SOL    HW118014   0.947   2.947   5.560  0.3425  0.6835  0.2085
 2184SOL    HW218015   0.833   3.016   5.483  1.3686  1.0140  1.3606
 2185SOL     OW18016   4.173   0.385   8.293 -0.4413 -0.1156 -0.1649
 2185SOL    HW118017   4.209   0.297   8.283 -0.5607 -0.1350 -0.4176
 2185SOL    HW218018   4.180   0.414   8.202  0.9004 -1.9247 -0.6446
 2186SOL     OW18019   0.421   3.869   0.761 -0.4131  0.5787 -0.2599
 2186SOL    HW118020   0.352   3.845   0.822  0.5231 -1.6244 -0.0508
 2186SOL    HW218021   0.367   3.869   0.682  2.0814  0.4623 -1.9775
 2187SOL     OW18022   3.559   3.810   7.109  0.7045 -0.0917 -0.2559
 2187SOL    HW118023   3.599   3.728   7.137  0.4624 -0.5185 -1.1610
 2187SOL    HW218024   3.566   3.864   7.188  1.0699 -0.6466  0.0913
 2188SOL     OW18025   4.491   0.581  13.964  0.3407  0.2371 -0.2518
 2188SOL    HW118026   4.586   0.573  13.976  0.1931 -0.4701  0.4441
 2188SOL    HW218027   4.480   0.595  13.870 -1.6266 -1.3699 -0.2720
 2189SOL     OW18028   0.862   1.254   5.030 -0.0576 -0.6506  0.0241
 2189SOL    HW118029   0.886   1.322   4.968  0.1715 -0.1246  0.6937
 2189SOL    HW218030   0.785   1.213   4.991  0.6109 -1.6581 -0.2578
 2190SOL     OW18031   2.084   0.365   3.174 -0.2080  0.0292  0.1400
 2190SOL    HW118032   2.169   0.401   3.151 -0.5456  0.8463  0.1691
 2190SOL    HW218033   2.111   0.308   3.246 -0.9158  0.1908  0.5317
 2191SOL     OW18034   2.513   3.471  12.238  0.2985 -0.0388 -0.5288
 2191SOL    HW118035   2.425   3.444  12.265  0.6462  1.3208  1.9891
 2191SOL    HW218036   2.564   3.442  12.314 -1.0847 -0.6311  0.1629
 2192SOL     OW18037   0.675   3.187  10.489 -0.5028  0.3334  0.6704
 2192SOL    HW118038   0.642   3.107  10.449  0.0844  0.2566  0.3489
 2192SOL    HW218039   0.735   3.155  10.556 -1.2989  2.2746  2.3099
 2193SOL     OW18040   0.238   3.586  11.776 -0.7660 -0.4892  0.4370
 2193SOL    HW118041   0.244   3.610  11.868 -0.6752  0.9074  0.0653
 2193SOL    HW218042   0.326   3.552  11.760 -0.9404 -0.4283 -0.6563
 2194SOL     OW18043   1.202   3.281   0.823  0.5997  0.0327  0.2577
 2194SOL    HW118044   1.183   3.374   0.810 -0.6325 -0.2577  0.0239
 2194SOL    HW218045   1.119   3.259   0.865  0.2667 -0.5971 -0.7102
 2195SOL     OW18046   3.434   2.452   6.743  0.5510 -0.6290 -0.0163
 2195SOL    HW118047   3.386   2.504   6.678 -0.8576 -1.2897  0.5131
 2195SOL    HW218048   3.428   2.360   6.719  0.5779 -0.7508  0.4489
 2196SOL     OW18049   2.084   4.581  10.044  0.0717  0.2082 -0.1705
 2196SOL    HW118050   2.152   4.629  10.092  0.8558 -0.5452 -0.5310
 2196SOL    HW218051   2.038   4.533  10.114  0.1959 -1.7681 -1.4563
 2197SOL     OW18052   1.747   0.388   6.552  0.6730 -0.0036 -0.2196
 2197SOL    HW118053   1.686   0.437   6.498 -0.1393  0.6860  1.3212
 2197SOL    HW218054   1.804   0.459   6.582  1.3313 -0.3104 -0.7262
 2198SOL     OW18055   2.996   1.438   5.158  0.1692 -0.3140  0.5401
 2198SOL    HW118056   2.972   1.421   5.067 -0.1877  0.8149  0.4261
 2198SOL    HW218057   2.945   1.374   5.207 -0.9620 -0.5579 -0.9710
 2199SOL     OW18058   2.966   2.070   3.373 -0.1171 -0.3858  0.1220
 2199SOL    HW118059   2.965   2.013   3.295 -0.2293 -0.7115  0.3612
 2199SOL    HW218060   3.023   2.017   3.429  1.7011  1.5885  0.1496
 2200SOL     OW18061   2.803   3.153  14.778  0.2749 -0.0140  0.2225
 2200SOL    HW118062   2.833   3.244  14.782  1.3037 -0.2561 -1.9644
 2200SOL    HW218063   2.711   3.165  14.754  0.5728  2.7532  0.4465
 2201SOL     OW18064   0.019   1.536   4.344 -0.7330 -0.1330 -0.3703
 2201SOL    HW118065   0.044   1.592   4.418 -3.7731  0.7389 -0.0012
 2201SOL    HW218066   0.101   1.492   4.324  0.1182  2.1145 -1.7262
 2202SOL     OW18067   2.091   1.782   5.102 -0.2945 -0.2864 -0.2886
 2202SOL    HW118068   2.131   1.793   5.016  4.0228 -0.6020  1.6753
 2202SOL    HW218069   2.152   1.711   5.123  1.6858  1.5448  0.1877
 2203SOL     OW18070   2.459   2.363   0.305  0.1091  0.1234  0.3761
 2203SOL    HW118071   2.368   2.367   0.334  0.1408 -1.9448  0.7428
 2203SOL    HW218072   2.467   2.449   0.262  0.1437  0.7167  1.5681
 2204SOL     OW18073   1.677   1.909   9.338  0.7428  0.1965  0.0390
 2204SOL    HW118074   1.698   1.845   9.405  1.2691  2.4142  2.0037
 2204SOL    HW218075   1.707   1.985   9.388  0.6923 -0.1944  0.6537
 2205SOL     OW18076   0.049   3.572   7.795 -0.3361 -0.5588  0.5482
 2205SOL    HW118077   0.139   3.593   7.817 -0.5379  0.0954  0.7566
 2205SOL    HW218078   0.013   3.654   7.762 -1.1606 -1.6917 -1.3612
 2206SOL     OW18079   0.060   0.435   0.208  0.9329  0.1477 -0.0994
 2206SOL    HW118080   0.061   0.495   0.282  0.1605  2.9564 -2.3415
 2206SOL    HW218081   0.023   0.358   0.250 -0.9844  0.2676 -1.5279
 2207SOL     OW18082   0.717   2.236   5.490  0.0931 -0.1843 -0.4649
 2207SOL    HW118083   0.666   2.192   5.557 -0.0701 -0.2149 -0.6086
 2207SOL    HW218084   0.803   2.230   5.530 -0.2143  2.6893  0.6676
 2208SOL     OW18085   0.203   0.638  16.934 -0.5525 -0.8210 -0.2229
 2208SOL    HW118086   0.269   0.646  17.003  1.2035 -1.4913 -1.7948
 2208SOL    HW218087   0.153   0.718  16.947 -0.6981 -0.5318 -2.6229
 2209SOL     OW18088   3.620   3.702  12.293 -0.4181 -0.6653 -0.0653
 2209SOL    HW118089   3.524   3.709  12.287 -0.4328  1.7033  2.5043
 2209SOL    HW218090   3.617   3.610  12.317 -1.8153 -0.7635 -0.6093
 2210SOL     OW18091   4.416   2.913   5.163  0.3589 -0.3992 -0.0029
 2210SOL    HW118092   4.459   2.957   5.236 -1.1279  1.7182 -0.4191
 2210SOL    HW218093   4.360   2.982   5.128  0.2580 -1.3040 -1.6323
 2211SOL     OW18094   3.376   1.085  14.842 -0.3172 -0.6804 -0.4389
 2211SOL    HW118095   3.285   1.087  14.813 -0.3372  1.2649 -0.2646
 2211SOL    HW218096   3.393   1.176  14.819 -0.2306 -0.2830  1.1998
 2212SOL     OW18097   1.173   4.416  12.254  0.0860  0.2606  0.5101
 2212SOL    HW118098   1.135   4.438  12.339  0.9858  0.2577  0.9126
 2212SOL    HW218099   1.147   4.325  12.240 -1.0421  0.7326 -0.5220
 2213SOL     OW18100   2.028   3.822   7.467  0.4116  0.1772  0.1551
 2213SOL    HW118101   1.994   3.895   7.416  1.2284 -0.1383 -0.8495
 2213SOL    HW218102   1.970   3.827   7.543 -0.1451 -1.0350 -0.1871
 2214SOL     OW18103   2.034   1.090   5.315 -0.2744  0.3187  0.3503
 2214SOL    HW118104   1.948   1.113   5.278 -0.5780  0.6053  1.2346
 2214SOL    HW218105   2.020   0.995   5.315 -1.0241  0.4299  0.1117
 2215SOL     OW18106   2.882   3.667   8.287  0.2881  0.1591  0.8197
 2215SOL    HW118107   2.972   3.701   8.294 -0.1227  1.6370 -1.0647
 2215SOL    HW218108   2.902   3.580   8.323 -1.8733 -0.3982  0.6720
 2216SOL     OW18109   1.802   0.191  10.423 -0.0587  0.1927  0.5309
 2216SOL    HW118110   1.792   0.100  10.450 -0.4345  0.0142 -0.2204
 2216SOL    HW218111   1.826   0.229  10.507  2.6266 -1.7743  0.6326
 2217SOL     OW18112   2.169   3.775   5.998  0.8513  0.3204 -0.1247
 2217SOL    HW118113   2.210   3.823   5.926  0.6424  0.0709 -0.4094
 2217SOL    HW218114   2.107   3.840   6.031 -1.0976 -1.7613  0.2345
 2218SOL     OW18115   0.836   0.321   4.530  0.1900 -0.3732  0.7496
 2218SOL    HW118116   0.848   0.337   4.436  1.9599 -2.5206  0.6184
 2218SOL    HW218117   0.925   0.291   4.547  0.0205 -0.1569  1.9928
 2219SOL     OW18118   0.529   0.223   5.517 -0.0825 -0.2018 -0.1857
 2219SOL    HW118119   0.555   0.236   5.608 -1.5102 -0.6622  0.2898
 2219SOL    HW218120   0.496   0.310   5.493  0.5015 -0.8002 -3.2007
 2220SOL     OW18121   3.801   3.871  11.794 -0.2236 -0.4343 -0.0902
 2220SOL    HW118122   3.837   3.816  11.864 -0.6770  0.9174  1.2121
 2220SOL    HW218123   3.734   3.814  11.755 -0.0231 -1.1774  0.6587
 2221SOL     OW18124   2.138   0.341   8.215  0.6055 -0.5731  0.0968
 2221SOL    HW118125   2.213   0.355   8.157 -0.0075 -2.3157 -1.0984
 2221SOL    HW218126   2.124   0.434   8.232 -0.2585 -0.6700 -0.1178
 2222SOL     OW18127   0.081   3.929   2.450  0.2326 -0.1255  0.5102
 2222SOL    HW118128   0.131   3.996   2.404 -1.2199  0.4510 -0.2230
 2222SOL    HW218129   0.129   3.852   2.421 -2.4796 -1.6300  0.0206
 2223SOL     OW18130   2.500   2.802   6.555 -0.1054  0.7394  0.2983
 2223SOL    HW118131   2.447   2.754   6.618  1.0915 -0.6644  0.2554
 2223SOL    HW218132   2.503   2.730   6.492  0.3408 -0.8567  2.1151
 2224SOL     OW18133   4.182   1.045   8.829  0.1977  0.1853 -0.5240
 2224SOL    HW118134   4.271   1.046   8.795  0.4481  2.3274  0.2124
 2224SOL    HW218135   4.156   0.960   8.793 -0.4401  1.3624 -2.8484
 2225SOL     OW18136   1.917   4.016  15.717  0.3838  0.3215  0.1669
 2225SOL    HW118137   1.833   4.041  15.678  0.4897  2.5290  1.3159
 2225SOL    HW218138   1.963   3.974  15.646 -2.0935 -1.0762 -0.6069
 2226SOL     OW18139   2.441   1.368   5.513  0.1315  0.4837 -0.0394
 2226SOL    HW118140   2.486   1.328   5.587 -0.0453  0.1972 -0.0882
 2226SOL    HW218141   2.357   1.390   5.554 -0.3360 -1.3439 -0.0003
 2227SOL     OW18142   0.092   3.978   2.117 -0.2734 -0.4777 -0.2719
 2227SOL    HW118143   0.109   3.952   2.026 -1.3132 -1.7780 -0.0983
 2227SOL    HW218144   0.022   3.916   2.137 -0.3460 -0.4359 -0.4009
 2228SOL     OW18145   0.881   2.599  13.670 -0.7720  0.6577  0.2675
 2228SOL    HW118146   0.874   2.565  13.581  1.6721  1.2094 -0.1392
 2228SOL    HW218147   0.868   2.693  13.664 -0.9641  0.5595 -0.9024
 2229SOL     OW18148   3.661   1.756  17.515 -0.6252 -0.2525  0.2631
 2229SOL    HW118149   3.683   1.833  17.463 -0.1744  0.6550  1.8054
 2229SOL    HW218150   3.610   1.706  17.450 -0.6146  1.2440 -0.9057
 2230SOL     OW18151   1.211   2.599  10.671  0.6030  0.0957 -0.1298
 2230SOL    HW118152   1.208   2.507  10.646  1.2125 -0.0263  0.2531
 2230SOL    HW218153   1.248   2.589  10.759 -2.8042  0.2749  1.3149
 2231SOL     OW18154   0.543   0.878   6.467  0.4131 -0.2645 -0.1140
 2231SOL    HW118155   0.623   0.907   6.424  1.0424 -0.8422  0.6792
 2231SOL    HW218156   0.583   0.828   6.538 -0.2014  1.1675  1.2367
 2232SOL     OW18157   3.233   0.811   6.452 -0.3159 -0.0408  0.3698
 2232SOL    HW118158   3.285   0.845   6.379 -0.6055 -1.1766 -0.3647
 2232SOL    HW218159   3.278   0.726   6.462 -0.6978 -0.2832  0.0397
 2233SOL     OW18160   1.408   1.992  11.125  0.4579 -0.8284  0.8282
 2233SOL    HW118161   1.361   1.912  11.150 -0.5789 -0.1805  0.9432
 2233SOL    HW218162   1.480   2.009  11.185 -0.1635  2.0273  0.7828
 2234SOL     OW18163   3.215   2.247  15.982  0.1737  0.3296  0.1824
 2234SOL    HW118164   3.180   2.312  15.922 -0.0075 -1.8206 -2.0667
 2234SOL    HW218165   3.295   2.221  15.935 -0.2628  1.0394 -0.9362
 2235SOL     OW18166   3.790   1.333  11.963  0.3362  0.5472  0.2781
 2235SOL    HW118167   3.736   1.385  12.022  0.8338  0.2675  0.9864
 2235SOL    HW218168   3.869   1.386  11.971  0.5835  0.0807  0.9750
 2236SOL     OW18169   2.289   4.157   0.864  0.2190 -0.4388 -0.1327
 2236SOL    HW118170   2.248   4.232   0.906 -0.1640 -0.3176 -0.7209
 2236SOL    HW218171   2.280   4.180   0.771 -3.6856  0.1029  0.4004
 2237SOL     OW18172   3.812   2.815  17.310 -0.1310 -0.7882 -0.2611
 2237SOL    HW118173   3.719   2.831  17.321 -0.1613 -1.4995  0.4708
 2237SOL    HW218174   3.802   2.722  17.292 -1.2162 -1.1280  2.2080
 2238SOL     OW18175   1.006   0.223  14.693 -0.2035  0.6876  0.2196
 2238SOL    HW118176   1.023   0.317  14.687 -0.4291  0.8188  1.7085
 2238SOL    HW218177   1.077   0.193  14.749  0.8598  1.4391 -0.7252
 2239SOL     OW18178   2.583   2.459  10.506 -0.2195 -0.0505 -0.3134
 2239SOL    HW118179   2.632   2.409  10.441 -3.2206 -2.4299 -0.7777
 2239SOL    HW218180   2.617   2.547  10.493 -0.0233  0.0528  0.9547
 2240SOL     OW18181   1.231   4.636  17.192  0.2623  0.1926  0.0990
 2240SOL    HW118182   1.306   4.691  17.213  1.3348 -1.2416 -0.0143
 2240SOL    HW218183   1.227   4.646  17.097 -0.7767 -1.2322 -0.0020
 2241SOL     OW18184   1.899   2.181   4.495  0.0107 -0.2847 -0.0952
 2241SOL    HW118185   1.991   2.155   4.488  0.0273 -0.2920  0.1470
 2241SOL    HW218186   1.896   2.276   4.480 -1.9876 -0.6053 -1.7400
 2242SOL     OW18187   3.267   2.670   8.074  0.1489 -0.2513 -0.1812
 2242SOL    HW118188   3.306   2.734   8.014 -1.8537 -1.0987 -2.3748
 2242SOL    HW218189   3.312   2.690   8.156  0.9038 -0.6819 -0.4941
 2243SOL     OW18190   0.227   3.759   0.571 -0.2824 -0.1676 -0.0952
 2243SOL    HW118191   0.259   3.670   0.551  0.5738  0.4533 -1.5062
 2243SOL    HW218192   0.144   3.739   0.614 -0.1392 -0.3854  0.0821
 2244SOL     OW18193   2.772   2.091   8.786 -0.2793 -0.2918 -0.1718
 2244SOL    HW118194   2.759   2.048   8.870  0.0717 -0.4582 -0.2008
 2244SOL    HW218195   2.862   2.125   8.794  0.5362 -2.2702 -0.9838
 2245SOL     OW18196   4.464   2.312   1.067  0.2226 -0.1170  0.3262
 2245SOL    HW118197   4.479   2.277   1.155  0.1852  0.7795  0.6888
 2245SOL    HW218198   4.398   2.375   1.094  0.6951  1.0643 -1.2971
 2246SOL     OW18199   0.416   0.899   9.753 -0.2110  0.0388  0.3738
 2246SOL    HW118200   0.326   0.932   9.752  0.0840  0.7878 -1.8094
 2246SOL    HW218201   0.399   0.819   9.704  0.7559 -0.9682  1.6994
 2247SOL     OW18202   3.273   2.451   6.993  0.5288 -0.2523 -0.5560
 2247SOL    HW118203   3.312   2.466   6.907  0.4914  1.8982 -0.2058
 2247SOL    HW218204   3.182   2.428   6.970 -0.2781  2.6106 -0.2153
 2248SOL     OW18205   0.443   4.514  12.070  0.5941  0.0271  0.4029
 2248SOL    HW118206   0.538   4.509  12.059  0.5771 -1.5675  1.0021
 2248SOL    HW218207   0.423   4.429  12.108  1.5197 -0.1262  0.5585
 2249SOL     OW18208   2.316   3.987   5.223 -0.5018 -0.4902 -0.3833
 2249SOL    HW118209   2.245   4.048   5.202 -1.6442 -1.5347  0.4702
 2249SOL    HW218210   2.389   4.027   5.177 -0.0696 -0.1109  0.6298
 2250SOL     OW18211   0.004   2.469  16.913  0.3640 -0.0899  0.0371
 2250SOL    HW118212   0.007   2.502  16.823  0.9511 -2.6002 -0.8673
 2250SOL    HW218213   0.099   2.459  16.924  0.6724  1.2972 -1.2635
 2251SOL     OW18214   3.018   3.349   6.489 -0.2114  0.2572  0.0854
 2251SOL    HW118215   3.032   3.418   6.554 -0.2837 -0.1087  0.4878
 2251SOL    HW218216   3.021   3.401   6.408 -2.1338 -0.3345 -0.3678
 2252SOL     OW18217   1.472   1.979   9.938  0.2402 -0.0344 -0.2645
 2252SOL    HW118218   1.402   1.916   9.923  0.9311 -0.9007  0.1861
 2252SOL    HW218219   1.502   1.996   9.849  0.8208  0.4933  0.0343
 2253SOL     OW18220   1.517   1.784   4.424 -0.5337 -0.4668 -0.2490
 2253SOL    HW118221   1.592   1.844   4.420 -0.2554 -0.8596 -0.9024
 2253SOL    HW218222   1.439   1.839   4.433  0.2677  0.7365 -0.5311
 2254SOL     OW18223   4.611   2.911   3.352  0.2872 -0.0699 -0.0873
 2254SOL    HW118224   4.533   2.966   3.358  1.2719  1.2910  0.0311
 2254SOL    HW218225   4.676   2.977   3.373 -1.6970  1.8226  0.1059
 2255SOL     OW18226   3.512   3.589   6.088 -0.5683 -0.2971  0.2085
 2255SOL    HW118227   3.523   3.683   6.074  1.8423 -0.7179 -0.8018
 2255SOL    HW218228   3.435   3.573   6.034 -1.9497  4.4036  0.7181
 2256SOL     OW18229   4.235   3.020  13.750  0.2992  0.2446  0.0952
 2256SOL    HW118230   4.166   2.956  13.771  1.8119 -0.8661  1.6489
 2256SOL    HW218231   4.261   3.048  13.838  0.4740 -1.7875  0.7015
 2257SOL     OW18232   0.238   2.222  17.370 -0.5925 -1.0956 -0.0519
 2257SOL    HW118233   0.217   2.309  17.403  2.8841  0.3391 -1.5816
 2257SOL    HW218234   0.181   2.167  17.423 -1.0979 -1.7061 -1.2249
 2258SOL     OW18235   0.155   4.646   7.636 -0.5862 -0.0571 -0.2617
 2258SOL    HW118236   0.130   4.664   7.545  4.0820  1.8058 -1.1903
 2258SOL    HW218237   0.231   4.588   7.626 -1.7437 -1.6748  0.4245
 2259SOL     OW18238   4.396   0.726  17.160 -0.1707 -0.4230  0.1700
 2259SOL    HW118239   4.362   0.689  17.242 -0.3963 -1.3277 -0.3368
 2259SOL    HW218240   4.475   0.673  17.152 -0.7246 -1.2632  0.3362
 2260SOL     OW18241   3.064   3.044  10.121 -0.5729  0.1196 -0.1348
 2260SOL    HW118242   3.008   3.094  10.062  0.6252 -0.7173 -2.0015
 2260SOL    HW218243   3.153   3.058  10.088 -0.6675  1.3412  0.1184
 2261SOL     OW18244   1.201   1.643   6.675  0.2514 -0.8259  0.7720
 2261SOL    HW118245   1.255   1.667   6.750 -0.7578  2.7571  0.3239
 2261SOL    HW218246   1.122   1.696   6.686  1.4813  1.3702 -0.9520
 2262SOL     OW18247   2.509   2.749   5.336  0.3164  0.2686  0.3816
 2262SOL    HW118248   2.427   2.735   5.383 -0.5740  1.9439 -0.6952
 2262SOL    HW218249   2.504   2.842   5.316 -0.2011  0.1732  0.0980
 2263SOL     OW18250   0.111   4.103   6.453 -0.0165  0.1359  0.2682
 2263SOL    HW118251   0.199   4.074   6.479  0.0128  0.1255  0.1559
 2263SOL    HW218252   0.061   4.031   6.493 -0.5641  0.1445 -0.4078
 2264SOL     OW18253   4.618   0.779   7.735  0.1998 -0.0749 -0.1548
 2264SOL    HW118254   4.692   0.797   7.793 -0.5583  0.7847  0.5578
 2264SOL    HW218255   4.580   0.700   7.774  0.7786  0.3008  1.1451
 2265SOL     OW18256   1.802   3.906   8.204  0.6089 -0.0421  0.3698
 2265SOL    HW118257   1.897   3.919   8.197  0.6220 -1.9067 -2.8378
 2265SOL    HW218258   1.782   3.912   8.111  0.6069  1.8969  0.5116
 2266SOL     OW18259   0.002   1.122   9.180 -0.0823  0.0024  0.4498
 2266SOL    HW118260   0.014   1.114   9.085 -0.0583  1.3445  0.3357
 2266SOL    HW218261   4.627   1.116   9.198 -0.7552  1.0257 -2.6780
 2267SOL     OW18262   2.406   3.000   1.934 -0.5412  0.2721 -0.2074
 2267SOL    HW118263   2.389   2.929   1.872  1.8560 -1.0870  0.6885
 2267SOL    HW218264   2.382   2.951   2.012  1.1773  0.1483  0.2219
 2268SOL     OW18265   2.773   3.906   2.770 -0.0595  0.4641  0.7079
 2268SOL    HW118266   2.804   3.979   2.823  5.3276 -2.1318  1.0945
 2268SOL    HW218267   2.823   3.899   2.689  0.7689 -0.5129  1.3000
 2269SOL     OW18268   4.294   2.791  17.165 -0.0749  0.1751 -0.4232
 2269SOL    HW118269   4.269   2.809  17.075  0.6321  0.3239 -0.5864
 2269SOL    HW218270   4.214   2.796  17.218 -2.1669  0.4091 -3.6570
 2270SOL     OW18271   4.453   4.621   8.746  0.1355  0.3001 -0.3854
 2270SOL    HW118272   4.520   4.558   8.774 -3.7016 -3.5682  0.1987
 2270SOL    HW218273   4.376   4.572   8.775  0.4862  0.6271  1.0694
 2271SOL     OW18274   0.059   1.844   6.657 -0.3342  0.1073 -0.1243
 2271SOL    HW118275   0.144   1.885   6.675  0.4898 -1.9491  0.7093
 2271SOL    HW218276   0.035   1.811   6.744  2.3817 -1.0808  0.1788
 2272SOL     OW18277   4.228   2.782   0.798  0.7889 -0.2101  0.4028
 2272SOL    HW118278   4.304   2.813   0.847  0.8753 -2.1428  1.4561
 2272SOL    HW218279   4.157   2.823   0.848  1.4041  0.7385  0.4966
 2273SOL     OW18280   1.393   4.270   1.542  0.4551  0.0467 -0.3294
 2273SOL    HW118281   1.354   4.235   1.462 -0.2073  1.9150 -0.8193
 2273SOL    HW218282   1.317   4.316   1.579 -0.0926 -0.9223 -0.2419
 2274SOL     OW18283   4.487   2.254   7.336 -0.0725  0.1258 -0.2249
 2274SOL    HW118284   4.508   2.290   7.250  1.9612 -0.2082  0.1300
 2274SOL    HW218285   4.425   2.184   7.319 -0.6018  1.0785 -2.1408
 2275SOL     OW18286   3.802   0.276  15.168  0.6115  0.8324  0.8938
 2275SOL    HW118287   3.868   0.265  15.100  0.7713 -1.1822  1.3723
 2275SOL    HW218288   3.786   0.369  15.158  0.2805  0.9036  2.0755
 2276SOL     OW18289   2.539   2.190   2.586 -0.1439 -0.0386 -0.5341
 2276SOL    HW118290   2.521   2.098   2.603  0.8721 -0.5637 -2.2385
 2276SOL    HW218291   2.509   2.197   2.495  1.0003  2.4341 -0.7309
 2277SOL     OW18292   2.844   0.162   5.477 -0.5984 -0.3251 -0.4534
 2277SOL    HW118293   2.847   0.206   5.392 -1.0697  0.7741  0.1069
 2277SOL    HW218294   2.878   0.227   5.539 -1.7805 -0.0205 -0.1296
 2278SOL     OW18295   0.911   2.282  13.202  0.3235  0.0960  0.3976
 2278SOL    HW118296   0.913   2.195  13.242  0.8891  0.4675  1.1820
 2278SOL    HW218297   0.816   2.290  13.204  0.2059 -1.6026  1.6517
 2279SOL     OW18298   0.674   1.662   4.925 -0.4618  0.0575  0.6901
 2279SOL    HW118299   0.675   1.628   5.014 -1.6166 -0.6266  0.4353
 2279SOL    HW218300   0.644   1.750   4.947  1.3970  1.6032 -2.9600
 2280SOL     OW18301   2.726   3.681   9.997  0.1236  0.5007  0.2962
 2280SOL    HW118302   2.759   3.738  10.066  0.1663  1.0120 -0.1460
 2280SOL    HW218303   2.737   3.733   9.918 -2.1642  1.5656  0.6804
 2281SOL     OW18304   2.194   2.480  11.512  0.1799  0.2081  0.4399
 2281SOL    HW118305   2.251   2.517  11.580 -0.6103  2.4595 -0.1283
 2281SOL    HW218306   2.184   2.564  11.467  0.3531 -1.3904 -2.5792
 2282SOL     OW18307   0.493   0.189  16.393  0.2907 -0.1251 -0.0111
 2282SOL    HW118308   0.454   0.276  16.396 -0.4788 -0.4638 -0.3576
 2282SOL    HW218309   0.483   0.170  16.487 -1.6235  0.8500 -0.0151
 2283SOL     OW18310   2.216   3.223   3.138 -0.0753 -0.4062 -0.1422
 2283SOL    HW118311   2.191   3.200   3.048 -2.0654  2.0895 -0.2284
 2283SOL    HW218312   2.308   3.243   3.124  0.7402 -2.9441  1.5434
 2284SOL     OW18313   3.101   1.034   8.816  0.0866  0.2720 -0.3837
 2284SOL    HW118314   3.088   1.047   8.722  0.1665  0.1629 -0.4106
 2284SOL    HW218315   3.195   1.049   8.825  0.0947  0.3376 -0.5826
 2285SOL     OW18316   4.095   1.021   6.254  0.5776 -0.1015  0.2361
 2285SOL    HW118317   4.156   1.008   6.181  0.8928  0.6830  0.3496
 2285SOL    HW218318   4.148   0.988   6.327  2.1276  1.2634 -0.2685
 2286SOL     OW18319   2.405   3.655   4.780 -0.4037 -0.0040 -0.4214
 2286SOL    HW118320   2.464   3.692   4.846  0.2988  0.8251 -1.5240
 2286SOL    HW218321   2.355   3.586   4.824  2.5785 -2.0082 -0.2029
 2287SOL     OW18322   0.293   1.496  10.715  0.0179  0.1373 -0.4118
 2287SOL    HW118323   0.353   1.489  10.641  0.7533  2.7425 -0.0503
 2287SOL    HW218324   0.361   1.496  10.782  0.7916  0.0571 -1.2040
 2288SOL     OW18325   2.734   0.355  15.845 -0.2634 -0.1540  0.8209
 2288SOL    HW118326   2.737   0.274  15.897 -0.4117  1.1248  2.8021
 2288SOL    HW218327   2.791   0.322  15.776 -1.3879  1.4472 -0.9010
 2289SOL     OW18328   0.201   1.123   4.182 -0.1868 -0.0777 -0.0160
 2289SOL    HW118329   0.206   1.096   4.090 -3.7321  3.0441 -1.1226
 2289SOL    HW218330   0.117   1.169   4.179  0.3545  0.8972 -0.0426
 2290SOL     OW18331   3.581   2.130  13.321  0.0602  0.5091  0.1066
 2290SOL    HW118332   3.641   2.138  13.396 -0.0725 -1.0384  0.3630
 2290SOL    HW218333   3.640   2.156  13.251  0.5430  1.2607  0.7961
 2291SOL     OW18334   1.740   1.679  16.939  0.6676 -0.1265  0.0952
 2291SOL    HW118335   1.736   1.614  16.869 -0.4615 -2.0253  1.9167
 2291SOL    HW218336   1.678   1.626  16.988  0.8445 -0.0152  0.4451
 2292SOL     OW18337   3.246   4.146   3.764 -0.8439 -0.7891 -0.4072
 2292SOL    HW118338   3.307   4.209   3.802 -1.3058  0.1495 -1.2164
 2292SOL    HW218339   3.204   4.118   3.845  1.3856  1.4546  1.4876
 2293SOL     OW18340   0.131   0.150   6.104 -0.2516 -0.2540 -0.2310
 2293SOL    HW118341   0.173   0.153   6.018 -1.4548  0.6749 -0.7968
 2293SOL    HW218342   0.045   0.131   6.068 -1.4481  1.7673  1.5618
 2294SOL     OW18343   2.920   1.383  11.981 -0.2624 -0.0804  0.0308
 2294SOL    HW118344   2.934   1.306  11.925 -1.8272  0.0978 -0.5970
 2294SOL    HW218345   2.836   1.413  11.949 -1.4280 -1.3372  1.8992
 2295SOL     OW18346   3.137   2.930   7.122 -0.4162  0.5532 -0.1737
 2295SOL    HW118347   3.163   2.932   7.030  1.8794  0.4959  0.4760
 2295SOL    HW218348   3.223   2.913   7.159 -0.0137 -2.9433 -2.7056
 2296SOL     OW18349   1.786   4.487  11.026  0.8685  0.2672 -0.2927
 2296SOL    HW118350   1.828   4.436  11.095 -0.8051  0.5115  0.8871
 2296SOL    HW218351   1.766   4.562  11.081  0.7922  2.2478 -3.0199
 2297SOL     OW18352   4.369   2.004   3.010 -0.1180 -0.5046 -0.0370
 2297SOL    HW118353   4.281   2.036   3.030 -1.1278 -3.1520 -0.3248
 2297SOL    HW218354   4.340   1.950   2.937  1.1635  3.0707 -3.2144
 2298SOL     OW18355   2.619   4.718   6.471 -0.2181  0.0026  0.2439
 2298SOL    HW118356   2.687   4.696   6.534 -1.0991  2.1966  1.9529
 2298SOL    HW218357   2.669   0.025   6.394  1.6761 -0.1576  1.4364
 2299SOL     OW18358   3.865   2.081   4.028 -0.0415 -0.0784 -0.0476
 2299SOL    HW118359   3.869   2.010   3.964  2.1031 -0.0180  0.0232
 2299SOL    HW218360   3.824   2.150   3.975  2.6229  0.1740 -1.7829
 2300SOL     OW18361   0.011   0.261   1.597  0.6398  0.0865  0.2294
 2300SOL    HW118362   0.106   0.252   1.593  0.5214 -0.6692 -1.1322
 2300SOL    HW218363   4.719   0.295   1.508 -1.0497 -0.6371  0.1739
 2301SOL     OW18364   0.158   1.683   8.274  0.1123 -0.3333  0.1069
 2301SOL    HW118365   0.151   1.620   8.202 -0.2670 -0.4363  0.2360
 2301SOL    HW218366   0.126   1.756   8.223 -2.0439 -1.0543  0.4407
 2302SOL     OW18367   2.555   3.817   6.252  0.2723  0.5875  0.1198
 2302SOL    HW118368   2.608   3.887   6.290 -0.0077  0.1380  1.3642
 2302SOL    HW218369   2.468   3.855   6.267 -0.5659 -1.0477 -0.6371
 2303SOL     OW18370   0.467   2.117   7.364  0.0934 -0.2165 -0.1155
 2303SOL    HW118371   0.416   2.134   7.443 -1.3101  0.4021 -1.1505
 2303SOL    HW218372   0.533   2.185   7.378  2.2030 -2.7416  2.0708
 2304SOL     OW18373   3.908   1.896  12.344  0.1647  0.5474  0.2687
 2304SOL    HW118374   3.942   1.952  12.414  1.4663  0.2739 -0.1587
 2304SOL    HW218375   3.887   1.815  12.392  1.7614 -0.9914 -1.6611
 2305SOL     OW18376   1.631   2.655  13.064  0.2553 -0.3987  0.5023
 2305SOL    HW118377   1.615   2.741  13.024  1.2100 -0.6318 -0.3853
 2305SOL    HW218378   1.681   2.612  12.995  1.9475 -0.1631  1.5670
 2306SOL     OW18379   3.749   2.843   7.658 -0.5918 -0.5899 -0.0669
 2306SOL    HW118380   3.671   2.877   7.702 -1.1609 -1.7695 -0.1720
 2306SOL    HW218381   3.778   2.768   7.711  2.4846  0.4497 -0.2752
 2307SOL     OW18382   4.328   4.436  15.195 -0.7653  0.1976 -0.0319
 2307SOL    HW118383   4.342   4.400  15.107 -1.0391 -1.2598  0.5270
 2307SOL    HW218384   4.412   4.478  15.215 -1.1474  2.0696 -2.3603
 2308SOL     OW18385   4.537   1.343   3.254  0.1147  0.2057 -0.6831
 2308SOL    HW118386   4.567   1.278   3.191 -0.2848 -1.2265  0.5830
 2308SOL    HW218387   4.464   1.375   3.202  1.1428  1.2141 -1.5053
 2309SOL     OW18388   1.640   4.213   1.105  0.3623 -0.5779 -0.7963
 2309SOL    HW118389   1.561   4.166   1.133  0.3457  0.1905  0.4210
 2309SOL    HW218390   1.686   4.132   1.085 -0.1440 -1.3189  1.0363
 2310SOL     OW18391   3.184   0.772  16.016  0.2785  0.0374 -0.5717
 2310SOL    HW118392   3.263   0.772  15.963  2.1469  0.0715  2.2430
 2310SOL    HW218393   3.172   0.862  16.045 -1.2061 -0.9926  2.0321
 2311SOL     OW18394   2.310   1.318  15.339  0.2294 -0.3855  0.0029
 2311SOL    HW118395   2.365   1.390  15.309  1.5679 -0.6983  1.6558
 2311SOL    HW218396   2.347   1.315  15.427  1.3639  0.5296 -0.4359
 2312SOL     OW18397   0.793   2.481   6.822  0.0708  0.8650 -0.4777
 2312SOL    HW118398   0.853   2.544   6.862  0.8226  0.5197 -1.0576
 2312SOL    HW218399   0.756   2.434   6.897 -1.4044  2.9389  0.0769
 2313SOL     OW18400   2.862   2.737   6.829  0.2170  0.3429  0.4139
 2313SOL    HW118401   2.886   2.794   6.755  0.1286 -0.1380  0.0198
 2313SOL    HW218402   2.819   2.800   6.887 -0.6779  1.7376 -1.7871
 2314SOL     OW18403   2.977   2.433   4.149  0.6022  0.1756  0.3436
 2314SOL    HW118404   3.072   2.426   4.155  0.2877 -3.7172  0.5940
 2314SOL    HW218405   2.946   2.508   4.201  2.2612 -0.2388  1.9035
 2315SOL     OW18406   1.324   0.314  17.080  0.1772  0.3699 -0.1225
 2315SOL    HW118407   1.398   0.268  17.120 -1.0950  1.1492  3.1436
 2315SOL    HW218408   1.258   0.245  17.081 -0.9910  1.4906  1.8869
 2316SOL     OW18409   4.693   0.363   7.488 -0.3192 -0.4660  0.3511
 2316SOL    HW118410   4.612   0.409   7.506 -1.2644 -2.9061  2.1964
 2316SOL    HW218411   4.659   0.276   7.471 -0.4016  0.1430 -2.6680
 2317SOL     OW18412   4.158   0.607   6.667 -0.2883  0.4310  0.2175
 2317SOL    HW118413   4.200   0.582   6.584  0.4584 -0.0865  0.7507
 2317SOL    HW218414   4.063   0.593   6.657 -0.5919  1.8295  1.2094
 2318SOL     OW18415   0.159   4.213   5.827  0.1472  0.0741 -0.5578
 2318SOL    HW118416   0.120   4.153   5.891 -1.2374  0.7888 -0.7311
 2318SOL    HW218417   0.251   4.227   5.848  0.6359 -1.2287 -1.8253
 2319SOL     OW18418   0.502   2.050   3.412 -0.5920  0.2791  0.7111
 2319SOL    HW118419   0.412   2.071   3.386 -0.4856  1.1265  1.0212
 2319SOL    HW218420   0.545   2.035   3.327 -0.6173 -0.8702  0.9054
 2320SOL     OW18421   0.932   1.499   7.031  0.6073 -0.2547  0.5352
 2320SOL    HW118422   0.971   1.489   7.118  1.4074 -1.2327  0.0621
 2320SOL    HW218423   0.872   1.566   7.064 -0.5654 -0.1385 -1.8492
 2321SOL     OW18424   3.193   0.143   1.294  0.0328 -0.1701  0.0167
 2321SOL    HW118425   3.176   0.226   1.249  0.6632 -0.5721 -0.9476
 2321SOL    HW218426   3.171   0.167   1.384  0.0589  0.5035 -0.1523
 2322SOL     OW18427   1.519   4.566   4.845  0.0063 -0.8490  0.5618
 2322SOL    HW118428   1.556   4.652   4.824  1.3552 -1.5383  0.1052
 2322SOL    HW218429   1.517   4.517   4.763 -2.8996  0.8908 -0.4509
 2323SOL     OW18430   4.002   1.845   9.349  0.4478 -0.1527 -0.1520
 2323SOL    HW118431   3.956   1.798   9.419 -0.7831  0.7810 -0.3305
 2323SOL    HW218432   3.951   1.825   9.270  2.6350  0.2788 -1.6859
 2324SOL     OW18433   2.581   0.882   5.652 -0.4623  0.1292  0.6776
 2324SOL    HW118434   2.502   0.926   5.684  0.4063  1.6577  0.6939
 2324SOL    HW218435   2.597   0.949   5.587 -1.3718 -0.1058  0.2004
 2325SOL     OW18436   2.208   4.145  11.213  0.1737  0.2380  0.4131
 2325SOL    HW118437   2.224   4.149  11.118  0.0968  0.7096  0.4160
 2325SOL    HW218438   2.272   4.084  11.249 -0.0949  0.4452  1.2318
 2326SOL     OW18439   2.064   2.511   6.618 -0.0714 -0.1521  0.0737
 2326SOL    HW118440   1.981   2.490   6.662 -0.4551 -0.1192 -0.6344
 2326SOL    HW218441   2.036   2.579   6.557 -1.0186 -0.9247 -0.3560
 2327SOL     OW18442   0.949   1.781   6.780  0.2074  0.6242  0.1672
 2327SOL    HW118443   0.900   1.861   6.760 -0.2829  0.0541 -0.9778
 2327SOL    HW218444   0.980   1.806   6.867  0.1135 -0.8386  0.6110
 2328SOL     OW18445   1.046   4.355   8.915  0.0157  0.1184 -0.0469
 2328SOL    HW118446   1.005   4.381   8.832  0.8233 -0.2844 -0.5721
 2328SOL    HW218447   1.110   4.289   8.887  0.6725  0.9412 -0.4587
 2329SOL     OW18448   0.409   3.123   7.511  0.2081 -0.0092 -0.1230
 2329SOL    HW118449   0.371   3.149   7.428  1.1047 -0.5339 -0.7032
 2329SOL    HW218450   0.470   3.196   7.526  2.0307 -1.6419  0.4514
 2330SOL     OW18451   3.646   3.840   2.663 -0.0983 -0.7312  0.1870
 2330SOL    HW118452   3.581   3.770   2.672 -0.5326 -0.2801  0.5582
 2330SOL    HW218453   3.699   3.815   2.587 -0.6771  0.7974 -0.7261
 2331SOL     OW18454   3.122   4.508  11.500  0.5739 -0.7072 -0.0012
 2331SOL    HW118455   3.218   4.504  11.503  0.6459  2.0017  1.3569
 2331SOL    HW218456   3.097   4.514  11.592  1.4087 -0.8855  0.2419
 2332SOL     OW18457   2.510   3.023   6.362 -0.6278 -0.3939  0.1581
 2332SOL    HW118458   2.548   3.025   6.450 -2.7737 -0.2931  1.0840
 2332SOL    HW218459   2.461   2.942   6.369 -0.1044 -0.4940  2.5354
 2333SOL     OW18460   3.788   3.174  10.759 -0.0822 -0.0231 -0.2954
 2333SOL    HW118461   3.840   3.219  10.693  1.8069 -0.9485  0.5554
 2333SOL    HW218462   3.753   3.237  10.822  0.1583 -1.5821  1.4218
 2334SOL     OW18463   0.464   0.399  13.523 -0.5266  0.4950  0.1954
 2334SOL    HW118464   0.374   0.407  13.554 -1.0784  1.6194 -1.6814
 2334SOL    HW218465   0.516   0.468  13.564 -1.5362  1.8758 -0.8526
 2335SOL     OW18466   4.173   1.808   4.494 -0.2050 -0.0216  0.3058
 2335SOL    HW118467   4.213   1.827   4.579  1.0270 -0.0929 -0.2515
 2335SOL    HW218468   4.089   1.776   4.526 -0.0579  1.8248  2.5889
 2336SOL     OW18469   0.598   3.306   6.939 -0.0944  0.0047 -0.4971
 2336SOL    HW118470   0.686   3.308   6.975  0.4149 -0.4718 -1.6932
 2336SOL    HW218471   0.611   3.263   6.854  0.1603  0.4099 -0.6621
 2337SOL     OW18472   1.494   1.771   5.539 -0.0820 -0.4916  0.2490
 2337SOL    HW118473   1.542   1.847   5.572 -0.0610  1.0382 -3.2872
 2337SOL    HW218474   1.461   1.731   5.619  1.4786 -4.2090 -0.9366
 2338SOL     OW18475   2.039   3.606  13.711  0.2220 -0.5063 -0.0111
 2338SOL    HW118476   1.968   3.553  13.676 -0.2516  0.1498 -0.0395
 2338SOL    HW218477   2.007   3.638  13.796 -1.8524 -0.9694 -0.6381
 2339SOL     OW18478   2.725   1.819   9.558 -0.0578  0.2109  0.1421
 2339SOL    HW118479   2.759   1.908   9.548  1.9131 -0.6787 -0.9093
 2339SOL    HW218480   2.658   1.809   9.491  0.0126  2.3774 -0.2674
 2340SOL     OW18481   2.973   4.611   6.884  0.2771 -0.3321  0.2578
 2340SOL    HW118482   2.945   4.575   6.968  2.9453 -1.1269  0.8071
 2340SOL    HW218483   3.057   4.566   6.880  0.1859 -0.3515 -1.3425
 2341SOL     OW18484   4.493   2.745   4.679 -0.0692 -0.2655  0.0812
 2341SOL    HW118485   4.488   2.736   4.774 -2.6130  0.2314  0.0067
 2341SOL    HW218486   4.566   2.689   4.654  0.9608  1.3024 -0.4288
 2342SOL     OW18487   4.429   0.703   5.628  0.0082  0.1035 -0.3261
 2342SOL    HW118488   4.453   0.790   5.658 -1.3576  0.1177  0.7167
 2342SOL    HW218489   4.389   0.659   5.703  1.1652 -0.3813  0.0147
 2343SOL     OW18490   4.149   1.124   8.238 -0.3992  0.5572  0.6019
 2343SOL    HW118491   4.083   1.124   8.307 -0.7152  0.8489  0.3002
 2343SOL    HW218492   4.104   1.050   8.196 -2.8955  0.9458  2.5745
 2344SOL     OW18493   2.951   3.284  17.262 -0.2810 -0.1045 -0.0732
 2344SOL    HW118494   2.923   3.198  17.231  0.8571 -0.2573 -0.6939
 2344SOL    HW218495   2.875   3.341  17.245 -2.8989 -3.0592  1.6998
 2345SOL     OW18496   0.651   2.369   4.609 -0.6903  0.0537  0.2286
 2345SOL    HW118497   0.664   2.351   4.702  0.9018 -0.3318 -0.0648
 2345SOL    HW218498   0.715   2.436   4.583 -1.5483  0.1333 -1.6955
 2346SOL     OW18499   4.580   3.581  14.817  0.4053  0.6794 -0.5093
 2346SOL    HW118500   4.518   3.636  14.865 -0.0919 -1.5006  1.3874
 2346SOL    HW218501   4.593   3.630  14.736  1.0395  1.3776  0.0192
 2347SOL     OW18502   4.702   2.762   7.923 -0.6537 -1.2311 -0.3182
 2347SOL    HW118503   4.660   2.747   8.007  0.9748 -3.3371  0.1291
 2347SOL    HW218504   4.627   2.789   7.871  0.5864  0.1568 -1.3899
 2348SOL     OW18505   2.978   4.527   6.398  0.3828  0.1737 -0.0097
 2348SOL    HW118506   2.921   4.511   6.473  2.1881 -0.3521  1.2484
 2348SOL    HW218507   2.986   4.622   6.407  0.4446  0.2327 -0.6456
 2349SOL     OW18508   1.875   2.243  15.639  0.6727  0.2417 -0.4743
 2349SOL    HW118509   1.860   2.205  15.552 -2.8539 -0.5827  0.5069
 2349SOL    HW218510   1.965   2.274  15.632  0.9917 -0.5822 -0.0559
 2350SOL     OW18511   3.641   1.662   9.350  0.5348 -0.4261  0.2719
 2350SOL    HW118512   3.567   1.722   9.341  1.5387  0.7085 -0.3599
 2350SOL    HW218513   3.645   1.662   9.446 -1.0399  2.6576  0.3161
 2351SOL     OW18514   0.328   0.300   9.371 -0.3255  0.3993 -0.1570
 2351SOL    HW118515   0.330   0.274   9.463  1.1855  1.3920  0.0972
 2351SOL    HW218516   0.258   0.242   9.343  0.1205  0.6219 -1.7366
 2352SOL     OW18517   1.329   1.091   4.145  0.2594 -0.1144  0.0368
 2352SOL    HW118518   1.275   1.149   4.091  0.2060 -0.0423  0.1661
 2352SOL    HW218519   1.283   1.076   4.228 -0.9867 -1.9861 -0.9928
 2353SOL     OW18520   2.403   0.885   6.450  0.3758  0.0406  0.8115
 2353SOL    HW118521   2.418   0.900   6.357  1.9164  0.5164  1.1298
 2353SOL    HW218522   2.315   0.847   6.455  0.8796 -1.4982 -1.7776
 2354SOL     OW18523   2.178   4.549   1.949  0.1078  0.4448 -0.6028
 2354SOL    HW118524   2.219   4.467   1.922  3.9184  2.4183 -0.8666
 2354SOL    HW218525   2.098   4.551   1.896 -1.3922  0.0463  1.6425
 2355SOL     OW18526   0.263   3.016   8.673 -0.1025  0.0398 -0.1167
 2355SOL    HW118527   0.345   3.055   8.702 -0.5798  1.4188 -0.6352
 2355SOL    HW218528   0.294   2.968   8.597  1.5707  2.1182 -0.7345
 2356SOL     OW18529   2.984   4.537   7.144  0.0637 -0.1076  0.3432
 2356SOL    HW118530   3.067   4.559   7.187 -0.0474 -0.2734  0.6477
 2356SOL    HW218531   2.932   4.481   7.202  1.0168 -0.9155  0.4298
 2357SOL     OW18532   4.297   4.691  14.534 -0.0043 -0.6512 -0.9969
 2357SOL    HW118533   4.363   0.030  14.496  0.2749 -0.7857 -0.7201
 2357SOL    HW218534   4.305   4.615  14.477  0.9204  2.7608 -5.4022
 2358SOL     OW18535   0.313   0.782  14.661  0.3495  0.1962 -0.2087
 2358SOL    HW118536   0.290   0.708  14.718 -3.1636  1.6008  0.1841
 2358SOL    HW218537   0.313   0.730  14.581  1.7742  1.1518 -0.8256
 2359SOL     OW18538   2.107   3.257   1.632  0.2545  0.2321  0.0695
 2359SOL    HW118539   2.060   3.331   1.596  0.2567  0.4163  0.4451
 2359SOL    HW218540   2.111   3.275   1.726  0.3571  0.9446 -0.0742
 2360SOL     OW18541   3.982   3.702   5.774  0.4558 -0.2616  0.1225
 2360SOL    HW118542   3.927   3.681   5.849 -1.1433  0.5757 -0.8096
 2360SOL    HW218543   3.991   3.796   5.793 -1.7949 -0.0611  0.2420
 2361SOL     OW18544   2.938   2.601   7.912  0.4183 -0.0083 -0.1658
 2361SOL    HW118545   2.980   2.558   7.987 -1.0725 -3.3175 -1.2678
 2361SOL    HW218546   2.889   2.529   7.874  2.6896 -1.1683 -0.9296
 2362SOL     OW18547   2.002   2.308  11.638  0.6073 -0.3839 -0.1724
 2362SOL    HW118548   2.050   2.388  11.618  0.3870  0.7699  3.9034
 2362SOL    HW218549   2.069   2.240  11.626 -0.9292 -1.5157 -2.2323
 2363SOL     OW18550   0.935   0.228   4.133 -0.6763  0.4003  0.0137
 2363SOL    HW118551   0.910   0.256   4.045 -0.6247  0.6683  0.0867
 2363SOL    HW218552   0.931   0.309   4.183  0.7462 -0.1262  0.9809
 2364SOL     OW18553   1.540   2.775   3.624  0.2362 -0.4460 -0.4450
 2364SOL    HW118554   1.491   2.771   3.707 -0.5271  0.2706 -0.8604
 2364SOL    HW218555   1.475   2.809   3.563  0.3814  0.0977 -0.2971
 2365SOL     OW18556   1.193   1.859  15.406 -0.5304 -0.2031 -0.1471
 2365SOL    HW118557   1.281   1.882  15.436 -1.8051  2.7002  1.4416
 2365SOL    HW218558   1.208   1.793  15.338 -0.0454 -1.0014  0.7388
 2366SOL     OW18559   0.329   3.691  12.854  0.2708 -0.3228  0.4515
 2366SOL    HW118560   0.349   3.651  12.938  0.8780 -1.7252 -0.3494
 2366SOL    HW218561   0.419   3.694  12.822 -0.0672  2.1983 -0.2744
 2367SOL     OW18562   0.187   0.837   1.983 -0.0488  0.8466  0.3285
 2367SOL    HW118563   0.270   0.803   2.016  1.3179 -0.4716 -4.4353
 2367SOL    HW218564   0.211   0.921   1.944  1.8458  0.6589  1.1058
 2368SOL     OW18565   1.038   1.815   1.600  0.0949 -0.2544  0.4095
 2368SOL    HW118566   1.100   1.748   1.629  0.8468  1.6017  3.0672
 2368SOL    HW218567   1.088   1.896   1.594  1.7918 -1.2499  1.0323
 2369SOL     OW18568   0.150   3.353   3.171  0.3777  0.4637  0.1550
 2369SOL    HW118569   0.101   3.273   3.154  0.2510  0.9733 -1.9372
 2369SOL    HW218570   0.096   3.426   3.140 -0.1328  0.2072  0.4461
 2370SOL     OW18571   2.760   2.867   5.127  0.0820  0.3111 -0.0687
 2370SOL    HW118572   2.816   2.926   5.077  0.7186 -1.2137 -1.1537
 2370SOL    HW218573   2.677   2.913   5.116  0.0728  0.2368 -0.3173
 2371SOL     OW18574   1.897   1.915   2.886 -0.5632 -0.3094  0.4383
 2371SOL    HW118575   1.956   1.936   2.959 -0.0162  3.3824 -1.0615
 2371SOL    HW218576   1.858   2.000   2.864  0.5137 -0.7879 -3.2862
 2372SOL     OW18577   1.802   2.915   8.909  0.0445 -0.7439 -0.2603
 2372SOL    HW118578   1.867   2.880   8.848 -0.1022 -0.2062 -0.7190
 2372SOL    HW218579   1.794   3.004   8.874  0.3125 -0.2865  0.8315
 2373SOL     OW18580   4.653   2.523   0.032  0.0038 -0.0332 -0.0689
 2373SOL    HW118581   4.608   2.535  17.630 -1.2137  1.8546  0.8612
 2373SOL    HW218582   4.591   2.561   0.094 -2.9298  0.3265 -3.2511
 2374SOL     OW18583   2.847   1.272   7.816 -0.5025  0.2073  0.2378
 2374SOL    HW118584   2.892   1.333   7.757  0.5975  0.4946  1.3529
 2374SOL    HW218585   2.789   1.225   7.758  0.5754  0.2341 -0.8661
 2375SOL     OW18586   3.593   1.544   5.599 -0.2272  0.1698 -0.6667
 2375SOL    HW118587   3.570   1.628   5.640  0.2825 -0.1992  0.3930
 2375SOL    HW218588   3.689   1.546   5.600 -0.1980 -1.0944 -3.3419
 2376SOL     OW18589   2.524   0.032   3.964  0.3126 -0.5728  0.2295
 2376SOL    HW118590   2.574   0.114   3.965 -0.6802  0.0327  0.5840
 2376SOL    HW218591   2.476   0.042   3.882  2.9907  0.3318 -1.2269
 2377SOL     OW18592   2.825   3.282  11.353 -0.1458  0.3421  0.1579
 2377SOL    HW118593   2.744   3.239  11.323  1.1522 -2.5303  0.7017
 2377SOL    HW218594   2.863   3.212  11.407 -1.6077  0.6362  1.5387
 2378SOL     OW18595   0.987   1.888   2.198 -0.0758  0.2376  0.3103
 2378SOL    HW118596   1.033   1.847   2.124 -1.0954  1.0356 -0.7714
 2378SOL    HW218597   0.916   1.824   2.200  0.6449 -0.5856 -0.0851
 2379SOL     OW18598   2.692   4.719  16.267 -0.3693 -0.6403 -0.1016
 2379SOL    HW118599   2.692   4.664  16.346 -0.2411 -1.9195 -1.0063
 2379SOL    HW218600   2.661   0.081  16.307  0.5245 -0.8475  1.0088
 2380SOL     OW18601   2.574   1.802   3.900  0.6388  0.2758 -0.2402
 2380SOL    HW118602   2.665   1.831   3.892  1.1251 -0.6732  1.9419
 2380SOL    HW218603   2.578   1.706   3.898  1.9266  0.3467 -1.3188
 2381SOL     OW18604   3.907   0.033   4.571 -0.4711 -0.0983  0.7318
 2381SOL    HW118605   3.856   0.052   4.492 -0.3673 -0.8992  0.4710
 2381SOL    HW218606   3.919   0.125   4.594  0.5926 -0.1667  0.4242
 2382SOL     OW18607   1.458   4.122  13.494 -0.4361 -0.6147 -0.6143
 2382SOL    HW118608   1.364   4.134  13.510 -0.4315 -0.1211 -0.9583
 2382SOL    HW218609   1.452   4.074  13.411 -2.2392  2.4619 -2.2512
 2383SOL     OW18610   4.198   4.227   6.427  0.0982  0.2038 -0.4647
 2383SOL    HW118611   4.243   4.151   6.464  1.2272  2.2810  2.3762
 2383SOL    HW218612   4.240   4.242   6.342 -0.7105  0.6214 -0.8020
 2384SOL     OW18613   0.260   3.009   8.126 -0.0190  0.0104  0.1355
 2384SOL    HW118614   0.185   2.992   8.184  0.9929  0.0981  1.4726
 2384SOL    HW218615   0.292   3.087   8.172  0.4595  0.7510 -1.4734
 2385SOL     OW18616   1.956   1.822  12.838 -0.1961  0.4478 -0.3519
 2385SOL    HW118617   1.944   1.908  12.799  2.0746  0.6256 -0.6500
 2385SOL    HW218618   1.910   1.763  12.778  0.6071  0.0962 -0.6216
 2386SOL     OW18619   1.190   3.406   8.352 -0.3087 -0.0317  0.2157
 2386SOL    HW118620   1.213   3.355   8.274 -0.3531 -0.4414  0.4722
 2386SOL    HW218621   1.227   3.490   8.326 -0.5997 -0.1898 -0.7260
 2387SOL     OW18622   3.183   0.945   2.511 -0.6469  0.2913 -0.4525
 2387SOL    HW118623   3.104   0.893   2.491 -1.6987  1.6524  0.1854
 2387SOL    HW218624   3.198   0.992   2.429 -0.8797  1.4816  0.1816
 2388SOL     OW18625   2.236   1.719   8.635 -0.2142 -0.0308 -0.3280
 2388SOL    HW118626   2.198   1.662   8.702  1.2478 -2.6048 -1.6763
 2388SOL    HW218627   2.285   1.790   8.678 -0.1933  0.6461 -1.4635
 2389SOL     OW18628   2.907   0.152   4.275 -0.3644  0.2699 -0.1060
 2389SOL    HW118629   2.821   0.176   4.309 -0.0482  0.5454  0.4978
 2389SOL    HW218630   2.883   0.070   4.231 -0.5818 -0.0035  0.5337
 2390SOL     OW18631   3.126   4.157  14.444 -0.1350 -0.3182  0.5668
 2390SOL    HW118632   3.176   4.088  14.487  1.6974  0.9512  0.4740
 2390SOL    HW218633   3.043   4.112  14.427  0.0894 -0.7410  0.5777
 2391SOL     OW18634   1.888   0.076   8.165 -0.4167 -0.3559  0.0396
 2391SOL    HW118635   1.811   0.026   8.139 -0.1674 -0.5449 -0.3317
 2391SOL    HW218636   1.962   0.017   8.151  0.5725  1.1626 -1.2122
 2392SOL     OW18637   2.973   1.458   9.033 -0.4337 -0.5985  0.2420
 2392SOL    HW118638   2.969   1.511   8.953  0.0834 -0.5792  0.2310
 2392SOL    HW218639   3.049   1.485   9.084  0.6429 -2.0239 -0.5845
 2393SOL     OW18640   1.775   2.230   6.699  0.3492  0.0379 -0.4918
 2393SOL    HW118641   1.846   2.215   6.760  0.7171 -2.0049 -1.4424
 2393SOL    HW218642   1.716   2.286   6.750  2.9716  0.3784  2.0917
 2394SOL     OW18643   1.431   2.545   4.020  0.6144  0.4553  0.1249
 2394SOL    HW118644   1.418   2.614   4.086 -0.9490 -0.0379  0.3378
 2394SOL    HW218645   1.518   2.515   4.044 -0.2757 -1.5691  0.7472
 2395SOL     OW18646   1.928   4.432  17.379 -0.0785 -0.5610  0.6565
 2395SOL    HW118647   1.922   4.514  17.331 -0.0918 -1.3257 -0.6415
 2395SOL    HW218648   2.022   4.421  17.395 -0.6000 -2.2503  2.6178
 2396SOL     OW18649   0.370   3.905   6.018  0.0523  0.4159  0.5548
 2396SOL    HW118650   0.393   3.987   5.974  1.6518 -0.3732 -0.0522
 2396SOL    HW218651   0.438   3.842   5.995 -1.5481 -0.5193 -1.6569
 2397SOL     OW18652   0.777   3.907   9.857 -0.4541 -0.8516  0.0618
 2397SOL    HW118653   0.711   3.897   9.789  1.3647  1.0124 -1.9684
 2397SOL    HW218654   0.755   3.987   9.904  1.8989  0.2840 -0.7689
 2398SOL     OW18655   2.825   2.140   1.827  0.1145  0.0275  1.0764
 2398SOL    HW118656   2.885   2.125   1.754  0.0691 -0.0878  1.0632
 2398SOL    HW218657   2.850   2.227   1.859 -0.3755 -0.5606  3.0482
 2399SOL     OW18658   0.680   3.298  11.079 -0.4534  0.1308 -0.4305
 2399SOL    HW118659   0.637   3.334  11.157  0.5914 -1.4124  0.8364
 2399SOL    HW218660   0.612   3.234  11.057  0.9358 -1.4077 -0.1949
 2400SOL     OW18661   2.643   3.546   8.970  0.2967 -0.0459  0.2756
 2400SOL    HW118662   2.595   3.565   8.889 -0.8767  0.5341  1.1039
 2400SOL    HW218663   2.672   3.636   8.985  0.1201  0.4993 -2.6404
 2401SOL     OW18664   3.507   2.770   1.905  0.0493  0.1809  0.3589
 2401SOL    HW118665   3.561   2.769   1.825 -1.2399  0.3393 -0.5046
 2401SOL    HW218666   3.571   2.772   1.976 -0.6287 -1.4370  1.0056
 2402SOL     OW18667   0.668   1.322  10.398  0.0724 -0.1008  0.0463
 2402SOL    HW118668   0.605   1.375  10.447  0.4548  0.1655  0.2495
 2402SOL    HW218669   0.601   1.266  10.360  1.0151 -1.3321  0.2023
 2403SOL     OW18670   0.082   0.157   0.644  0.9643 -0.0709 -0.1964
 2403SOL    HW118671   0.054   0.106   0.719 -0.8432  2.5526  0.9188
 2403SOL    HW218672   0.107   0.084   0.588 -0.5470 -0.4330 -0.3963
 2404SOL     OW18673   1.414   3.562   0.157 -0.0343  0.1669  0.1033
 2404SOL    HW118674   1.390   3.469   0.156  2.7813 -0.5380 -1.5089
 2404SOL    HW218675   1.330   3.591   0.120  0.0360 -1.2110 -1.1706
 2405SOL     OW18676   0.349   1.628   3.526  0.2775 -0.2278 -0.3031
 2405SOL    HW118677   0.310   1.709   3.493 -0.6632 -0.3357  0.5072
 2405SOL    HW218678   0.277   1.566   3.515 -0.2114  0.1883  0.5018
 2406SOL     OW18679   4.580   1.869   4.309 -0.1650 -0.6258  0.5011
 2406SOL    HW118680   4.508   1.811   4.333 -1.2543  0.6674  0.3605
 2406SOL    HW218681   4.552   1.926   4.237  0.0383  0.5302  1.3415
 2407SOL     OW18682   1.533   3.275  12.416 -0.0967  0.1900 -0.6318
 2407SOL    HW118683   1.510   3.212  12.348  2.1026 -1.0811 -0.2059
 2407SOL    HW218684   1.538   3.357  12.367  0.0302  0.2350 -0.5419
 2408SOL     OW18685   1.081   3.310   8.613  0.0997 -0.4613 -0.1311
 2408SOL    HW118686   1.123   3.324   8.528  2.7232  0.3971  1.3222
 2408SOL    HW218687   1.014   3.246   8.588 -0.9492  1.5803 -2.6736
 2409SOL     OW18688   0.986   4.590  15.701 -0.3106 -0.1670 -0.0445
 2409SOL    HW118689   0.948   4.502  15.696  0.5297 -0.4694 -0.9170
 2409SOL    HW218690   0.978   4.625  15.613  0.9272 -0.8835 -0.4368
 2410SOL     OW18691   3.796   4.611  12.029  0.4839  0.3651  0.2592
 2410SOL    HW118692   3.714   4.565  12.047  0.3128  0.9658  0.9895
 2410SOL    HW218693   3.807   4.596  11.935  1.7727  3.0414  0.0021
 2411SOL     OW18694   1.512   2.576  10.197 -0.0804  0.3855 -0.1672
 2411SOL    HW118695   1.558   2.618  10.269 -1.0374  1.3828 -0.1435
 2411SOL    HW218696   1.578   2.558  10.130 -0.3066  0.1986 -0.3386
 2412SOL     OW18697   3.532   4.015   8.266 -0.4456  0.0159  0.1995
 2412SOL    HW118698   3.554   4.068   8.343 -2.4979  1.6947 -0.3543
 2412SOL    HW218699   3.617   3.984   8.237 -0.9749 -1.2792  0.0428
 2413SOL     OW18700   3.297   4.235   9.316  0.0852 -0.0050  0.5128
 2413SOL    HW118701   3.293   4.141   9.334  2.1579 -0.0826  0.5654
 2413SOL    HW218702   3.393   4.237   9.312  0.0578 -0.4762 -0.3789
 2414SOL     OW18703   3.192   0.815   9.224 -0.4683 -0.2903 -0.1215
 2414SOL    HW118704   3.166   0.902   9.254 -3.3450 -0.4144 -2.2553
 2414SOL    HW218705   3.138   0.759   9.280 -2.1219  0.4034 -1.0097
 2415SOL     OW18706   1.625   2.730   6.624 -0.4145  0.6810  0.0805
 2415SOL    HW118707   1.556   2.778   6.578  0.6021  0.5771 -1.5319
 2415SOL    HW218708   1.649   2.796   6.689 -1.0698 -0.4962  1.5317
 2416SOL     OW18709   0.710   3.182   8.175  0.7952  0.0300 -0.1776
 2416SOL    HW118710   0.705   3.242   8.101  0.7191 -0.6595 -0.7302
 2416SOL    HW218711   0.804   3.170   8.192  0.9540 -0.5223 -1.4649
 2417SOL     OW18712   2.770   0.169   8.282 -0.0625  0.4198  0.2431
 2417SOL    HW118713   2.693   0.122   8.314  0.5508  0.8020  2.2336
 2417SOL    HW218714   2.776   0.223   8.361 -0.8324  1.3753 -0.3496
 2418SOL     OW18715   3.427   0.879   7.877  0.1584 -0.1917 -0.0458
 2418SOL    HW118716   3.445   0.785   7.875  1.4226  0.0380  0.5682
 2418SOL    HW218717   3.349   0.880   7.822  1.6690  0.8060 -2.2229
 2419SOL     OW18718   0.600   4.075   4.181  0.1690 -0.4861 -0.4425
 2419SOL    HW118719   0.666   4.016   4.144  2.1992  2.2756 -1.2032
 2419SOL    HW218720   0.639   4.158   4.152  0.2840  0.3818  2.1679
 2420SOL     OW18721   1.792   2.146   9.429 -0.5268 -0.2145  0.7569
 2420SOL    HW118722   1.747   2.201   9.365 -0.1508 -0.6363  0.1305
 2420SOL    HW218723   1.775   2.184   9.516 -0.3546  0.7725  0.3570
 2421SOL     OW18724   4.556   4.347   3.143  0.0258  0.1746  0.3044
 2421SOL    HW118725   4.573   4.259   3.111  0.7694 -0.3330  2.1099
 2421SOL    HW218726   4.603   4.409   3.087 -1.0206 -0.1079 -0.8931
 2422SOL     OW18727   1.519   2.816   4.509 -0.1471 -0.7394 -0.4310
 2422SOL    HW118728   1.587   2.833   4.574  1.2175 -1.7314 -1.5907
 2422SOL    HW218729   1.468   2.897   4.516  0.6934 -0.3447  1.1256
 2423SOL     OW18730   3.081   0.491   4.446  0.4835 -0.8116  0.1591
 2423SOL    HW118731   3.009   0.509   4.386  2.3469  1.0143 -1.4934
 2423SOL    HW218732   3.144   0.561   4.433 -0.8686  0.8792  2.5399
 2424SOL     OW18733   0.884   2.747   5.875 -0.3292 -0.7017  0.5596
 2424SOL    HW118734   0.952   2.805   5.843 -1.3631  0.0186 -0.3064
 2424SOL    HW218735   0.811   2.808   5.877 -0.4357 -0.8017 -0.8018
 2425SOL     OW18736   3.539   3.337   1.200  0.1229  0.1145  0.5191
 2425SOL    HW118737   3.576   3.416   1.160 -0.1643 -0.5219 -1.0108
 2425SOL    HW218738   3.451   3.330   1.163  0.3955  2.0239 -0.5136
 2426SOL     OW18739   0.608   0.832   7.325  0.0363 -0.0924 -0.0180
 2426SOL    HW118740   0.621   0.863   7.236  0.6453 -1.3279 -0.3605
 2426SOL    HW218741   0.514   0.847   7.330  0.3773  2.0781  0.0679
 2427SOL     OW18742   1.940   1.217  14.968 -0.5681  0.2296 -0.2079
 2427SOL    HW118743   2.014   1.175  14.924  0.4196  2.8749 -1.1066
 2427SOL    HW218744   1.981   1.270  15.037 -2.0388 -0.0312  0.8811
 2428SOL     OW18745   1.638   2.818  16.585 -0.3864 -0.1662 -0.1407
 2428SOL    HW118746   1.652   2.751  16.518  2.6715  1.5255 -1.1606
 2428SOL    HW218747   1.565   2.782  16.635 -0.3404 -1.1018 -0.7478
 2429SOL     OW18748   1.481   0.605  16.591  0.5516 -0.0970 -0.0913
 2429SOL    HW118749   1.539   0.584  16.518 -0.9398  0.5610 -1.4912
 2429SOL    HW218750   1.407   0.652  16.552  1.6262  1.7481  0.1054
 2430SOL     OW18751   3.972   1.965   7.406  0.0664 -0.4206 -0.2881
 2430SOL    HW118752   3.887   1.968   7.450  1.6701  1.4933  2.6952
 2430SOL    HW218753   3.945   1.915   7.329  0.3989  1.0921 -1.3964
 2431SOL     OW18754   2.331   4.676   6.386  0.3109  0.1977  0.4222
 2431SOL    HW118755   2.411   4.638   6.422 -0.5718 -0.6781  1.4477
 2431SOL    HW218756   2.299   4.719   6.465  1.4221  0.4400  0.7500
 2432SOL     OW18757   4.048   3.868   7.530  0.2201  0.2032 -0.2133
 2432SOL    HW118758   4.001   3.847   7.449 -0.0072  0.6077 -0.1836
 2432SOL    HW218759   4.090   3.949   7.500  2.6343 -0.9462  0.0198
 2433SOL     OW18760   1.171   1.107   1.798 -0.1192 -0.1588  0.1717
 2433SOL    HW118761   1.094   1.056   1.772 -0.6023 -0.0949  1.4998
 2433SOL    HW218762   1.134   1.195   1.799  1.7708  0.6364  0.3367
 2434SOL     OW18763   2.364   2.657  11.690  0.3119  0.0822 -0.1489
 2434SOL    HW118764   2.276   2.685  11.714  0.7278  0.8875  0.4714
 2434SOL    HW218765   2.417   2.699  11.758 -0.1872 -1.5138  1.2326
 2435SOL     OW18766   2.375   3.566   0.770  0.6077 -0.3147  0.3608
 2435SOL    HW118767   2.359   3.619   0.692 -2.7421 -2.6254 -0.4874
 2435SOL    HW218768   2.470   3.566   0.785  0.4463 -1.8664  1.3446
 2436SOL     OW18769   1.941   2.226   6.488 -0.0114 -0.3072 -0.1455
 2436SOL    HW118770   1.890   2.213   6.568 -1.9140  1.4285 -1.0850
 2436SOL    HW218771   2.021   2.181   6.514 -0.8358 -0.6309  1.8810
 2437SOL     OW18772   0.192   0.859   9.161  0.0961 -0.2069  0.8340
 2437SOL    HW118773   0.276   0.901   9.178 -0.5740  1.4146  0.2255
 2437SOL    HW218774   0.125   0.927   9.175 -0.1226 -0.9167  3.2405
 2438SOL     OW18775   0.807   0.977   6.406 -0.5344 -0.0402  0.0088
 2438SOL    HW118776   0.867   0.975   6.480  0.0156 -0.1164 -0.4394
 2438SOL    HW218777   0.866   0.945   6.337  0.0930 -1.8519  1.3972
 2439SOL     OW18778   3.065   0.080   5.224  0.9272  0.4239  0.1421
 2439SOL    HW118779   2.982   0.127   5.218 -0.4439 -2.1480 -1.0486
 2439SOL    HW218780   3.098   0.125   5.302  0.7138 -3.0178  2.2321
 2440SOL     OW18781   2.322   0.016   7.476  0.6737  0.3494  0.0688
 2440SOL    HW118782   2.345   0.039   7.566 -2.8282 -0.8481  1.2385
 2440SOL    HW218783   2.411   4.708   7.450 -0.4870 -0.9532 -2.5544
 2441SOL     OW18784   4.591   3.813   7.300 -0.1775  0.3440 -0.0041
 2441SOL    HW118785   4.591   3.813   7.395  2.5235  2.0169  0.0216
 2441SOL    HW218786   4.536   3.738   7.282  0.5724 -0.3286  0.4984
 2442SOL     OW18787   4.647   2.717  17.076 -0.1584 -0.1999  0.4347
 2442SOL    HW118788   4.669   2.677  16.992  1.9612  0.9447  0.4492
 2442SOL    HW218789   4.624   2.805  17.046  0.1741 -0.1011  0.4724
 2443SOL     OW18790   3.066   2.580   1.664 -0.1851  0.2574 -0.3449
 2443SOL    HW118791   3.141   2.527   1.692  0.3498  0.2848 -1.7108
 2443SOL    HW218792   3.024   2.515   1.607 -0.0725  1.7609 -2.1580
 2444SOL     OW18793   4.445   3.281   8.978 -0.2955  0.6318  0.5763
 2444SOL    HW118794   4.408   3.208   9.028  1.4818  0.1041  1.1022
 2444SOL    HW218795   4.470   3.234   8.898 -0.4219 -0.5799  1.2491
 2445SOL     OW18796   4.468   3.591   3.954 -0.0561  0.0564 -0.3476
 2445SOL    HW118797   4.416   3.562   4.029  0.6802 -1.8888 -0.5900
 2445SOL    HW218798   4.405   3.564   3.887  0.7392 -1.5762 -0.4551
 2446SOL     OW18799   2.171   2.313   0.341  0.0113 -0.1522 -0.1024
 2446SOL    HW118800   2.132   2.396   0.311  1.2332  1.1081  1.8136
 2446SOL    HW218801   2.118   2.246   0.298 -0.6375  0.2712  0.0350
 2447SOL     OW18802   3.444   3.643   5.001  0.3705 -0.6833 -0.0613
 2447SOL    HW118803   3.424   3.687   4.918 -0.7679  0.8811  1.0369
 2447SOL    HW218804   3.451   3.710   5.069  1.8039  0.2567 -1.1391
 2448SOL     OW18805   0.310   2.355   8.381 -0.5595  0.5911 -0.0882
 2448SOL    HW118806   0.360   2.436   8.381 -0.1655  0.3578  3.4474
 2448SOL    HW218807   0.260   2.368   8.300 -0.7769 -0.8782 -0.2050
 2449SOL     OW18808   4.268   3.156   2.144 -0.0479 -0.3831  0.0000
 2449SOL    HW118809   4.241   3.085   2.085 -1.3850  0.6832 -0.6593
 2449SOL    HW218810   4.246   3.233   2.093 -1.3066  0.4375  1.8182
 2450SOL     OW18811   3.633   2.249   7.728  0.0225 -0.4528 -0.0894
 2450SOL    HW118812   3.648   2.342   7.713 -0.3111 -0.4449 -0.3976
 2450SOL    HW218813   3.537   2.244   7.724 -0.1102  2.3505 -0.2699
 2451SOL     OW18814   3.706   1.906   2.563  0.8806 -0.3077  0.6228
 2451SOL    HW118815   3.662   1.899   2.478  1.7312 -0.1237  0.1609
 2451SOL    HW218816   3.702   1.822   2.608 -2.5949 -0.2907  0.3172
 2452SOL     OW18817   2.603   2.245   4.834 -0.5573  0.2988  0.1417
 2452SOL    HW118818   2.601   2.301   4.911  0.9940 -0.0128  0.4081
 2452SOL    HW218819   2.628   2.313   4.771 -1.8329  0.5261 -0.1089
 2453SOL     OW18820   4.606   0.799   6.320  0.0387 -0.0757  0.0248
 2453SOL    HW118821   4.618   0.785   6.227 -2.0785 -1.7085  0.0137
 2453SOL    HW218822   4.673   0.736   6.347  0.0467 -0.2305 -0.3693
 2454SOL     OW18823   1.279   2.786  12.200  0.1818  0.7031 -0.2877
 2454SOL    HW118824   1.195   2.825  12.176 -1.3064 -0.0324  3.6250
 2454SOL    HW218825   1.262   2.696  12.171 -0.2634  0.4977  0.5847
 2455SOL     OW18826   1.802   1.649  15.859  0.7956  0.5130  0.4233
 2455SOL    HW118827   1.778   1.590  15.929  0.9402  1.7033  1.4780
 2455SOL    HW218828   1.882   1.611  15.823  0.7837  0.3155  0.6073
 2456SOL     OW18829   2.367   2.487   7.122  0.1191 -0.2194  0.3243
 2456SOL    HW118830   2.315   2.438   7.058  0.9370 -0.8163  0.1085
 2456SOL    HW218831   2.376   2.569   7.074 -0.5856  1.3027  2.7575
 2457SOL     OW18832   1.721   1.916  15.802  0.2257  0.2083 -0.2634
 2457SOL    HW118833   1.722   1.970  15.881  0.8883  1.4538 -1.1086
 2457SOL    HW218834   1.730   1.823  15.822 -1.9703  0.2119  0.6936
 2458SOL     OW18835   0.598   4.136  12.695 -0.3000  0.3547 -0.0664
 2458SOL    HW118836   0.673   4.172  12.743  0.7657 -0.6908 -0.9110
 2458SOL    HW218837   0.567   4.068  12.754 -1.0111  0.8098  0.0770
 2459SOL     OW18838   4.331   0.498   5.798  0.0993 -0.1737 -0.6123
 2459SOL    HW118839   4.240   0.501   5.770  0.2419  0.5219 -1.0203
 2459SOL    HW218840   4.365   0.412   5.773  2.4279  1.1038 -1.8586
 2460SOL     OW18841   2.663   3.342   4.112  0.0391 -0.1095 -0.5957
 2460SOL    HW118842   2.645   3.311   4.023 -1.4392  2.2476 -1.1185
 2460SOL    HW218843   2.627   3.431   4.108 -1.3372 -0.6138  0.2779
 2461SOL     OW18844   2.036   0.648   3.360 -0.0294 -0.5932  0.2281
 2461SOL    HW118845   2.062   0.651   3.268  0.3941  0.7493  0.3867
 2461SOL    HW218846   2.123   0.665   3.396 -0.4786  1.1199  0.5130
 2462SOL     OW18847   4.649   2.891   2.595 -0.2618  0.1254 -0.1857
 2462SOL    HW118848   4.691   2.813   2.633 -0.0980  0.4255  0.2408
 2462SOL    HW218849   4.640   2.942   2.675 -0.4021  0.4125 -0.3876
 2463SOL     OW18850   0.126   4.598   5.852  0.2861  0.6016 -0.3221
 2463SOL    HW118851   0.124   4.533   5.781  0.7686  1.4731 -1.1387
 2463SOL    HW218852   0.136   4.539   5.926  1.9835  0.9081 -0.3153
 2464SOL     OW18853   2.510   3.779   1.101  0.1530 -0.5547 -0.1046
 2464SOL    HW118854   2.449   3.791   1.029  0.2278 -0.0437 -0.0826
 2464SOL    HW218855   2.595   3.798   1.061 -0.7110  1.8994 -0.7590
 2465SOL     OW18856   2.699   1.840   5.916 -0.3300  0.0324  0.3730
 2465SOL    HW118857   2.630   1.899   5.946 -0.2994 -0.6256  1.7389
 2465SOL    HW218858   2.710   1.859   5.823  0.1806  0.3965  0.5033
 2466SOL     OW18859   0.449   2.508  11.477 -0.0685  0.1496 -0.0548
 2466SOL    HW118860   0.378   2.513  11.413  1.2800  1.7717 -1.4435
 2466SOL    HW218861   0.476   2.417  11.486 -3.1618 -0.7096  0.4240
 2467SOL     OW18862   4.263   1.069   4.166 -0.0904  0.0242 -0.4446
 2467SOL    HW118863   4.255   1.054   4.071 -0.7983 -1.0748 -0.2060
 2467SOL    HW218864   4.233   1.160   4.174  2.3060  0.7346  0.5333
 2468SOL     OW18865   3.885   1.276   8.008  0.1886  0.1727  0.7069
 2468SOL    HW118866   3.969   1.260   7.965 -0.7010 -3.2562  0.1757
 2468SOL    HW218867   3.885   1.369   8.031  0.2754  0.8373 -2.0624
 2469SOL     OW18868   3.976   3.093   6.247 -0.6763 -0.0192 -1.0141
 2469SOL    HW118869   3.971   3.132   6.160 -2.1050  2.1908  0.0443
 2469SOL    HW218870   3.898   3.137   6.282  0.6061 -0.3577  2.2498
 2470SOL     OW18871   1.633   3.766   6.620  0.2140  0.4181  0.0379
 2470SOL    HW118872   1.696   3.759   6.548 -0.7720 -1.4858 -0.6362
 2470SOL    HW218873   1.687   3.730   6.689  1.8337  0.5189 -1.1872
 2471SOL     OW18874   1.968   2.509   3.895 -0.5352  0.4837 -0.1445
 2471SOL    HW118875   2.004   2.586   3.938 -1.8499  1.4862 -0.8634
 2471SOL    HW218876   2.016   2.443   3.946 -2.1147  0.8371  1.7932
 2472SOL     OW18877   3.396   2.653   2.943 -0.2315 -0.1893  0.5069
 2472SOL    HW118878   3.425   2.618   2.858  2.5466 -2.6470  2.4967
 2472SOL    HW218879   3.308   2.616   2.949 -0.9765  1.1636 -1.8670
 2473SOL     OW18880   2.810   4.140   2.932 -0.1515 -0.1197  0.6726
 2473SOL    HW118881   2.786   4.212   2.990 -0.4326 -0.5636  1.1058
 2473SOL    HW218882   2.903   4.129   2.952 -0.3344 -1.5774  0.7611
 2474SOL     OW18883   4.667   3.209   0.817  0.7361 -0.4462  0.4573
 2474SOL    HW118884   0.040   3.188   0.823  0.2481 -2.1763  1.8526
 2474SOL    HW218885   4.664   3.254   0.901  0.1530 -0.8785  0.6682
 2475SOL     OW18886   1.684   0.811   3.572  0.0150  0.8766 -0.2526
 2475SOL    HW118887   1.638   0.755   3.509  1.0678 -0.6584  0.3316
 2475SOL    HW218888   1.703   0.890   3.523 -0.5137  1.5707  0.6505
 2476SOL     OW18889   1.676   0.646  17.582  0.1368 -0.2046  0.3245
 2476SOL    HW118890   1.617   0.666  17.655 -0.4081  0.1207 -0.2063
 2476SOL    HW218891   1.624   0.644  17.502  0.4237 -3.1491  0.2056
 2477SOL     OW18892   1.520   2.399  16.538 -0.5017  0.2484  0.7046
 2477SOL    HW118893   1.504   2.461  16.609 -0.9831 -2.3359  2.8138
 2477SOL    HW218894   1.447   2.339  16.550  0.4919 -1.4192 -1.5552
 2478SOL     OW18895   3.743   1.074  11.919 -0.0710  0.2974 -0.5055
 2478SOL    HW118896   3.835   1.048  11.929 -0.0130  1.1724  1.2732
 2478SOL    HW218897   3.757   1.166  11.943  1.9188 -0.2956  0.6309
 2479SOL     OW18898   3.987   3.247   6.739  0.4742 -0.4124  0.1109
 2479SOL    HW118899   3.939   3.312   6.790  3.9007  3.4041 -1.5458
 2479SOL    HW218900   4.070   3.261   6.786  0.4865 -1.4955  0.4103
 2480SOL     OW18901   1.447   2.104  16.948  0.5669 -0.4286 -0.7629
 2480SOL    HW118902   1.538   2.131  16.960 -0.3595  1.8566  1.1088
 2480SOL    HW218903   1.452   2.015  16.981 -0.3400 -0.4481 -0.6847
 2481SOL     OW18904   1.598   4.419   3.026 -0.4208  0.1727  0.3931
 2481SOL    HW118905   1.617   4.440   2.935 -0.5322 -1.3794  0.0035
 2481SOL    HW218906   1.522   4.477   3.033 -0.9252 -0.3506 -0.7361
 2482SOL     OW18907   0.977   3.547  11.331  0.4944  0.2822 -0.2696
 2482SOL    HW118908   0.919   3.609  11.287 -0.8366 -0.8904 -0.1721
 2482SOL    HW218909   0.954   3.458  11.305  1.2285 -0.3840  1.3688
 2483SOL     OW18910   0.099   3.848   5.298  0.3554  0.1319  0.4100
 2483SOL    HW118911   0.050   3.925   5.271 -1.1984 -0.9729  0.0862
 2483SOL    HW218912   0.093   3.784   5.228  0.1989  0.5262  0.0664
 2484SOL     OW18913   1.731   3.082   7.230  0.1220  0.2554  0.2312
 2484SOL    HW118914   1.800   3.016   7.243 -3.1244 -3.2911 -0.5762
 2484SOL    HW218915   1.746   3.120   7.143 -0.8565 -0.3217 -0.1950
 2485SOL     OW18916   1.600   0.083  16.891  0.0171 -0.3663 -0.1807
 2485SOL    HW118917   1.685   0.038  16.892  0.2844  0.1158 -1.1098
 2485SOL    HW218918   1.625   0.164  16.846 -0.7218 -1.4540 -2.5811
 2486SOL     OW18919   1.101   1.898   2.734 -0.8035 -0.4137  0.7324
 2486SOL    HW118920   1.137   1.848   2.808 -1.2090  0.5238  1.5622
 2486SOL    HW218921   1.174   1.887   2.673  0.4094  3.2380  1.5266
 2487SOL     OW18922   1.531   2.469   3.347 -0.1311 -0.2159  0.1638
 2487SOL    HW118923   1.464   2.500   3.407 -1.8194 -0.0591 -1.8076
 2487SOL    HW218924   1.482   2.457   3.265 -0.3530  1.9337 -0.0192
 2488SOL     OW18925   1.251   2.634   6.690  0.5500 -0.1746  0.2072
 2488SOL    HW118926   1.341   2.607   6.673  1.4057  2.3546  0.6315
 2488SOL    HW218927   1.229   2.572   6.760  1.1645  0.6569  1.1514
 2489SOL     OW18928   3.723   3.033   6.640  0.1805 -0.6520  0.0502
 2489SOL    HW118929   3.664   3.107   6.653  1.4287  0.2035  0.9219
 2489SOL    HW218930   3.805   3.079   6.660  0.6830 -2.0598  1.1782
 2490SOL     OW18931   2.860   3.521   5.355  0.4735  0.2605  0.4353
 2490SOL    HW118932   2.920   3.592   5.331  0.9005 -1.2680 -3.0740
 2490SOL    HW218933   2.907   3.447   5.317 -0.0172 -1.2495  2.7974
 2491SOL     OW18934   4.462   3.959   4.471  0.2786 -0.3476 -0.2053
 2491SOL    HW118935   4.530   3.915   4.523  0.4177  2.3889  1.9744
 2491SOL    HW218936   4.487   4.052   4.476 -1.0873 -0.0641  1.6203
 2492SOL     OW18937   4.386   4.393  11.932 -0.2612 -0.2367  0.4176
 2492SOL    HW118938   4.439   4.460  11.975  1.7664 -1.9513  0.6319
 2492SOL    HW218939   4.450   4.321  11.932  1.1159  1.0032 -2.2975
 2493SOL     OW18940   0.709   2.011   2.743 -0.4494 -0.7258 -0.2492
 2493SOL    HW118941   0.736   2.009   2.652  0.5337 -1.1508  0.0462
 2493SOL    HW218942   0.667   1.925   2.743  1.3665 -1.6077 -0.5513
 2494SOL     OW18943   1.370   4.193   2.744  0.6417  0.4857 -0.4565
 2494SOL    HW118944   1.277   4.194   2.722  0.0936 -0.1363  1.7774
 2494SOL    HW218945   1.395   4.285   2.738  2.6610  0.1993  3.1764
 2495SOL     OW18946   0.896   3.569  14.341  0.2123  0.2604 -0.2205
 2495SOL    HW118947   0.933   3.611  14.419 -2.5267  1.6157  0.3629
 2495SOL    HW218948   0.912   3.638  14.277  0.4515  0.4189  0.0063
 2496SOL     OW18949   3.152   4.093   8.343  0.6812  0.1887  0.5771
 2496SOL    HW118950   3.175   4.007   8.309  1.7852  0.5080  0.5229
 2496SOL    HW218951   3.115   4.059   8.424  1.8900  0.8151  1.3955
 2497SOL     OW18952   1.285   0.028  11.826  0.0858 -0.2862 -0.2930
 2497SOL    HW118953   1.306   4.676  11.766  0.2411 -0.5371  0.0640
 2497SOL    HW218954   1.239   4.701  11.895 -0.2826  0.0464 -0.3132
 2498SOL     OW18955   2.906   1.960   7.329 -0.4654  0.4294 -0.0383
 2498SOL    HW118956   2.991   1.987   7.293  0.6242 -0.5648  1.8137
 2498SOL    HW218957   2.935   1.900   7.398 -1.8893 -1.1743 -0.8503
 2499SOL     OW18958   1.982   0.809   5.037 -0.0823 -0.6175 -0.0025
 2499SOL    HW118959   1.948   0.746   4.974 -0.0765 -0.1248 -0.4922
 2499SOL    HW218960   1.930   0.889   5.029  1.5356  0.6325  2.0001
 2500SOL     OW18961   2.111   2.738   4.439 -0.9297 -0.2523  0.0203
 2500SOL    HW118962   2.140   2.737   4.531 -1.0846  0.6361  0.0764
 2500SOL    HW218963   2.073   2.826   4.433 -1.4901 -0.5500 -0.7755
 2501SOL     OW18964   4.199   2.878  15.980 -0.3088  0.3042 -0.0484
 2501SOL    HW118965   4.141   2.803  15.995  0.5504 -0.8280 -2.3324
 2501SOL    HW218966   4.165   2.923  15.902  2.3055 -0.1963 -1.4979
 2502SOL     OW18967   4.397   2.875   7.101 -0.1226 -0.0162 -0.6030
 2502SOL    HW118968   4.339   2.926   7.044 -1.6478 -0.2148  0.7933
 2502SOL    HW218969   4.344   2.801   7.128  0.4969 -0.4261 -0.5234
 2503SOL     OW18970   0.302   1.471   7.415 -0.3682  0.2983  0.1850
 2503SOL    HW118971   0.281   1.381   7.391  4.1513 -0.1775 -2.0736
 2503SOL    HW218972   0.384   1.453   7.460  1.3089  1.8216 -2.2503
 2504SOL     OW18973   1.767   4.390  16.800  0.0633 -0.3521 -0.0157
 2504SOL    HW118974   1.794   4.447  16.728 -0.2646  1.7200  1.5064
 2504SOL    HW218975   1.843   4.353  16.843  0.0892 -2.6803 -2.0842
 2505SOL     OW18976   1.156   0.034   0.833 -0.2726 -0.0250 -0.5248
 2505SOL    HW118977   1.249   0.017   0.846  0.1102  0.5504 -2.5001
 2505SOL    HW218978   1.137   4.671   0.789  0.0430 -1.7931  2.6863
 2506SOL     OW18979   4.629   4.326  10.439  0.3106  0.3042 -0.1688
 2506SOL    HW118980   0.000   4.302  10.419  0.5148  1.2573 -0.3860
 2506SOL    HW218981   4.624   4.407  10.388  2.4003  0.3328 -0.3519
 2507SOL     OW18982   4.526   0.409   6.072 -0.0421  0.3038 -0.0619
 2507SOL    HW118983   4.534   0.421   6.166  0.9783  0.2109 -0.1275
 2507SOL    HW218984   4.607   0.451   6.042  1.2866  0.3569  3.5955
 2508SOL     OW18985   1.644   4.515   3.919 -0.6519  0.3269  0.2376
 2508SOL    HW118986   1.578   4.447   3.930  0.5191 -0.8970 -0.3306
 2508SOL    HW218987   1.655   4.543   4.009  0.6865  0.1165  0.1487
 2509SOL     OW18988   0.583   0.786   5.294  0.1768 -0.1179 -0.1483
 2509SOL    HW118989   0.488   0.797   5.291  0.5125  2.7907  0.2845
 2509SOL    HW218990   0.593   0.740   5.210 -1.1461 -1.8943  0.6746
 2510SOL     OW18991   1.776   1.387   6.477 -0.2762 -0.1799 -0.3889
 2510SOL    HW118992   1.788   1.457   6.542  0.0864  0.0377 -0.6898
 2510SOL    HW218993   1.737   1.314   6.526 -1.6426  0.8474  0.0691
 2511SOL     OW18994   0.179   4.147   1.798 -0.1286  0.3137 -0.6307
 2511SOL    HW118995   0.150   4.057   1.808  0.6709  0.4352  2.7562
 2511SOL    HW218996   0.187   4.150   1.703 -5.1190 -1.0076 -1.1098
 2512SOL     OW18997   1.250   3.112   3.356 -0.1663 -0.7639  0.1812
 2512SOL    HW118998   1.321   3.176   3.365 -0.3629 -0.4453 -0.4926
 2512SOL    HW218999   1.190   3.113   3.430 -1.1928  2.9419 -0.7013
 2513SOL     OW19000   2.271   1.763   7.520  0.4355  0.4221  0.6114
 2513SOL    HW119001   2.212   1.712   7.576 -2.1424  2.0143 -0.6549
 2513SOL    HW219002   2.205   1.829   7.497  3.5645  3.8457  1.4927
 2514SOL     OW19003   3.804   1.491  17.159  0.3321 -0.3942 -0.4956
 2514SOL    HW119004   3.820   1.401  17.187 -0.8494 -0.0368  1.3538
 2514SOL    HW219005   3.890   1.529  17.178 -1.1320  2.2517  0.9397
 2515SOL     OW19006   3.210   4.260   5.450 -0.0215 -0.1279  0.3710
 2515SOL    HW119007   3.240   4.349   5.428 -0.3703  0.5150  2.5142
 2515SOL    HW219008   3.252   4.203   5.386  1.8265 -0.1712  1.6350
 2516SOL     OW19009   0.824   1.740   1.798  0.3672 -0.0802  0.0437
 2516SOL    HW119010   0.842   1.767   1.708 -1.9716  0.6143 -0.2347
 2516SOL    HW219011   0.814   1.646   1.788  0.3476 -0.0039 -0.6776
 2517SOL     OW19012   4.155   0.042   7.250  0.6645 -0.5061  0.3387
 2517SOL    HW119013   4.154   0.087   7.166 -2.8711 -0.1140  0.5921
 2517SOL    HW219014   4.179   0.111   7.313  1.0939  0.6200 -1.0686
 2518SOL     OW19015   2.702   1.014  14.737 -0.1441  0.1880  0.3387
 2518SOL    HW119016   2.741   0.989  14.821  0.0676  1.7220  0.7135
 2518SOL    HW219017   2.773   1.061  14.693  0.9589 -0.6459  1.2228
 2519SOL     OW19018   1.131   3.302   5.781 -0.2136 -0.6797 -0.3046
 2519SOL    HW119019   1.041   3.323   5.807  0.2909 -1.8222  2.3391
 2519SOL    HW219020   1.130   3.221   5.730 -1.0641 -2.2952  2.3110
 2520SOL     OW19021   2.325   4.353  13.155 -0.0132 -0.0715 -0.0789
 2520SOL    HW119022   2.304   4.266  13.188 -1.9390  0.5232  0.2769
 2520SOL    HW219023   2.395   4.382  13.213  0.4605 -2.1754  0.4104
 2521SOL     OW19024   4.465   2.364   2.998 -0.2765 -0.0845  0.6186
 2521SOL    HW119025   4.410   2.351   2.920 -1.5813 -0.0265  1.5392
 2521SOL    HW219026   4.509   2.279   3.002 -3.0574 -1.5773 -0.7974
 2522SOL     OW19027   1.469   1.384  12.409 -0.5678 -0.5814  0.1165
 2522SOL    HW119028   1.385   1.341  12.400  0.4921 -2.9390  1.4595
 2522SOL    HW219029   1.488   1.383  12.503 -1.0788 -1.2952  0.2067
 2523SOL     OW19030   2.513   1.265   3.626 -0.1451  0.5059  0.3820
 2523SOL    HW119031   2.429   1.249   3.668 -0.5392  2.6701  0.4186
 2523SOL    HW219032   2.506   1.202   3.554  0.3022 -0.8314  1.5080
 2524SOL     OW19033   2.009   3.497   4.634  0.2003 -0.2104  0.4874
 2524SOL    HW119034   2.051   3.569   4.587  1.9820 -0.1167  2.2462
 2524SOL    HW219035   1.929   3.481   4.583  0.3363  0.6597  0.0009
 2525SOL     OW19036   4.402   2.303  16.414  0.1246  0.4083  0.1744
 2525SOL    HW119037   4.367   2.376  16.364 -1.6402  0.5391  1.5820
 2525SOL    HW219038   4.487   2.335  16.447  0.8991  0.4722 -1.8836
 2526SOL     OW19039   0.130   1.855   7.071 -0.1925 -0.3776 -0.3931
 2526SOL    HW119040   0.133   1.789   7.001  0.7584  0.0067 -0.7118
 2526SOL    HW219041   0.160   1.801   7.145 -0.4526 -3.3549 -2.4535
 2527SOL     OW19042   2.325   1.238   7.668 -0.8153 -0.1932 -0.0859
 2527SOL    HW119043   2.305   1.323   7.628 -0.0708 -0.4459 -0.9833
 2527SOL    HW219044   2.257   1.239   7.736 -0.5305 -0.5167  0.2028
 2528SOL     OW19045   3.247   4.225   2.842 -0.8515  0.0309  0.0030
 2528SOL    HW119046   3.330   4.230   2.889 -1.4742 -1.4313  1.2670
 2528SOL    HW219047   3.267   4.151   2.784 -0.5807  0.6133 -0.6442
 2529SOL     OW19048   4.143   0.365   4.514  0.6830  0.5049  0.4512
 2529SOL    HW119049   4.200   0.299   4.474  0.7519 -0.0487  1.4690
 2529SOL    HW219050   4.174   0.374   4.604 -0.5943  0.2960  0.9110
 2530SOL     OW19051   2.568   2.064  11.718  0.4561 -0.4523 -0.3430
 2530SOL    HW119052   2.658   2.063  11.686  0.2783 -2.3989 -0.7564
 2530SOL    HW219053   2.563   2.153  11.752  3.3028 -0.2332 -0.5234
 2531SOL     OW19054   1.090   4.340   9.180  0.5204  0.1284  0.1096
 2531SOL    HW119055   1.017   4.393   9.211  1.5256  1.0782  0.9048
 2531SOL    HW219056   1.080   4.343   9.085 -2.4821  1.1931  0.4554
 2532SOL     OW19057   0.961   0.398  10.100  0.5650  0.4018  0.1801
 2532SOL    HW119058   0.949   0.346  10.021  1.3464  0.8249 -0.2114
 2532SOL    HW219059   0.939   0.488  10.077 -1.6508 -0.4958 -1.1715
 2533SOL     OW19060   4.330   2.775   2.715  0.0359 -0.3209 -0.6851
 2533SOL    HW119061   4.405   2.783   2.774 -0.8445  1.5793  0.1965
 2533SOL    HW219062   4.272   2.713   2.758 -1.9857  1.5855 -0.6303
 2534SOL     OW19063   1.105   1.671   3.201  0.4189  0.2482  0.1158
 2534SOL    HW119064   1.083   1.733   3.270  0.3374 -0.1655  0.4654
 2534SOL    HW219065   1.188   1.709   3.175  1.9075 -2.3801  0.9896
 2535SOL     OW19066   0.122   1.687   4.132  0.4531 -0.2044  0.5890
 2535SOL    HW119067   0.196   1.644   4.174 -0.0993 -2.2214 -0.4804
 2535SOL    HW219068   0.066   1.658   4.204 -1.1205  0.5038 -0.3475
 2536SOL     OW19069   0.984   1.169   3.743  0.4401  0.1288  0.2288
 2536SOL    HW119070   0.903   1.120   3.731  1.1948 -0.7337 -1.3984
 2536SOL    HW219071   1.005   1.189   3.652  2.7115 -0.3640  0.6470
 2537SOL     OW19072   3.121   4.136   6.837  0.7798 -0.3144 -0.2988
 2537SOL    HW119073   3.030   4.135   6.867  0.5568 -0.3692 -0.9860
 2537SOL    HW219074   3.126   4.221   6.792  0.3711  0.1469  0.5164
 2538SOL     OW19075   4.149   4.203   0.474  0.0561 -0.0746  0.5957
 2538SOL    HW119076   4.165   4.116   0.510 -1.6130 -0.0692  1.3377
 2538SOL    HW219077   4.073   4.232   0.525 -2.1743 -3.4582 -0.8245
 2539SOL     OW19078   3.976   2.738   9.424 -0.2194  0.2366 -0.3281
 2539SOL    HW119079   3.988   2.833   9.433  2.4008 -0.0075 -1.3152
 2539SOL    HW219080   4.040   2.710   9.358  0.3762  0.1498  0.2913
 2540SOL     OW19081   1.557   4.504  14.029 -0.3860 -0.5142 -0.4137
 2540SOL    HW119082   1.507   4.521  13.949 -1.3667 -0.8085  0.1474
 2540SOL    HW219083   1.630   4.459  13.986  0.3889  2.2694 -2.0264
 2541SOL     OW19084   3.413   2.830  15.488 -0.0068 -0.0048  0.0249
 2541SOL    HW119085   3.435   2.756  15.430  0.0243 -0.9654  1.2767
 2541SOL    HW219086   3.502   2.841  15.521  1.1522 -0.2148 -2.9448
 2542SOL     OW19087   3.693   4.137   5.276 -0.0608  0.0731  0.1049
 2542SOL    HW119088   3.666   4.221   5.239  0.7869  1.5137  2.7024
 2542SOL    HW219089   3.757   4.114   5.209  2.4769  2.6647  1.5937
 2543SOL     OW19090   0.556   1.921  13.062  0.3420  0.0620  0.3047
 2543SOL    HW119091   0.478   1.867  13.071 -0.2990  1.3713  2.4216
 2543SOL    HW219092   0.593   1.884  12.981  2.2333  0.7248  0.8662
 2544SOL     OW19093   1.803   3.328   9.482 -0.5962 -0.0498 -0.0460
 2544SOL    HW119094   1.734   3.390   9.504  0.2739  2.1926 -3.6643
 2544SOL    HW219095   1.867   3.395   9.505 -1.0767  0.0685  0.9345
 2545SOL     OW19096   0.882   2.617   7.256  0.3684 -0.0444 -0.6626
 2545SOL    HW119097   0.890   2.662   7.341 -0.9282 -0.6550 -0.2231
 2545SOL    HW219098   0.875   2.526   7.285  2.2371 -0.2389 -0.8321
 2546SOL     OW19099   1.144   0.525   7.444 -0.3282 -0.0580 -0.1527
 2546SOL    HW119100   1.190   0.469   7.506  0.5193  1.2731  0.4320
 2546SOL    HW219101   1.109   0.589   7.506  1.7918  0.7460  0.2190
 2547SOL     OW19102   1.553   3.120   1.958 -0.0347 -0.4482  0.1520
 2547SOL    HW119103   1.601   3.093   1.880  1.2790 -0.1552  0.8525
 2547SOL    HW219104   1.476   3.063   1.953  0.9226 -1.5533 -1.9927
 2548SOL     OW19105   2.401   0.424   9.059 -0.2894 -0.2618 -0.1631
 2548SOL    HW119106   2.429   0.427   9.150 -1.1231 -1.7140  0.1340
 2548SOL    HW219107   2.315   0.466   9.058  0.2979  0.9144 -1.6803
 2549SOL     OW19108   2.395   1.814   2.321 -0.4290  0.8654  0.2947
 2549SOL    HW119109   2.387   1.735   2.267  1.8832  0.4533  0.5419
 2549SOL    HW219110   2.388   1.878   2.251 -0.2302  0.9826  0.3829
 2550SOL     OW19111   2.470   1.338   8.052  0.2318  0.2023  0.1077
 2550SOL    HW119112   2.526   1.321   8.128 -3.2401  0.5569  2.7090
 2550SOL    HW219113   2.525   1.376   7.983 -0.0716 -0.3212 -0.4244
 2551SOL     OW19114   1.301   3.354   8.068 -0.2005  0.2316  0.3203
 2551SOL    HW119115   1.244   3.386   7.998  1.1042 -1.1578 -1.3645
 2551SOL    HW219116   1.352   3.434   8.082 -3.1202  2.3942 -1.5816
 2552SOL     OW19117   1.620   1.573   9.189 -0.1559  0.4489  0.1205
 2552SOL    HW119118   1.534   1.584   9.148  0.0108 -2.0925 -0.9537
 2552SOL    HW219119   1.670   1.580   9.108  0.4425 -3.2003  0.1649
 2553SOL     OW19120   0.406   2.076   6.145 -0.1298 -0.1813 -0.0052
 2553SOL    HW119121   0.350   2.154   6.145 -1.4170 -1.1193 -0.8075
 2553SOL    HW219122   0.359   2.011   6.198  0.2133  0.4163  1.0489
 2554SOL     OW19123   2.392   0.899  10.337  0.4890 -0.2094  0.1633
 2554SOL    HW119124   2.435   0.813  10.338 -1.4351 -1.1689 -0.0828
 2554SOL    HW219125   2.331   0.880  10.408 -1.1879  1.1750 -0.9202
 2555SOL     OW19126   3.838   2.209   0.281  0.2454  0.4104 -0.3275
 2555SOL    HW119127   3.931   2.230   0.277 -0.1198  2.3442  1.1849
 2555SOL    HW219128   3.832   2.159   0.200  0.7866 -0.7400  0.3502
 2556SOL     OW19129   2.693   4.654   3.130  0.5859  0.5982 -0.5548
 2556SOL    HW119130   2.736   4.701   3.201  1.9303 -0.5598 -0.6089
 2556SOL    HW219131   2.604   4.647   3.162  0.0282  1.7525 -1.8402
 2557SOL     OW19132   3.664   4.355   2.390  0.0008 -0.0201  0.2875
 2557SOL    HW119133   3.581   4.313   2.411 -1.8477  3.1630 -0.7701
 2557SOL    HW219134   3.728   4.283   2.386 -1.1870 -1.0420 -0.4541
 2558SOL     OW19135   0.451   4.577  16.517  0.2091 -0.0476 -0.4421
 2558SOL    HW119136   0.374   4.632  16.530 -0.0173 -0.1957 -1.1712
 2558SOL    HW219137   0.432   4.511  16.585 -0.7988  1.8070  1.0855
 2559SOL     OW19138   2.461   2.977  10.754 -0.8739 -0.3074  0.3445
 2559SOL    HW119139   2.483   3.033  10.679  0.5304 -0.8856  0.3209
 2559SOL    HW219140   2.520   3.024  10.812  1.3400 -1.6918 -0.7588
 2560SOL     OW19141   0.937   2.910   7.154  0.1250 -0.6366  0.1944
 2560SOL    HW119142   0.900   2.822   7.142  1.9817 -1.5746  1.2718
 2560SOL    HW219143   1.024   2.879   7.180  0.1191 -0.2705  0.6615
 2561SOL     OW19144   4.598   1.527   7.406 -0.5901  0.0548 -0.7594
 2561SOL    HW119145   4.622   1.438   7.381 -0.7434  0.0172 -0.7695
 2561SOL    HW219146   4.523   1.516   7.464  0.1387  1.9244  0.5394
 2562SOL     OW19147   0.231   0.322  11.274 -0.6369 -0.3654 -0.0184
 2562SOL    HW119148   0.209   0.373  11.196 -0.2993  0.0037  0.1236
 2562SOL    HW219149   0.165   0.254  11.261 -1.2558  0.2847 -0.3083
 2563SOL     OW19150   1.457   0.550   2.656 -0.0188  0.4464  0.0214
 2563SOL    HW119151   1.517   0.614   2.618  0.2601  0.5365  0.6161
 2563SOL    HW219152   1.384   0.605   2.686 -0.5531 -0.2732  0.0384
 2564SOL     OW19153   1.412   1.582   9.647 -0.5563 -0.3103 -0.1201
 2564SOL    HW119154   1.330   1.606   9.603 -1.1566 -1.0435  0.5861
 2564SOL    HW219155   1.444   1.542   9.567 -1.6155 -1.0354 -0.1799
 2565SOL     OW19156   0.814   4.284   9.570  0.2656  0.4303 -0.0408
 2565SOL    HW119157   0.897   4.253   9.607  0.9909 -0.2002 -2.1695
 2565SOL    HW219158   0.827   4.378   9.555  0.5057  0.4711  0.4082
 2566SOL     OW19159   1.147   0.749   6.960  0.4043 -0.4051  0.6713
 2566SOL    HW119160   1.119   0.664   6.929  0.5732 -0.2358  0.0594
 2566SOL    HW219161   1.194   0.724   7.040  0.1044 -0.9691  0.6633
 2567SOL     OW19162   0.088   1.218   0.051 -0.1300 -0.0514  0.5788
 2567SOL    HW119163   0.056   1.225   0.141  3.6383  0.5407  1.8574
 2567SOL    HW219164   0.183   1.222   0.059 -0.2812  2.7935  0.9200
 2568SOL     OW19165   1.535   2.154   1.275  0.3854 -0.0464  0.3208
 2568SOL    HW119166   1.488   2.235   1.295  0.0782 -0.3887  0.9977
 2568SOL    HW219167   1.574   2.128   1.358  0.6340  1.0881  0.5516
 2569SOL     OW19168   2.751   1.771   2.668 -0.0873 -0.3835 -0.2424
 2569SOL    HW119169   2.815   1.710   2.705 -2.7825 -2.9840  0.1549
 2569SOL    HW219170   2.777   1.860   2.692  0.4067 -0.7909  0.7384
 2570SOL     OW19171   0.657   4.434   1.744 -0.4350 -1.0492 -0.1677
 2570SOL    HW119172   0.606   4.388   1.811  0.9685  2.3143  3.2537
 2570SOL    HW219173   0.602   4.510   1.723  1.0716  0.0336 -0.1805
 2571SOL     OW19174   3.597   2.670  15.356  0.1909 -0.3427 -0.1739
 2571SOL    HW119175   3.590   2.578  15.383  2.7563 -0.1947  1.0118
 2571SOL    HW219176   3.607   2.651  15.263 -1.0514 -0.2230 -0.3297
 2572SOL     OW19177   4.547   3.510   4.370  0.0418 -0.2949  0.1117
 2572SOL    HW119178   4.526   3.602   4.385  0.6801 -0.6004  2.8763
 2572SOL    HW219179   4.513   3.502   4.281 -1.0631  0.3037  0.4773
 2573SOL     OW19180   4.491   0.463   8.212 -0.3670 -0.3948  0.3204
 2573SOL    HW119181   4.474   0.475   8.305  1.0008  2.3051  0.2105
 2573SOL    HW219182   4.549   0.538   8.198  1.2301 -1.7281 -0.2302
 2574SOL     OW19183   1.622   4.135   1.631  0.1620 -0.6442  0.1339
 2574SOL    HW119184   1.530   4.162   1.620  1.0110  1.1635 -2.5315
 2574SOL    HW219185   1.645   4.105   1.543 -0.7606 -2.2466  0.4481
 2575SOL     OW19186   2.124   3.074   2.898  0.0112  0.2966  0.1802
 2575SOL    HW119187   2.030   3.090   2.904  0.0701  0.2478  1.1843
 2575SOL    HW219188   2.126   3.093   2.804  2.4051  1.4100  0.4328
 2576SOL     OW19189   2.769   4.653   5.152  0.0984  0.2900 -0.0405
 2576SOL    HW119190   2.838   4.658   5.085  0.5165  3.4668  0.6541
 2576SOL    HW219191   2.818   4.599   5.215 -1.6800 -0.8272  0.3755
 2577SOL     OW19192   4.351   2.205   4.743  0.3587  0.3010 -0.1582
 2577SOL    HW119193   4.408   2.137   4.706 -0.7374 -0.3227 -0.6968
 2577SOL    HW219194   4.402   2.233   4.819  1.3034 -2.0492  0.0848
 2578SOL     OW19195   0.210   2.261   6.150 -0.2227  0.4830  0.0189
 2578SOL    HW119196   0.129   2.210   6.149  2.1212 -3.3129 -0.0792
 2578SOL    HW219197   0.186   2.329   6.212  0.5745  0.3712  0.4478
 2579SOL     OW19198   3.344   3.191   7.129  0.7672 -0.3550 -0.4122
 2579SOL    HW119199   3.401   3.253   7.176  3.0487 -1.3402 -1.8596
 2579SOL    HW219200   3.369   3.213   7.039  0.9463  0.1410 -0.2456
 2580SOL     OW19201   0.038   2.567   4.780  0.3884  0.3142 -0.6009
 2580SOL    HW119202   0.066   2.647   4.823 -0.8199  0.0807  0.6504
 2580SOL    HW219203   0.081   2.576   4.695  1.2127  1.9336 -0.0090
 2581SOL     OW19204   0.285   3.403   9.190  0.2823  0.2149  0.1028
 2581SOL    HW119205   0.252   3.419   9.102  2.6335 -0.9121 -1.0064
 2581SOL    HW219206   0.278   3.308   9.196  1.4642  0.1693  0.8910
 2582SOL     OW19207   3.733   3.511   1.568 -0.0550  0.3288 -0.1398
 2582SOL    HW119208   3.719   3.561   1.649 -0.4231  0.4383 -0.2715
 2582SOL    HW219209   3.652   3.462   1.554 -0.7417  1.4858 -0.2681
 2583SOL     OW19210   4.605   1.378  11.836 -0.1911  0.4997 -0.3643
 2583SOL    HW119211   4.544   1.317  11.878  1.5854 -0.7224  0.4295
 2583SOL    HW219212   4.547   1.422  11.774 -1.1096  0.6321  0.5781
 2584SOL     OW19213   1.649   2.724   8.709  0.2600  0.4724 -0.5213
 2584SOL    HW119214   1.700   2.775   8.646  0.9488  2.4095  1.6120
 2584SOL    HW219215   1.618   2.792   8.769 -1.1920  0.6241 -1.4269
 2585SOL     OW19216   0.592   3.100   4.342  0.1485 -0.5458  0.4492
 2585SOL    HW119217   0.533   3.171   4.367 -1.0981 -1.3182 -0.2977
 2585SOL    HW219218   0.612   3.125   4.252  1.0873  0.0986  0.8383
 2586SOL     OW19219   0.287   0.403   0.097 -0.3246  0.1584  0.4462
 2586SOL    HW119220   0.209   0.399   0.152  0.0639 -0.7958  0.9343
 2586SOL    HW219221   0.264   0.478   0.042  0.7887  0.7730  0.8095
 2587SOL     OW19222   0.716   3.142   2.603  0.4212  0.3505 -0.2845
 2587SOL    HW119223   0.789   3.166   2.660  0.0442  0.3847  0.1826
 2587SOL    HW219224   0.750   3.182   2.522  3.8032  0.7284  1.3225
 2588SOL     OW19225   2.956   0.751   8.632  0.4534  0.4558 -0.0059
 2588SOL    HW119226   2.940   0.809   8.558 -1.6896 -0.2000 -0.0683
 2588SOL    HW219227   3.050   0.743   8.620  0.1663 -2.8658 -0.0416
 2589SOL     OW19228   2.334   4.368   2.859 -0.2280 -0.0721  0.0628
 2589SOL    HW119229   2.334   4.334   2.949  0.8903  0.6467  0.3370
 2589SOL    HW219230   2.423   4.401   2.852  0.8142 -2.2569  3.3300
 2590SOL     OW19231   3.505   2.075   5.620 -0.9602 -0.0818 -0.0854
 2590SOL    HW119232   3.429   2.105   5.570  0.0494  1.0027 -0.9696
 2590SOL    HW219233   3.576   2.094   5.559 -1.4618 -1.5030 -1.1040
 2591SOL     OW19234   3.867   2.062   4.295  0.2276 -0.0026 -0.2028
 2591SOL    HW119235   3.843   2.050   4.203  1.2001  1.8626 -0.6934
 2591SOL    HW219236   3.791   2.012   4.323  1.6733 -1.0061  1.9005
 2592SOL     OW19237   1.192   0.790   8.023  0.1851  0.1229 -0.5187
 2592SOL    HW119238   1.283   0.766   8.006  0.3544  0.8405 -0.6129
 2592SOL    HW219239   1.161   0.713   8.070 -0.4339  0.2292 -0.7594
 2593SOL     OW19240   1.832   4.669  12.142  0.1605 -0.0739  0.5815
 2593SOL    HW119241   1.849   0.028  12.194  1.6252  0.0177 -0.0472
 2593SOL    HW219242   1.757   4.700  12.092 -0.4518  0.6966  1.9815
 2594SOL     OW19243   0.920   2.595   7.733  0.4425 -0.3757 -0.6909
 2594SOL    HW119244   0.914   2.651   7.656  0.0131  0.8446  0.2282
 2594SOL    HW219245   0.968   2.651   7.794  0.7932  0.5803 -1.8487
 2595SOL     OW19246   2.864   0.633   4.039 -0.4236  0.3222 -0.2141
 2595SOL    HW119247   2.865   0.574   3.963  0.7224  1.1667 -0.8609
 2595SOL    HW219248   2.858   0.569   4.110 -0.4651  0.4626 -0.0916
 2596SOL     OW19249   1.520   1.901   2.278  0.5121  0.1510  0.0267
 2596SOL    HW119250   1.552   1.845   2.208 -1.0405  0.8248 -1.2426
 2596SOL    HW219251   1.586   1.886   2.345  0.4257  0.0682  0.0937
 2597SOL     OW19252   1.373   3.342   3.692  0.3574  0.0406  0.4604
 2597SOL    HW119253   1.394   3.302   3.608 -1.5641 -1.2529  0.6078
 2597SOL    HW219254   1.346   3.263   3.739  0.4209 -0.4018 -0.2541
 2598SOL     OW19255   1.661   4.576   1.167  0.2002  0.8102  0.2031
 2598SOL    HW119256   1.584   4.624   1.198  0.2710  1.4622 -0.6284
 2598SOL    HW219257   1.660   4.598   1.074  0.4945  0.8389  0.2080
 2599SOL     OW19258   2.665   1.076   2.226  0.8228  0.0059  0.4665
 2599SOL    HW119259   2.651   1.151   2.283 -0.2990 -1.5544  2.2748
 2599SOL    HW219260   2.611   1.006   2.263 -1.1793  0.4420 -1.6528
 2600SOL     OW19261   4.307   2.772   2.440  0.1719  0.2260  0.2031
 2600SOL    HW119262   4.309   2.800   2.532 -0.4630 -0.8034  0.5246
 2600SOL    HW219263   4.395   2.735   2.435  1.1506  2.5232  0.3290
 2601SOL     OW19264   2.985   0.699   2.385 -0.3885  0.3835 -0.5556
 2601SOL    HW119265   2.974   0.718   2.292 -0.4368  1.8749 -0.2443
 2601SOL    HW219266   2.926   0.626   2.400 -0.0316  0.3760  0.8693
 2602SOL     OW19267   2.941   2.121   9.891 -0.5726 -0.1448 -0.3351
 2602SOL    HW119268   2.925   2.053   9.826 -0.7674 -0.7252  0.3227
 2602SOL    HW219269   2.904   2.199   9.850 -3.3363  0.4515  3.2898
 2603SOL     OW19270   1.613   3.905   3.881  0.6591  0.3392  0.1118
 2603SOL    HW119271   1.563   3.882   3.803  1.8333 -1.8094  0.0054
 2603SOL    HW219272   1.650   3.989   3.852 -1.3370  1.1207 -0.1677
 2604SOL     OW19273   1.640   1.332   1.377 -0.0751 -0.3722  0.2621
 2604SOL    HW119274   1.557   1.377   1.391 -0.3367 -0.9210  0.5111
 2604SOL    HW219275   1.654   1.274   1.452  2.0107  1.7550  1.5166
 2605SOL     OW19276   3.461   1.362   5.437  0.3090  0.2608  0.2418
 2605SOL    HW119277   3.388   1.383   5.495 -1.6110 -0.2517 -1.9692
 2605SOL    HW219278   3.533   1.412   5.476 -0.2856  1.4628 -0.2252
 2606SOL     OW19279   2.762   0.820   5.865 -0.1445  0.5050  0.6250
 2606SOL    HW119280   2.717   0.836   5.782  1.2215  0.1927 -0.1667
 2606SOL    HW219281   2.701   0.775   5.924 -0.0005 -1.8055 -0.9693
 2607SOL     OW19282   3.574   2.085  12.078  0.1477 -0.0617 -0.4673
 2607SOL    HW119283   3.660   2.100  12.117 -0.0479 -0.6440  0.1720
 2607SOL    HW219284   3.526   2.080  12.160 -1.3604 -0.1823 -1.3682
 2608SOL     OW19285   1.845   4.601   5.854  0.7770  0.0876  0.4663
 2608SOL    HW119286   1.759   4.631   5.825  0.3394 -0.6927  0.9750
 2608SOL    HW219287   1.841   4.509   5.830 -0.6275  0.8570 -2.1960
 2609SOL     OW19288   2.559   2.936   3.834  0.0589 -0.0752  0.2626
 2609SOL    HW119289   2.655   2.933   3.833  0.0829  0.7234  0.2515
 2609SOL    HW219290   2.528   2.969   3.750  2.5256 -1.7667 -1.3072
 2610SOL     OW19291   3.425   1.376   2.837  0.1080 -0.9170 -0.5563
 2610SOL    HW119292   3.347   1.343   2.793 -0.2002 -1.1729  0.1890
 2610SOL    HW219293   3.496   1.359   2.775 -0.2343 -1.2676 -0.8541
 2611SOL     OW19294   1.482   2.009   5.847  0.6606  0.0469  0.0377
 2611SOL    HW119295   1.445   1.933   5.802 -0.9486  2.5707 -2.9198
 2611SOL    HW219296   1.446   2.002   5.935 -0.8028  1.8501 -0.4088
 2612SOL     OW19297   0.199   3.704   4.453 -0.2349 -0.2818 -0.5865
 2612SOL    HW119298   0.184   3.790   4.415  1.1856 -0.7254 -2.1323
 2612SOL    HW219299   0.199   3.724   4.546  1.2609  1.3238 -0.9449
 2613SOL     OW19300   1.752   0.453  11.577  0.3724  0.1465 -0.8816
 2613SOL    HW119301   1.689   0.523  11.559 -0.2969  0.0404  1.0775
 2613SOL    HW219302   1.819   0.463  11.510 -0.8147  0.2518 -2.0475
 2614SOL     OW19303   2.859   3.514   3.702 -0.2851 -0.3313  0.4078
 2614SOL    HW119304   2.848   3.554   3.616 -0.5250 -0.3555  0.4283
 2614SOL    HW219305   2.925   3.445   3.690 -1.6413 -1.2222 -1.9666
 2615SOL     OW19306   2.779   2.330   2.828 -0.3457  0.0158  0.4632
 2615SOL    HW119307   2.819   2.316   2.742  0.7447  1.7662  0.6828
 2615SOL    HW219308   2.701   2.275   2.834  0.5836 -1.4062 -0.4064
 2616SOL     OW19309   4.634   0.529  16.657  0.0453 -0.1628 -0.2585
 2616SOL    HW119310   0.003   0.543  16.623 -0.4540  0.8217 -1.1624
 2616SOL    HW219311   4.592   0.513  16.573 -0.2522 -2.2437  0.2843
 2617SOL     OW19312   0.602   1.910   4.295  0.2775 -0.3431  0.3761
 2617SOL    HW119313   0.614   2.003   4.314 -0.5245  0.1450 -1.5085
 2617SOL    HW219314   0.693   1.884   4.309 -0.1968 -1.7150  0.9499
 2618SOL     OW19315   3.893   2.803   2.580 -0.4241 -0.1888 -0.1136
 2618SOL    HW119316   3.880   2.879   2.524 -0.7108 -1.9257 -2.4406
 2618SOL    HW219317   3.914   2.729   2.522 -1.1507  0.9334 -1.7832
 2619SOL     OW19318   4.040   2.653  10.863 -0.4605 -0.2256 -0.2611
 2619SOL    HW119319   4.038   2.735  10.814  2.6442  0.1215  0.2302
 2619SOL    HW219320   3.981   2.673  10.935  0.6198  1.4732  0.1439
 2620SOL     OW19321   1.745   2.579   3.093  0.0587  0.2858  0.9274
 2620SOL    HW119322   1.663   2.598   3.046  0.4049  1.3417  0.7324
 2620SOL    HW219323   1.715   2.503   3.142 -2.0168 -0.1492 -1.0014
 2621SOL     OW19324   2.224   3.680  10.031 -0.4965 -0.0435 -0.1301
 2621SOL    HW119325   2.318   3.680  10.050 -0.2963 -0.1080 -1.1157
 2621SOL    HW219326   2.196   3.733  10.105  0.1250  0.2647 -0.1147
 2622SOL     OW19327   0.883   0.464   3.322 -0.1169 -0.3851 -0.2700
 2622SOL    HW119328   0.978   0.469   3.332 -0.5606  1.7258  2.8492
 2622SOL    HW219329   0.858   0.556   3.314  2.2332  0.2386 -0.2965
 2623SOL     OW19330   3.618   4.702   6.752  0.1418 -0.0200 -0.0342
 2623SOL    HW119331   3.540   0.022   6.715 -1.2987 -1.9885  0.8802
 2623SOL    HW219332   3.583   4.620   6.789  0.9238 -0.9227 -1.2701
 2624SOL     OW19333   2.122   0.542   5.216  0.4462  0.8214 -0.1635
 2624SOL    HW119334   2.092   0.455   5.244 -2.4049  1.4195 -1.3615
 2624SOL    HW219335   2.139   0.527   5.123  1.0851  0.3315  0.0336
 2625SOL     OW19336   0.851   0.907   0.043 -0.1220  0.2151 -0.5851
 2625SOL    HW119337   0.845   0.845   0.117  1.1408  0.2440 -0.4578
 2625SOL    HW219338   0.945   0.917   0.029  0.3039 -1.4683  0.9630
 2626SOL     OW19339   1.187   3.959   4.721  0.2250  0.0749  0.0678
 2626SOL    HW119340   1.221   4.026   4.661 -0.8025  1.5634  1.1433
 2626SOL    HW219341   1.268   3.923   4.756  1.0396  2.1319  0.3208
 2627SOL     OW19342   2.485   0.439  13.619  0.5894 -0.4352 -0.1972
 2627SOL    HW119343   2.534   0.361  13.645 -1.4393 -1.1158  1.5633
 2627SOL    HW219344   2.433   0.421  13.541  1.2354  0.5447 -0.8618
 2628SOL     OW19345   1.931   0.996   2.711  0.3921 -0.3292 -0.7680
 2628SOL    HW119346   1.934   0.948   2.628 -0.2685 -0.8667 -0.4801
 2628SOL    HW219347   1.849   1.045   2.713  0.6472  0.1233 -1.2269
 2629SOL     OW19348   1.607   0.436   7.996 -0.5292  0.3837  0.1066
 2629SOL    HW119349   1.693   0.395   7.998 -1.2366 -1.0111  1.7263
 2629SOL    HW219350   1.585   0.452   8.088 -3.0390 -2.8850  0.0919
 2630SOL     OW19351   1.006   2.976  16.837  0.1029  0.0640 -0.0977
 2630SOL    HW119352   1.068   2.941  16.774  0.0753  1.6710 -1.0017
 2630SOL    HW219353   1.067   3.023  16.893 -0.2810  0.1669  0.2364
 2631SOL     OW19354   4.615   3.498   8.018 -0.4107  0.2388  0.5566
 2631SOL    HW119355   4.631   3.501   7.923 -1.9314  1.9798  0.3672
 2631SOL    HW219356   4.694   3.541   8.051  0.5318  0.2822 -1.7530
 2632SOL     OW19357   0.109   2.720   7.399 -0.1943  0.2405 -0.3874
 2632SOL    HW119358   0.124   2.783   7.470 -0.7044  0.6019 -0.5962
 2632SOL    HW219359   0.029   2.758   7.362 -1.7803 -1.0499  1.7241
 2633SOL     OW19360   4.151   0.304   3.870 -0.8162 -0.2485  0.1204
 2633SOL    HW119361   4.199   0.385   3.851  0.7186 -1.3402 -0.6034
 2633SOL    HW219362   4.084   0.336   3.932 -0.8219 -0.4737  0.2301
 2634SOL     OW19363   3.559   3.122   0.614  0.3475  0.0453  0.5233
 2634SOL    HW119364   3.512   3.047   0.578  0.3243  1.6747 -2.8895
 2634SOL    HW219365   3.551   3.102   0.707 -0.3854  0.3489  0.5235
 2635SOL     OW19366   2.310   4.336   8.053 -0.5845  0.0110 -0.3653
 2635SOL    HW119367   2.229   4.325   8.103 -1.2343  0.6463 -1.2911
 2635SOL    HW219368   2.350   4.250   8.046  1.2079  0.8410 -0.3237
 2636SOL     OW19369   2.852   3.942   3.922 -0.0140 -0.0265  0.5349
 2636SOL    HW119370   2.920   3.905   3.978 -0.3560 -0.8320  0.4252
 2636SOL    HW219371   2.886   3.920   3.836 -0.5590  3.6862 -0.6404
 2637SOL     OW19372   0.652   0.633   2.047  0.2978 -0.1021 -0.0057
 2637SOL    HW119373   0.712   0.669   2.112 -0.4813  0.1552  0.5781
 2637SOL    HW219374   0.589   0.581   2.098  0.5231 -1.0768 -0.7314
 2638SOL     OW19375   0.609   0.470   4.536 -0.3900 -0.2960  0.0201
 2638SOL    HW119376   0.622   0.561   4.510 -0.0864 -0.2480  0.3368
 2638SOL    HW219377   0.697   0.435   4.518  0.1289  0.6619  0.6989
 2639SOL     OW19378   1.617   1.139   7.175 -0.1285  0.2060  0.4918
 2639SOL    HW119379   1.652   1.223   7.205  0.3740  0.6755 -1.3826
 2639SOL    HW219380   1.681   1.078   7.213 -0.4955  0.8034  2.0628
 2640SOL     OW19381   2.732   2.534  11.246  0.1484  0.0029 -0.1104
 2640SOL    HW119382   2.745   2.534  11.341  0.3266 -0.8816 -0.1357
 2640SOL    HW219383   2.680   2.453  11.243 -0.2115  0.2634 -0.8547
 2641SOL     OW19384   0.805   0.725   3.258  0.4092 -0.0690 -0.0707
 2641SOL    HW119385   0.796   0.819   3.274  0.6361  0.1048 -0.9413
 2641SOL    HW219386   0.719   0.707   3.218 -0.8041  0.8354  2.1562
 2642SOL     OW19387   3.281   2.281   9.369 -0.4224 -0.5158  0.3860
 2642SOL    HW119388   3.286   2.253   9.278 -2.7615  2.8020 -0.7626
 2642SOL    HW219389   3.344   2.353   9.367 -1.4381  0.3722  0.1521
 2643SOL     OW19390   0.564   4.023   7.121 -0.5343 -0.7208  0.3446
 2643SOL    HW119391   0.659   4.015   7.125 -0.6840 -2.9425 -0.1734
 2643SOL    HW219392   0.540   3.949   7.065  1.2494 -3.6140  3.3554
 2644SOL     OW19393   0.007   3.634  14.394 -0.5274  0.1941  0.2397
 2644SOL    HW119394   4.632   3.644  14.383 -0.3618  1.0878 -0.3264
 2644SOL    HW219395   0.012   3.585  14.476  1.0373 -0.4713 -0.2628
 2645SOL     OW19396   1.763   3.998   7.495 -0.5571 -0.2098 -0.2532
 2645SOL    HW119397   1.712   3.918   7.509  0.6271 -0.6697  1.4247
 2645SOL    HW219398   1.782   4.004   7.401  0.1207 -0.8117 -0.1608
 2646SOL     OW19399   4.624   4.143   2.993  0.3721  0.3071 -0.7855
 2646SOL    HW119400   4.631   4.207   2.922  1.2799  2.6798  1.4192
 2646SOL    HW219401   4.707   4.158   3.039 -0.0854  0.3228  0.0369
 2647SOL     OW19402   3.013   4.666   1.156 -0.0689 -0.1872  0.0687
 2647SOL    HW119403   3.015   0.014   1.089 -1.8716 -0.4220 -0.2404
 2647SOL    HW219404   3.062   4.716   1.221  0.6091 -1.3050  0.4075
 2648SOL     OW19405   1.921   0.870  17.010 -0.0099 -0.5783 -0.1112
 2648SOL    HW119406   1.924   0.942  16.947  1.5585 -1.1923 -0.7431
 2648SOL    HW219407   2.008   0.871  17.051  0.5858 -3.4554 -1.2596
 2649SOL     OW19408   1.787   3.183   9.258 -0.5480  0.0700  0.0817
 2649SOL    HW119409   1.802   3.231   9.339 -0.2205 -0.6206  0.4332
 2649SOL    HW219410   1.698   3.153   9.277 -1.7487  3.4584 -0.1315
 2650SOL     OW19411   2.954   0.531  11.437  0.6545 -0.2467 -0.8450
 2650SOL    HW119412   3.026   0.502  11.492  1.0333  1.2934 -0.5314
 2650SOL    HW219413   2.900   0.452  11.437 -0.2096  0.3592  2.8559
 2651SOL     OW19414   4.193   2.347  10.915 -0.5242 -0.0325  0.0092
 2651SOL    HW119415   4.285   2.349  10.941 -0.0080  0.7372 -1.8883
 2651SOL    HW219416   4.182   2.394  10.833  0.6639 -0.7688 -0.5623
 2652SOL     OW19417   1.019   3.399   3.570 -0.0575 -0.0035  0.3145
 2652SOL    HW119418   1.054   3.310   3.574 -3.7227 -1.5628 -1.4176
 2652SOL    HW219419   0.996   3.416   3.478  2.0563 -1.1797 -0.4174
 2653SOL     OW19420   4.250   2.690   6.356  0.1903  0.5375  0.3464
 2653SOL    HW119421   4.166   2.720   6.322 -0.2230 -0.9540  0.0610
 2653SOL    HW219422   4.304   2.679   6.277 -1.5535 -1.9703 -0.4777
 2654SOL     OW19423   3.794   1.515   4.537 -0.2227 -0.0908  0.4700
 2654SOL    HW119424   3.730   1.518   4.465  0.4347 -2.0113 -0.1831
 2654SOL    HW219425   3.867   1.528   4.476  0.5385  2.4759  1.9309
 2655SOL     OW19426   4.571   1.057  10.997 -0.4145  0.1560 -0.1306
 2655SOL    HW119427   4.557   0.963  10.981 -0.7442 -0.3555  3.1925
 2655SOL    HW219428   4.650   1.048  11.050 -1.7622 -0.0331  1.8246
 2656SOL     OW19429   2.351   3.332  17.574  0.5311  0.2573 -0.6004
 2656SOL    HW119430   2.400   3.415  17.583 -1.4985  1.5855 -1.8681
 2656SOL    HW219431   2.342   3.313  17.481 -1.9558 -1.6927  0.0652
 2657SOL     OW19432   2.177   2.349  13.815  0.4597 -0.3769 -0.0441
 2657SOL    HW119433   2.254   2.310  13.772 -1.0259 -2.2525 -0.9969
 2657SOL    HW219434   2.207   2.340  13.905 -1.0647  0.6217  0.5392
 2658SOL     OW19435   0.980   2.414   7.496  0.3298 -0.1383 -0.3050
 2658SOL    HW119436   0.982   2.391   7.589 -0.2684 -0.4182 -0.3603
 2658SOL    HW219437   1.055   2.473   7.497 -0.2498  0.5892  0.1373
 2659SOL     OW19438   2.883   3.605   4.998  0.2593  0.5614 -0.0467
 2659SOL    HW119439   2.797   3.624   5.035 -0.4019  1.3062 -1.9388
 2659SOL    HW219440   2.928   3.678   5.040 -2.2298  2.3784 -0.5910
 2660SOL     OW19441   1.123   1.331   4.601 -0.0903  0.0540 -0.5962
 2660SOL    HW119442   1.117   1.350   4.695  0.0324  0.7579 -0.7258
 2660SOL    HW219443   1.217   1.333   4.582  0.1647 -0.8800  0.5980
 2661SOL     OW19444   3.311   4.312   8.372 -0.4609 -0.4857 -0.1598
 2661SOL    HW119445   3.263   4.241   8.331 -0.0578 -1.9651  1.9463
 2661SOL    HW219446   3.239   4.363   8.410  0.9329  1.0352  0.4620
 2662SOL     OW19447   2.219   0.360  17.638 -0.4146  0.3307 -0.7261
 2662SOL    HW119448   2.149   0.394   0.013 -1.0302  0.9731 -1.9003
 2662SOL    HW219449   2.204   0.266  17.652  3.7013  0.0847  1.9700
 2663SOL     OW19450   0.588   3.777  13.116 -0.8070  0.6897 -0.4795
 2663SOL    HW119451   0.670   3.761  13.069  0.8170  0.2183  2.5267
 2663SOL    HW219452   0.533   3.700  13.098  2.1080 -1.6252  0.5230
 2664SOL     OW19453   2.437   1.401   4.419  0.9302  0.5521 -0.2766
 2664SOL    HW119454   2.533   1.400   4.414  0.7599 -0.6858 -3.2641
 2664SOL    HW219455   2.421   1.375   4.328  1.1422 -2.2326  0.4655
 2665SOL     OW19456   3.515   2.729   3.982 -0.3999  0.4060  0.0435
 2665SOL    HW119457   3.510   2.776   4.065 -0.6802  1.0044 -0.3164
 2665SOL    HW219458   3.548   2.646   4.018 -0.6345  0.8627  1.2761
 2666SOL     OW19459   2.680   1.597   3.450 -0.4359  0.1463 -0.2833
 2666SOL    HW119460   2.747   1.615   3.384  1.8024  0.1577  1.9626
 2666SOL    HW219461   2.740   1.578   3.523 -0.1277 -0.7307 -0.7633
 2667SOL     OW19462   0.681   0.410   8.265 -0.4683  0.3561 -0.6736
 2667SOL    HW119463   0.589   0.421   8.286 -0.2995 -0.1212  0.3026
 2667SOL    HW219464   0.688   0.472   8.192  1.3285  1.4754  0.4245
 2668SOL     OW19465   1.833   2.472   0.682 -0.0763 -0.1319  0.4424
 2668SOL    HW119466   1.746   2.500   0.653  0.7054  0.7065 -1.1294
 2668SOL    HW219467   1.881   2.462   0.599 -1.4677 -0.1735 -0.3594
 2669SOL     OW19468   1.123   4.551  12.808 -0.3222 -0.5465 -0.5448
 2669SOL    HW119469   1.131   4.579  12.899 -1.2048  1.8434 -1.2106
 2669SOL    HW219470   1.155   4.461  12.816  0.8621 -0.2584 -2.0016
 2670SOL     OW19471   1.515   3.731   8.996  0.0675 -0.0748  0.1225
 2670SOL    HW119472   1.437   3.749   9.049  0.3683  1.4794  0.0511
 2670SOL    HW219473   1.472   3.712   8.913 -1.8438 -0.8128  1.2927
 2671SOL     OW19474   4.547   4.025   3.440 -0.1119 -0.5182 -0.1861
 2671SOL    HW119475   4.466   4.047   3.395 -0.1417  0.4812  0.3567
 2671SOL    HW219476   4.589   4.110   3.429  1.4042 -1.0989  0.9332
 2672SOL     OW19477   1.856   2.119  10.375 -0.0924  0.0865  0.4874
 2672SOL    HW119478   1.788   2.056  10.397 -0.9593  0.7584 -0.2586
 2672SOL    HW219479   1.925   2.053  10.372 -0.2615 -0.2031  2.8758
 2673SOL     OW19480   4.194   0.595   3.544  0.1829 -0.0489  0.0813
 2673SOL    HW119481   4.244   0.673   3.519 -1.0748  0.5752 -0.4788
 2673SOL    HW219482   4.221   0.575   3.634  3.4999  0.8227 -0.7194
 2674SOL     OW19483   2.504   3.284   0.949  0.3482  0.8400  0.0805
 2674SOL    HW119484   2.553   3.272   0.868 -0.6047 -1.8745 -0.1102
 2674SOL    HW219485   2.411   3.293   0.929  0.1289  0.9759  1.1260
 2675SOL     OW19486   1.350   0.504   3.095 -0.0598  0.4228 -0.2885
 2675SOL    HW119487   1.441   0.528   3.074  0.3149 -0.5330  0.2411
 2675SOL    HW219488   1.318   0.593   3.078  2.4308  1.1231 -1.4304
 2676SOL     OW19489   3.063   1.859   3.687  0.0417 -0.7305  0.3395
 2676SOL    HW119490   3.036   1.773   3.653 -2.2099 -0.1041  0.4956
 2676SOL    HW219491   3.137   1.875   3.629 -1.3934  0.0569 -1.2580
 2677SOL     OW19492   3.068   0.046  10.555 -0.2254  0.3607  0.3820
 2677SOL    HW119493   3.081   0.082  10.467 -1.9793  3.2274  1.2875
 2677SOL    HW219494   3.081   4.671  10.551 -0.2155  0.3142  1.4953
 2678SOL     OW19495   4.008   2.768   2.059  0.2201  0.1280  0.0239
 2678SOL    HW119496   3.989   2.857   2.031 -1.3125  0.3866  1.9143
 2678SOL    HW219497   3.996   2.770   2.154  1.5938 -1.0991  0.2341
 2679SOL     OW19498   2.990   1.379  12.630  0.1501  0.1535  0.4926
 2679SOL    HW119499   3.000   1.474  12.638 -0.4514  0.1186  1.6835
 2679SOL    HW219500   3.036   1.362  12.548  0.9407  0.5059  0.8583
 2680SOL     OW19501   4.670   2.696   3.816 -0.1623  0.2729  0.2839
 2680SOL    HW119502   4.698   2.679   3.726 -1.1650 -0.4615  0.1054
 2680SOL    HW219503   4.577   2.714   3.804 -0.5079 -0.7232  1.4433
 2681SOL     OW19504   3.102   0.053   3.946  0.6814  0.0626 -0.2740
 2681SOL    HW119505   3.164   0.116   3.911 -1.3818  1.1970 -1.8868
 2681SOL    HW219506   3.084   0.004   3.866  0.9170 -1.7450  0.7845
 2682SOL     OW19507   3.579   3.091   4.881  0.0055  0.5621 -0.0023
 2682SOL    HW119508   3.628   3.127   4.807  1.7459 -1.4149  0.1735
 2682SOL    HW219509   3.561   3.173   4.927 -0.0176  1.0480 -0.8786
 2683SOL     OW19510   1.502   2.619   2.659 -0.5590  0.6330 -0.2348
 2683SOL    HW119511   1.410   2.643   2.656 -0.4709  0.9823 -0.1353
 2683SOL    HW219512   1.547   2.685   2.712  1.9540 -0.4900 -0.9641
 2684SOL     OW19513   1.013   3.949   6.766  0.5029  0.0450 -0.1369
 2684SOL    HW119514   1.090   4.007   6.772  1.4488 -1.4988  2.9273
 2684SOL    HW219515   1.040   3.881   6.704  1.7931 -0.3712  0.8736
 2685SOL     OW19516   0.278   1.209   9.176  0.4842 -0.4803  0.1631
 2685SOL    HW119517   0.317   1.160   9.249 -1.8932  0.3140  1.9699
 2685SOL    HW219518   0.184   1.212   9.196 -0.0806  4.2227 -3.2129
 2686SOL     OW19519   2.752   0.696  11.566  0.1703  0.5975 -0.0204
 2686SOL    HW119520   2.819   0.634  11.537 -0.1846 -0.1752  0.8195
 2686SOL    HW219521   2.740   0.676  11.659 -2.6545  0.8149 -0.3530
 2687SOL     OW19522   3.148   3.564  10.233 -0.3685 -0.3065 -0.7752
 2687SOL    HW119523   3.208   3.625  10.275 -1.1134 -0.7102  0.8722
 2687SOL    HW219524   3.070   3.564  10.289 -1.3033 -0.2323 -2.0901
 2688SOL     OW19525   0.775   2.427   4.168  0.5396  0.1098 -0.5886
 2688SOL    HW119526   0.714   2.455   4.099 -1.5493  0.7560  1.5401
 2688SOL    HW219527   0.767   2.333   4.153 -0.5521  0.1998 -0.5373
 2689SOL     OW19528   3.049   3.958   1.592 -0.6858  0.0010  0.5906
 2689SOL    HW119529   3.013   3.914   1.516 -0.0357 -0.0992  0.3388
 2689SOL    HW219530   3.075   4.044   1.559 -1.4769  0.5820  1.4778
 2690SOL     OW19531   2.173   4.445   9.017 -0.6293 -0.6329  0.0511
 2690SOL    HW119532   2.212   4.364   9.050  2.0522  0.2750 -0.9033
 2690SOL    HW219533   2.085   4.439   9.054 -0.1833 -1.2182  1.0234
 2691SOL     OW19534   1.040   2.548   5.765 -0.6397 -0.4212  0.2016
 2691SOL    HW119535   0.977   2.619   5.772 -0.0203  0.1547 -0.0702
 2691SOL    HW219536   1.098   2.589   5.700  2.6373 -0.7029  2.9705
 2692SOL     OW19537   4.148   4.163   4.131  0.2063 -0.0421  1.0232
 2692SOL    HW119538   4.110   4.094   4.185 -2.5603 -0.1519 -1.0331
 2692SOL    HW219539   4.132   4.123   4.045  0.6254  4.5415 -1.1843
 2693SOL     OW19540   3.796   1.956   0.858  0.4736 -0.2743  0.6363
 2693SOL    HW119541   3.768   1.910   0.778 -0.3585  0.4662  0.5042
 2693SOL    HW219542   3.888   1.973   0.841  0.0867  0.1378 -1.1231
 2694SOL     OW19543   3.406   2.602   2.653 -0.4857  0.0443  0.2395
 2694SOL    HW119544   3.445   2.526   2.610 -0.1716 -0.0600  0.7168
 2694SOL    HW219545   3.443   2.677   2.607 -1.8251  1.0389  0.7907
 2695SOL     OW19546   3.109   3.954   7.723 -0.6946  0.5359  0.3517
 2695SOL    HW119547   3.173   3.961   7.794 -0.2595  1.1037 -0.0963
 2695SOL    HW219548   3.029   3.996   7.753 -0.2864  1.1326  0.6070
 2696SOL     OW19549   1.673   3.766  12.838  0.1497 -0.2021 -0.3129
 2696SOL    HW119550   1.636   3.820  12.768 -0.2189  0.3304  0.2921
 2696SOL    HW219551   1.754   3.817  12.847  1.0497 -1.6308 -0.2417
 2697SOL     OW19552   4.703   4.171   3.747 -0.6677 -0.1571  0.1401
 2697SOL    HW119553   4.699   4.267   3.746  1.5943 -0.0975 -1.2125
 2697SOL    HW219554   4.619   4.146   3.707  0.6402 -1.2839 -1.8733
 2698SOL     OW19555   2.285   1.739   3.991  0.1353  0.1831 -0.5211
 2698SOL    HW119556   2.296   1.834   3.990  0.3085  0.1678 -0.1957
 2698SOL    HW219557   2.331   1.722   4.073  1.2255 -0.8797 -1.3464
 2699SOL     OW19558   2.082   2.104   8.393  0.5538  0.0816  0.8092
 2699SOL    HW119559   2.146   2.038   8.420 -1.7917 -2.8050 -0.7313
 2699SOL    HW219560   2.072   2.079   8.301  0.0564 -0.3619  0.9816
 2700SOL     OW19561   2.170   3.244  12.672 -0.2113 -0.3440  0.3460
 2700SOL    HW119562   2.155   3.217  12.582  0.1936 -0.1649  0.2247
 2700SOL    HW219563   2.265   3.242  12.679 -0.1969 -1.5319 -0.2854
 2701SOL     OW19564   4.113   1.970   8.427 -0.0478 -0.1499  0.4165
 2701SOL    HW119565   4.019   1.987   8.415 -0.2087 -0.3990  1.3364
 2701SOL    HW219566   4.109   1.888   8.378  1.5798  0.0771 -0.0874
 2702SOL     OW19567   1.306   4.411  11.017  0.1284  0.0171  0.1542
 2702SOL    HW119568   1.390   4.405  10.973  0.9012 -0.7950  1.7222
 2702SOL    HW219569   1.307   4.506  11.033  1.0484  0.1495 -0.6806
 2703SOL     OW19570   1.828   3.447  15.513  0.5172  0.1291 -0.0996
 2703SOL    HW119571   1.871   3.415  15.592  0.3378  0.2690  0.0587
 2703SOL    HW219572   1.885   3.520  15.489 -0.2306  0.8636  0.3085
 2704SOL     OW19573   4.558   2.668   2.422 -0.4542 -0.0435  0.2548
 2704SOL    HW119574   4.567   2.683   2.517  1.0654  2.1807 -0.2485
 2704SOL    HW219575   4.640   2.711   2.397 -0.0616 -0.1410  1.3542
 2705SOL     OW19576   1.943   0.052   5.098 -0.2837  0.0386 -0.1433
 2705SOL    HW119577   1.921   4.682   5.121 -0.5902  0.3844  0.9173
 2705SOL    HW219578   1.866   0.081   5.048 -0.5982  2.3555  1.6564
 2706SOL     OW19579   4.681   2.151  10.545  0.4437  0.0256 -0.1856
 2706SOL    HW119580   4.698   2.066  10.505 -0.1370  0.4148 -1.2774
 2706SOL    HW219581   4.658   2.199  10.465  0.2682  0.5073  0.1505
 2707SOL     OW19582   3.729   3.260   4.687 -0.4079  0.0003 -0.2863
 2707SOL    HW119583   3.698   3.351   4.679  0.2869  0.2054 -0.6752
 2707SOL    HW219584   3.742   3.248   4.593 -0.6737 -0.7489 -0.2260
 2708SOL     OW19585   4.686   3.201   6.238 -0.0089  0.4483 -0.2673
 2708SOL    HW119586   4.695   3.127   6.177 -4.3417  0.2932 -0.7589
 2708SOL    HW219587   4.614   3.250   6.199 -0.8458  0.6061  1.4697
 2709SOL     OW19588   4.579   0.811  16.304  0.2082  0.3365 -0.8051
 2709SOL    HW119589   4.583   0.732  16.250 -2.8571  0.2561 -0.9104
 2709SOL    HW219590   4.656   0.858  16.271 -0.9286  1.2961 -2.0936
 2710SOL     OW19591   0.527   1.455   7.952 -0.1601 -0.4238 -0.0573
 2710SOL    HW119592   0.613   1.455   7.993 -0.0277 -0.1546 -0.3324
 2710SOL    HW219593   0.498   1.534   7.998 -0.2714 -0.2395 -0.4414
 2711SOL     OW19594   2.219   0.714   5.869 -0.1531 -0.5435 -0.1813
 2711SOL    HW119595   2.217   0.766   5.789  0.0399  0.7645  0.6665
 2711SOL    HW219596   2.288   0.749   5.926 -0.2030 -0.2567 -0.2978
 2712SOL     OW19597   0.910   2.134  11.455 -0.5224 -0.3507 -0.8539
 2712SOL    HW119598   0.988   2.133  11.399  0.5626  0.1285  0.6307
 2712SOL    HW219599   0.854   2.073  11.407 -2.1466  0.3516  0.1724
 2713SOL     OW19600   2.374   3.232  10.418  0.2141 -0.3201  0.1054
 2713SOL    HW119601   2.333   3.207  10.335 -1.7160  1.5852  0.4895
 2713SOL    HW219602   2.386   3.325  10.399  0.0235  0.3210  3.0571
 2714SOL     OW19603   1.950   2.618   6.974  0.2645  0.2184  0.3746
 2714SOL    HW119604   1.896   2.672   7.031  3.0369  2.7456  0.6265
 2714SOL    HW219605   1.891   2.559   6.928  1.8808 -0.4970 -0.7787
 2715SOL     OW19606   0.810   4.068   6.620  0.0417  0.1434 -1.0514
 2715SOL    HW119607   0.871   4.108   6.558 -1.7095  2.7615 -1.0813
 2715SOL    HW219608   0.863   4.012   6.677 -0.2147  0.1142 -0.8427
 2716SOL     OW19609   1.480   1.683   7.703 -0.4299 -0.4010  0.1271
 2716SOL    HW119610   1.559   1.686   7.756  0.3103  1.1338 -1.0364
 2716SOL    HW219611   1.415   1.669   7.772 -0.3721 -1.6174 -0.0627
 2717SOL     OW19612   2.647   3.376   5.779  0.2974 -0.1358 -0.3279
 2717SOL    HW119613   2.703   3.342   5.849  0.3847 -1.3387 -0.9707
 2717SOL    HW219614   2.584   3.304   5.785 -0.1427  0.2686 -0.1585
 2718SOL     OW19615   4.610   0.756  15.584 -0.3253 -0.1870 -0.3513
 2718SOL    HW119616   4.602   0.747  15.489 -0.4108  1.5976 -0.5103
 2718SOL    HW219617   4.685   0.815  15.584  0.5516 -1.3090 -0.4318
 2719SOL     OW19618   1.783   1.958   7.888  0.4210 -0.5674  0.0190
 2719SOL    HW119619   1.738   1.874   7.904 -4.4293  1.9167 -0.5319
 2719SOL    HW219620   1.727   2.009   7.947 -0.1955  0.5856 -1.5667
 2720SOL     OW19621   3.616   3.712   4.144  0.4011 -0.4884 -0.3925
 2720SOL    HW119622   3.621   3.780   4.211 -2.7292  1.4205 -2.0968
 2720SOL    HW219623   3.576   3.638   4.189  2.2212 -1.6829 -0.7262
 2721SOL     OW19624   2.321   3.501  10.357 -0.0949  0.0237  0.1594
 2721SOL    HW119625   2.368   3.570  10.310  1.1169 -1.3450 -0.6747
 2721SOL    HW219626   2.243   3.502  10.302  1.0961  1.7258 -1.5114
 2722SOL     OW19627   3.400   3.694  14.339  0.0995  0.0712 -0.4320
 2722SOL    HW119628   3.431   3.604  14.332 -0.2758 -0.2145  1.8365
 2722SOL    HW219629   3.437   3.727  14.421 -0.5649  1.4818 -0.7042
 2723SOL     OW19630   3.130   4.691   8.826  1.0185  0.0723 -0.0794
 2723SOL    HW119631   3.182   0.048   8.800 -0.4489  0.7948 -0.8937
 2723SOL    HW219632   3.063   0.022   8.873 -0.3772  0.7026 -2.7917
 2724SOL     OW19633   1.660   1.220  17.541  0.3182  0.4174  0.2416
 2724SOL    HW119634   1.704   1.145  17.501 -0.3141 -0.7275  1.6721
 2724SOL    HW219635   1.738   1.274  17.551 -0.2709  0.6837  3.5012
 2725SOL     OW19636   2.638   3.831   3.746  0.2244 -0.0748 -0.1832
 2725SOL    HW119637   2.653   3.880   3.827 -0.3194 -0.0143 -0.1199
 2725SOL    HW219638   2.731   3.835   3.723  0.1118  0.9262 -0.4680
 2726SOL     OW19639   1.808   2.920   5.765  0.2239 -0.2209  0.5278
 2726SOL    HW119640   1.746   2.954   5.700 -0.9210  0.4513  1.9740
 2726SOL    HW219641   1.869   2.873   5.709 -1.9208 -2.4991  0.0957
 2727SOL     OW19642   3.007   4.203   5.631  0.0113 -0.0423 -0.2507
 2727SOL    HW119643   2.943   4.188   5.562 -0.5427 -1.9230  0.6958
 2727SOL    HW219644   3.085   4.204   5.575  0.3056 -0.1226  0.1583
 2728SOL     OW19645   4.159   2.349   4.589  0.1883 -0.6788 -0.1323
 2728SOL    HW119646   4.230   2.317   4.646 -1.3062  1.7406  3.0380
 2728SOL    HW219647   4.136   2.266   4.546 -1.7970 -0.5542  0.6797
 2729SOL     OW19648   0.002   2.676   6.508 -1.1626 -0.2504  0.0215
 2729SOL    HW119649   0.016   2.699   6.600 -2.0091  0.7903 -0.1073
 2729SOL    HW219650   4.653   2.738   6.483 -2.5991 -2.8951 -2.5032
 2730SOL     OW19651   1.278   4.567   2.548 -0.0288  0.5248 -0.3809
 2730SOL    HW119652   1.233   4.647   2.574  1.1589  1.2415 -0.5020
 2730SOL    HW219653   1.235   4.545   2.465  2.8762 -1.0623 -1.4593
 2731SOL     OW19654   1.527   0.479   4.049 -0.4389  0.2401 -0.5786
 2731SOL    HW119655   1.526   0.524   3.965  3.2423  0.3447 -0.5660
 2731SOL    HW219656   1.530   0.551   4.112 -0.6659 -0.1732 -0.0950
 2732SOL     OW19657   2.328   2.376  10.473  0.2500  0.1659 -0.4175
 2732SOL    HW119658   2.417   2.408  10.488  0.1575 -0.0432  0.5824
 2732SOL    HW219659   2.339   2.288  10.510 -0.7381  0.2119 -0.0185
 2733SOL     OW19660   4.350   4.091   2.900 -0.2781 -0.0901  0.1058
 2733SOL    HW119661   4.440   4.098   2.932 -0.5908 -0.8508  1.1570
 2733SOL    HW219662   4.297   4.159   2.942 -1.8083 -0.4638 -1.2389
 2734SOL     OW19663   4.305   4.120   4.870 -0.5185 -0.0421  0.2873
 2734SOL    HW119664   4.266   4.114   4.783  0.2695 -0.0476 -0.0620
 2734SOL    HW219665   4.305   4.215   4.887 -3.2818 -0.0172  0.1134
 2735SOL     OW19666   4.164   4.328   7.261 -0.0153  0.5971 -0.1919
 2735SOL    HW119667   4.108   4.331   7.339  1.2103  3.0026  0.5865
 2735SOL    HW219668   4.250   4.296   7.288  0.8250  3.2127  0.1832
 2736SOL     OW19669   4.219   0.704   2.760  0.0293  0.5970  0.2985
 2736SOL    HW119670   4.276   0.628   2.767 -2.5510 -1.1800  1.7119
 2736SOL    HW219671   4.151   0.679   2.823 -0.0396 -0.8004 -0.3338
 2737SOL     OW19672   3.438   0.732   6.004 -0.0379  0.1166  0.4035
 2737SOL    HW119673   3.512   0.671   6.008  0.5281  0.6447 -1.5704
 2737SOL    HW219674   3.476   0.791   6.068 -0.8585  0.1751  0.8260
 2738SOL     OW19675   0.523   4.280   8.253 -0.3385  0.1720  0.1303
 2738SOL    HW119676   0.537   4.255   8.344  0.4591 -1.2874 -0.3936
 2738SOL    HW219677   0.470   4.359   8.266  2.1741  1.9920 -0.6620
 2739SOL     OW19678   4.398   1.983  14.163  0.0324 -0.2453 -0.0281
 2739SOL    HW119679   4.430   2.073  14.164  0.0570 -0.2772  2.2079
 2739SOL    HW219680   4.483   1.938  14.161  0.7000  0.8995  2.0162
 2740SOL     OW19681   1.110   3.727   2.203 -0.0730 -0.1325  0.1838
 2740SOL    HW119682   1.035   3.786   2.202 -0.6309 -0.8349  1.7999
 2740SOL    HW219683   1.082   3.660   2.140  1.1884 -1.9136  1.5370
 2741SOL     OW19684   0.098   0.665   5.060  0.2911  0.5868 -0.0868
 2741SOL    HW119685   0.131   0.627   4.978  3.0183 -0.4813  1.5034
 2741SOL    HW219686   0.015   0.701   5.027 -0.2708  0.1840  0.8883
 2742SOL     OW19687   4.466   3.413   2.548 -0.3995  0.7857 -0.6644
 2742SOL    HW119688   4.536   3.465   2.510  2.6041 -0.9202  2.5714
 2742SOL    HW219689   4.391   3.471   2.534 -0.8149  0.4538  0.1703
 2743SOL     OW19690   3.596   0.079   1.527  0.2701 -0.3041  0.2367
 2743SOL    HW119691   3.537   0.080   1.602 -3.7029 -0.4887 -2.9086
 2743SOL    HW219692   3.676   0.115   1.565  1.0375 -1.4185 -0.3421
 2744SOL     OW19693   1.742   4.606  15.878  0.1448  0.0493 -0.2797
 2744SOL    HW119694   1.723   4.669  15.947 -0.4413  0.1334 -0.5177
 2744SOL    HW219695   1.729   4.524  15.925 -1.4503 -0.1137 -1.0070
 2745SOL     OW19696   3.874   2.430   6.905 -0.0184  0.5521  0.0610
 2745SOL    HW119697   3.920   2.375   6.969 -1.0186  2.4656  2.4496
 2745SOL    HW219698   3.935   2.501   6.887  1.0660 -0.2254  0.6731
 2746SOL     OW19699   1.458   2.543   4.441 -0.2353 -0.3086 -0.0697
 2746SOL    HW119700   1.482   2.604   4.371 -1.3383 -1.1473 -1.1813
 2746SOL    HW219701   1.473   2.598   4.518  0.9666 -0.0039 -0.5200
 2747SOL     OW19702   3.165   0.335   2.914 -0.6788  0.0133 -0.1682
 2747SOL    HW119703   3.094   0.381   2.958 -0.7981 -0.0410 -0.3024
 2747SOL    HW219704   3.131   0.257   2.869 -0.2774 -0.9683  1.2260
 2748SOL     OW19705   1.140   1.328  17.620 -0.7091  0.5242 -0.3675
 2748SOL    HW119706   1.102   1.299   0.022 -0.7324  0.2864 -0.4601
 2748SOL    HW219707   1.068   1.387  17.600 -0.8189  0.1330 -1.1316
 2749SOL     OW19708   0.566   1.397   5.522 -0.5435 -0.8936 -0.2939
 2749SOL    HW119709   0.614   1.480   5.515  0.6720 -1.5722  0.1331
 2749SOL    HW219710   0.517   1.404   5.605 -2.7129 -1.4705 -1.5124
 2750SOL     OW19711   3.739   2.856  15.451 -0.5407  0.2144 -0.4611
 2750SOL    HW119712   3.766   2.893  15.367  2.1062 -1.3070 -0.2839
 2750SOL    HW219713   3.683   2.782  15.426 -2.1599  1.6146 -0.9632
 2751SOL     OW19714   0.708   2.965   4.999 -0.3758  0.5652 -0.6242
 2751SOL    HW119715   0.761   3.036   5.035 -1.5035 -0.3043  2.7997
 2751SOL    HW219716   0.661   2.954   5.082  0.2653 -2.6305 -0.6587
 2752SOL     OW19717   0.889   2.053   6.981 -0.3584  0.3413  1.2063
 2752SOL    HW119718   0.957   1.997   7.017 -0.9950 -0.6146  0.9164
 2752SOL    HW219719   0.813   1.997   6.995  1.0419 -2.0021 -0.7784
 2753SOL     OW19720   3.906   0.776   3.325 -0.0893  0.1385 -0.1312
 2753SOL    HW119721   3.882   0.691   3.288  0.6727  1.4048 -3.4776
 2753SOL    HW219722   3.822   0.819   3.339 -0.1645 -0.1014  0.1659
 2754SOL     OW19723   4.659   0.690  13.734 -0.0521  0.3896  0.1283
 2754SOL    HW119724   4.583   0.654  13.689  0.0797 -1.1474  1.1705
 2754SOL    HW219725   0.007   0.659  13.674 -1.5594 -0.2035 -1.2569
 2755SOL     OW19726   3.616   0.699   5.719 -0.4748 -0.6218 -0.2816
 2755SOL    HW119727   3.612   0.775   5.777 -0.1580 -1.0679  0.3257
 2755SOL    HW219728   3.627   0.748   5.637 -0.1925  0.8669  0.6484
 2756SOL     OW19729   3.890   1.544   6.261  0.0836 -0.9179  0.0380
 2756SOL    HW119730   3.955   1.606   6.292 -0.5476 -1.3204  2.1754
 2756SOL    HW219731   3.945   1.472   6.228  4.4429  1.3363  2.4891
 2757SOL     OW19732   3.633   1.385  16.964 -0.6299  1.0127  0.1201
 2757SOL    HW119733   3.664   1.458  16.911  0.3538  0.4416 -0.0932
 2757SOL    HW219734   3.682   1.395  17.046 -0.2057  2.1263 -0.2679
 2758SOL     OW19735   1.171   0.744   4.629 -0.0955 -0.0966  0.6471
 2758SOL    HW119736   1.142   0.834   4.643 -1.4941 -0.3642 -0.5234
 2758SOL    HW219737   1.126   0.690   4.694  0.6364  0.1753  1.3812
 2759SOL     OW19738   1.344   0.250  10.307 -0.5625 -0.1010  0.5838
 2759SOL    HW119739   1.416   0.187  10.307 -2.3969 -2.2353  4.0318
 2759SOL    HW219740   1.387   0.320  10.356  1.6127 -0.0332 -1.4223
 2760SOL     OW19741   1.809   4.279   7.835  0.2855 -0.2347  0.2464
 2760SOL    HW119742   1.761   4.322   7.765 -0.8739  1.5978  2.1476
 2760SOL    HW219743   1.784   4.187   7.828 -0.3562 -0.1435  1.2555
 2761SOL     OW19744   2.298   1.024   9.357  0.8190  0.2835 -0.1859
 2761SOL    HW119745   2.327   1.074   9.433  0.2303 -0.6487  0.6600
 2761SOL    HW219746   2.373   1.044   9.301  1.4675  0.6417  0.7946
 2762SOL     OW19747   2.046   2.781   7.607 -0.3598 -0.5463 -0.3758
 2762SOL    HW119748   1.957   2.751   7.626 -0.6529 -0.4152 -1.5582
 2762SOL    HW219749   2.044   2.876   7.599  1.1630 -0.5867 -1.3812
 2763SOL     OW19750   2.696   3.604  13.745 -0.8185 -0.3214  0.3477
 2763SOL    HW119751   2.695   3.571  13.655  1.1699  0.9880 -0.1429
 2763SOL    HW219752   2.617   3.561  13.778 -1.1059  0.0633  0.1589
 2764SOL     OW19753   4.096   2.488  10.657  0.4007 -0.1372 -0.6973
 2764SOL    HW119754   4.080   2.558  10.720  0.3129  0.3917 -1.3023
 2764SOL    HW219755   4.010   2.447  10.652 -1.0127  2.8955 -1.6587
 2765SOL     OW19756   2.625   0.667   7.260  0.0621 -0.2642 -0.2972
 2765SOL    HW119757   2.683   0.595   7.234 -0.6142 -1.2305  0.9039
 2765SOL    HW219758   2.612   0.710   7.176  0.7738  1.3845  0.4307
 2766SOL     OW19759   1.722   1.989   1.872  0.3966  0.2513 -0.8772
 2766SOL    HW119760   1.696   2.054   1.937 -0.7228  1.8030 -2.8905
 2766SOL    HW219761   1.677   1.912   1.906  2.2799 -0.6551 -0.4051
 2767SOL     OW19762   3.404   3.435   7.266 -0.3461 -0.1078 -0.7055
 2767SOL    HW119763   3.424   3.477   7.350  0.7615 -0.8592 -0.5903
 2767SOL    HW219764   3.343   3.499   7.230 -0.7602  0.2557  0.6465
 2768SOL     OW19765   0.769   1.899   3.429  0.0792  0.2184 -0.0859
 2768SOL    HW119766   0.729   1.834   3.370 -1.3315  1.1785 -0.1870
 2768SOL    HW219767   0.698   1.960   3.449  1.1645  1.2829  0.5023
 2769SOL     OW19768   0.150   2.651  16.084 -0.5039 -0.2447  0.7069
 2769SOL    HW119769   0.170   2.742  16.061 -0.7707 -1.0207 -2.5987
 2769SOL    HW219770   0.206   2.609  16.019 -2.0695  1.2161 -1.5712
 2770SOL     OW19771   3.810   1.756   3.290  0.5058  0.7297  0.4804
 2770SOL    HW119772   3.781   1.766   3.199 -1.6415 -2.6708  0.7819
 2770SOL    HW219773   3.882   1.817   3.284 -0.3593  1.7551  0.5102
 2771SOL     OW19774   0.250   1.198   7.370  0.5824 -0.3825 -0.0463
 2771SOL    HW119775   0.310   1.165   7.304 -0.7835  0.8297 -1.8708
 2771SOL    HW219776   0.267   1.133   7.438  1.7029  0.2444  0.2742
 2772SOL     OW19777   4.330   1.135   9.060  0.0032  0.3796 -0.2869
 2772SOL    HW119778   4.388   1.181   8.999  0.2125 -1.5398 -1.5380
 2772SOL    HW219779   4.254   1.103   9.010 -1.1784  1.0174  1.0996
 2773SOL     OW19780   2.559   0.006   0.814  0.2747 -0.0968  0.1473
 2773SOL    HW119781   2.649   4.696   0.804 -0.2299 -1.8206  0.7046
 2773SOL    HW219782   2.561   0.095   0.780 -1.7284 -0.4740 -0.9687
 2774SOL     OW19783   3.254   1.232   7.333  0.0706 -0.3368  1.1264
 2774SOL    HW119784   3.318   1.171   7.296  2.3467  1.3244  2.3337
 2774SOL    HW219785   3.307   1.310   7.320 -0.8416  0.5812  2.7575
 2775SOL     OW19786   4.532   1.986   3.509 -0.4318 -0.1205 -0.6714
 2775SOL    HW119787   4.575   2.071   3.503  1.5625 -1.2067 -2.2134
 2775SOL    HW219788   4.488   1.971   3.425  1.2565  1.2560 -1.8140
 2776SOL     OW19789   3.575   4.112   2.073 -0.1726 -0.3679  0.0300
 2776SOL    HW119790   3.530   4.132   2.155  1.5111  1.1184  0.6102
 2776SOL    HW219791   3.512   4.046   2.045  0.2910 -0.7448 -0.1192
 2777SOL     OW19792   4.455   2.975   1.942  0.8934 -0.0381  0.3188
 2777SOL    HW119793   4.363   2.974   1.914  0.6938 -0.1102  0.9661
 2777SOL    HW219794   4.453   2.910   2.013  2.2483  0.9875  1.2893
 2778SOL     OW19795   3.705   4.438   5.254 -0.0611  0.5467  0.4887
 2778SOL    HW119796   3.714   4.435   5.158  0.0584  0.6063  0.4975
 2778SOL    HW219797   3.785   4.488   5.271 -0.0750 -0.0386  2.2376
 2779SOL     OW19798   3.604   1.156  11.557 -0.5714  0.6380  0.1419
 2779SOL    HW119799   3.651   1.213  11.618 -0.7892 -0.4679  1.3427
 2779SOL    HW219800   3.658   1.159  11.478 -1.6125  1.3981 -0.5451
 2780SOL     OW19801   2.853   1.643   3.245  0.0880  0.0731  0.2569
 2780SOL    HW119802   2.917   1.605   3.184 -0.1564  2.9865 -1.8238
 2780SOL    HW219803   2.837   1.730   3.208 -0.4391 -0.0841  0.1172
 2781SOL     OW19804   1.696   3.568   4.275 -0.4015 -1.0547  0.2036
 2781SOL    HW119805   1.702   3.474   4.261  1.1366 -1.0358  0.7170
 2781SOL    HW219806   1.678   3.609   4.190  1.1336 -0.1056  0.3387
 2782SOL     OW19807   2.814   3.653   4.274  0.0692  0.5876 -0.4281
 2782SOL    HW119808   2.764   3.633   4.353  1.5283  0.8455  0.5613
 2782SOL    HW219809   2.864   3.572   4.275 -0.4779  0.2596  0.1160
 2783SOL     OW19810   1.438   0.458   9.330 -0.8346  0.1289 -0.3915
 2783SOL    HW119811   1.384   0.426   9.402  0.4667 -1.2396 -0.0394
 2783SOL    HW219812   1.416   0.396   9.260 -0.9864 -0.4896  0.2120
 2784SOL     OW19813   3.894   1.472   6.712  0.1455 -0.4350 -0.3174
 2784SOL    HW119814   3.935   1.418   6.645 -1.1567  0.2597 -1.6677
 2784SOL    HW219815   3.931   1.438   6.794 -0.4646  0.4639  0.3379
 2785SOL     OW19816   4.609   4.440   9.543 -0.4833  0.1271 -0.3786
 2785SOL    HW119817   4.556   4.381   9.596 -0.7830 -0.7649 -1.6626
 2785SOL    HW219818   4.692   4.437   9.590 -0.3873  1.3131 -0.4658
 2786SOL     OW19819   2.713   4.170   3.984  0.1661 -0.3921 -0.5932
 2786SOL    HW119820   2.763   4.094   3.954  0.4974 -0.1248 -0.7197
 2786SOL    HW219821   2.652   4.176   3.910 -1.2336  1.1460  0.6889
 2787SOL     OW19822   3.870   1.861   3.834 -0.3049  0.2443  0.4106
 2787SOL    HW119823   3.959   1.888   3.853  0.8332 -1.5208 -2.4739
 2787SOL    HW219824   3.894   1.806   3.760 -0.3366 -1.4713  1.6540
 2788SOL     OW19825   1.413   0.661  10.418  0.1339  0.3795  0.1878
 2788SOL    HW119826   1.456   0.745  10.433  1.0536  0.0394 -0.5448
 2788SOL    HW219827   1.455   0.610  10.487  0.8738 -1.4008 -1.5817
 2789SOL     OW19828   4.618   4.038   4.017 -0.0147  0.4841 -0.2042
 2789SOL    HW119829   4.581   4.084   3.942 -2.5605 -0.0582  0.6887
 2789SOL    HW219830   4.544   4.056   4.075 -0.7715  0.5552 -1.1951
 2790SOL     OW19831   2.554   1.431   9.154 -0.3328 -0.0581  0.3407
 2790SOL    HW119832   2.544   1.342   9.188  0.5475  0.5186  2.1126
 2790SOL    HW219833   2.627   1.421   9.094 -0.3734 -1.3136  0.4998
 2791SOL     OW19834   3.024   0.965   9.832 -0.2171 -0.0312  0.1931
 2791SOL    HW119835   2.938   0.930   9.810 -1.7396  2.1420  2.6777
 2791SOL    HW219836   3.086   0.896   9.808  0.3161  0.1628  0.9869
 2792SOL     OW19837   3.744   3.329  12.095 -0.1442  0.2276  0.3315
 2792SOL    HW119838   3.720   3.362  12.009 -0.4883  1.1400  0.7716
 2792SOL    HW219839   3.672   3.362  12.148 -0.1438 -1.8512  1.6007
 2793SOL     OW19840   3.285   3.341  12.703 -0.2979 -0.7797 -0.4752
 2793SOL    HW119841   3.273   3.412  12.640 -1.1944 -0.4850  0.0163
 2793SOL    HW219842   3.192   3.328  12.723 -0.2277  0.3227  0.5602
 2794SOL     OW19843   3.055   3.465   3.182  0.3784 -0.0458  0.9397
 2794SOL    HW119844   3.126   3.527   3.167  1.5827 -1.1270  2.2224
 2794SOL    HW219845   3.099   3.386   3.215 -0.1967 -0.7311  0.0697
 2795SOL     OW19846   0.325   4.271  10.038 -0.4038  0.4991 -0.3523
 2795SOL    HW119847   0.321   4.259   9.944 -2.0280 -2.9299  0.1576
 2795SOL    HW219848   0.303   4.182  10.067 -0.5027  1.1365  1.5806
 2796SOL     OW19849   3.579   3.206  17.043 -0.3430  0.1514 -0.4736
 2796SOL    HW119850   3.585   3.222  16.949 -4.1553  1.8826 -0.4506
 2796SOL    HW219851   3.516   3.134  17.046  0.9889 -1.0252 -1.0194
 2797SOL     OW19852   2.614   3.771  10.938 -0.0591 -0.3498 -0.2300
 2797SOL    HW119853   2.531   3.784  10.984 -0.8161  0.5254 -1.8417
 2797SOL    HW219854   2.655   3.855  10.958 -0.0744 -0.8775  1.9672
 2798SOL     OW19855   3.347   2.580   7.511 -0.2040  0.3290 -0.5780
 2798SOL    HW119856   3.300   2.582   7.428 -0.0810 -0.7283 -0.6849
 2798SOL    HW219857   3.285   2.523   7.555  1.3175  0.2834  1.5019
 2799SOL     OW19858   4.542   3.047   5.375  0.4797  0.2069 -0.5042
 2799SOL    HW119859   4.634   3.018   5.378  1.0760  2.2155  0.5845
 2799SOL    HW219860   4.554   3.138   5.403  0.3956 -0.4576  1.7421
 2800SOL     OW19861   4.446   1.770   1.821 -0.7691  0.3969 -0.2409
 2800SOL    HW119862   4.444   1.788   1.727  0.0452  0.9659 -0.1523
 2800SOL    HW219863   4.360   1.796   1.851 -0.7075 -0.6794  0.8498
 2801SOL     OW19864   1.158   2.645   4.281 -0.0910 -0.2124  0.6447
 2801SOL    HW119865   1.200   2.568   4.318  0.1063 -0.5025 -0.1789
 2801SOL    HW219866   1.100   2.610   4.213 -2.0530  0.2992  2.0362
 2802SOL     OW19867   0.239   3.202   0.209  0.3155 -0.1137 -0.0264
 2802SOL    HW119868   0.319   3.173   0.253 -0.7065  0.4538  2.2110
 2802SOL    HW219869   0.207   3.121   0.170 -1.1263  0.4923 -0.1073
 2803SOL     OW19870   4.187   0.909   4.370  0.2193 -0.0588 -0.3661
 2803SOL    HW119871   4.224   0.964   4.301  0.4268 -0.1261 -0.3088
 2803SOL    HW219872   4.212   0.824   4.333 -0.7386 -0.4241 -0.1832
 2804SOL     OW19873   2.001   3.842  13.595  0.0236 -0.4481 -0.3966
 2804SOL    HW119874   1.956   3.848  13.680 -0.5804 -1.1030 -0.6684
 2804SOL    HW219875   2.047   3.761  13.612  0.5998 -0.2950 -1.2363
 2805SOL     OW19876   0.583   1.062   3.958  0.0460 -0.4876  0.2735
 2805SOL    HW119877   0.552   0.973   3.941  1.9708 -0.6731 -2.2141
 2805SOL    HW219878   0.635   1.073   3.879  0.3456  0.0374  0.5437
 2806SOL     OW19879   2.587   1.606   2.519 -0.0088 -0.0233 -0.3699
 2806SOL    HW119880   2.633   1.670   2.573  1.1728 -2.0773  1.0550
 2806SOL    HW219881   2.635   1.613   2.436 -0.6588 -0.8435 -0.8121
 2807SOL     OW19882   3.441   0.945  12.029 -0.2807 -0.1265  0.7317
 2807SOL    HW119883   3.465   0.950  11.937  0.1177  0.4269  0.8706
 2807SOL    HW219884   3.448   0.854  12.056 -3.0211 -1.1964 -2.0704
 2808SOL     OW19885   4.480   0.058   2.008 -0.0405  0.0820  0.2036
 2808SOL    HW119886   4.489   0.138   1.955 -1.3836 -1.0213 -1.6798
 2808SOL    HW219887   4.399   0.016   1.980 -0.4343  0.1432  1.2339
 2809SOL     OW19888   0.225   3.988   6.695 -0.3486  0.0942  0.0354
 2809SOL    HW119889   0.269   3.907   6.670 -0.2452 -0.0596  0.7307
 2809SOL    HW219890   0.302   4.045   6.692  0.9327 -1.7001 -1.2991
 2810SOL     OW19891   3.692   1.991   5.828  0.7110  0.3603 -0.1788
 2810SOL    HW119892   3.637   2.051   5.778  0.6388  0.1148 -0.3912
 2810SOL    HW219893   3.772   2.025   5.788  0.7839  0.7446  0.2911
 2811SOL     OW19894   3.842   1.488  15.573 -0.1298 -0.4578  0.2235
 2811SOL    HW119895   3.878   1.570  15.538  0.8877 -0.6290  0.8754
 2811SOL    HW219896   3.777   1.468  15.506  0.8160  0.3082 -0.9211
 2812SOL     OW19897   0.325   2.403   3.624  0.2389 -0.6055  0.8943
 2812SOL    HW119898   0.271   2.433   3.696 -0.5037 -0.1047  0.1301
 2812SOL    HW219899   0.283   2.317   3.625  1.5046 -1.2397  0.2011
 2813SOL     OW19900   0.849   0.329   9.862 -0.6508  0.0786  1.0225
 2813SOL    HW119901   0.877   0.239   9.848  2.1088  1.2299 -0.9855
 2813SOL    HW219902   0.763   0.319   9.820  0.1228  0.6435 -0.7129
 2814SOL     OW19903   4.420   4.545  17.451 -0.2800 -0.2118  0.3042
 2814SOL    HW119904   4.422   4.573  17.360  0.3210 -1.1573  0.0181
 2814SOL    HW219905   4.383   4.457  17.439  2.2935 -1.4104  1.0777
 2815SOL     OW19906   4.645   2.220  14.937  0.6368  0.0662 -0.4626
 2815SOL    HW119907   4.625   2.157  14.867 -0.7293  1.2295 -1.1160
 2815SOL    HW219908   4.571   2.280  14.933 -1.3925 -2.3069  1.3743
 2816SOL     OW19909   3.688   0.689   5.104 -0.3987  0.2140  0.3391
 2816SOL    HW119910   3.717   0.774   5.138 -3.5814  0.8238  1.5012
 2816SOL    HW219911   3.713   0.696   5.012  0.4146 -1.5295  0.4266
 2817SOL     OW19912   0.464   2.354   4.282  0.2091 -0.0789 -1.0585
 2817SOL    HW119913   0.383   2.398   4.307  0.6785 -0.4939  1.1901
 2817SOL    HW219914   0.452   2.301   4.203  0.2915  0.7628 -1.6335
 2818SOL     OW19915   3.002   3.090   5.104  0.0188  0.5680  0.1932
 2818SOL    HW119916   2.977   3.024   5.040  0.4203 -1.4884  2.1613
 2818SOL    HW219917   2.989   3.165   5.046 -1.9386  3.0193  3.7887
 2819SOL     OW19918   2.943   1.090   8.144 -0.4179 -0.0333 -0.4612
 2819SOL    HW119919   2.911   1.176   8.115  2.6682  1.4105  0.4333
 2819SOL    HW219920   3.037   1.111   8.143 -0.3763 -0.1167  1.5129
 2820SOL     OW19921   3.409   0.255  10.572  0.2713  0.0591 -0.1106
 2820SOL    HW119922   3.505   0.261  10.576  0.4339 -0.9066 -2.4327
 2820SOL    HW219923   3.387   0.163  10.558 -1.1127  0.6098 -1.5078
 2821SOL     OW19924   0.906   2.693  11.027 -0.1725 -0.2673 -0.1484
 2821SOL    HW119925   0.912   2.638  10.949  3.8520 -0.3095  0.1773
 2821SOL    HW219926   0.943   2.633  11.093  2.4747 -0.4095 -1.7527
 2822SOL     OW19927   3.487   3.497  14.677 -0.3107  0.6751  0.7070
 2822SOL    HW119928   3.568   3.538  14.707 -0.2482  0.5818  0.6671
 2822SOL    HW219929   3.426   3.526  14.744 -0.9251 -1.1274  0.9080
 2823SOL     OW19930   2.397   2.828   3.243  0.1384 -0.2328  0.0350
 2823SOL    HW119931   2.486   2.863   3.247 -0.6074  1.6856  0.2528
 2823SOL    HW219932   2.359   2.875   3.317  0.9600 -1.8412  1.4711
 2824SOL     OW19933   4.410   3.294  11.991  0.7402 -0.1193 -0.1477
 2824SOL    HW119934   4.381   3.266  12.078  0.2464  2.4414  0.5286
 2824SOL    HW219935   4.501   3.306  12.018  0.1820  1.5237  1.0294
 2825SOL     OW19936   3.856   4.159   5.036  0.3682  0.6910 -0.7090
 2825SOL    HW119937   3.922   4.100   4.997  0.2501  0.7778 -1.0376
 2825SOL    HW219938   3.864   4.233   4.977 -0.0671  0.7878 -0.6421
 2826SOL     OW19939   2.015   0.284   8.458  0.9081  0.4654  0.1409
 2826SOL    HW119940   1.977   0.197   8.450 -2.1203  1.9072 -0.9627
 2826SOL    HW219941   2.047   0.309   8.372 -0.8155  0.7929 -0.4048
 2827SOL     OW19942   3.708   0.058  15.323  0.0567 -0.0072 -0.2708
 2827SOL    HW119943   3.627   0.048  15.273  0.0473 -0.6632 -0.1235
 2827SOL    HW219944   3.737   0.143  15.290 -0.9015  0.6376  0.5258
 2828SOL     OW19945   0.036   3.881   3.321 -0.2150  0.0929 -0.4566
 2828SOL    HW119946   4.713   3.954   3.366 -0.0917  0.7847 -1.4772
 2828SOL    HW219947   4.710   3.883   3.237  3.0227  0.5653 -2.1873
 2829SOL     OW19948   2.460   2.081  14.222 -0.3894  0.1440  0.0427
 2829SOL    HW119949   2.439   2.070  14.315 -1.3558  1.6498 -0.0125
 2829SOL    HW219950   2.431   2.172  14.216 -0.9493 -0.0523 -0.1306
 2830SOL     OW19951   4.595   0.282   8.478  0.1290  0.4448 -0.0512
 2830SOL    HW119952   4.606   0.205   8.535  1.6629  0.0315 -0.8910
 2830SOL    HW219953   4.552   0.339   8.541 -0.8167 -1.1970  0.8028
 2831SOL     OW19954   4.032   2.743  11.767 -0.1168  0.1684  0.2183
 2831SOL    HW119955   4.124   2.720  11.777 -0.1125 -0.5535 -1.4996
 2831SOL    HW219956   4.009   2.734  11.860 -0.7770  1.7138  0.1991
 2832SOL     OW19957   0.528   0.875   3.025 -0.3878  0.1737 -0.1714
 2832SOL    HW119958   0.463   0.941   3.048  1.3951  2.0533 -0.5372
 2832SOL    HW219959   0.589   0.912   2.961 -1.0183 -2.0273 -2.0421
 2833SOL     OW19960   4.027   2.682  12.028 -0.0031  0.2406 -0.6361
 2833SOL    HW119961   4.067   2.765  12.051 -0.4323  0.1816  0.3022
 2833SOL    HW219962   3.962   2.671  12.097  0.5272 -0.0037 -0.1838
 2834SOL     OW19963   0.490   1.945   5.929  0.2060  0.1072 -0.0964
 2834SOL    HW119964   0.529   1.861   5.954 -2.5811 -1.5037 -1.1295
 2834SOL    HW219965   0.486   1.992   6.012  2.1401  2.7786 -1.5308
 2835SOL     OW19966   0.062   4.413   7.352  0.0090  0.5542 -0.2596
 2835SOL    HW119967   0.119   4.408   7.275 -1.0807 -2.2266 -0.9209
 2835SOL    HW219968   0.088   4.335   7.402 -1.4102 -1.1128 -2.0923
 2836SOL     OW19969   2.273   4.344  14.977 -0.1208  0.2965 -0.3001
 2836SOL    HW119970   2.193   4.397  14.983  0.7999  1.4025  2.3048
 2836SOL    HW219971   2.270   4.310  14.887 -2.8568  1.0807 -0.4865
 2837SOL     OW19972   1.454   3.627  13.487 -0.0599 -0.0096 -0.2785
 2837SOL    HW119973   1.391   3.560  13.461  1.3306 -1.1670 -0.6877
 2837SOL    HW219974   1.437   3.611  13.580  0.6790  0.1489 -0.1181
 2838SOL     OW19975   3.913   1.883  15.153 -0.2186  0.2492  0.5022
 2838SOL    HW119976   3.898   1.923  15.068  1.5976  2.1381  1.0781
 2838SOL    HW219977   3.918   1.790  15.128  1.6481 -0.2149  2.5817
 2839SOL     OW19978   1.215   2.262  14.912  0.3198  0.0511 -0.2516
 2839SOL    HW119979   1.170   2.184  14.945 -0.4001  0.2628 -0.7361
 2839SOL    HW219980   1.258   2.226  14.835  0.9736 -0.5550  0.3982
 2840SOL     OW19981   3.864   4.100   4.042  0.2479 -0.7647 -0.3911
 2840SOL    HW119982   3.936   4.044   4.015  0.0942 -1.9044  1.5789
 2840SOL    HW219983   3.856   4.069   4.132  0.6830  1.6961  0.5062
 2841SOL     OW19984   3.070   3.801   4.060  0.4118 -0.2996 -0.2522
 2841SOL    HW119985   3.057   3.717   4.017 -2.0292 -0.5816  1.0466
 2841SOL    HW219986   3.095   3.774   4.149  1.1873 -1.3842 -0.8030
 2842SOL     OW19987   1.737   1.956   4.406 -0.2982  0.4524 -0.3163
 2842SOL    HW119988   1.710   2.016   4.336 -0.0610  0.6372 -0.2452
 2842SOL    HW219989   1.815   1.992   4.448  0.0485  0.0031 -0.5782
 2843SOL     OW19990   0.394   2.889   2.522  0.1155  0.0983  0.7709
 2843SOL    HW119991   0.382   2.810   2.575 -1.0532  0.4887  1.0892
 2843SOL    HW219992   0.457   2.850   2.461  1.1876 -0.2108  2.0652
 2844SOL     OW19993   3.466   3.734  12.604  0.3136  0.1331 -0.5309
 2844SOL    HW119994   3.383   3.688  12.612  1.4010 -1.7071  0.1385
 2844SOL    HW219995   3.502   3.734  12.692 -0.7728 -0.7335 -0.0950
 2845SOL     OW19996   1.068   4.672  10.922  0.2317  0.5594 -0.1662
 2845SOL    HW119997   1.023   4.653  10.840  0.1373 -0.4500  0.1157
 2845SOL    HW219998   1.122   0.027  10.898  0.6693  0.4623  0.5240
 2846SOL     OW19999   2.537   2.343   1.286 -0.2514 -0.1391 -0.3781
 2846SOL    HW120000   2.523   2.287   1.362  0.0909  0.4413  0.1173
 2846SOL    HW220001   2.451   2.360   1.247  0.3904 -2.0735 -2.6322
 2847SOL     OW20002   0.135   4.651   8.343  0.8111 -0.4862 -0.4095
 2847SOL    HW120003   0.142   4.563   8.380  1.2465 -0.7781 -1.1713
 2847SOL    HW220004   0.177   4.707   8.408  0.2818 -0.5730  0.0053
 2848SOL     OW20005   3.948   1.679   4.076  0.8318 -0.2859  0.2810
 2848SOL    HW120006   3.990   1.628   4.007 -0.4230 -1.2052  0.2039
 2848SOL    HW220007   3.987   1.765   4.056 -1.4966  1.0798  1.5533
 2849SOL     OW20008   1.416   0.903   3.957  0.1504  0.3296 -0.9606
 2849SOL    HW120009   1.392   0.959   4.031  0.1715 -1.0448  0.0806
 2849SOL    HW220010   1.412   0.971   3.890 -0.2258 -0.4973 -1.7871
 2850SOL     OW20011   2.219   1.225   3.342  0.6276  0.8795 -0.2103
 2850SOL    HW120012   2.160   1.227   3.266  0.4965 -1.2728 -0.1600
 2850SOL    HW220013   2.303   1.212   3.297 -1.8032 -0.1836 -4.5205
 2851SOL     OW20014   0.769   1.987   4.582  0.1149  0.5936 -0.1350
 2851SOL    HW120015   0.790   1.908   4.532 -1.1765  0.0771  0.1199
 2851SOL    HW220016   0.802   1.970   4.670  2.0304  1.7610 -0.6455
 2852SOL     OW20017   0.898   0.958  13.346 -0.5703 -0.1326  0.1443
 2852SOL    HW120018   0.877   0.896  13.276 -1.2398  0.6001 -0.3007
 2852SOL    HW220019   0.810   0.964  13.384 -0.2157 -0.4637  1.0062
 2853SOL     OW20020   2.698   1.615   5.630 -0.1832  0.2033  0.0324
 2853SOL    HW120021   2.646   1.668   5.689 -1.0476 -0.3707 -0.2133
 2853SOL    HW220022   2.720   1.675   5.558 -0.7606  2.9736  2.2024
 2854SOL     OW20023   0.133   1.891   4.368  0.1461  0.4066  0.6318
 2854SOL    HW120024   0.037   1.891   4.362  0.2941  1.9180 -1.8055
 2854SOL    HW220025   0.148   1.806   4.408  0.7729 -0.1129 -0.7228
 2855SOL     OW20026   4.660   1.508   3.609 -0.2044  0.1568 -0.2509
 2855SOL    HW120027   4.564   1.507   3.606 -0.1765  1.0149 -1.6140
 2855SOL    HW220028   4.683   1.597   3.637  0.1535  0.3312 -1.0962
 2856SOL     OW20029   4.426   0.390   6.807 -0.2700 -0.1386 -0.0331
 2856SOL    HW120030   4.512   0.379   6.848  0.0323 -1.1303 -0.9301
 2856SOL    HW220031   4.435   0.342   6.725  0.7104  0.5690 -0.3445
 2857SOL     OW20032   2.933   3.970   8.125 -0.1506 -0.2454 -0.2316
 2857SOL    HW120033   3.001   4.037   8.123  0.6883 -1.0571  0.5801
 2857SOL    HW220034   2.898   3.982   8.213 -0.6466  1.3001 -0.6408
 2858SOL     OW20035   3.674   3.505   7.820 -0.4330  0.4539  0.3564
 2858SOL    HW120036   3.657   3.433   7.881 -1.3714  1.6920  1.5679
 2858SOL    HW220037   3.653   3.457   7.739 -0.9768  0.2089  0.6399
 2859SOL     OW20038   3.217   1.651   5.365  0.1369 -0.1038  0.3706
 2859SOL    HW120039   3.299   1.700   5.359 -0.2268  0.5053  0.3382
 2859SOL    HW220040   3.153   1.708   5.407  1.5388  1.4846  0.3720
 2860SOL     OW20041   2.171   3.729  10.919  0.3015 -0.0983 -0.0992
 2860SOL    HW120042   2.115   3.680  10.860  1.7339  0.8580 -2.2358
 2860SOL    HW220043   2.114   3.802  10.943  0.6408 -0.2616  1.2475
 2861SOL     OW20044   1.861   0.009  16.877  0.3355  0.0397  0.3974
 2861SOL    HW120045   1.923   0.081  16.887  1.1149 -0.6965  0.8395
 2861SOL    HW220046   1.891   4.689  16.795 -0.0496  2.4313 -0.9034
 2862SOL     OW20047   0.259   0.397   1.797 -0.0053 -0.3891 -0.0427
 2862SOL    HW120048   0.281   0.351   1.878 -0.5245  1.0494  0.9285
 2862SOL    HW220049   0.340   0.379   1.750 -0.8852 -0.1079 -1.6711
 2863SOL     OW20050   1.822   4.643   3.735  0.4126  0.0635 -0.6455
 2863SOL    HW120051   1.836   0.007   3.779  2.3055 -0.8653  0.5090
 2863SOL    HW220052   1.775   4.592   3.801  1.3896 -1.5487 -1.1778
 2864SOL     OW20053   1.892   3.896   5.743 -0.1414 -0.1524 -0.4211
 2864SOL    HW120054   1.923   3.898   5.834 -0.5507 -0.1468 -0.2823
 2864SOL    HW220055   1.911   3.983   5.709 -1.8706  0.5473  0.4176
 2865SOL     OW20056   3.209   3.457   1.822  0.2728  0.1794 -0.4109
 2865SOL    HW120057   3.238   3.408   1.745  0.3902 -0.7594  0.2285
 2865SOL    HW220058   3.180   3.380   1.870 -0.2436 -0.6812 -2.1016
 2866SOL     OW20059   3.528   1.187   4.428  0.1816  0.1885 -0.0851
 2866SOL    HW120060   3.566   1.120   4.485  1.5551  0.7996 -0.2844
 2866SOL    HW220061   3.604   1.221   4.381  0.2097 -0.9467 -0.8796
 2867SOL     OW20062   2.068   0.707  12.546 -0.9670 -0.0404 -0.1979
 2867SOL    HW120063   2.128   0.778  12.569 -0.9339  0.0776 -0.6505
 2867SOL    HW220064   2.128   0.633  12.550  0.1601  0.7453 -2.0823
 2868SOL     OW20065   0.347   3.551   4.253 -0.1926 -0.1903 -0.5826
 2868SOL    HW120066   0.291   3.587   4.323  0.3073 -1.6011  0.5522
 2868SOL    HW220067   0.424   3.593   4.291 -1.2248  0.8291  0.3990
 2869SOL     OW20068   3.967   3.869   7.171 -0.2075  0.1976  0.2491
 2869SOL    HW120069   3.970   3.914   7.087 -2.0544 -0.9558 -0.4275
 2869SOL    HW220070   4.003   3.939   7.225 -1.2888  0.0327  1.1804
 2870SOL     OW20071   1.743   4.123   8.512 -0.3448  0.0001 -0.7090
 2870SOL    HW120072   1.702   4.153   8.594  0.7556 -1.1959  0.2718
 2870SOL    HW220073   1.818   4.075   8.547 -1.1254  0.2634  1.3018
 2871SOL     OW20074   2.151   4.242  12.249  0.3929 -0.4308 -0.2341
 2871SOL    HW120075   2.089   4.187  12.201  0.0744  0.8848 -1.3278
 2871SOL    HW220076   2.189   4.282  12.171  4.0386 -3.6258 -0.1265
 2872SOL     OW20077   4.102   3.993   3.230  0.2263 -0.1472 -0.6291
 2872SOL    HW120078   4.065   4.020   3.146 -0.0656 -3.1271 -1.4477
 2872SOL    HW220079   4.032   4.032   3.281  2.8542  0.7602  2.2332
 2873SOL     OW20080   1.750   0.644   4.922  0.3862 -0.7445  0.2341
 2873SOL    HW120081   1.788   0.694   4.850  1.6437  0.2473  1.6055
 2873SOL    HW220082   1.801   0.564   4.919 -1.0955 -1.6015 -2.1499
 2874SOL     OW20083   0.501   2.703  13.472  0.4804 -0.1441  0.4008
 2874SOL    HW120084   0.559   2.773  13.442  0.0158  0.5234  1.0365
 2874SOL    HW220085   0.421   2.755  13.460  0.9401 -0.0450 -2.1211
 2875SOL     OW20086   2.319   2.783   1.706  0.3205  0.3325 -0.6920
 2875SOL    HW120087   2.236   2.741   1.683 -1.4753  3.0687  0.8115
 2875SOL    HW220088   2.305   2.876   1.688  2.3018  0.5204 -1.2151
 2876SOL     OW20089   0.418   3.799   1.565  0.0837 -0.2907 -0.3358
 2876SOL    HW120090   0.430   3.848   1.646 -0.2889 -0.6289 -0.0773
 2876SOL    HW220091   0.326   3.826   1.553 -0.4922 -2.2192 -0.2237
 2877SOL     OW20092   1.647   3.199  10.878  0.4791 -0.3484 -0.0693
 2877SOL    HW120093   1.562   3.230  10.848  0.4316 -0.4559 -0.0469
 2877SOL    HW220094   1.635   3.115  10.922  2.1388 -0.0535  0.9719
 2878SOL     OW20095   2.587   1.949   1.125  0.0198  0.3234  0.0286
 2878SOL    HW120096   2.544   1.895   1.192  1.0862 -0.8723 -0.2461
 2878SOL    HW220097   2.612   1.880   1.063  1.2695  3.6530 -3.1356
 2879SOL     OW20098   0.956   2.102   1.919  0.1878 -0.1081  0.0046
 2879SOL    HW120099   0.963   2.007   1.917  0.9813 -0.0385 -0.6022
 2879SOL    HW220100   0.875   2.116   1.968  1.5624 -0.8394  2.4959
 2880SOL     OW20101   1.314   3.896   8.344 -0.3537  0.2710 -0.1292
 2880SOL    HW120102   1.339   3.833   8.277  1.1918  0.8165 -0.0676
 2880SOL    HW220103   1.396   3.943   8.331 -0.0497 -0.5339 -1.1120
 2881SOL     OW20104   0.994   2.014   8.005  0.2356  0.3918  0.9729
 2881SOL    HW120105   1.016   1.928   7.969 -1.1361  0.0163  1.0270
 2881SOL    HW220106   1.032   2.008   8.093 -2.1126  2.4246  2.1464
 2882SOL     OW20107   1.147   0.119  12.157 -0.2162  0.4107  0.1066
 2882SOL    HW120108   1.240   0.133  12.176  0.1931 -0.9607 -0.8684
 2882SOL    HW220109   1.106   0.140  12.241  1.8365 -0.6153  1.3917
 2883SOL     OW20110   1.301   4.360   6.044 -0.7707  0.0392 -0.0382
 2883SOL    HW120111   1.301   4.352   5.949  0.9097  0.4123 -0.0716
 2883SOL    HW220112   1.380   4.310   6.068 -0.0647  0.2289 -1.9804
 2884SOL     OW20113   2.055   3.606  17.628  0.0499 -0.2178 -0.1198
 2884SOL    HW120114   2.052   3.661  17.550  1.5728  0.0595  0.0130
 2884SOL    HW220115   1.981   3.548  17.612 -0.4211 -0.4821  3.0473
 2885SOL     OW20116   1.008   4.537   1.389  0.0948  0.5941  0.8061
 2885SOL    HW120117   0.974   4.626   1.375 -0.9242  0.1435  0.4545
 2885SOL    HW220118   0.933   4.488   1.422 -1.0125  1.2443 -0.7586
 2886SOL     OW20119   1.963   4.069   3.168 -0.2044 -0.2893  0.4244
 2886SOL    HW120120   1.900   4.140   3.165  1.6271  1.4130  2.2555
 2886SOL    HW220121   2.024   4.105   3.104 -0.3378 -0.5402  0.1540
 2887SOL     OW20122   3.189   3.949   6.516 -0.1574 -0.0470 -0.2780
 2887SOL    HW120123   3.149   3.998   6.588  1.8031  0.2306  0.6087
 2887SOL    HW220124   3.281   3.969   6.532 -0.4560 -0.7180  2.3216
 2888SOL     OW20125   4.591   2.720   0.238 -0.0626  0.3798  0.3207
 2888SOL    HW120126   4.642   2.765   0.304 -0.7739  0.1713  1.0065
 2888SOL    HW220127   4.517   2.778   0.227  0.2754  1.1133  1.9440
 2889SOL     OW20128   4.389   1.885   8.223 -0.4980 -0.4769 -0.0454
 2889SOL    HW120129   4.459   1.885   8.288 -0.9281 -0.1030  0.4133
 2889SOL    HW220130   4.373   1.980   8.224  0.2236 -0.3227 -1.9364
 2890SOL     OW20131   0.038   2.449   5.458  0.5383 -0.0564  0.1227
 2890SOL    HW120132   4.675   2.456   5.506 -0.6373  0.3200 -2.0037
 2890SOL    HW220133   0.003   2.442   5.369  0.1583 -1.2105  0.3511
 2891SOL     OW20134   3.809   3.168   1.465  0.1891 -0.6792 -0.1060
 2891SOL    HW120135   3.893   3.123   1.455 -0.0915 -1.0097 -1.0042
 2891SOL    HW220136   3.758   3.091   1.489 -0.2420 -0.4390 -0.2420
 2892SOL     OW20137   0.954   3.225   6.844  0.2226 -0.1610  0.4428
 2892SOL    HW120138   0.984   3.136   6.824  0.0367 -0.3373  0.9444
 2892SOL    HW220139   0.896   3.234   6.768 -0.9628  0.4061  1.4191
 2893SOL     OW20140   2.489   2.445  12.389 -0.8581 -0.3998  0.0781
 2893SOL    HW120141   2.522   2.365  12.431  0.2073  0.1663  0.3282
 2893SOL    HW220142   2.396   2.437  12.408 -0.6668 -1.3940  0.5851
 2894SOL     OW20143   1.014   1.548  13.021 -0.1126 -0.0418 -0.2929
 2894SOL    HW120144   0.982   1.638  13.024  0.2153 -0.0553  3.8005
 2894SOL    HW220145   0.951   1.507  12.962  1.4524  1.2791 -2.8683
 2895SOL     OW20146   1.420   2.568  11.812  0.4414  0.4481 -0.6832
 2895SOL    HW120147   1.442   2.652  11.852 -0.8250 -1.8142  4.7826
 2895SOL    HW220148   1.428   2.593  11.720 -2.2735 -0.9041 -1.2745
 2896SOL     OW20149   1.291   4.462   5.289 -0.1748 -0.4608 -0.2268
 2896SOL    HW120150   1.210   4.513   5.278 -1.3107 -2.1182  0.5611
 2896SOL    HW220151   1.322   4.470   5.198  3.0929 -1.4474  0.8229
 2897SOL     OW20152   1.647   4.294  13.337  0.0101  0.1340 -0.2151
 2897SOL    HW120153   1.727   4.339  13.311 -0.2816 -0.1188 -1.5572
 2897SOL    HW220154   1.578   4.357  13.316  1.9493  1.6178 -2.0227
 2898SOL     OW20155   1.591   0.020   9.449  0.5111 -0.2917  0.1892
 2898SOL    HW120156   1.616   0.029   9.357 -0.2716  0.1113  0.0188
 2898SOL    HW220157   1.648   4.669   9.480  1.6114  0.3494 -0.3693
 2899SOL     OW20158   2.486   3.564  10.599 -0.0992 -0.3710 -0.4141
 2899SOL    HW120159   2.405   3.529  10.562 -0.4596 -1.2699  1.2317
 2899SOL    HW220160   2.464   3.579  10.691 -1.7400  2.8716 -1.3334
 2900SOL     OW20161   0.900   2.944   2.453 -0.0893  0.4205  0.5776
 2900SOL    HW120162   0.870   2.925   2.542  0.3242 -2.1620  0.1699
 2900SOL    HW220163   0.904   2.852   2.424  0.1159  1.0594 -1.4518
 2901SOL     OW20164   0.814   0.680  11.395 -0.0674  0.1679 -0.1978
 2901SOL    HW120165   0.883   0.659  11.457  0.3214  0.1299 -0.6411
 2901SOL    HW220166   0.774   0.593  11.388  1.4197 -0.4885 -0.4535
 2902SOL     OW20167   0.590   3.872   8.684  0.1049  0.5673  0.9431
 2902SOL    HW120168   0.660   3.936   8.677  1.0136 -0.7230 -1.5731
 2902SOL    HW220169   0.593   3.844   8.776 -1.1286 -1.2480  0.4324
 2903SOL     OW20170   2.702   0.120  15.949  0.2842  0.6266  0.4892
 2903SOL    HW120171   2.637   0.063  15.989  0.4253  0.3488  0.3219
 2903SOL    HW220172   2.709   0.074  15.865 -0.5883  0.7866  0.3271
 2904SOL     OW20173   3.091   2.198   4.420  0.2297  0.1709 -0.1585
 2904SOL    HW120174   3.065   2.273   4.473  3.0882 -3.1036  5.8260
 2904SOL    HW220175   3.015   2.164   4.372  0.4234  1.7292 -1.5651
 2905SOL     OW20176   0.381   0.445   2.793  0.5874  0.3990 -0.1243
 2905SOL    HW120177   0.420   0.503   2.728 -0.6826  1.4400  0.0356
 2905SOL    HW220178   0.287   0.457   2.779  0.4370 -0.6854 -0.0642
 2906SOL     OW20179   1.097   2.127   8.459  0.6596  0.5774  0.3007
 2906SOL    HW120180   1.053   2.211   8.441 -1.1803  0.2778  3.3929
 2906SOL    HW220181   1.098   2.128   8.554  2.5424 -0.4314  0.2940
 2907SOL     OW20182   1.917   2.729   2.826  0.3093  0.1575  0.4260
 2907SOL    HW120183   2.009   2.745   2.805  0.0489 -0.8117 -1.4450
 2907SOL    HW220184   1.890   2.812   2.865 -2.4061 -0.1995 -0.6278
 2908SOL     OW20185   4.264   1.620   3.667 -0.8865 -0.3360 -0.3953
 2908SOL    HW120186   4.319   1.573   3.605 -2.1141 -1.3192 -0.7251
 2908SOL    HW220187   4.323   1.665   3.729 -1.9980 -0.6185  0.8654
 2909SOL     OW20188   0.006   3.261   1.281  0.1278 -0.5124  0.4137
 2909SOL    HW120189   0.054   3.235   1.360  1.6265  0.2823 -0.2312
 2909SOL    HW220190   4.639   3.284   1.316  1.1410 -0.1108  2.6437
 2910SOL     OW20191   1.702   1.903   7.462 -0.3182 -0.2613  0.0381
 2910SOL    HW120192   1.623   1.955   7.451  0.4572  0.7330 -0.8835
 2910SOL    HW220193   1.706   1.901   7.558 -0.5763 -2.5101 -0.0034
 2911SOL     OW20194   3.170   2.876   8.960 -0.4267  0.4896 -0.6193
 2911SOL    HW120195   3.157   2.810   8.893 -2.1853 -0.0991  0.2979
 2911SOL    HW220196   3.232   2.823   9.010  0.7282 -0.2076 -2.7911
 2912SOL     OW20197   0.869   0.876  12.230  0.2957 -0.3706  0.1312
 2912SOL    HW120198   0.854   0.932  12.154  2.3878  0.8623  0.6245
 2912SOL    HW220199   0.775   0.861  12.233  0.6397 -2.7087 -0.5660
 2913SOL     OW20200   2.222   1.550   5.153  0.3803 -0.3223  0.1126
 2913SOL    HW120201   2.189   1.510   5.233  0.6128 -1.5485 -0.3929
 2913SOL    HW220202   2.201   1.476   5.094 -0.5982 -0.6181  0.8307
 2914SOL     OW20203   1.411   0.394   7.054 -0.3719 -0.4796  0.2927
 2914SOL    HW120204   1.420   0.299   7.065  0.7424 -0.1621  2.1753
 2914SOL    HW220205   1.364   0.419   7.133 -2.1177  0.7943 -1.1690
 2915SOL     OW20206   0.661   4.366   9.320  0.2887  0.0372  0.2504
 2915SOL    HW120207   0.728   4.311   9.360  0.6597  1.4737  1.5953
 2915SOL    HW220208   0.716   4.436   9.285  1.1291 -1.3632 -1.2765
 2916SOL     OW20209   2.776   1.818   0.723  0.0521 -0.6263  0.1963
 2916SOL    HW120210   2.726   1.762   0.783  1.2320 -0.1137  1.6699
 2916SOL    HW220211   2.701   1.862   0.682  0.2620  0.6171  1.1529
 2917SOL     OW20212   1.950   4.581   1.261  0.6362 -0.4625  0.2944
 2917SOL    HW120213   1.924   4.651   1.321  3.4878  0.9192 -0.0883
 2917SOL    HW220214   1.939   4.618   1.174  1.0811  1.2487  0.9627
 2918SOL     OW20215   2.079   4.343   6.091  0.0108 -0.1551 -0.3363
 2918SOL    HW120216   2.143   4.342   6.162  0.3930  1.8664 -0.6630
 2918SOL    HW220217   2.130   4.372   6.015 -2.0208  2.0923 -0.8364
 2919SOL     OW20218   1.369   4.134   3.058 -0.3265  0.0765 -0.2997
 2919SOL    HW120219   1.350   4.178   2.975  1.0152 -0.1610 -0.7386
 2919SOL    HW220220   1.452   4.089   3.042 -1.2195 -2.2714  1.7224
 2920SOL     OW20221   0.699   3.630   6.006  0.0369  0.1982  0.3523
 2920SOL    HW120222   0.672   3.680   5.929 -2.1414 -1.1554  0.2497
 2920SOL    HW220223   0.792   3.618   5.983 -0.4744 -1.5638 -0.8127
 2921SOL     OW20224   4.438   1.369   5.749  0.3380 -0.0928 -0.2732
 2921SOL    HW120225   4.529   1.398   5.755  0.5421 -0.7498 -0.1840
 2921SOL    HW220226   4.425   1.366   5.655  0.3863  0.2042 -0.2909
 2922SOL     OW20227   1.792   0.672   2.287  0.5570 -0.1335  0.2488
 2922SOL    HW120228   1.786   0.755   2.239 -0.7756 -1.7941 -2.4806
 2922SOL    HW220229   1.717   0.623   2.252  2.8233 -2.2857 -1.6347
 2923SOL     OW20230   1.201   1.099   2.191  0.4925  0.4710 -0.6709
 2923SOL    HW120231   1.118   1.131   2.227  0.0307  0.4140 -1.6880
 2923SOL    HW220232   1.261   1.129   2.259 -0.5883 -3.3813  1.9611
 2924SOL     OW20233   1.110   0.249   5.728 -0.5571  0.0546 -0.1617
 2924SOL    HW120234   1.131   0.319   5.791  1.8400 -2.1069  1.4561
 2924SOL    HW220235   1.021   0.224   5.751 -0.9662  1.9070  0.3197
 2925SOL     OW20236   2.245   1.514   6.155  0.3168  0.0809  0.3268
 2925SOL    HW120237   2.158   1.551   6.172 -0.7175 -2.5281  0.7201
 2925SOL    HW220238   2.281   1.485   6.238 -1.5070  2.3080  1.8900
 2926SOL     OW20239   0.624   1.009  14.553  0.2604 -0.1119  0.3122
 2926SOL    HW120240   0.594   1.010  14.644  0.1324  0.5921  0.2655
 2926SOL    HW220241   0.587   0.929  14.517 -0.0875  0.7157 -1.1626
 2927SOL     OW20242   4.449   2.461   7.777  0.1687  0.3772 -0.1818
 2927SOL    HW120243   4.462   2.378   7.731  2.4648  0.9416 -0.5700
 2927SOL    HW220244   4.478   2.525   7.712 -0.3463  2.2186  1.3985
 2928SOL     OW20245   2.150   3.059   3.924 -0.0345 -0.7074  0.1974
 2928SOL    HW120246   2.196   3.141   3.941  0.6592 -0.9260 -0.6283
 2928SOL    HW220247   2.168   3.004   4.000  2.2908  0.7581  0.6916
 2929SOL     OW20248   0.764   3.066   0.332  0.1736  0.2280  0.0905
 2929SOL    HW120249   0.787   2.987   0.382 -0.1939 -1.1726 -1.9445
 2929SOL    HW220250   0.743   3.124   0.404 -1.6708 -0.6445  0.2338
 2930SOL     OW20251   1.371   3.042   7.117  0.2444  0.7766 -0.3308
 2930SOL    HW120252   1.277   3.058   7.125  0.0181  0.0336 -1.4365
 2930SOL    HW220253   1.379   3.032   7.022  0.5051  2.0068 -0.4407
 2931SOL     OW20254   2.026   3.012  10.248  0.0776  0.5273 -0.3176
 2931SOL    HW120255   2.020   3.042  10.338 -0.0196  0.4563 -0.3005
 2931SOL    HW220256   2.092   3.075  10.216  0.3284  0.2460 -0.3576
 2932SOL     OW20257   2.555   3.594   0.159 -0.4483  0.2082  0.5436
 2932SOL    HW120258   2.468   3.620   0.128  0.0360  1.8615  0.5489
 2932SOL    HW220259   2.546   3.584   0.254  0.6667  1.7442  0.8098
 2933SOL     OW20260   2.050   4.048   3.733 -0.2567  0.4682 -0.5021
 2933SOL    HW120261   2.011   4.043   3.646  0.3770 -2.5946 -0.5999
 2933SOL    HW220262   1.998   3.993   3.792 -0.4115 -0.0842 -1.1625
 2934SOL     OW20263   3.416   2.671   3.581  0.1133 -0.4553  0.2818
 2934SOL    HW120264   3.344   2.633   3.631  1.4384 -0.6680  2.0001
 2934SOL    HW220265   3.374   2.734   3.521 -0.6789 -1.5273 -0.2855
 2935SOL     OW20266   2.938   0.771   2.130 -0.1702  0.2802 -0.1643
 2935SOL    HW120267   2.927   0.866   2.137 -0.8677  0.2282 -0.4710
 2935SOL    HW220268   2.861   0.754   2.075 -1.6410 -0.2907  2.0729
 2936SOL     OW20269   2.932   3.981   3.363  0.6278  0.1118 -0.4005
 2936SOL    HW120270   2.881   4.044   3.313 -0.7296  0.2638  1.1544
 2936SOL    HW220271   3.011   4.029   3.387 -0.6119  2.3475 -0.8234
 2937SOL     OW20272   0.299   4.499   1.542 -0.0478  0.0849 -0.4931
 2937SOL    HW120273   0.301   4.593   1.562  0.2949  0.2651 -1.3694
 2937SOL    HW220274   0.255   4.462   1.618 -0.4399  1.1662 -0.1935
 2938SOL     OW20275   4.633   0.871   7.465  0.6616 -0.2106  0.4773
 2938SOL    HW120276   4.611   0.825   7.546 -0.3143 -0.4899  0.0479
 2938SOL    HW220277   4.561   0.933   7.468 -0.2596 -1.2852  0.7666
 2939SOL     OW20278   3.160   0.159   4.406  0.0575 -0.3851  0.0227
 2939SOL    HW120279   3.075   0.171   4.365 -0.8092 -3.1157  1.0650
 2939SOL    HW220280   3.215   0.157   4.328  1.1581  0.7853  0.7498
 2940SOL     OW20281   1.209   1.759   8.457 -0.2723  0.5142 -0.1958
 2940SOL    HW120282   1.218   1.674   8.415  0.5593  0.4232  0.1521
 2940SOL    HW220283   1.301   1.787   8.462 -0.3496  0.6011  0.7517
 2941SOL     OW20284   4.348   3.226   8.372  0.1135  0.1554 -0.3558
 2941SOL    HW120285   4.425   3.269   8.334  1.6191  1.4580  4.2644
 2941SOL    HW220286   4.364   3.261   8.460  1.3213 -0.8379 -0.1843
 2942SOL     OW20287   4.684   2.815  12.164  0.4331  0.0400  0.1396
 2942SOL    HW120288   4.673   2.764  12.084  3.9197  0.7727 -0.8248
 2942SOL    HW220289   4.630   2.765  12.225  1.7543 -0.0921  1.2092
 2943SOL     OW20290   4.140   2.208   3.084 -0.2347 -0.4338 -0.0274
 2943SOL    HW120291   4.067   2.206   3.022  0.2147  1.1832 -0.6148
 2943SOL    HW220292   4.106   2.252   3.162  0.5291 -0.4918  0.3404
 2944SOL     OW20293   0.883   0.880  13.021  0.1269 -0.4353 -0.1610
 2944SOL    HW120294   0.962   0.929  13.046 -0.7928  0.0149  1.9284
 2944SOL    HW220295   0.901   0.842  12.936  0.0877 -0.5054 -0.1377
 2945SOL     OW20296   0.685   2.909   1.352 -0.0103 -0.0854 -0.3258
 2945SOL    HW120297   0.652   2.965   1.282  0.2404  1.9993  1.2385
 2945SOL    HW220298   0.762   2.954   1.386 -0.1974  0.5563 -0.7662
 2946SOL     OW20299   0.277   0.953   6.494 -0.2593  0.6925  0.4855
 2946SOL    HW120300   0.365   0.946   6.458 -0.6211 -0.2489 -0.2038
 2946SOL    HW220301   0.219   0.932   6.421  2.4815  0.6564 -1.7035
 2947SOL     OW20302   2.114   2.230   3.993 -0.5456  0.2053 -0.0879
 2947SOL    HW120303   2.056   2.205   3.921  2.2564  0.6717 -2.4824
 2947SOL    HW220304   2.182   2.283   3.952  0.2362  0.0969  1.0551
 2948SOL     OW20305   2.820   1.839   8.476  0.3068 -0.6385  0.3665
 2948SOL    HW120306   2.894   1.796   8.432  0.4746  0.2710 -0.2384
 2948SOL    HW220307   2.790   1.772   8.537  1.8992 -0.7204  1.0720
 2949SOL     OW20308   2.725   3.551   7.177  0.0765 -0.1236  0.0149
 2949SOL    HW120309   2.777   3.543   7.097 -0.2608  0.0341 -0.2190
 2949SOL    HW220310   2.701   3.459   7.190 -1.2655  0.4189  1.3829
 2950SOL     OW20311   0.102   1.664   4.801  0.2246  0.6094  0.3668
 2950SOL    HW120312   0.165   1.660   4.873  0.9280  0.6125 -0.2398
 2950SOL    HW220313   0.019   1.636   4.839  0.7072 -2.4399 -0.8405
 2951SOL     OW20314   4.200   2.965  11.102  0.3459 -0.1835  0.1303
 2951SOL    HW120315   4.193   3.020  11.024  0.8425 -0.4485 -0.0993
 2951SOL    HW220316   4.115   2.921  11.096 -0.1428  0.7593  0.1349
 2952SOL     OW20317   1.017   4.106   7.422 -0.9362  0.7565 -0.3082
 2952SOL    HW120318   1.045   4.183   7.471  1.6870 -0.2346 -0.2402
 2952SOL    HW220319   1.031   4.131   7.330  1.2981 -2.2499 -0.7804
 2953SOL     OW20320   0.807   1.298   7.682  0.0733 -0.3510 -0.3294
 2953SOL    HW120321   0.765   1.214   7.697  1.6877 -1.0323  0.3760
 2953SOL    HW220322   0.898   1.273   7.698  0.3832 -0.0890 -1.7092
 2954SOL     OW20323   2.748   4.398  10.593  0.0254 -0.3263  0.2786
 2954SOL    HW120324   2.747   4.315  10.545 -2.5776  0.1615 -0.4799
 2954SOL    HW220325   2.778   4.372  10.680  0.2138  2.9353  1.1818
 2955SOL     OW20326   1.635   2.964  11.012  0.0384 -0.3239  0.3856
 2955SOL    HW120327   1.692   2.905  11.062 -1.2588 -1.6829  0.2491
 2955SOL    HW220328   1.584   2.903  10.958 -1.7491  0.6169  1.0275
 2956SOL     OW20329   1.962   1.247   4.609 -0.0443  0.3921 -0.3048
 2956SOL    HW120330   2.026   1.176   4.617 -2.1418 -1.0504  3.6827
 2956SOL    HW220331   2.005   1.284   4.533  0.4071 -1.5459 -0.9905
 2957SOL     OW20332   3.163   4.417   1.249 -0.0606  0.1574 -0.1117
 2957SOL    HW120333   3.246   4.446   1.213  0.3481  0.2713  0.9256
 2957SOL    HW220334   3.112   4.497   1.239 -0.0710 -0.0814 -1.9946
 2958SOL     OW20335   0.399   3.983  13.254  0.2712  0.3670  0.0690
 2958SOL    HW120336   0.427   3.972  13.163 -0.1760  2.9875 -0.3804
 2958SOL    HW220337   0.475   4.030  13.287  0.4685  0.6345 -0.7610
 2959SOL     OW20338   1.176   0.706   4.940  0.0268 -0.3636  0.1192
 2959SOL    HW120339   1.271   0.706   4.957 -0.1390 -1.4466  1.0335
 2959SOL    HW220340   1.143   0.792   4.966 -0.0741 -0.5082  0.4593
 2960SOL     OW20341   2.425   3.611  15.125  0.2789  0.3003 -0.4320
 2960SOL    HW120342   2.506   3.642  15.166  0.0105 -0.0514  0.3707
 2960SOL    HW220343   2.387   3.564  15.200 -0.6910  0.1126 -1.0370
 2961SOL     OW20344   0.671   0.198   1.941  0.8608  0.6795  0.1894
 2961SOL    HW120345   0.739   0.254   1.979  0.2093  1.6217 -0.0430
 2961SOL    HW220346   0.720   0.141   1.882  2.7514  0.5502  1.8675
 2962SOL     OW20347   1.549   4.380   6.368  0.2559 -0.5654  0.1221
 2962SOL    HW120348   1.537   4.430   6.287  2.1302 -0.9016 -0.3764
 2962SOL    HW220349   1.486   4.423   6.424  0.0243 -0.4078 -0.2617
 2963SOL     OW20350   2.421   3.216   2.329 -0.0192  0.4844  0.0646
 2963SOL    HW120351   2.340   3.264   2.346 -1.2755 -1.3690 -0.7560
 2963SOL    HW220352   2.390   3.135   2.369 -1.6666  2.1248  2.0891
 2964SOL     OW20353   0.313   4.577  15.724 -0.7543 -0.6018 -0.7790
 2964SOL    HW120354   0.287   4.521  15.798 -1.9563  0.6626 -0.2406
 2964SOL    HW220355   0.408   4.578  15.729 -0.7333  1.8232 -1.8960
 2965SOL     OW20356   0.463   3.981   2.327 -0.1254  0.5335  0.1589
 2965SOL    HW120357   0.557   3.989   2.313 -0.0955 -0.1680 -0.0499
 2965SOL    HW220358   0.428   4.068   2.312  0.0870  0.3620 -1.3594
 2966SOL     OW20359   2.674   2.915  13.742  0.2478  0.4569 -0.2401
 2966SOL    HW120360   2.619   2.982  13.783  2.2546  1.0218  1.5508
 2966SOL    HW220361   2.739   2.897  13.810  0.9093  0.7720 -0.7934
 2967SOL     OW20362   0.838   3.882   1.048 -0.0292 -0.8123 -0.3130
 2967SOL    HW120363   0.747   3.855   1.060 -0.9594  0.5633 -4.1031
 2967SOL    HW220364   0.834   3.976   1.029  0.1278 -0.7122  0.1601
 2968SOL     OW20365   1.941   2.501  13.655 -0.0813  0.2975 -0.0150
 2968SOL    HW120366   1.939   2.573  13.718  4.0412  0.4475 -0.0584
 2968SOL    HW220367   2.005   2.450  13.705 -1.1995 -2.5901 -1.4817
 2969SOL     OW20368   3.045   1.897   6.228 -0.5790  0.3984  0.0455
 2969SOL    HW120369   2.983   1.825   6.242  0.8846 -1.1679 -1.4935
 2969SOL    HW220370   3.109   1.872   6.295  1.1278 -0.2229 -1.7999
 2970SOL     OW20371   1.993   4.379  16.517  0.3376 -0.1048  0.2263
 2970SOL    HW120372   1.933   4.305  16.522  0.9141 -0.4971  1.3025
 2970SOL    HW220373   2.032   4.377  16.429 -1.8419  0.3126 -0.7433
 2971SOL     OW20374   2.153   4.482   6.634 -0.0503 -0.4574  0.2715
 2971SOL    HW120375   2.239   4.522   6.645 -0.1381  0.1249 -1.2574
 2971SOL    HW220376   2.120   4.543   6.568  1.6345  0.9911  0.7725
 2972SOL     OW20377   0.072   0.595   6.839 -0.0020  0.4301 -0.1178
 2972SOL    HW120378   0.047   0.679   6.800  0.4781  1.6557  2.2460
 2972SOL    HW220379   0.098   0.617   6.928  1.6360 -0.8083 -0.2832
 2973SOL     OW20380   4.047   3.911   1.407  0.5739  0.2503  0.1532
 2973SOL    HW120381   4.040   3.942   1.317  0.2556 -1.4596 -0.4125
 2973SOL    HW220382   3.989   3.835   1.404 -0.4316  0.9919  0.9765
 2974SOL     OW20383   3.906   3.637   5.483  0.2996  0.0646  0.0121
 2974SOL    HW120384   3.921   3.542   5.477  0.0685 -0.0209  0.8212
 2974SOL    HW220385   3.967   3.669   5.550 -0.8258  0.5599  0.7946
 2975SOL     OW20386   4.199   3.647   4.405  0.3380 -0.4118 -0.7159
 2975SOL    HW120387   4.118   3.648   4.455  0.3970 -2.7731 -0.5920
 2975SOL    HW220388   4.172   3.700   4.330 -0.9432  1.6505  1.2205
 2976SOL     OW20389   1.237   2.988   3.964 -0.5744  0.1098  0.6542
 2976SOL    HW120390   1.250   3.066   4.018  0.5434 -0.5961  1.3911
 2976SOL    HW220391   1.161   2.940   3.995 -0.0852  0.1218  1.8594
 2977SOL     OW20392   3.882   4.570   2.968  0.4093  0.1486 -0.0984
 2977SOL    HW120393   3.827   4.619   3.028  0.3482  0.4271 -0.3842
 2977SOL    HW220394   3.917   4.500   3.024  4.1054  1.6723 -0.4825
 2978SOL     OW20395   0.490   3.660   1.039  0.5779  0.2661  0.0820
 2978SOL    HW120396   0.524   3.591   1.096  0.3418  0.4655  0.4654
 2978SOL    HW220397   0.529   3.740   1.073  1.9527 -0.3536 -0.0400
 2979SOL     OW20398   4.610   1.811   4.010 -0.1932 -0.0536 -0.1698
 2979SOL    HW120399   4.635   1.902   3.996 -1.8946  0.0535 -2.4457
 2979SOL    HW220400   4.685   1.788   4.066  0.2172 -1.3548 -1.2594
 2980SOL     OW20401   4.521   2.952   5.833 -0.5896  0.1550  0.1435
 2980SOL    HW120402   4.433   2.964   5.867 -0.5290  0.7536  0.0843
 2980SOL    HW220403   4.565   3.036   5.821  0.7313 -0.7936 -1.6228
 2981SOL     OW20404   0.263   2.266   0.520 -0.5469  0.1207 -0.2530
 2981SOL    HW120405   0.189   2.284   0.578  0.5360  0.9536  0.8622
 2981SOL    HW220406   0.306   2.349   0.540 -1.9167  0.7438  0.1342
 2982SOL     OW20407   1.164   1.793  13.642  0.2850 -0.1209 -0.4283
 2982SOL    HW120408   1.198   1.708  13.672  1.1952  0.4873  0.2645
 2982SOL    HW220409   1.158   1.833  13.729 -2.0404 -0.2525 -0.5225
 2983SOL     OW20410   4.672   0.255   3.515 -0.3701 -0.8298 -0.5892
 2983SOL    HW120411   0.004   0.233   3.593 -2.5523 -1.6597  0.6388
 2983SOL    HW220412   4.637   0.335   3.554  0.5434 -0.9789  0.5374
 2984SOL     OW20413   1.189   1.896   3.926  0.1732 -0.2202  0.0734
 2984SOL    HW120414   1.231   1.917   3.844 -0.5169  0.7310 -0.0345
 2984SOL    HW220415   1.121   1.836   3.894 -1.3198  1.3926  0.1928
 2985SOL     OW20416   0.115   0.812   3.868 -0.3122  0.1733 -0.1333
 2985SOL    HW120417   0.082   0.834   3.955  0.3852  1.8154 -0.2996
 2985SOL    HW220418   0.097   0.718   3.861  1.6280  0.0310 -3.3638
 2986SOL     OW20419   0.281   0.767   4.533  0.5239 -0.2164  0.0127
 2986SOL    HW120420   0.356   0.754   4.591  0.4176  1.6840  0.5831
 2986SOL    HW220421   0.264   0.676   4.509 -1.0243  0.0284  0.1947
 2987SOL     OW20422   2.544   3.545   2.837 -0.3333 -0.1706  0.3634
 2987SOL    HW120423   2.590   3.591   2.907  1.3097 -4.5336  2.1214
 2987SOL    HW220424   2.455   3.574   2.853 -0.0852  0.4066  0.6711
 2988SOL     OW20425   4.596   3.054  14.890  0.2493  0.5193  0.7514
 2988SOL    HW120426   4.601   3.149  14.877  2.0737  0.3064 -0.0070
 2988SOL    HW220427   4.545   3.057  14.971  0.6286  2.9349  0.9057
 2989SOL     OW20428   0.090   1.432   7.640  0.1137  0.3562  0.1384
 2989SOL    HW120429   0.008   1.481   7.651  0.1393  1.1010 -2.9937
 2989SOL    HW220430   0.106   1.448   7.547  0.1442  0.0996  0.0990
 2990SOL     OW20431   1.996   2.981  11.128 -0.1112  0.4720  0.0572
 2990SOL    HW120432   1.999   3.051  11.063  0.5813  0.0662 -0.3503
 2990SOL    HW220433   1.932   2.923  11.087  0.9093  0.5295 -1.6410
 2991SOL     OW20434   3.299   3.080   7.396 -0.9333 -0.0369  0.2166
 2991SOL    HW120435   3.331   3.093   7.307 -1.5401 -2.5393 -0.3755
 2991SOL    HW220436   3.337   3.155   7.442  0.1028  0.5192 -1.5716
 2992SOL     OW20437   3.105   3.760   7.538  0.4374 -0.1217 -0.4550
 2992SOL    HW120438   3.107   3.829   7.604 -0.3195 -0.1587 -0.3857
 2992SOL    HW220439   3.036   3.709   7.581  2.3758 -2.2510  0.1276
 2993SOL     OW20440   0.267   0.677   6.584  0.1987 -0.2235  0.1803
 2993SOL    HW120441   0.285   0.680   6.678  0.6155 -1.4665  0.1416
 2993SOL    HW220442   0.295   0.766   6.562 -3.7625  0.5722 -1.6921
 2994SOL     OW20443   4.109   0.185   2.938 -0.2157 -0.0579  0.1243
 2994SOL    HW120444   4.200   0.159   2.949 -0.1417 -0.0429 -0.4642
 2994SOL    HW220445   4.111   0.279   2.920  1.1915 -0.3489 -1.2173
 2995SOL     OW20446   3.413   3.224  15.056 -0.2371  0.2854 -0.4027
 2995SOL    HW120447   3.445   3.149  15.106  2.4791  0.8599 -1.2689
 2995SOL    HW220448   3.401   3.176  14.974 -1.6670  1.8655 -1.1388
 2996SOL     OW20449   3.425   1.484   7.297  0.9083 -0.1059  0.1863
 2996SOL    HW120450   3.407   1.499   7.390  1.0303 -1.2279  0.3945
 2996SOL    HW220451   3.519   1.467   7.302  1.1654  1.5896  0.9815
 2997SOL     OW20452   0.417   0.493   7.572  0.4410 -0.3948 -0.4540
 2997SOL    HW120453   0.353   0.563   7.559  0.9066 -0.0376 -0.8471
 2997SOL    HW220454   0.438   0.478   7.479  2.6603  1.3492 -0.2154
 2998SOL     OW20455   1.973   0.799   5.309  0.3768  0.4212  0.0200
 2998SOL    HW120456   2.054   0.750   5.324 -0.9716 -2.3245 -1.6544
 2998SOL    HW220457   1.977   0.795   5.214 -1.5243  0.4594 -0.0438
 2999SOL     OW20458   3.113   0.584   4.836  0.1575  0.7533  0.1730
 2999SOL    HW120459   3.045   0.569   4.770  0.2183  0.2468  0.2252
 2999SOL    HW220460   3.081   0.661   4.882  1.0533  1.3133 -0.1472
 3000SOL     OW20461   0.749   0.112  17.423 -0.2071  0.1289 -0.0384
 3000SOL    HW120462   0.729   0.057  17.499 -1.1345 -0.0778 -0.4341
 3000SOL    HW220463   0.661   0.108  17.387 -0.6194 -0.3109  1.0142
 3001SOL     OW20464   4.157   1.161  12.209 -0.2159  0.0416 -0.1770
 3001SOL    HW120465   4.214   1.203  12.273 -0.8569 -1.8065  1.6023
 3001SOL    HW220466   4.207   1.096  12.159  1.0905 -0.1386  1.3646
 3002SOL     OW20467   3.918   3.824   9.980  0.0915 -0.0273  0.3761
 3002SOL    HW120468   3.973   3.802   9.904  0.9582 -1.2760  1.3551
 3002SOL    HW220469   3.847   3.861   9.929 -0.0905 -1.6744 -0.5623
 3003SOL     OW20470   1.370   2.758   9.961 -0.2508  0.8573 -0.2492
 3003SOL    HW120471   1.451   2.735   9.916 -0.4662 -1.1203  0.3660
 3003SOL    HW220472   1.346   2.842   9.921 -1.7919  1.5876  2.2069
 3004SOL     OW20473   3.289   2.494   4.228  0.0461 -0.4044 -0.0102
 3004SOL    HW120474   3.377   2.500   4.265  1.1850  0.3253 -2.8288
 3004SOL    HW220475   3.252   2.578   4.256 -0.4721 -1.4958  2.5502
 3005SOL     OW20476   3.449   2.703   9.397 -0.0743  0.5630 -0.1860
 3005SOL    HW120477   3.525   2.753   9.428 -0.4483  0.2106  1.2960
 3005SOL    HW220478   3.418   2.652   9.472 -1.3003 -0.5127 -1.4320
 3006SOL     OW20479   1.792   2.950  10.108 -0.2312 -0.2096  0.6119
 3006SOL    HW120480   1.753   2.895  10.176 -1.1584 -0.8667 -0.4529
 3006SOL    HW220481   1.871   2.987  10.149 -0.2047 -0.8108  1.1118
 3007SOL     OW20482   3.448   3.599   0.866  0.0613  0.2265 -0.0714
 3007SOL    HW120483   3.504   3.594   0.943 -0.8186  2.4630  0.7153
 3007SOL    HW220484   3.416   3.509   0.866  1.3664 -0.2395  0.9156
 3008SOL     OW20485   2.015   4.200   9.567 -0.1086 -0.2540  0.2084
 3008SOL    HW120486   1.990   4.117   9.610  0.6700  0.3636  1.8537
 3008SOL    HW220487   1.976   4.262   9.628  1.5509  0.1787  0.8219
 3009SOL     OW20488   1.952   2.127   7.345 -0.1028 -0.1601  0.4735
 3009SOL    HW120489   1.861   2.126   7.375 -0.3872 -0.7793 -0.4237
 3009SOL    HW220490   1.966   2.216   7.311 -1.5163 -0.1406 -0.0535
 3010SOL     OW20491   0.909   0.375   1.990 -0.3259 -0.2692 -0.3205
 3010SOL    HW120492   0.932   0.450   2.045 -1.6063  1.0962 -1.6812
 3010SOL    HW220493   0.863   0.424   1.922  0.9815  1.8792  0.3401
 3011SOL     OW20494   1.142   0.263  10.792  0.5765  0.4057  0.1368
 3011SOL    HW120495   1.155   0.237  10.701 -1.5715 -3.6039  0.9880
 3011SOL    HW220496   1.160   0.356  10.781 -2.2737  0.6469 -2.6829
 3012SOL     OW20497   3.706   3.390   6.732 -0.5154 -0.3717  0.0419
 3012SOL    HW120498   3.721   3.481   6.703 -0.6237  0.0490  1.3211
 3012SOL    HW220499   3.712   3.406   6.826  1.2596  0.9114 -0.2765
 3013SOL     OW20500   0.587   0.166   7.503  0.1880 -0.0935  0.3375
 3013SOL    HW120501   0.632   0.223   7.439  0.4027 -0.9683 -0.2862
 3013SOL    HW220502   0.498   0.202   7.506 -0.2356 -0.9720 -1.8247
 3014SOL     OW20503   0.456   4.168   8.981  0.6474  0.0548 -0.1241
 3014SOL    HW120504   0.538   4.193   8.937  0.0182 -0.1288 -1.3924
 3014SOL    HW220505   0.485   4.134   9.065 -1.1167 -0.4083  0.2839
 3015SOL     OW20506   2.313   2.900   2.168 -0.3413  0.1739  0.0189
 3015SOL    HW120507   2.346   2.811   2.182  0.1042  0.3499  0.0837
 3015SOL    HW220508   2.329   2.943   2.252 -3.1031  1.0959  0.0507
 3016SOL     OW20509   4.240   2.344   6.396  0.1328 -0.0550  0.4049
 3016SOL    HW120510   4.191   2.365   6.476 -0.1548 -1.0534  0.4867
 3016SOL    HW220511   4.217   2.251   6.396  0.5256 -0.1501  0.7229
 3017SOL     OW20512   1.668   3.782  13.329  0.0075  0.1281  0.3311
 3017SOL    HW120513   1.589   3.746  13.368  1.5690 -2.6519  0.9100
 3017SOL    HW220514   1.711   3.698  13.310  2.0276  0.7665  2.1649
 3018SOL     OW20515   4.171   0.834   5.691 -0.0182 -0.0598 -0.0975
 3018SOL    HW120516   4.239   0.798   5.633 -0.5894 -4.1498  1.7470
 3018SOL    HW220517   4.177   0.928   5.679 -1.4010 -0.5627 -4.6031
 3019SOL     OW20518   2.308   4.589   1.052  0.1251  1.0233 -0.3721
 3019SOL    HW120519   2.309   4.685   1.056  1.4772  1.0670 -1.7609
 3019SOL    HW220520   2.277   4.564   1.139  2.4357 -3.6129 -0.8764
 3020SOL     OW20521   2.798   1.591   1.176  0.2870  0.0655  0.1332
 3020SOL    HW120522   2.843   1.542   1.246 -0.6302  0.6051  1.1080
 3020SOL    HW220523   2.704   1.587   1.194  0.0987  3.3984 -0.1532
 3021SOL     OW20524   4.649   2.388   0.887  0.6957 -0.3243  0.2776
 3021SOL    HW120525   4.599   2.346   0.958 -1.0672  0.2794 -0.5930
 3021SOL    HW220526   4.584   2.456   0.868  1.0212  0.1796  0.9638
 3022SOL     OW20527   3.304   0.204   5.739  0.4699  0.5116  0.2507
 3022SOL    HW120528   3.321   0.205   5.833  1.7737  1.0616  0.0139
 3022SOL    HW220529   3.253   0.124   5.727  0.2103  1.0691 -2.4389
 3023SOL     OW20530   0.364   2.006   2.752  0.0235 -0.8788 -0.1250
 3023SOL    HW120531   0.381   1.966   2.667 -0.4789 -0.3761 -0.4623
 3023SOL    HW220532   0.431   2.075   2.752  1.3251 -2.1341  1.6421
 3024SOL     OW20533   3.089   0.271   8.526  0.2879  0.2471 -0.1749
 3024SOL    HW120534   3.114   0.231   8.609 -1.1314  0.8847  0.5538
 3024SOL    HW220535   3.170   0.322   8.520 -0.1403  0.6060 -3.2434
 3025SOL     OW20536   4.706   4.219   5.428  0.0338 -0.4294  0.4159
 3025SOL    HW120537   0.014   4.305   5.397 -3.5101  0.8285  0.7148
 3025SOL    HW220538   4.664   4.169   5.358 -0.9666 -0.9104  1.3447
 3026SOL     OW20539   4.191   4.639   4.671 -0.0283 -0.2523  0.0894
 3026SOL    HW120540   4.133   4.567   4.693  0.5670 -0.4387  1.0664
 3026SOL    HW220541   4.194   4.616   4.578  1.6636  0.1090  0.0511
 3027SOL     OW20542   0.507   0.061   1.732 -0.5823 -0.6407  0.3208
 3027SOL    HW120543   0.564   0.135   1.754  0.8279 -1.8459  0.7397
 3027SOL    HW220544   0.549   0.036   1.649  0.3478 -0.6037  0.7833
 3028SOL     OW20545   4.475   4.439   4.641 -0.4078  0.2056  0.5993
 3028SOL    HW120546   4.525   4.389   4.577 -0.0368  0.8873  0.3496
 3028SOL    HW220547   4.414   4.481   4.580 -1.5027 -0.9571  0.8948
 3029SOL     OW20548   1.152   0.274   8.922  0.1023  0.3991  0.5505
 3029SOL    HW120549   1.203   0.287   9.003  0.6698 -0.0711  0.2678
 3029SOL    HW220550   1.076   0.228   8.958  1.1581 -2.5239 -0.9553
 3030SOL     OW20551   2.995   2.827  10.256 -0.0648  0.4093  0.3937
 3030SOL    HW120552   3.019   2.918  10.239  1.3893 -0.0395  0.0475
 3030SOL    HW220553   2.929   2.824  10.186  0.6918 -1.2881 -0.2543
 3031SOL     OW20554   3.570   4.114  15.911 -0.2610 -0.9742  0.2460
 3031SOL    HW120555   3.488   4.155  15.881  1.0574 -0.3076 -2.4253
 3031SOL    HW220556   3.631   4.158  15.851 -1.3397  1.2408  0.7512
 3032SOL     OW20557   0.302   3.692   7.791  0.7990  0.1741  0.5404
 3032SOL    HW120558   0.302   3.753   7.717  0.1567 -1.1209 -0.5316
 3032SOL    HW220559   0.365   3.626   7.759 -2.1424 -1.6979 -1.3519
 3033SOL     OW20560   2.705   0.322   6.871  0.3048 -0.0845  0.1005
 3033SOL    HW120561   2.717   0.227   6.882 -0.1450  0.0257  1.6244
 3033SOL    HW220562   2.612   0.328   6.850  0.3579  2.7105  0.7715
 3034SOL     OW20563   2.569   2.385   5.079 -0.1157  0.3522  0.0833
 3034SOL    HW120564   2.527   2.336   5.149  0.5334 -0.8040 -0.3391
 3034SOL    HW220565   2.658   2.398   5.112 -0.2600  0.9573  0.2416
 3035SOL     OW20566   3.455   0.766   3.661  0.0479 -0.3617  0.4429
 3035SOL    HW120567   3.455   0.820   3.740 -0.0575 -0.2625  0.3747
 3035SOL    HW220568   3.395   0.702   3.699  3.2359 -1.6588  3.3298
 3036SOL     OW20569   2.466   0.953  16.719 -0.3377 -0.2211 -0.1160
 3036SOL    HW120570   2.540   0.901  16.750  2.0205  0.8236 -3.9495
 3036SOL    HW220571   2.493   0.952  16.627 -0.6999 -0.3528 -0.2209
 3037SOL     OW20572   1.342   0.283  16.061 -0.1928  0.0948  0.1660
 3037SOL    HW120573   1.310   0.332  16.136  2.0272  0.1410  1.0837
 3037SOL    HW220574   1.408   0.345  16.030 -0.5545  0.0748 -0.6692
 3038SOL     OW20575   3.678   1.755  14.977 -0.2191  0.0412  0.0665
 3038SOL    HW120576   3.750   1.719  15.029  1.5078  1.6105 -1.1965
 3038SOL    HW220577   3.723   1.775  14.895  0.6519 -1.2616  0.2261
 3039SOL     OW20578   4.041   3.971   4.934 -0.0723  0.0046 -0.1484
 3039SOL    HW120579   4.125   4.001   4.900 -1.4309  0.4545 -3.0367
 3039SOL    HW220580   4.071   3.947   5.022 -0.9289 -1.7501 -0.3339
 3040SOL     OW20581   3.141   2.399  12.945  0.4431 -0.4978  0.2343
 3040SOL    HW120582   3.145   2.494  12.942 -1.2278 -0.4079  1.0910
 3040SOL    HW220583   3.056   2.386  12.985  0.9392  3.6270  2.6364
 3041SOL     OW20584   1.026   1.773  12.811 -0.3517 -0.2082  0.0535
 3041SOL    HW120585   0.985   1.752  12.895  0.4014  1.3740  0.8183
 3041SOL    HW220586   0.970   1.842  12.774 -1.8220 -2.1099 -1.2947
 3042SOL     OW20587   3.643   4.407   7.114 -0.9380 -0.3371  0.2600
 3042SOL    HW120588   3.737   4.424   7.122 -0.7196 -1.8274  0.7484
 3042SOL    HW220589   3.639   4.322   7.157  0.2072 -1.1191 -1.1844
 3043SOL     OW20590   2.229   2.758   0.315 -0.4570  0.1545  0.3719
 3043SOL    HW120591   2.149   2.807   0.294 -0.4583 -0.5898 -1.3658
 3043SOL    HW220592   2.278   2.820   0.368 -0.6987  1.5746 -1.0879
 3044SOL     OW20593   4.550   1.035  17.083  0.1795 -0.2198 -0.5052
 3044SOL    HW120594   4.466   1.001  17.052  0.8842 -1.5186 -1.0049
 3044SOL    HW220595   4.532   1.129  17.074  0.4709 -0.0909  0.2567
 3045SOL     OW20596   2.733   3.695   3.008 -0.3325  0.0593  0.4566
 3045SOL    HW120597   2.748   3.737   3.093 -2.7501 -3.4611  2.6347
 3045SOL    HW220598   2.712   3.771   2.953 -0.3144 -0.6976 -0.6002
 3046SOL     OW20599   0.165   1.579   0.343 -0.3143  0.0539 -0.2866
 3046SOL    HW120600   0.097   1.555   0.405  1.8903 -0.4858  1.9387
 3046SOL    HW220601   0.217   1.500   0.330  0.5977  0.5930 -0.0135
 3047SOL     OW20602   0.889   0.873   4.138  0.0261  0.0304 -0.0730
 3047SOL    HW120603   0.821   0.861   4.071 -0.1419 -0.3679  0.1673
 3047SOL    HW220604   0.970   0.871   4.088 -0.3169 -0.6605 -0.6047
 3048SOL     OW20605   0.220   0.192   5.423  0.7846 -0.1039  0.7148
 3048SOL    HW120606   0.215   0.099   5.399  1.6927  0.5205 -1.8226
 3048SOL    HW220607   0.283   0.225   5.359  0.9913 -0.8571  0.5278
 3049SOL     OW20608   1.780   0.690   4.649 -0.2754 -0.1085 -0.0709
 3049SOL    HW120609   1.746   0.634   4.580  1.3040  2.1297 -2.6739
 3049SOL    HW220610   1.842   0.746   4.602 -0.3094 -0.2356 -0.2636
 3050SOL     OW20611   1.125   4.285   5.500 -0.3984 -0.4159 -0.1581
 3050SOL    HW120612   1.085   4.369   5.524  0.3984 -0.1832  0.3672
 3050SOL    HW220613   1.197   4.320   5.447  1.1124 -1.8314  0.9645
 3051SOL     OW20614   1.048   0.927  16.627 -0.1599  0.2833 -0.5178
 3051SOL    HW120615   1.131   0.969  16.649 -0.4536  0.1490  0.8378
 3051SOL    HW220616   0.992   0.952  16.701  0.7537  0.7759  0.0108
 3052SOL     OW20617   4.645   1.905   8.747  0.1340 -0.7056  0.1297
 3052SOL    HW120618   4.705   1.920   8.674 -2.9710  1.1071 -2.0691
 3052SOL    HW220619   4.588   1.838   8.708 -1.0510  0.0143  0.6182
 3053SOL     OW20620   3.686   3.648   3.352  0.1074  0.2139 -0.1908
 3053SOL    HW120621   3.710   3.684   3.266 -1.2706 -0.6730 -0.9606
 3053SOL    HW220622   3.593   3.670   3.358  0.1793  0.2099  0.8664
 3054SOL     OW20623   2.586   2.171  12.495 -0.5357 -0.1591  0.2224
 3054SOL    HW120624   2.589   2.090  12.444  0.6809  0.5034 -0.7535
 3054SOL    HW220625   2.660   2.152  12.553 -1.3087 -3.8890 -0.0125
 3055SOL     OW20626   3.525   0.031   3.349  0.1410  0.4485  0.9094
 3055SOL    HW120627   3.481   4.677   3.307  0.5000 -1.5848  4.0824
 3055SOL    HW220628   3.538   0.090   3.275 -0.6171 -0.3022  0.1866
 3056SOL     OW20629   0.131   4.310   2.655 -0.4047  0.2368 -1.0500
 3056SOL    HW120630   0.089   4.284   2.572 -0.8609  0.1185 -0.7797
 3056SOL    HW220631   0.187   4.380   2.622 -1.8677  2.1844  0.6281
 3057SOL     OW20632   3.380   1.470   4.846  0.3446  0.8528 -0.0345
 3057SOL    HW120633   3.332   1.429   4.918  0.0604 -0.5949 -1.0657
 3057SOL    HW220634   3.363   1.419   4.767  0.7730  1.8252 -0.7630
 3058SOL     OW20635   0.322   1.225   2.585 -0.1571  0.1683 -0.1706
 3058SOL    HW120636   0.303   1.208   2.492 -1.4346 -0.7640  0.2627
 3058SOL    HW220637   0.365   1.310   2.570  0.1706 -0.1864 -1.2412
 3059SOL     OW20638   3.002   3.408  17.573  0.5484  0.0952 -0.2230
 3059SOL    HW120639   3.066   3.449  17.514 -0.3734  0.7365 -0.7811
 3059SOL    HW220640   2.948   3.486  17.584 -0.1374 -0.9481  3.6628
 3060SOL     OW20641   0.317   0.745  15.382  0.0523 -0.2797  0.6261
 3060SOL    HW120642   0.252   0.769  15.317  1.4200 -1.8809 -1.3359
 3060SOL    HW220643   0.365   0.680  15.331  0.3818 -0.3612  1.0302
 3061SOL     OW20644   2.627   0.403   7.842  0.3377  0.1182 -0.1250
 3061SOL    HW120645   2.678   0.376   7.918 -0.2235  0.1916  0.2843
 3061SOL    HW220646   2.643   0.497   7.847 -2.7024  0.5038  3.0189
 3062SOL     OW20647   1.729   2.219   8.417 -0.7155  0.5169 -0.5655
 3062SOL    HW120648   1.711   2.125   8.408 -1.7615  0.7519 -0.9772
 3062SOL    HW220649   1.732   2.240   8.324 -1.4437 -0.4623 -0.8040
 3063SOL     OW20650   2.869   1.659   0.130  0.1814  0.2930 -0.1196
 3063SOL    HW120651   2.877   1.722   0.058  0.7916  0.0379 -0.2766
 3063SOL    HW220652   2.868   1.571   0.092 -1.2167  0.2454  0.0253
 3064SOL     OW20653   4.003   3.574   0.238 -0.1926  0.3018 -0.1905
 3064SOL    HW120654   4.047   3.529   0.310 -1.0656 -0.0467  0.1184
 3064SOL    HW220655   3.926   3.621   0.267 -0.2712  1.0616 -1.6045
 3065SOL     OW20656   0.216   2.927   2.021 -0.0667 -0.4444 -0.1568
 3065SOL    HW120657   0.123   2.937   2.000  0.8583  2.4772 -2.8859
 3065SOL    HW220658   0.214   2.959   2.111  0.2998 -1.5358  0.2372
 3066SOL     OW20659   3.397   3.634   3.353  0.0668 -0.1498  0.4418
 3066SOL    HW120660   3.341   3.570   3.396  0.3713 -0.8039 -0.1191
 3066SOL    HW220661   3.418   3.582   3.275  0.5815 -0.9692  1.1341
 3067SOL     OW20662   3.871   0.562   6.689 -0.6359  0.1155 -0.2242
 3067SOL    HW120663   3.807   0.571   6.760  2.0133  0.0032  2.1512
 3067SOL    HW220664   3.815   0.540   6.614 -0.5149 -1.3595  0.1216
 3068SOL     OW20665   0.923   4.212   2.851  0.1972 -0.0853  0.0438
 3068SOL    HW120666   0.917   4.293   2.800  3.7083  0.1032 -0.0709
 3068SOL    HW220667   0.990   4.240   2.913  0.4147  0.7755 -0.5799
 3069SOL     OW20668   4.255   2.224   3.715 -0.0338 -0.1601 -0.0451
 3069SOL    HW120669   4.284   2.140   3.678  0.1229  0.2887 -0.9350
 3069SOL    HW220670   4.261   2.279   3.637 -0.0611  0.6772  0.5379
 3070SOL     OW20671   1.791   3.726   7.069 -0.0831 -0.4836 -0.1186
 3070SOL    HW120672   1.709   3.757   7.108  0.1780 -0.1901  0.2011
 3070SOL    HW220673   1.773   3.634   7.050 -0.6218 -0.4521  0.2294
 3071SOL     OW20674   1.095   1.953  11.107 -0.2359 -0.4215  0.5868
 3071SOL    HW120675   1.119   2.000  11.187 -0.1668 -1.2016  1.0248
 3071SOL    HW220676   1.160   1.883  11.113 -1.0181 -1.0843  1.3554
 3072SOL     OW20677   0.090   4.433  10.952  0.0320 -0.5195 -0.5791
 3072SOL    HW120678   0.068   4.466  10.865 -1.3453 -0.5875 -0.2647
 3072SOL    HW220679   0.076   4.338  10.944 -0.9204 -0.3976 -0.3149
 3073SOL     OW20680   3.567   1.868   2.001  0.1584  0.0254 -0.4081
 3073SOL    HW120681   3.629   1.941   1.994  3.0626 -2.3483  0.8185
 3073SOL    HW220682   3.496   1.917   1.960 -0.3208 -1.1771 -0.9959
 3074SOL     OW20683   3.433   4.281   0.347 -0.7073 -0.0700  0.0968
 3074SOL    HW120684   3.464   4.262   0.435 -1.8330  2.3103  1.0310
 3074SOL    HW220685   3.437   4.190   0.318 -1.6546 -0.5091  1.3560
 3075SOL     OW20686   3.847   4.445   8.723 -0.3977  0.4312 -0.4666
 3075SOL    HW120687   3.754   4.430   8.708 -0.5812  0.9553  0.1209
 3075SOL    HW220688   3.859   4.511   8.655 -0.4627  0.4948 -0.4156
 3076SOL     OW20689   2.008   3.913   2.839 -0.7197  0.1618 -0.3684
 3076SOL    HW120690   2.046   3.863   2.912  0.1063  1.8931  0.3918
 3076SOL    HW220691   1.954   3.981   2.879  0.4820  0.8368  0.1203
 3077SOL     OW20692   1.813   2.292  12.394  0.0898  0.2245 -0.0875
 3077SOL    HW120693   1.894   2.344  12.396  1.0621 -1.4520  2.9347
 3077SOL    HW220694   1.833   2.234  12.321 -2.7803 -1.4565  0.4817
 3078SOL     OW20695   1.257   0.932   3.568 -0.3118 -0.5011 -0.0246
 3078SOL    HW120696   1.308   0.961   3.492 -0.4304  2.4872  1.0145
 3078SOL    HW220697   1.297   0.976   3.643  3.2396  1.5668 -3.1269
 3079SOL     OW20698   1.184   1.528   1.940 -0.0213  0.4784 -0.6831
 3079SOL    HW120699   1.126   1.491   1.873 -1.8160 -0.9713  1.6600
 3079SOL    HW220700   1.228   1.450   1.974 -2.2673 -2.0019 -3.4204
 3080SOL     OW20701   2.464   0.423   1.211 -0.0587  0.3913 -0.4900
 3080SOL    HW120702   2.379   0.447   1.246  0.8782  2.2464  0.5769
 3080SOL    HW220703   2.518   0.421   1.290  1.8131  0.9411 -1.7510
 3081SOL     OW20704   4.390   2.191  11.710 -0.3683  0.7564 -0.3565
 3081SOL    HW120705   4.435   2.271  11.736  1.0235  0.4220 -1.7480
 3081SOL    HW220706   4.430   2.131  11.774  0.2589  3.0171  1.3681
 3082SOL     OW20707   2.429   4.598  12.609 -0.0618 -0.2835 -0.3892
 3082SOL    HW120708   2.488   4.658  12.654 -0.7418  1.0702 -1.3054
 3082SOL    HW220709   2.346   4.637  12.636  1.2930  1.3918  1.3212
 3083SOL     OW20710   4.185   4.545   6.926 -0.0452 -0.0267 -0.1074
 3083SOL    HW120711   4.264   4.504   6.961  0.2808  0.4130 -0.3320
 3083SOL    HW220712   4.240   4.611   6.883  1.1789  0.0736  1.6497
 3084SOL     OW20713   0.378   0.219   6.609 -0.2031 -0.2731 -0.3263
 3084SOL    HW120714   0.354   0.253   6.523 -0.5743  0.9584  0.2506
 3084SOL    HW220715   0.334   0.281   6.668 -0.8069  0.6077 -1.7116
 3085SOL     OW20716   4.628   0.077   7.782 -0.1726  0.4925 -0.3487
 3085SOL    HW120717   4.699   0.023   7.748 -0.0429  0.3598  0.1307
 3085SOL    HW220718   4.566   0.069   7.710  1.4958 -0.2711 -1.7032
 3086SOL     OW20719   2.002   3.222   5.485 -0.4090  0.4939  0.0431
 3086SOL    HW120720   1.930   3.282   5.463 -0.6967  0.4333  0.8244
 3086SOL    HW220721   2.005   3.164   5.409 -2.3631 -1.3658  1.3754
 3087SOL     OW20722   4.436   4.475   3.856 -0.0062 -0.0696 -0.8264
 3087SOL    HW120723   4.408   4.384   3.845  0.4030 -0.2242 -0.6104
 3087SOL    HW220724   4.434   4.502   3.765  1.5463 -0.4646 -0.9758
 3088SOL     OW20725   3.026   4.341   5.844  0.1738 -0.1744  0.8688
 3088SOL    HW120726   3.017   4.305   5.756 -0.7564  2.2744 -0.0305
 3088SOL    HW220727   3.093   4.287   5.886  1.0708 -0.0771 -0.4400
 3089SOL     OW20728   4.489   2.983  17.244 -0.5268  0.1448  0.2809
 3089SOL    HW120729   4.428   2.910  17.232  0.5233 -0.7932  0.6516
 3089SOL    HW220730   4.455   3.015  17.327 -0.3221  1.1109 -0.0136
 3090SOL     OW20731   2.258   1.287   6.006  0.6213  0.2612  0.1415
 3090SOL    HW120732   2.252   1.358   6.070 -0.9022  0.3961 -0.1391
 3090SOL    HW220733   2.179   1.236   6.023  0.1903  1.2737  1.2177
 3091SOL     OW20734   1.351   2.932  14.138  0.1191  0.3319  0.6483
 3091SOL    HW120735   1.287   2.891  14.197 -1.5250 -0.7389 -1.8609
 3091SOL    HW220736   1.371   2.858  14.081  0.6966 -1.8711  3.7379
 3092SOL     OW20737   3.121   4.472   3.382 -0.2424 -0.1485 -0.1396
 3092SOL    HW120738   3.123   4.394   3.326  0.0581 -2.2852  2.8251
 3092SOL    HW220739   3.176   4.535   3.334  0.6934 -0.2613  0.7649
 3093SOL     OW20740   0.224   1.055   6.058  0.3316 -0.6385  0.1129
 3093SOL    HW120741   0.285   1.016   6.120 -1.3955 -3.2319  0.2093
 3093SOL    HW220742   0.258   1.039   5.970 -0.4236  0.7060 -0.4221
 3094SOL     OW20743   2.113   3.263  12.414  0.3219  0.9095 -0.2912
 3094SOL    HW120744   2.038   3.279  12.356 -0.5481  2.1553  1.1782
 3094SOL    HW220745   2.170   3.337  12.393  0.8783  0.8539  1.0494
 3095SOL     OW20746   1.762   0.088   4.510 -0.2875  0.2685 -0.4167
 3095SOL    HW120747   1.789   0.092   4.602  2.3671  0.1381 -1.1823
 3095SOL    HW220748   1.762   4.715   4.488  0.0825  0.3166 -0.6201
 3096SOL     OW20749   3.968   3.948   5.475  0.2357 -0.0411  0.5064
 3096SOL    HW120750   3.971   3.993   5.559  0.0062  1.7330 -0.4375
 3096SOL    HW220751   3.883   3.909   5.494  0.7206 -0.8941  0.9134
 3097SOL     OW20752   0.427   2.796   7.803  0.2179 -0.2465  0.0739
 3097SOL    HW120753   0.430   2.780   7.708  2.4610 -0.2845  0.1654
 3097SOL    HW220754   0.378   2.878   7.815 -0.5579 -0.7657  0.5065
 3098SOL     OW20755   4.038   2.691   3.632  0.0867  0.4992 -0.8056
 3098SOL    HW120756   4.073   2.699   3.721 -3.2578  1.8410  0.3955
 3098SOL    HW220757   4.108   2.645   3.586  0.6827 -0.1788  0.7683
 3099SOL     OW20758   4.651   0.018  17.105 -0.6950 -0.1827  0.9741
 3099SOL    HW120759   4.719   0.064  17.057 -1.2842 -0.7160 -0.3863
 3099SOL    HW220760   4.693   4.668  17.156 -0.6351  0.1280  1.3459
 3100SOL     OW20761   3.762   2.840  10.805  0.0288  0.1162 -0.5236
 3100SOL    HW120762   3.694   2.796  10.753 -2.0103  1.9217  0.5947
 3100SOL    HW220763   3.780   2.771  10.868  0.0474  0.5721 -0.0337
 3101SOL     OW20764   1.110   4.265  14.738 -0.1066  0.1778 -0.2564
 3101SOL    HW120765   1.076   4.189  14.786  0.5045 -0.2949 -0.5552
 3101SOL    HW220766   1.154   4.311  14.810 -2.4239  2.6582 -0.4383
 3102SOL     OW20767   2.424   4.097  12.786  0.2363 -0.2100  0.1200
 3102SOL    HW120768   2.429   4.023  12.725 -3.1915  1.1558 -1.7792
 3102SOL    HW220769   2.399   4.165  12.724 -1.1702 -0.0584  0.8540
 3103SOL     OW20770   3.912   4.346   6.153 -0.2757 -0.3216  0.1024
 3103SOL    HW120771   3.853   4.413   6.188  0.3150  0.3739 -0.2426
 3103SOL    HW220772   3.977   4.405   6.116 -0.5323 -0.0739  0.0451
 3104SOL     OW20773   3.984   2.997   5.202 -0.4194 -0.2682 -0.2247
 3104SOL    HW120774   4.055   2.969   5.260  0.4698  1.2854 -0.5822
 3104SOL    HW220775   4.015   3.077   5.160  0.5217  0.0369  1.0363
 3105SOL     OW20776   3.447   3.792   8.475  0.2295  0.0785 -0.0166
 3105SOL    HW120777   3.483   3.858   8.533 -1.5914  0.1606  1.0129
 3105SOL    HW220778   3.505   3.790   8.399  2.2186 -1.6499  1.5587
 3106SOL     OW20779   3.906   4.057   9.042  0.1863  0.0615 -0.1093
 3106SOL    HW120780   3.960   4.097   8.974  0.4846  0.6304  0.4530
 3106SOL    HW220781   3.912   4.127   9.108 -1.5984 -1.5021  1.6806
 3107SOL     OW20782   4.608   2.130   6.549  0.1982  0.1124 -0.2578
 3107SOL    HW120783   4.562   2.105   6.629 -0.6655 -0.3043 -0.8839
 3107SOL    HW220784   4.571   2.060   6.495  0.6761 -0.0395 -0.3833
 3108SOL     OW20785   2.246   1.143   9.017  0.1004 -0.0441 -0.4601
 3108SOL    HW120786   2.186   1.079   9.055  0.0734  1.3163  1.8103
 3108SOL    HW220787   2.276   1.093   8.941  0.7303 -2.3029  1.2896
 3109SOL     OW20788   0.471   4.604   2.756  0.5629 -0.0928 -0.1509
 3109SOL    HW120789   0.551   4.556   2.778  0.0893 -0.8854 -0.1413
 3109SOL    HW220790   0.515   4.680   2.717  0.4255 -0.4186 -0.9528
 3110SOL     OW20791   0.202   1.105   3.915  0.6592 -0.0176 -0.1020
 3110SOL    HW120792   0.226   1.035   3.854  0.4634 -0.4679  0.3307
 3110SOL    HW220793   0.120   1.132   3.873 -0.3319 -1.9214  0.5698
 3111SOL     OW20794   1.615   1.825   6.918  0.0257  0.5340 -0.3807
 3111SOL    HW120795   1.706   1.849   6.939  0.2886  0.3065 -1.2652
 3111SOL    HW220796   1.602   1.736   6.952  0.3482  0.1488 -1.2687
 3112SOL     OW20797   3.379   1.806   3.740 -0.5865  0.0511  0.6818
 3112SOL    HW120798   3.385   1.748   3.816 -2.8931 -1.6893 -0.4849
 3112SOL    HW220799   3.431   1.776   3.666 -1.4089 -0.0841  0.1558
 3113SOL     OW20800   4.553   2.794   2.879 -0.2562  0.3294 -0.1228
 3113SOL    HW120801   4.603   2.748   2.946 -0.1278 -1.0871 -1.1801
 3113SOL    HW220802   4.528   2.872   2.929  1.9809 -0.4601  2.2450
 3114SOL     OW20803   3.506   3.334  17.262  0.2433 -0.0565  0.0072
 3114SOL    HW120804   3.474   3.417  17.226 -0.0551 -0.9158 -1.6799
 3114SOL    HW220805   3.512   3.275  17.187 -1.1981 -0.4112  0.1711
 3115SOL     OW20806   0.417   2.609   1.663 -0.0945 -0.2642  0.6798
 3115SOL    HW120807   0.329   2.643   1.647 -0.1030  0.6350  2.6223
 3115SOL    HW220808   0.477   2.681   1.679 -0.6433  0.5296 -0.8356
 3116SOL     OW20809   4.614   1.486   9.950 -0.2306 -0.2668 -0.2968
 3116SOL    HW120810   4.555   1.420   9.987 -1.4995  1.8736  1.5135
 3116SOL    HW220811   4.577   1.500   9.863  0.5184  1.4123 -0.3645
 3117SOL     OW20812   2.991   0.928   6.598 -0.4587 -0.0543  0.3669
 3117SOL    HW120813   2.928   0.864   6.564  0.1618 -0.6162  0.2685
 3117SOL    HW220814   3.073   0.879   6.603 -1.4879 -1.5111  2.9905
 3118SOL     OW20815   0.862   0.197   4.834  0.4583 -0.1472  0.0432
 3118SOL    HW120816   0.934   0.153   4.789  1.4575  0.9457  0.5774
 3118SOL    HW220817   0.914   0.245   4.898 -0.9477  1.5018 -0.0711
 3119SOL     OW20818   3.359   4.438   1.475  0.5045 -0.7238  0.5433
 3119SOL    HW120819   3.284   4.413   1.421 -1.3556  0.0845  2.7220
 3119SOL    HW220820   3.382   4.522   1.436 -1.1038 -0.7926 -0.5773
 3120SOL     OW20821   0.342   1.048   3.138 -0.3380 -0.5435  0.0532
 3120SOL    HW120822   0.353   1.097   3.057 -1.5652 -1.6242 -0.7765
 3120SOL    HW220823   0.252   1.068   3.164  0.0598 -0.6923  1.5572
 3121SOL     OW20824   1.478   4.013   8.921  0.1387  0.1164  0.2327
 3121SOL    HW120825   1.493   3.965   9.002 -1.0270  0.6619  0.7648
 3121SOL    HW220826   1.387   4.041   8.926  0.2400  0.1974  1.5500
 3122SOL     OW20827   0.951   0.349  13.245 -0.5773 -0.3457  0.3343
 3122SOL    HW120828   1.012   0.277  13.258  0.4557  0.1461 -1.7920
 3122SOL    HW220829   0.996   0.408  13.185 -1.4229 -2.0288 -1.9227
 3123SOL     OW20830   0.673   3.272   4.115 -0.1862 -0.3773  0.5685
 3123SOL    HW120831   0.594   3.323   4.097 -0.3394  0.0634  2.4379
 3123SOL    HW220832   0.644   3.193   4.070  1.5966  0.6638 -2.4218
 3124SOL     OW20833   0.270   4.277   0.040 -0.1676  0.1566 -0.2511
 3124SOL    HW120834   0.307   4.363   0.020  1.0377  0.0086  1.3195
 3124SOL    HW220835   0.301   4.259   0.129  2.5129 -0.0218 -1.2409
 3125SOL     OW20836   4.565   3.235   5.784 -0.1292  0.4129 -0.2425
 3125SOL    HW120837   4.487   3.255   5.733  0.1375 -1.9296 -1.5728
 3125SOL    HW220838   4.591   3.321   5.818 -3.0986  0.8544  0.9697
 3126SOL     OW20839   3.403   1.037  13.747  0.0013  0.1895  0.0305
 3126SOL    HW120840   3.336   1.035  13.816  1.1855 -2.1641  1.0949
 3126SOL    HW220841   3.417   0.944  13.725  0.7162  0.2327  0.3190
 3127SOL     OW20842   3.925   4.562   7.014  0.1635 -0.3961 -0.3252
 3127SOL    HW120843   3.898   4.592   6.927  1.1756 -1.4648 -1.0076
 3127SOL    HW220844   4.014   4.530   7.001  1.0297  2.3338 -1.2465
 3128SOL     OW20845   0.597   0.712   8.395  0.4065  0.0085 -0.1138
 3128SOL    HW120846   0.631   0.701   8.484 -1.5341  1.3427  0.8091
 3128SOL    HW220847   0.673   0.694   8.341  0.6418 -1.2996  0.6677
 3129SOL     OW20848   2.343   3.066  12.915 -0.5468 -0.0190  0.1185
 3129SOL    HW120849   2.319   3.076  13.007  0.7409  2.2978  0.2122
 3129SOL    HW220850   2.289   2.989  12.895 -2.0597  1.5242 -1.7393
 3130SOL     OW20851   2.641   0.692   6.592  0.1937 -0.0958 -0.3687
 3130SOL    HW120852   2.553   0.656   6.605  0.0798  0.9971  1.8807
 3130SOL    HW220853   2.690   0.612   6.577  0.6503 -0.3555  2.4908
 3131SOL     OW20854   0.500   0.987   8.307  0.0239  0.1710  0.9881
 3131SOL    HW120855   0.491   0.895   8.283 -1.0085  0.7526 -0.7780
 3131SOL    HW220856   0.588   0.983   8.346  0.1928  0.0522  0.5963
 3132SOL     OW20857   3.849   4.260   8.372  0.4540  0.0826  0.5392
 3132SOL    HW120858   3.899   4.195   8.421 -1.7640 -0.5204  2.0095
 3132SOL    HW220859   3.849   4.209   8.291  0.8273  0.2335  0.4437
 3133SOL     OW20860   1.083   2.050   3.581 -0.0809  0.2367  0.0109
 3133SOL    HW120861   1.056   2.123   3.524 -0.4711  1.0222  1.2068
 3133SOL    HW220862   1.038   1.980   3.533  0.3454 -0.7315  1.0147
 3134SOL     OW20863   0.653   0.886   4.863 -0.5215 -0.4761  0.5931
 3134SOL    HW120864   0.724   0.900   4.801 -0.5830  1.5255  0.9679
 3134SOL    HW220865   0.634   0.973   4.898 -1.7412 -0.4663 -0.1029
 3135SOL     OW20866   0.522   0.001   4.300 -0.6540  0.2728 -0.4240
 3135SOL    HW120867   0.573   0.029   4.376 -0.7763 -0.1816 -0.1744
 3135SOL    HW220868   0.573   0.047   4.233  2.1680 -0.8843  0.8939
 3136SOL     OW20869   3.189   4.681   5.661 -0.0875  0.2036  0.6330
 3136SOL    HW120870   3.110   4.670   5.608 -0.3917 -3.9091  1.8797
 3136SOL    HW220871   3.172   4.614   5.728 -1.0467  0.5233  0.6972
 3137SOL     OW20872   3.957   3.034   2.428 -0.0118  0.0223 -0.3855
 3137SOL    HW120873   4.020   3.002   2.363  1.3390 -0.2524  1.0764
 3137SOL    HW220874   4.006   3.096   2.482 -2.0858  0.8524  0.5232
 3138SOL     OW20875   4.113   0.925  13.125  0.0914  0.0088 -0.0776
 3138SOL    HW120876   4.152   1.001  13.168  2.1790 -0.7603 -0.5937
 3138SOL    HW220877   4.192   0.872  13.117 -0.4572 -0.7431 -0.4834
 3139SOL     OW20878   4.021   1.349   6.920  0.6582 -0.4107  0.6753
 3139SOL    HW120879   4.015   1.306   7.006  2.1032 -3.2895 -0.6633
 3139SOL    HW220880   4.071   1.425   6.948 -2.1449  1.9794 -0.8163
 3140SOL     OW20881   2.706   3.880   4.701 -0.4312 -0.2592 -0.1375
 3140SOL    HW120882   2.650   3.891   4.777  0.6485 -1.7944  0.8774
 3140SOL    HW220883   2.794   3.880   4.738 -1.2783  0.8316  1.8646
 3141SOL     OW20884   4.020   1.921   3.254 -0.0994 -0.6243 -0.7283
 3141SOL    HW120885   4.068   1.976   3.316  0.3198  0.3873 -1.9481
 3141SOL    HW220886   4.078   1.917   3.178  0.0189  4.1117 -0.9184
 3142SOL     OW20887   0.641   0.554  16.631  0.2667  0.2235 -0.2918
 3142SOL    HW120888   0.555   0.586  16.604  0.7919 -0.5888 -2.8827
 3142SOL    HW220889   0.646   0.464  16.598  1.0993 -0.0438  0.5351
 3143SOL     OW20890   3.495   2.496   8.698 -0.5116 -0.4292  0.3702
 3143SOL    HW120891   3.486   2.587   8.728  2.1703  0.0459 -0.2907
 3143SOL    HW220892   3.582   2.477   8.732 -1.1354 -1.3999  1.4281
 3144SOL     OW20893   3.583   4.454   8.331  0.0681 -0.3690 -0.2262
 3144SOL    HW120894   3.646   4.385   8.312  0.1482 -0.5475  0.6918
 3144SOL    HW220895   3.509   4.411   8.375  1.4428 -1.1197  1.3442
 3145SOL     OW20896   4.661   4.714   3.014 -0.1065 -0.4190 -0.1740
 3145SOL    HW120897   4.579   4.669   2.994 -0.7164  0.0408  1.2714
 3145SOL    HW220898   0.008   4.668   2.965 -0.4251 -1.0297 -0.0364
 3146SOL     OW20899   2.279   4.296  15.829 -0.2858  0.7107  0.2040
 3146SOL    HW120900   2.233   4.224  15.873 -1.9734  0.1615 -2.4611
 3146SOL    HW220901   2.255   4.371  15.882 -0.1702  0.5419  0.4962
 3147SOL     OW20902   1.971   3.624  13.970 -0.1755  0.6838  0.3514
 3147SOL    HW120903   1.923   3.567  14.030  2.1270  0.7662  2.2940
 3147SOL    HW220904   1.985   3.701  14.024  2.3332 -0.0551  0.7464
 3148SOL     OW20905   4.205   3.434  12.799 -0.3868  0.5818  0.3155
 3148SOL    HW120906   4.149   3.396  12.867  1.6939 -0.5763  1.3831
 3148SOL    HW220907   4.182   3.527  12.801  0.7112  0.8359  0.8950
 3149SOL     OW20908   2.861   1.186   2.592  0.0420  0.0925  0.2708
 3149SOL    HW120909   2.889   1.103   2.552  0.2973  0.4096 -0.2096
 3149SOL    HW220910   2.924   1.202   2.662  1.0429  1.4127 -0.9349
 3150SOL     OW20911   4.475   0.075   7.560  0.8191 -0.1066 -0.0973
 3150SOL    HW120912   4.431   0.126   7.492 -0.1546 -0.0561  0.5771
 3150SOL    HW220913   4.544   0.028   7.513 -0.3170 -0.4599 -1.4165
 3151SOL     OW20914   4.474   1.779  13.585  0.4716 -0.4639 -0.4792
 3151SOL    HW120915   4.481   1.772  13.680  2.1201 -0.5084 -0.5911
 3151SOL    HW220916   4.383   1.803  13.571  0.7358  1.3961  1.0822
 3152SOL     OW20917   4.371   2.761   3.799 -0.0923 -0.0796 -0.0025
 3152SOL    HW120918   4.318   2.690   3.835 -0.5231  0.6953  0.8680
 3152SOL    HW220919   4.332   2.750   3.712  0.8536 -0.1253 -0.4203
 3153SOL     OW20920   2.446   1.286   1.300 -0.5515  0.6870 -0.3220
 3153SOL    HW120921   2.371   1.305   1.355 -1.2478 -0.7578 -0.7633
 3153SOL    HW220922   2.407   1.215   1.249  2.5101 -0.2424 -1.3991
 3154SOL     OW20923   0.033   2.227   7.649  0.1594 -0.0812 -0.7399
 3154SOL    HW120924   0.093   2.301   7.642  1.3692 -0.7844  2.6171
 3154SOL    HW220925   0.017   2.216   7.555  0.3133 -1.4353 -0.6100
 3155SOL     OW20926   3.453   1.870  10.658  0.0311  0.0715 -0.1151
 3155SOL    HW120927   3.479   1.935  10.723  1.1235  1.4012 -1.8808
 3155SOL    HW220928   3.529   1.813  10.657 -2.0611 -2.7241  0.0415
 3156SOL     OW20929   4.406   3.121  15.408  0.0157  0.0077 -0.0602
 3156SOL    HW120930   4.324   3.144  15.451  0.8871 -0.1046  1.6533
 3156SOL    HW220931   4.454   3.196  15.442 -2.0992  1.5166 -0.4027
 3157SOL     OW20932   0.269   3.954   8.164 -0.3959 -0.2956 -0.0784
 3157SOL    HW120933   0.228   3.894   8.227 -3.0812  2.4275  0.7339
 3157SOL    HW220934   0.241   4.040   8.195 -1.2389  0.1005 -1.9574
 3158SOL     OW20935   1.345   4.417   3.643 -0.2785  0.2163 -0.5822
 3158SOL    HW120936   1.340   4.503   3.685 -0.2189 -0.5743  1.0724
 3158SOL    HW220937   1.306   4.450   3.562 -0.3136 -0.8107 -0.9763
 3159SOL     OW20938   3.594   4.319   3.460 -0.2127  0.0329  0.0329
 3159SOL    HW120939   3.508   4.350   3.490 -0.4264 -0.3155 -0.2236
 3159SOL    HW220940   3.623   4.283   3.544 -1.2338  1.1485  0.8766
 3160SOL     OW20941   1.171   0.323   3.014  0.0689  0.1603 -0.1592
 3160SOL    HW120942   1.239   0.299   2.951 -1.0205 -1.5905 -0.6604
 3160SOL    HW220943   1.232   0.379   3.062 -0.9726 -1.9875  3.6285
 3161SOL     OW20944   3.625   1.357  10.330  0.0912  0.2849  0.8163
 3161SOL    HW120945   3.679   1.373  10.408 -0.3856  0.3341  1.1342
 3161SOL    HW220946   3.593   1.268  10.345 -1.3119  0.8824  1.3053
 3162SOL     OW20947   4.618   0.822   5.373 -0.2505  0.1499  0.0134
 3162SOL    HW120948   4.596   0.878   5.447 -0.2671  0.5068 -0.2619
 3162SOL    HW220949   4.641   0.738   5.414  1.6803 -0.5365 -2.4718
 3163SOL     OW20950   0.354   0.598   1.412  0.3157  0.3105  0.3615
 3163SOL    HW120951   0.364   0.676   1.356  0.0849 -1.0384 -1.5598
 3163SOL    HW220952   0.347   0.643   1.496  0.6189 -2.5649  1.9176
 3164SOL     OW20953   2.812   3.578   4.635 -0.5684  0.2343  0.2076
 3164SOL    HW120954   2.899   3.617   4.630 -0.1498 -0.6233  0.8028
 3164SOL    HW220955   2.767   3.618   4.709 -2.3155  0.4223 -0.9408
 3165SOL     OW20956   1.778   1.956  17.109 -0.0614  0.5094  0.2423
 3165SOL    HW120957   1.763   2.033  17.055 -1.5257 -0.3133 -0.5404
 3165SOL    HW220958   1.689   1.921  17.118 -0.6524  1.7732 -0.6479
 3166SOL     OW20959   2.530   3.966   2.624 -0.5254 -0.0563  0.1388
 3166SOL    HW120960   2.615   4.010   2.625 -0.5125 -0.1078  1.9096
 3166SOL    HW220961   2.556   3.880   2.591 -0.2486 -0.4845  1.4442
 3167SOL     OW20962   1.305   3.420  16.911  0.0852  0.1844  0.1636
 3167SOL    HW120963   1.306   3.513  16.887  0.3223 -0.5923 -2.8801
 3167SOL    HW220964   1.339   3.373  16.835  0.0112  0.3095  0.0522
 3168SOL     OW20965   4.500   4.335   9.332 -0.1644  0.1392 -0.0052
 3168SOL    HW120966   4.507   4.249   9.374  2.4164  0.1602 -0.4079
 3168SOL    HW220967   4.544   4.387   9.400 -0.5792  0.5125 -0.0226
 3169SOL     OW20968   4.053   4.264   1.328 -0.4390  0.3086  0.0544
 3169SOL    HW120969   3.984   4.205   1.358  0.6028 -1.6236 -1.3246
 3169SOL    HW220970   4.002   4.339   1.297  0.1668  1.0097  0.7611
 3170SOL     OW20971   2.773   4.448   7.836 -0.2420 -0.3856  0.2979
 3170SOL    HW120972   2.715   4.475   7.907 -1.9744 -3.8669  0.1858
 3170SOL    HW220973   2.730   4.470   7.753 -0.9826  0.9379  1.0512
 3171SOL     OW20974   0.252   2.907  16.097 -0.1143 -0.2829 -0.4958
 3171SOL    HW120975   0.227   2.978  16.037 -0.0836  0.9126  0.9047
 3171SOL    HW220976   0.347   2.903  16.089  0.1273  1.1735  1.4645
 3172SOL     OW20977   3.578   3.947   7.363 -0.2058  0.0025  0.4683
 3172SOL    HW120978   3.603   4.039   7.373  0.3947 -0.1064  0.0143
 3172SOL    HW220979   3.510   3.941   7.429 -1.2095  0.7915 -0.4992
 3173SOL     OW20980   4.380   4.148   5.551  0.0657 -0.1931  0.1290
 3173SOL    HW120981   4.454   4.190   5.508  0.3946 -0.6373  0.2672
 3173SOL    HW220982   4.424   4.074   5.592 -0.0305  0.1941  0.9429
 3174SOL     OW20983   2.852   1.350   4.467  0.8491 -0.4629  0.1719
 3174SOL    HW120984   2.820   1.352   4.377 -0.2159 -0.7413  0.5431
 3174SOL    HW220985   2.831   1.440   4.495  0.7814 -0.1776 -0.7812
 3175SOL     OW20986   1.168   0.047  10.530 -0.3238  0.1438 -0.8025
 3175SOL    HW120987   1.163   4.700  10.462 -0.5026  0.4844 -1.1248
 3175SOL    HW220988   1.243   0.010  10.577 -2.4300 -0.7504  1.8652
 3176SOL     OW20989   0.343   0.694   8.291  0.3401 -0.3124 -0.3432
 3176SOL    HW120990   0.427   0.677   8.334 -0.3674 -0.0841  1.1677
 3176SOL    HW220991   0.304   0.726   8.372 -0.6022 -2.7541  0.1680
 3177SOL     OW20992   3.895   2.835   6.504  0.1859  0.5647  0.5001
 3177SOL    HW120993   3.958   2.868   6.568  0.7252 -0.8074  0.6896
 3177SOL    HW220994   3.822   2.888   6.536 -0.3677 -0.7270  1.3722
 3178SOL     OW20995   3.040   1.920   8.852  0.4481 -0.0534 -0.4016
 3178SOL    HW120996   2.986   1.980   8.905 -0.7251 -0.1296 -1.5257
 3178SOL    HW220997   3.078   1.985   8.793 -1.2451 -1.7542 -3.3438
 3179SOL     OW20998   0.600   3.686  12.773  0.0141 -0.4431 -0.0932
 3179SOL    HW120999   0.675   3.636  12.806  0.6670 -0.0994 -1.0495
 3179SOL    HW221000   0.644   3.720  12.695  0.1731 -1.7271 -0.5662
 3180SOL     OW21001   2.122   3.502  12.981 -0.4057 -0.6927 -0.8589
 3180SOL    HW121002   2.121   3.407  12.963 -1.8321 -1.1795  1.8400
 3180SOL    HW221003   2.028   3.502  12.997  0.2827  1.2360  3.1099
 3181SOL     OW21004   3.090   1.496   2.820  0.0627 -0.1216  0.2574
 3181SOL    HW121005   3.159   1.442   2.782 -0.4551 -1.5050  1.2735
 3181SOL    HW221006   3.067   1.548   2.743 -1.7458  0.1256  0.9729
 3182SOL     OW21007   1.323   0.246   7.938  0.1548  0.5488 -0.5721
 3182SOL    HW121008   1.249   0.255   7.878 -2.3031 -0.1911  2.3870
 3182SOL    HW221009   1.395   0.285   7.889 -0.3610  1.5150 -0.5561
 3183SOL     OW21010   3.249   1.139   7.604 -0.1080 -0.5441  0.1997
 3183SOL    HW121011   3.173   1.195   7.617 -1.2556 -2.3786  1.3514
 3183SOL    HW221012   3.258   1.155   7.510 -0.6174  0.5209  0.3404
 3184SOL     OW21013   2.962   0.899   3.339  0.1709  0.8830 -0.3975
 3184SOL    HW121014   2.935   0.942   3.258  0.1181  0.5981 -0.5294
 3184SOL    HW221015   2.876   0.874   3.372  0.0946  2.0770  0.3045
 3185SOL     OW21016   2.811   3.928   4.258 -0.3020  0.5464  0.0405
 3185SOL    HW121017   2.809   3.832   4.254 -1.4830  0.6770 -2.5023
 3185SOL    HW221018   2.736   3.957   4.206 -0.0238  4.0892  1.6649
 3186SOL     OW21019   3.847   0.175   4.100 -0.6186  0.3564 -0.5257
 3186SOL    HW121020   3.855   0.187   4.195  1.7466 -0.7346 -0.5930
 3186SOL    HW221021   3.881   0.255   4.059  1.5810  1.0708  2.6842
 3187SOL     OW21022   1.391   4.697  10.991 -0.1496  0.0642  0.0082
 3187SOL    HW121023   1.485   4.693  10.976  0.0096  3.7032  0.1215
 3187SOL    HW221024   1.381   0.060  11.038  0.6185 -0.1897  0.6143
 3188SOL     OW21025   2.363   0.643  12.599 -0.0686 -0.0421  0.3180
 3188SOL    HW121026   2.379   0.693  12.519  1.1175  0.5322  0.9079
 3188SOL    HW221027   2.452   0.617  12.619 -0.1866 -0.9162 -0.3371
 3189SOL     OW21028   3.656   0.471   8.931 -0.3962  0.1042 -0.1021
 3189SOL    HW121029   3.728   0.431   8.883 -1.3265  0.0714 -1.4749
 3189SOL    HW221030   3.617   0.540   8.877 -2.3039 -1.1027 -0.3170
 3190SOL     OW21031   3.389   3.832  17.590 -0.3693  0.2531  0.0178
 3190SOL    HW121032   3.447   3.903  17.617 -2.5451  1.3427  1.8649
 3190SOL    HW221033   3.451   3.781  17.539 -0.9686 -1.4883  1.0200
 3191SOL     OW21034   4.658   3.807  14.666  0.5785  0.5622  0.1500
 3191SOL    HW121035   4.614   3.879  14.710 -0.5433  1.3177 -2.2037
 3191SOL    HW221036   0.017   3.861  14.653  0.1003  1.4843  1.0927
 3192SOL     OW21037   0.088   1.471   3.278 -0.1094  1.2428  0.1114
 3192SOL    HW121038   4.714   1.469   3.262  0.3076  0.5245 -2.1225
 3192SOL    HW221039   0.100   1.537   3.346  0.0526 -1.2108  2.4882
 3193SOL     OW21040   0.662   0.817  17.006 -0.0744 -0.1331 -0.4945
 3193SOL    HW121041   0.693   0.730  16.985 -0.0229 -0.1315 -0.4205
 3193SOL    HW221042   0.690   0.817  17.097 -0.6248  3.1116 -0.3189
 3194SOL     OW21043   3.409   2.696  11.340  0.6344 -0.0944  0.3114
 3194SOL    HW121044   3.478   2.645  11.382  1.0445 -0.6184 -0.9914
 3194SOL    HW221045   3.432   2.679  11.248 -0.1588 -2.3004  0.5296
 3195SOL     OW21046   0.628   1.381   6.961  0.0654  0.2096 -0.0817
 3195SOL    HW121047   0.681   1.461   6.967 -1.2433  1.0988 -0.4948
 3195SOL    HW221048   0.625   1.349   7.051  0.0195 -0.0490 -0.1749
 3196SOL     OW21049   1.711   3.319   5.599  0.3812 -0.0568  0.4195
 3196SOL    HW121050   1.668   3.267   5.531 -1.0313  0.7733  0.6768
 3196SOL    HW221051   1.644   3.289   5.661 -1.3840  2.7783 -0.1239
 3197SOL     OW21052   3.195   3.149   2.567  0.5796 -0.1040  0.0049
 3197SOL    HW121053   3.155   3.107   2.490  2.7023 -2.3876  0.1286
 3197SOL    HW221054   3.280   3.106   2.574  1.1609  1.2353  0.8806
 3198SOL     OW21055   4.471   1.583   6.217 -0.5462  0.3235 -0.0892
 3198SOL    HW121056   4.457   1.596   6.311  1.2471 -0.3394  0.2607
 3198SOL    HW221057   4.386   1.550   6.188 -1.2191 -0.4606  2.7847
 3199SOL     OW21058   2.061   2.945   0.219 -0.1386  0.1619 -0.4443
 3199SOL    HW121059   2.068   3.028   0.265 -0.1671  0.1440 -0.4080
 3199SOL    HW221060   2.115   2.953   0.140  1.1563  2.4117  0.6680
 3200SOL     OW21061   4.492   3.495   6.495  0.3821  0.3748  0.5158
 3200SOL    HW121062   4.450   3.415   6.463 -0.1637  0.7906  0.2004
 3200SOL    HW221063   4.548   3.461   6.565 -0.1354 -0.7587  0.3833
 3201SOL     OW21064   1.720   1.172  14.415  0.2716 -0.4580  0.2315
 3201SOL    HW121065   1.767   1.163  14.498 -0.7591  1.6563  1.0339
 3201SOL    HW221066   1.643   1.115  14.421 -0.8730  1.0445 -0.3167
 3202SOL     OW21067   0.687   0.834   6.054  0.3377  0.0061  0.2328
 3202SOL    HW121068   0.728   0.811   5.971 -1.0409 -2.8540  0.3155
 3202SOL    HW221069   0.766   0.834   6.108 -0.8692 -0.9146  2.0156
 3203SOL     OW21070   3.497   3.235   5.826 -0.0775 -0.1304  0.4747
 3203SOL    HW121071   3.440   3.277   5.761 -0.9132 -1.0501  0.6194
 3203SOL    HW221072   3.488   3.145   5.795 -0.7384 -0.0434  0.4186
 3204SOL     OW21073   0.848   4.121   0.927 -0.6015  0.4704 -0.4263
 3204SOL    HW121074   0.878   4.204   0.891  3.1621 -1.9294 -2.8030
 3204SOL    HW221075   0.767   4.105   0.878 -0.3960 -0.8178 -0.3530
 3205SOL     OW21076   4.026   4.606  11.785 -0.1673  0.3527  0.2559
 3205SOL    HW121077   3.936   4.595  11.757 -0.3390  0.7520  0.6449
 3205SOL    HW221078   4.051   4.514  11.797  1.4759  0.9269  1.2405
 3206SOL     OW21079   3.807   2.787   3.533  0.2089 -0.3334  0.3113
 3206SOL    HW121080   3.880   2.764   3.591  1.0397  1.4855 -0.0041
 3206SOL    HW221081   3.734   2.787   3.595  0.5230 -0.8342  0.6915
 3207SOL     OW21082   0.185   4.548   4.002  0.0018  0.2602 -0.0343
 3207SOL    HW121083   0.111   4.574   3.948 -0.7203 -1.9701 -0.1341
 3207SOL    HW221084   0.217   4.629   4.041 -1.9630  0.8305  0.3686
 3208SOL     OW21085   2.816   2.436   5.190  0.3948  0.7266  0.2690
 3208SOL    HW121086   2.910   2.446   5.175  0.3449 -0.8777 -1.0737
 3208SOL    HW221087   2.795   2.526   5.213  0.7562  0.3894  1.9350
 3209SOL     OW21088   1.909   1.750   6.003  0.2597 -0.2426  0.4104
 3209SOL    HW121089   1.945   1.662   6.010  1.4851  0.2985  0.9568
 3209SOL    HW221090   1.923   1.761   5.909  1.0205  3.1021  0.9096
 3210SOL     OW21091   3.567   0.701   9.167  0.1789  0.3217 -0.2565
 3210SOL    HW121092   3.480   0.676   9.135 -1.1256 -0.2484  3.7538
 3210SOL    HW221093   3.609   0.617   9.188 -0.7527 -0.3153 -0.9443
 3211SOL     OW21094   4.145   0.790   7.834 -0.0375 -0.1257 -0.0231
 3211SOL    HW121095   4.201   0.733   7.886 -0.3791 -1.3343 -0.9994
 3211SOL    HW221096   4.151   0.752   7.746  3.3084 -2.2371  1.1012
 3212SOL     OW21097   1.439   3.840   4.793 -0.2162  0.2001  0.2828
 3212SOL    HW121098   1.438   3.884   4.878  1.7847  0.5835  0.1113
 3212SOL    HW221099   1.505   3.772   4.807  0.5466  0.8788 -0.0363
 3213SOL     OW21100   2.927   0.210  15.653  0.0401  0.1776 -0.3854
 3213SOL    HW121101   2.882   0.129  15.629 -1.4937  0.3216  1.9498
 3213SOL    HW221102   2.891   0.265  15.583 -0.8509 -0.5566 -0.4931
 3214SOL     OW21103   0.506   2.971   4.817  0.0218 -0.0484 -0.0149
 3214SOL    HW121104   0.566   2.948   4.888 -1.4037 -2.4147  0.4156
 3214SOL    HW221105   0.558   3.029   4.761  0.0325 -0.3007 -0.2637
 3215SOL     OW21106   1.671   2.435  10.564  0.3959 -0.1961 -0.0071
 3215SOL    HW121107   1.649   2.525  10.589 -0.5209 -0.5493  0.4561
 3215SOL    HW221108   1.733   2.411  10.633 -2.5643 -0.3889  2.5585
 3216SOL     OW21109   1.068   0.542  13.053  0.0771  0.2966  0.2100
 3216SOL    HW121110   1.141   0.480  13.061  1.1071  1.2453 -1.7928
 3216SOL    HW221111   1.114   0.614  13.098 -0.3507  1.2980 -0.9537
 3217SOL     OW21112   4.268   4.211  17.104 -0.2665  0.0727 -0.1866
 3217SOL    HW121113   4.332   4.254  17.047 -0.4753  2.2105  1.2188
 3217SOL    HW221114   4.209   4.281  17.131  1.3960  1.5635 -0.5019
 3218SOL     OW21115   2.590   3.464   5.328  0.0436 -0.6298 -0.1659
 3218SOL    HW121116   2.578   3.449   5.235 -2.6747 -0.6434  0.1784
 3218SOL    HW221117   2.679   3.499   5.334 -0.2555  0.0166  0.5253
 3219SOL     OW21118   0.715   1.206   6.764 -0.5974  0.6395  0.0401
 3219SOL    HW121119   0.807   1.229   6.757 -0.9823  1.9321 -0.8119
 3219SOL    HW221120   0.690   1.253   6.843 -0.3382  3.1480 -1.3530
 3220SOL     OW21121   4.359   0.040   6.826  0.0277  0.7530  0.0368
 3220SOL    HW121122   4.379   0.007   6.738 -0.0569 -2.6947  1.3296
 3220SOL    HW221123   4.273   0.076   6.804  0.2965  2.3153  1.5021
 3221SOL     OW21124   1.660   3.035   3.968  0.3480  0.6647 -0.0257
 3221SOL    HW121125   1.732   3.089   3.935  1.5437 -2.6680 -2.8107
 3221SOL    HW221126   1.619   3.025   3.882 -0.1811 -0.7113  0.3888
 3222SOL     OW21127   4.701   3.443   9.226 -0.4076  0.9374  0.0347
 3222SOL    HW121128   0.062   3.404   9.192 -0.6947  1.3879 -1.1868
 3222SOL    HW221129   4.671   3.373   9.284  0.1592  1.3304  0.7991
 3223SOL     OW21130   4.397   2.925   0.285 -0.6288 -0.8239  0.2083
 3223SOL    HW121131   4.321   2.944   0.229  0.5822  2.6280 -0.3028
 3223SOL    HW221132   4.365   2.852   0.338  0.6530 -0.7137  1.1292
 3224SOL     OW21133   0.628   2.081   6.320  0.1874 -0.0010  0.2661
 3224SOL    HW121134   0.559   2.070   6.255 -0.3619  2.2460  0.4710
 3224SOL    HW221135   0.590   2.161   6.356 -0.9785 -1.1233  1.5349
 3225SOL     OW21136   4.614   3.602  13.771  0.0505  0.2711  0.0613
 3225SOL    HW121137   4.658   3.589  13.687 -1.7356  0.7268 -0.9316
 3225SOL    HW221138   4.606   3.697  13.776 -1.1870  0.0100  2.7207
 3226SOL     OW21139   2.295   4.415   3.556 -0.5579  0.0883  0.2776
 3226SOL    HW121140   2.324   4.472   3.627  0.0382 -0.9781  0.8999
 3226SOL    HW221141   2.202   4.431   3.576 -0.9308 -0.6965 -0.8423
 3227SOL     OW21142   2.124   4.481   9.571  0.2022 -0.3281  0.0617
 3227SOL    HW121143   2.051   4.455   9.627  1.9615 -0.6722  2.1866
 3227SOL    HW221144   2.188   4.502   9.640  2.0509 -1.4470 -1.3288
 3228SOL     OW21145   4.708   0.296   9.422 -0.4749 -0.0414  0.0591
 3228SOL    HW121146   4.691   0.226   9.359 -1.1027 -0.1450  0.3407
 3228SOL    HW221147   4.683   0.258   9.507  2.0592  0.7064  1.1284
 3229SOL     OW21148   2.941   2.833   1.935  0.2742  0.3682  0.0807
 3229SOL    HW121149   2.882   2.896   1.978 -0.8399 -0.4615 -0.2423
 3229SOL    HW221150   2.884   2.759   1.954  0.4413  0.4098  0.7252
 3230SOL     OW21151   3.906   2.342   5.915  0.8324 -0.2752 -0.0812
 3230SOL    HW121152   3.920   2.260   5.964  0.7624  0.6242  1.4318
 3230SOL    HW221153   3.995   2.369   5.896  1.2811 -2.1532 -0.6836
 3231SOL     OW21154   2.295   0.657   9.318  0.1488 -0.2246 -0.8414
 3231SOL    HW121155   2.344   0.716   9.261  0.5631  0.8256  0.6067
 3231SOL    HW221156   2.211   0.641   9.275 -1.1526  2.7397  0.5736
 3232SOL     OW21157   3.748   3.882   4.994 -0.2551  0.3226 -0.4078
 3232SOL    HW121158   3.797   3.840   5.064  0.0852  1.5747  0.0966
 3232SOL    HW221159   3.785   3.970   4.988 -1.3599  0.8314  0.0619
 3233SOL     OW21160   1.200   1.373   6.862  0.4604  0.8048 -0.3349
 3233SOL    HW121161   1.206   1.434   6.935 -1.3427  1.5428 -0.8233
 3233SOL    HW221162   1.287   1.333   6.860  0.2912  0.4103  0.3565
 3234SOL     OW21163   0.219   2.289   7.886  0.3368  0.0605 -0.2601
 3234SOL    HW121164   0.293   2.229   7.878  1.1305  1.2275 -1.6353
 3234SOL    HW221165   0.273   2.368   7.881 -0.0689  0.4670  1.6210
 3235SOL     OW21166   4.053   3.602  17.424 -0.5880 -0.0548  0.5131
 3235SOL    HW121167   4.084   3.516  17.396 -1.2577 -0.3026  0.5272
 3235SOL    HW221168   3.964   3.579  17.450 -0.3048  0.3730  1.8354
 3236SOL     OW21169   4.455   3.279   6.071  0.1059 -0.0077  0.1386
 3236SOL    HW121170   4.440   3.264   5.977 -1.1983  1.0337  0.1763
 3236SOL    HW221171   4.404   3.360   6.075 -2.5392 -1.5173 -3.0545
 3237SOL     OW21172   0.781   0.940   2.863 -0.3709 -0.0217  0.2249
 3237SOL    HW121173   0.845   0.998   2.822  0.6449 -0.7870  0.7410
 3237SOL    HW221174   0.847   0.891   2.912  0.1414  1.0162  0.5758
 3238SOL     OW21175   1.507   2.101   3.619  0.5301  0.2027  0.5134
 3238SOL    HW121176   1.573   2.126   3.554  1.6653  1.5908  2.1989
 3238SOL    HW221177   1.531   2.141   3.703 -1.5698 -2.2736  2.2624
 3239SOL     OW21178   0.676   4.281  15.566 -0.0185  0.0965  0.3190
 3239SOL    HW121179   0.761   4.257  15.602  0.7611  0.8231 -1.0745
 3239SOL    HW221180   0.646   4.199  15.527 -0.5496  1.1710 -1.5185
 3240SOL     OW21181   1.705   1.721   0.965  0.2775 -0.1238 -0.3763
 3240SOL    HW121182   1.689   1.796   1.022  0.6782 -0.4684  0.1815
 3240SOL    HW221183   1.774   1.751   0.906  0.6188 -1.1139 -0.4803
 3241SOL     OW21184   1.863   2.481   2.779  0.3826  0.4096  0.1245
 3241SOL    HW121185   1.883   2.573   2.791 -2.5777  0.9659  0.7897
 3241SOL    HW221186   1.880   2.440   2.864 -2.3506  1.2424  1.0683
 3242SOL     OW21187   3.184   3.960   1.842 -0.6606 -0.0762  0.1266
 3242SOL    HW121188   3.116   3.969   1.775 -1.1513 -0.3782  0.5805
 3242SOL    HW221189   3.162   3.869   1.862  0.9049 -0.4380  0.2329
 3243SOL     OW21190   4.262   4.393   8.513  0.0404 -0.3697  0.0587
 3243SOL    HW121191   4.341   4.432   8.475 -0.6549  1.7164  0.7454
 3243SOL    HW221192   4.283   4.306   8.546 -0.4547  1.0144  4.0406
 3244SOL     OW21193   3.884   2.414   3.631  0.1463 -0.0650  0.0036
 3244SOL    HW121194   3.892   2.509   3.628 -0.2919 -0.0199  0.3450
 3244SOL    HW221195   3.797   2.413   3.592 -0.0020  0.9069  0.3156
 3245SOL     OW21196   1.592   0.806   6.670  0.3519 -0.1577 -0.5202
 3245SOL    HW121197   1.604   0.771   6.581 -1.1363 -4.4500  0.9812
 3245SOL    HW221198   1.523   0.749   6.703  0.2032  0.5810  0.4409
 3246SOL     OW21199   3.711   2.351   5.699  0.5819  0.4723 -0.6240
 3246SOL    HW121200   3.789   2.334   5.752 -0.5391  0.8781  1.1342
 3246SOL    HW221201   3.736   2.289   5.630 -1.0722 -1.2200  0.2965
 3247SOL     OW21202   2.984   0.443   7.444  0.0380 -0.3668 -0.2125
 3247SOL    HW121203   3.026   0.379   7.503 -0.3857  1.1165  1.7117
 3247SOL    HW221204   2.939   0.491   7.514 -0.4065  0.0858 -0.8133
 3248SOL     OW21205   0.909   1.361   2.789  0.1460 -0.0864  0.5188
 3248SOL    HW121206   0.909   1.451   2.757 -0.6768 -0.1622  0.2822
 3248SOL    HW221207   0.813   1.356   2.792  0.0834  1.0207  0.2421
 3249SOL     OW21208   0.214   2.031   4.894  0.4799  0.3862  0.3826
 3249SOL    HW121209   0.190   2.119   4.865 -3.0865  0.4313  3.4884
 3249SOL    HW221210   0.303   2.022   4.859 -0.3731 -1.9984 -1.1823
 3250SOL     OW21211   4.056   4.489   7.671 -0.0837  0.3380  0.0549
 3250SOL    HW121212   3.969   4.518   7.646 -1.1042 -1.2681  1.6869
 3250SOL    HW221213   4.047   4.442   7.755 -0.2183  1.9648  0.9478
 3251SOL     OW21214   0.889   1.453   4.863  0.5687  0.0033  0.0831
 3251SOL    HW121215   0.819   1.508   4.828  0.4746  1.3654  2.4324
 3251SOL    HW221216   0.961   1.508   4.833 -0.2141 -0.1781 -2.0963
 3252SOL     OW21217   4.414   2.187   2.298  0.2858  0.5935  0.2683
 3252SOL    HW121218   4.454   2.193   2.385 -2.7459 -1.8621  1.8220
 3252SOL    HW221219   4.326   2.160   2.324  0.2058 -2.3382 -2.8978
 3253SOL     OW21220   0.667   2.038   8.066 -0.0327 -0.4680  0.0231
 3253SOL    HW121221   0.728   2.101   8.027 -0.4495  0.1735  0.4187
 3253SOL    HW221222   0.706   1.961   8.024  2.0982  1.0289 -0.7495
 3254SOL     OW21223   3.717   1.735  15.759 -0.1435  0.5012  0.6265
 3254SOL    HW121224   3.646   1.787  15.797  1.4276  2.8878  0.3038
 3254SOL    HW221225   3.726   1.783  15.677 -2.7003 -1.3861 -0.7331
 3255SOL     OW21226   2.283   0.007   9.042 -0.3799 -0.0669 -0.2884
 3255SOL    HW121227   2.284   0.000   9.137  0.0097  1.6917 -0.1664
 3255SOL    HW221228   2.250   4.638   9.032 -0.2810 -0.0003 -1.1931
 3256SOL     OW21229   2.559   0.146   9.896  0.8505  0.2316 -0.5306
 3256SOL    HW121230   2.508   0.070   9.925  1.9182 -0.0900  0.5069
 3256SOL    HW221231   2.492   0.202   9.856  1.7230 -1.4356 -4.3331
 3257SOL     OW21232   2.213   2.449   5.091  0.2166 -0.3808  0.1728
 3257SOL    HW121233   2.219   2.505   5.169 -1.9144  1.4117 -0.9472
 3257SOL    HW221234   2.274   2.495   5.034  1.3383  0.6401  2.2081
 3258SOL     OW21235   3.802   3.754   0.380 -0.1560 -0.1570 -0.4315
 3258SOL    HW121236   3.712   3.719   0.388 -0.3997  0.7132  0.5592
 3258SOL    HW221237   3.793   3.844   0.411  0.4301  0.4895 -2.1494
 3259SOL     OW21238   2.280   0.780   4.951  0.2251  0.0266 -0.0871
 3259SOL    HW121239   2.295   0.845   5.019 -0.4631 -0.4309  0.5029
 3259SOL    HW221240   2.189   0.765   4.975  0.4613 -1.3322  0.0079
 3260SOL     OW21241   3.032   3.049   4.374  0.5178  0.1784  0.0707
 3260SOL    HW121242   2.982   3.119   4.334  0.4795  1.2724  2.0206
 3260SOL    HW221243   3.118   3.068   4.337 -0.9454  0.8962 -2.8834
 3261SOL     OW21244   4.203   3.320   1.932  0.2808  0.5605  0.4814
 3261SOL    HW121245   4.242   3.274   1.858  2.2513  2.9006  0.0684
 3261SOL    HW221246   4.160   3.396   1.891  1.4130  1.0420  0.1829
 3262SOL     OW21247   4.411   1.656   3.286  0.2616  0.1831 -0.7397
 3262SOL    HW121248   4.404   1.752   3.290  0.0771  0.2119 -1.7866
 3262SOL    HW221249   4.477   1.647   3.217  0.7552  2.9252 -0.6314
 3263SOL     OW21250   2.176   0.174   5.494 -0.0116  0.2040 -0.6228
 3263SOL    HW121251   2.231   0.220   5.556 -1.0556  3.3317 -2.0030
 3263SOL    HW221252   2.242   0.140   5.433  0.9493 -1.5678  1.4056
 3264SOL     OW21253   4.632   4.268   2.039  0.2019 -0.1980 -0.2863
 3264SOL    HW121254   4.561   4.268   1.974 -1.7409  0.1548  1.8632
 3264SOL    HW221255   4.654   4.175   2.030 -0.2960 -0.5671  2.4377
 3265SOL     OW21256   0.028   2.047   6.128  0.5775 -0.5623  0.3440
 3265SOL    HW121257   0.044   2.015   6.039  1.6628 -0.6920  0.5863
 3265SOL    HW221258   0.067   1.971   6.170  0.2990 -0.7535  0.2554
 3266SOL     OW21259   0.421   1.378  15.033  0.0831 -0.2403 -0.0867
 3266SOL    HW121260   0.478   1.382  14.956  1.3404 -0.9518  0.8108
 3266SOL    HW221261   0.480   1.376  15.108  0.5854 -0.1417 -0.4846
 3267SOL     OW21262   2.994   1.794   5.796  0.3911 -0.2130 -0.2281
 3267SOL    HW121263   3.044   1.844   5.861  1.8882 -0.8688 -0.8975
 3267SOL    HW221264   2.952   1.729   5.852 -0.9533  0.7071 -0.1458
 3268SOL     OW21265   2.869   0.486   8.390 -0.6772  0.0701 -0.0414
 3268SOL    HW121266   2.791   0.543   8.389 -1.5508 -1.1297 -0.2225
 3268SOL    HW221267   2.837   0.413   8.443 -0.2685 -1.3629 -1.7895
 3269SOL     OW21268   4.022   4.255  12.276  0.4829 -0.1628  0.2392
 3269SOL    HW121269   4.108   4.215  12.263 -0.4485 -1.9369 -0.5042
 3269SOL    HW221270   3.971   4.175  12.292  2.1773 -1.4404 -0.7429
 3270SOL     OW21271   1.213   3.200   5.190  0.2688 -0.1194 -0.0580
 3270SOL    HW121272   1.202   3.294   5.176  1.5027  0.1033  0.4671
 3270SOL    HW221273   1.128   3.165   5.163  0.0984 -1.5686  2.3500
 3271SOL     OW21274   3.921   2.619   5.725  0.1632  0.0009 -0.0529
 3271SOL    HW121275   3.956   2.532   5.747  1.4034  0.5913  0.3294
 3271SOL    HW221276   3.847   2.621   5.785  1.0471 -0.6425  1.0771
 3272SOL     OW21277   4.175   0.486   8.049 -0.0425  0.1861 -0.4975
 3272SOL    HW121278   4.240   0.450   7.990  0.1686 -0.6399  0.2486
 3272SOL    HW221279   4.214   0.572   8.064 -1.3530  0.6979  0.0624
 3273SOL     OW21280   2.603   4.338   4.932 -0.5817 -0.2926  0.7021
 3273SOL    HW121281   2.649   4.279   4.873  0.5853  0.4815  0.8272
 3273SOL    HW221282   2.614   4.301   5.020 -0.8203 -0.8296  0.5030
 3274SOL     OW21283   4.411   0.614   5.065 -0.0785 -0.4194  0.6338
 3274SOL    HW121284   4.447   0.530   5.094  1.8326  0.7727  1.7361
 3274SOL    HW221285   4.317   0.595   5.066 -0.1871  0.1403  1.2791
 3275SOL     OW21286   0.115   0.662   5.613 -0.1488  0.8920  0.5412
 3275SOL    HW121287   0.033   0.634   5.571  1.3626 -0.4466 -1.5366
 3275SOL    HW221288   0.152   0.575   5.630  1.4242  1.8084  1.8160
 3276SOL     OW21289   2.879   1.123   7.105 -0.5564  0.5842 -0.6606
 3276SOL    HW121290   2.794   1.135   7.062 -2.0589  0.1012  2.1150
 3276SOL    HW221291   2.937   1.141   7.032 -0.5418  0.9212 -0.5637
 3277SOL     OW21292   1.142   2.286  12.301  0.4834 -0.0344 -0.0973
 3277SOL    HW121293   1.153   2.192  12.289 -0.0856 -0.1753  0.4701
 3277SOL    HW221294   1.054   2.305  12.268  0.6286  1.4846  0.4012
 3278SOL     OW21295   0.900   0.606   0.964  0.8441 -0.5492  0.5331
 3278SOL    HW121296   0.805   0.596   0.970  0.8265  0.1398  1.3087
 3278SOL    HW221297   0.921   0.598   1.057 -0.3327 -0.6971  0.7825
 3279SOL     OW21298   0.710   2.297   8.533  0.6281  0.4192  0.2249
 3279SOL    HW121299   0.698   2.310   8.439  0.4037 -2.6805 -0.1600
 3279SOL    HW221300   0.626   2.256   8.552  1.3156 -1.4586 -0.7782
 3280SOL     OW21301   0.176   1.796   3.406  0.3298  0.6315  0.3605
 3280SOL    HW121302   0.123   1.775   3.329  0.7066 -1.6010  0.7264
 3280SOL    HW221303   0.196   1.887   3.382  0.5874  1.0816  2.2402
 3281SOL     OW21304   1.692   3.398   3.547  0.3649 -0.4571  0.0068
 3281SOL    HW121305   1.601   3.381   3.524  0.3669 -0.0445 -0.3211
 3281SOL    HW221306   1.737   3.321   3.512  1.5996 -0.7314  2.2126
 3282SOL     OW21307   3.758   2.998   7.083  0.4087  0.6316  0.1517
 3282SOL    HW121308   3.737   2.985   6.991  0.4915  0.5355  0.1467
 3282SOL    HW221309   3.757   2.906   7.109 -3.7339  0.8770  0.9647
 3283SOL     OW21310   0.146   3.479  12.488 -0.3384  0.1486 -0.0254
 3283SOL    HW121311   0.236   3.509  12.476  0.5636 -1.8291  1.8792
 3283SOL    HW221312   0.133   3.410  12.424 -2.9819 -0.2886  0.9896
 3284SOL     OW21313   2.275   0.030   9.683 -0.5817 -0.5705  0.4145
 3284SOL    HW121314   2.312   4.719   9.600  2.5214 -0.8583  1.9222
 3284SOL    HW221315   2.313   0.114   9.707  0.7085 -1.0183 -0.0710
 3285SOL     OW21316   1.625   3.650   5.237 -0.2496  0.2388 -0.1860
 3285SOL    HW121317   1.686   3.652   5.164 -0.9094  0.0896 -0.7444
 3285SOL    HW221318   1.681   3.622   5.310  0.5352  1.4723 -0.3230
 3286SOL     OW21319   0.124   2.246  11.099 -0.2069  0.1609  0.8487
 3286SOL    HW121320   0.140   2.272  11.009  3.7484 -2.6685  0.7203
 3286SOL    HW221321   0.190   2.178  11.116 -0.4482 -0.1484  0.5323
 3287SOL     OW21322   2.017   0.995   9.049  0.2840  0.4415 -0.2030
 3287SOL    HW121323   2.019   1.059   8.977 -0.7448  1.2061  0.4545
 3287SOL    HW221324   1.959   0.925   9.020 -2.6930  2.2630  1.4240
 3288SOL     OW21325   4.424   4.600   2.943 -0.1107  0.0793  0.4496
 3288SOL    HW121326   4.402   4.545   3.019  0.8828 -0.3944  0.3954
 3288SOL    HW221327   4.362   4.565   2.880 -0.0623 -0.4984  0.7192
 3289SOL     OW21328   1.667   1.834  12.301 -0.0361 -0.4611  0.3606
 3289SOL    HW121329   1.673   1.916  12.350  0.4885 -0.8706  0.9756
 3289SOL    HW221330   1.761   1.818  12.296  0.0395 -0.0154  0.2880
 3290SOL     OW21331   1.493   2.296  12.885  0.5993  0.2893 -0.4316
 3290SOL    HW121332   1.496   2.301  12.980 -3.1744 -1.0882 -0.2132
 3290SOL    HW221333   1.558   2.359  12.856 -0.8873  0.7020 -2.9376
 3291SOL     OW21334   0.070   3.903   8.570  0.7985  0.0354 -0.5384
 3291SOL    HW121335   4.714   3.862   8.612 -0.9417  2.7789 -0.9845
 3291SOL    HW221336   0.095   3.965   8.638  0.9371 -0.2931 -0.2936
 3292SOL     OW21337   3.556   0.177   5.260 -0.2248  0.3144  0.3804
 3292SOL    HW121338   3.526   0.121   5.331  1.3790 -0.5117  0.4055
 3292SOL    HW221339   3.472   0.206   5.224 -0.3160  2.3197  2.1906
 3293SOL     OW21340   2.073   3.251  12.921  0.4781 -0.1574 -0.0038
 3293SOL    HW121341   2.116   3.238  12.837  1.4672  0.3802  0.4173
 3293SOL    HW221342   2.090   3.163  12.957  0.2748 -0.6257 -1.0368
 3294SOL     OW21343   4.330   4.303  17.376  0.8484 -0.1077  0.3776
 3294SOL    HW121344   4.353   4.213  17.357 -0.0808  0.1157 -1.7905
 3294SOL    HW221345   4.278   4.283  17.454 -0.8343  0.5427 -0.5649
 3295SOL     OW21346   3.044   2.338   9.162 -0.1644  0.4688  1.0153
 3295SOL    HW121347   3.091   2.343   9.245  0.7424  1.9832  0.4039
 3295SOL    HW221348   3.088   2.386   9.092  0.5757  0.7562  1.6795
 3296SOL     OW21349   3.332   1.570  14.890 -0.8513 -0.3444 -0.5845
 3296SOL    HW121350   3.264   1.519  14.846 -1.1682  0.9703 -1.6038
 3296SOL    HW221351   3.280   1.620  14.954 -2.1948 -2.3368 -0.1028
 3297SOL     OW21352   2.889   4.571  12.447  0.2573 -0.0707  0.3139
 3297SOL    HW121353   2.916   4.600  12.359  1.2052  1.8206  1.2400
 3297SOL    HW221354   2.796   4.558  12.427  0.1598  1.5724 -0.3482
 3298SOL     OW21355   4.058   4.086  17.356  0.5763 -0.5890 -0.3082
 3298SOL    HW121356   4.090   4.159  17.302  0.8539 -0.6833 -0.2687
 3298SOL    HW221357   4.141   4.042  17.374  1.1824  0.1327 -1.2684
 3299SOL     OW21358   3.799   1.011   9.634 -0.5875 -0.3357 -0.3960
 3299SOL    HW121359   3.733   1.072   9.667 -0.4150  0.2164 -1.0802
 3299SOL    HW221360   3.786   1.008   9.539  1.9470  1.9196 -0.8015
 3300SOL     OW21361   2.974   2.205  13.803 -0.2125  0.0320 -0.5449
 3300SOL    HW121362   2.996   2.112  13.799 -3.4464 -0.7871  0.5735
 3300SOL    HW221363   3.000   2.244  13.887  2.2324 -1.0923 -0.7603
 3301SOL     OW21364   0.499   3.641   6.184 -0.1571 -0.4565  0.7930
 3301SOL    HW121365   0.556   3.646   6.107  0.2396 -1.8487  1.0039
 3301SOL    HW221366   0.564   3.649   6.254  2.6220 -1.1953 -1.6752
 3302SOL     OW21367   3.112   1.933   7.880 -0.1649  0.1958 -0.5990
 3302SOL    HW121368   3.130   1.895   7.966 -0.3908  0.5281 -0.4055
 3302SOL    HW221369   3.118   2.024   7.907  2.4281 -0.8910  2.4772
 3303SOL     OW21370   3.397   0.371   1.580 -0.2226 -0.8166 -0.3083
 3303SOL    HW121371   3.319   0.315   1.587  1.2355 -2.9993 -1.7436
 3303SOL    HW221372   3.393   0.403   1.670 -0.2402  0.2607 -0.6889
 3304SOL     OW21373   1.593   3.857   2.878  0.4113  0.1732 -0.2128
 3304SOL    HW121374   1.595   3.920   2.950 -1.7737  0.3887 -0.3190
 3304SOL    HW221375   1.581   3.920   2.807 -0.8515 -0.4870 -0.5976
 3305SOL     OW21376   1.320   0.522  16.917  0.1659  0.1881  0.2664
 3305SOL    HW121377   1.227   0.533  16.937  0.1844 -1.8453  1.5129
 3305SOL    HW221378   1.341   0.458  16.985 -1.6463  0.0228  0.6693
 3306SOL     OW21379   4.581   2.269   3.420  0.2700 -0.5082  0.0205
 3306SOL    HW121380   4.645   2.316   3.368 -0.0643  2.2294  2.0503
 3306SOL    HW221381   4.512   2.259   3.355 -0.6720  0.5486  0.8573
 3307SOL     OW21382   2.684   3.176   0.732  0.5010  0.3678 -0.3052
 3307SOL    HW121383   2.767   3.198   0.691  1.0915 -2.1274 -0.4541
 3307SOL    HW221384   2.708   3.090   0.766 -0.1419  0.2481 -0.1517
 3308SOL     OW21385   3.277   3.220   5.206 -0.1787  0.0850 -0.3603
 3308SOL    HW121386   3.255   3.153   5.141 -1.9473 -0.0611  0.3849
 3308SOL    HW221387   3.347   3.167   5.243 -1.0978 -1.5947 -0.9855
 3309SOL     OW21388   0.499   2.618   2.150 -0.6188  0.1766 -0.2109
 3309SOL    HW121389   0.429   2.630   2.086  0.4538  1.3124 -1.1615
 3309SOL    HW221390   0.446   2.630   2.229 -0.7765 -3.3859  0.2581
 3310SOL     OW21391   4.511   2.408  10.628 -0.3679  0.2851  0.1395
 3310SOL    HW121392   4.601   2.440  10.636 -0.1768 -0.3399  0.4376
 3310SOL    HW221393   4.506   2.363  10.543  1.3610  0.5724 -0.1109
 3311SOL     OW21394   1.816   4.269   2.029 -0.8060  0.1248  0.2550
 3311SOL    HW121395   1.770   4.195   1.990  1.1864 -0.6546 -0.5872
 3311SOL    HW221396   1.745   4.331   2.045 -1.3268 -1.2654  3.3821
 3312SOL     OW21397   3.355   4.680  10.315 -0.5429  0.0827  0.1688
 3312SOL    HW121398   3.266   4.646  10.326 -0.7554  0.5131 -0.2329
 3312SOL    HW221399   3.402   4.649  10.392  2.1189  4.5260  0.3125
 3313SOL     OW21400   0.437   0.567   0.746  0.5057 -0.2405 -0.3994
 3313SOL    HW121401   0.431   0.525   0.832  1.0669 -0.8511 -0.6509
 3313SOL    HW221402   0.349   0.602   0.737  0.8419  0.8074  0.3035
 3314SOL     OW21403   1.923   0.159   3.003 -0.6953 -0.0425 -0.1502
 3314SOL    HW121404   1.885   0.213   3.072  0.4364  1.2452 -0.5288
 3314SOL    HW221405   1.935   0.226   2.935  0.5313 -0.3289 -0.2278
 3315SOL     OW21406   2.455   2.915   7.114 -0.4762  0.4878 -0.1609
 3315SOL    HW121407   2.483   2.993   7.164  0.3097 -0.3326  0.6821
 3315SOL    HW221408   2.534   2.861   7.115 -0.3543  0.6893  1.2812
 3316SOL     OW21409   1.421   0.149   1.089 -0.4583 -0.1535 -0.6000
 3316SOL    HW121410   1.418   0.068   1.038 -0.9585  0.4689 -1.5619
 3316SOL    HW221411   1.513   0.173   1.096 -0.2160 -0.9166 -1.2219
 3317SOL     OW21412   0.819   0.478   8.906  0.1323  0.3268 -0.6690
 3317SOL    HW121413   0.837   0.395   8.951 -1.4034 -0.9781 -2.4255
 3317SOL    HW221414   0.876   0.533   8.959  3.8857 -2.8737 -1.4007
 3318SOL     OW21415   2.708   1.086   5.507  0.2505  0.1561 -0.1237
 3318SOL    HW121416   2.775   1.019   5.521 -0.7676 -1.1707 -1.6669
 3318SOL    HW221417   2.726   1.136   5.587  1.4477  0.9845 -0.9289
 3319SOL     OW21418   2.286   3.229   7.624 -0.0790 -0.0316  0.0839
 3319SOL    HW121419   2.258   3.313   7.587 -0.3646  0.1507  0.7036
 3319SOL    HW221420   2.374   3.224   7.588 -0.0950 -0.3509  0.0890
 3320SOL     OW21421   2.544   1.687   7.091  0.2843 -0.3330 -0.1948
 3320SOL    HW121422   2.595   1.613   7.125  2.2863  0.8021 -0.6838
 3320SOL    HW221423   2.595   1.719   7.017 -0.7043  2.6179  0.4007
 3321SOL     OW21424   2.863   2.826   9.981  0.3249 -0.4286  0.1706
 3321SOL    HW121425   2.929   2.840   9.914 -1.3050  0.3409 -1.2755
 3321SOL    HW221426   2.794   2.865   9.928 -0.4936  0.3967  1.8334
 3322SOL     OW21427   2.407   3.842   8.603  1.3690 -0.3057  0.1719
 3322SOL    HW121428   2.418   3.869   8.512  2.6693  0.3783  0.5288
 3322SOL    HW221429   2.362   3.922   8.632 -0.2890 -1.1244 -0.1647
 3323SOL     OW21430   0.813   0.360   6.142 -0.5344 -0.1032  0.5561
 3323SOL    HW121431   0.792   0.402   6.059  2.0130  3.0508  1.5086
 3323SOL    HW221432   0.742   0.405   6.188  0.1698  1.4375  0.0918
 3324SOL     OW21433   2.196   0.243  15.724  0.1898 -0.4185 -0.4220
 3324SOL    HW121434   2.243   0.253  15.806 -1.3158 -0.8786  0.5005
 3324SOL    HW221435   2.108   0.238  15.761 -0.6363  1.7938 -2.0797
 3325SOL     OW21436   2.824   0.229   4.777  0.0016 -0.2864  0.3140
 3325SOL    HW121437   2.742   0.196   4.740  1.6159 -3.5109 -0.4085
 3325SOL    HW221438   2.878   0.150   4.772  1.7358  0.8253  1.4357
 3326SOL     OW21439   1.133   1.547  12.665  0.5805  0.0750 -0.1661
 3326SOL    HW121440   1.114   1.629  12.711  2.2884  1.0396 -1.2123
 3326SOL    HW221441   1.130   1.580  12.575  3.5413  1.2280  0.1900
 3327SOL     OW21442   2.467   3.429   8.068  0.5190  0.1497  0.0096
 3327SOL    HW121443   2.400   3.395   8.128  1.9941 -3.2691 -0.2403
 3327SOL    HW221444   2.523   3.492   8.112 -1.3184  0.3151  2.1096
 3328SOL     OW21445   0.549   3.074   0.836 -0.1798 -0.1664  0.3167
 3328SOL    HW121446   0.479   3.133   0.810 -0.7141 -1.4574 -1.1914
 3328SOL    HW221447   0.581   3.127   0.909 -3.3922 -1.4685  2.6488
 3329SOL     OW21448   3.121   0.434   6.653  0.1501 -0.0422 -0.2884
 3329SOL    HW121449   3.115   0.400   6.742  1.9615  0.5423  0.0596
 3329SOL    HW221450   3.125   0.528   6.671 -2.7304  0.4802 -2.5164
 3330SOL     OW21451   1.188   2.038  13.401  0.5988 -0.3659 -0.3461
 3330SOL    HW121452   1.149   2.105  13.458 -0.4536 -1.0830 -0.2197
 3330SOL    HW221453   1.115   2.029  13.340  2.4316 -0.9958 -2.4202
 3331SOL     OW21454   0.524   3.019   5.225 -0.0875  0.1642 -0.0103
 3331SOL    HW121455   0.434   2.989   5.209 -0.6180  1.3447  0.7720
 3331SOL    HW221456   0.529   3.031   5.320 -2.0761  0.3541  0.0658
 3332SOL     OW21457   0.092   0.103   7.987  0.1138 -0.1393 -0.0718
 3332SOL    HW121458   0.112   0.196   7.993 -0.3602 -0.0876  0.6501
 3332SOL    HW221459   0.029   0.103   7.915  1.4245 -2.1093 -1.2334
 3333SOL     OW21460   1.356   4.460   1.021 -0.1972  0.1325  0.4900
 3333SOL    HW121461   1.391   4.525   0.960  0.4710 -0.4370  0.2580
 3333SOL    HW221462   1.332   4.523   1.089  0.9524  1.2081 -0.0892
 3334SOL     OW21463   4.354   0.351  13.766 -0.1868 -0.3764 -0.0968
 3334SOL    HW121464   4.419   0.291  13.803 -0.8829 -0.6852  0.6310
 3334SOL    HW221465   4.308   0.379  13.845 -1.8556  3.8302 -2.5417
 3335SOL     OW21466   0.460   0.275   8.766 -0.2182 -0.1851  0.0688
 3335SOL    HW121467   0.414   0.334   8.706 -2.6210 -0.8846  1.2019
 3335SOL    HW221468   0.489   0.345   8.823 -0.0360 -0.4742  0.3299
 3336SOL     OW21469   3.805   2.256  12.499 -0.3791  1.0228 -0.3333
 3336SOL    HW121470   3.854   2.202  12.438 -1.6678 -1.0636  0.4844
 3336SOL    HW221471   3.871   2.259  12.568 -1.4042 -1.5524  0.7625
 3337SOL     OW21472   0.933   2.761   8.759  0.1128  0.0938 -0.1300
 3337SOL    HW121473   0.993   2.744   8.832 -2.0522 -0.6292  1.4789
 3337SOL    HW221474   0.912   2.670   8.737  0.0694 -0.7409  3.3743
 3338SOL     OW21475   4.467   3.711   7.057  0.4516  0.7881  0.0817
 3338SOL    HW121476   4.418   3.674   6.983  2.2724  2.4495 -1.9704
 3338SOL    HW221477   4.560   3.708   7.031  0.1932  0.0564 -0.7821
 3339SOL     OW21478   1.564   1.008   0.022 -0.0613  0.2850  0.0871
 3339SOL    HW121479   1.567   1.088  17.650  0.6509 -0.5170 -1.0920
 3339SOL    HW221480   1.650   0.968   0.009 -0.5103 -0.5025 -0.4870
 3340SOL     OW21481   4.107   1.201   7.456  0.7142  0.0081 -0.0720
 3340SOL    HW121482   4.067   1.200   7.543 -1.4292 -1.3304 -1.0607
 3340SOL    HW221483   4.202   1.194   7.466  0.9149  2.8016  0.0580
 3341SOL     OW21484   1.220   0.163   7.004 -0.5360 -0.2924  0.6692
 3341SOL    HW121485   1.274   0.101   7.054 -0.4502  0.7992  1.9384
 3341SOL    HW221486   1.277   0.161   6.928  1.1530  1.5614  1.8764
 3342SOL     OW21487   1.684   3.428  13.876 -0.6170  0.0949 -0.0201
 3342SOL    HW121488   1.758   3.369  13.862  0.0043  0.2788  2.4889
 3342SOL    HW221489   1.715   3.518  13.870  2.3757 -1.1355 -2.9625
 3343SOL     OW21490   2.525   1.369  12.175  0.2529  0.1473 -0.1654
 3343SOL    HW121491   2.567   1.402  12.095 -0.1974  0.3727 -0.3081
 3343SOL    HW221492   2.478   1.449  12.198  0.7578 -0.1165  1.7678
 3344SOL     OW21493   3.730   3.106   2.054  0.0262  0.1416 -0.0961
 3344SOL    HW121494   3.773   3.140   1.975  1.0188 -1.6906 -0.3422
 3344SOL    HW221495   3.796   3.130   2.120  0.1568 -0.0512 -0.1582
 3345SOL     OW21496   0.387   0.677   8.683 -0.1747  0.0834  0.4723
 3345SOL    HW121497   0.401   0.762   8.725 -0.6452 -0.0591  0.9149
 3345SOL    HW221498   0.428   0.621   8.748  2.3197  0.0824 -1.0966
 3346SOL     OW21499   4.267   4.500   3.132 -0.9937 -0.1515 -0.1271
 3346SOL    HW121500   4.306   4.496   3.220 -1.9444 -2.2082  0.2063
 3346SOL    HW221501   4.208   4.571   3.156  2.0525  2.4682 -0.3986
 3347SOL     OW21502   4.712   2.983  16.580 -0.3231 -0.4329  0.3397
 3347SOL    HW121503   0.033   2.978  16.666 -1.7336  2.7350  1.2050
 3347SOL    HW221504   0.065   2.957  16.524  1.3416  1.8532  1.4135
 3348SOL     OW21505   0.916   3.637   6.828 -0.2990  0.3373  0.2265
 3348SOL    HW121506   0.952   3.697   6.763  0.6660  0.4455  0.8815
 3348SOL    HW221507   0.824   3.628   6.800 -0.4057  0.0469  0.6772
 3349SOL     OW21508   1.081   1.228  16.879  0.0534 -0.2881 -0.4090
 3349SOL    HW121509   0.991   1.196  16.879  0.2711 -0.9019 -0.1897
 3349SOL    HW221510   1.103   1.201  16.967 -0.9558  1.6699  0.4541
 3350SOL     OW21511   3.129   3.636   4.734  0.1266  0.0696 -0.2034
 3350SOL    HW121512   3.134   3.558   4.679  0.0199 -0.4559  0.5325
 3350SOL    HW221513   3.140   3.605   4.824 -1.2838  1.0993  0.3221
 3351SOL     OW21514   0.210   3.998  14.671 -0.2270  0.3770  0.2540
 3351SOL    HW121515   0.257   4.023  14.591  0.9576 -0.2322  0.7772
 3351SOL    HW221516   0.217   4.067  14.736 -1.4164  0.1755  0.5996
 3352SOL     OW21517   2.124   4.453   5.161 -0.6768  0.1862  0.0764
 3352SOL    HW121518   2.188   4.494   5.219  0.2980 -0.1540 -0.7584
 3352SOL    HW221519   2.182   4.447   5.085 -2.7185 -0.8289 -1.3815
 3353SOL     OW21520   1.659   0.755   2.603 -0.4107 -0.0794  0.0163
 3353SOL    HW121521   1.611   0.807   2.538 -0.5817 -0.7596 -0.3982
 3353SOL    HW221522   1.747   0.779   2.573 -0.0183  0.8946  1.9394
 3354SOL     OW21523   0.651   0.600   0.542 -0.2829  0.2554 -0.3149
 3354SOL    HW121524   0.627   0.680   0.494  1.2461  0.5330 -0.6114
 3354SOL    HW221525   0.590   0.595   0.615  1.2408 -1.7249  0.8009
 3355SOL     OW21526   3.559   1.473  11.797 -0.4267  0.5677 -0.1459
 3355SOL    HW121527   3.468   1.501  11.800  0.0735  2.2413 -0.3188
 3355SOL    HW221528   3.572   1.474  11.892  1.6973 -0.3760 -0.4105
 3356SOL     OW21529   3.807   4.185  14.458 -0.6977  0.3680 -0.0478
 3356SOL    HW121530   3.795   4.273  14.494 -0.0413 -0.6503  2.6547
 3356SOL    HW221531   3.864   4.155  14.529  0.7783  0.7132 -1.1056
 3357SOL     OW21532   2.155   1.566   7.703 -0.2369 -0.3363  0.4088
 3357SOL    HW121533   2.212   1.530   7.771 -0.8627  0.4027  1.3322
 3357SOL    HW221534   2.189   1.525   7.623  0.1448 -0.7030  0.7558
 3358SOL     OW21535   0.813   2.581   0.932 -0.1891  0.0243 -0.1247
 3358SOL    HW121536   0.828   2.581   0.837  0.7274 -0.3888  0.0221
 3358SOL    HW221537   0.726   2.541   0.929 -1.3048  2.4275  0.2655
 3359SOL     OW21538   2.047   2.352   2.279  0.5034 -0.4385 -0.4053
 3359SOL    HW121539   2.002   2.390   2.355  3.5113  2.4177 -0.0655
 3359SOL    HW221540   2.070   2.263   2.306 -0.1807 -0.7642 -0.8941
 3360SOL     OW21541   3.773   3.828   8.282 -0.1433  0.3458  0.0392
 3360SOL    HW121542   3.824   3.791   8.355  1.3039  1.7980 -0.2461
 3360SOL    HW221543   3.835   3.826   8.209  0.5713 -1.4000  0.6979
 3361SOL     OW21544   2.176   3.566   6.529  0.1885 -0.3445  0.4038
 3361SOL    HW121545   2.197   3.585   6.438 -2.8732  1.5040  0.0689
 3361SOL    HW221546   2.194   3.473   6.526  0.3520 -0.3285  0.8313
 3362SOL     OW21547   3.125   3.759   3.510  0.2013  0.1311  0.3440
 3362SOL    HW121548   3.189   3.816   3.551  2.3985 -1.7391 -0.5216
 3362SOL    HW221549   3.173   3.677   3.523 -3.1195 -1.9147 -0.2092
 3363SOL     OW21550   3.662   4.403  15.038  0.4658 -0.0436  0.5001
 3363SOL    HW121551   3.579   4.406  15.087  0.8420 -1.1074  1.2092
 3363SOL    HW221552   3.712   4.460  15.097 -0.1199  0.0209  0.9338
 3364SOL     OW21553   1.603   4.306  14.909 -0.0391  0.0272  0.2473
 3364SOL    HW121554   1.575   4.397  14.900  1.4515  0.4913  0.3917
 3364SOL    HW221555   1.577   4.294  15.000  0.8816  0.6530  0.5883
 3365SOL     OW21556   4.077   1.282   9.199  0.0692  0.1627  0.1334
 3365SOL    HW121557   4.103   1.317   9.284 -2.1428  2.5712 -0.1863
 3365SOL    HW221558   4.130   1.329   9.135 -0.5133 -0.6082 -0.9232
 3366SOL     OW21559   3.618   3.744  17.504 -0.4955  0.8412 -0.4378
 3366SOL    HW121560   3.645   3.806  17.571 -0.6811 -1.1787  1.4913
 3366SOL    HW221561   3.695   3.762  17.451  0.6516  0.6014  1.1634
 3367SOL     OW21562   4.662   3.729   2.144 -0.2481  0.3296 -0.8032
 3367SOL    HW121563   0.018   3.670   2.147 -0.0934  0.6100  1.1808
 3367SOL    HW221564   4.604   3.674   2.092  0.3348 -1.9573  0.9442
 3368SOL     OW21565   2.369   2.968   7.847 -0.6429 -0.1489  0.6564
 3368SOL    HW121566   2.394   3.047   7.894 -0.5255  1.1257 -1.5310
 3368SOL    HW221567   2.441   2.958   7.785  2.3707  1.1615  3.9844
 3369SOL     OW21568   3.519   2.013   8.475 -0.1135  0.2364 -0.0919
 3369SOL    HW121569   3.548   1.922   8.468  0.7398  0.5895 -1.0487
 3369SOL    HW221570   3.506   2.028   8.569 -1.3107 -0.1430 -0.1948
 3370SOL     OW21571   3.290   4.686   2.623 -0.2046 -0.4670  0.2469
 3370SOL    HW121572   3.259   4.613   2.570  0.3156 -0.8412  0.4561
 3370SOL    HW221573   3.205   0.010   2.628  0.2781  0.9392 -4.0619
 3371SOL     OW21574   4.658   3.921  14.264 -0.8026  0.0732  0.1272
 3371SOL    HW121575   4.626   3.844  14.217  1.7990  0.6435 -2.6297
 3371SOL    HW221576   0.006   3.877  14.316 -2.2393 -3.4989 -0.9904
 3372SOL     OW21577   4.470   0.962   3.682 -0.0524  0.1645  0.2521
 3372SOL    HW121578   4.407   1.006   3.625  0.9648  1.7015  0.2941
 3372SOL    HW221579   4.495   0.883   3.634 -0.7379 -0.5317  1.0562
 3373SOL     OW21580   1.524   1.419   2.883 -0.1020  0.3717  0.6300
 3373SOL    HW121581   1.592   1.418   2.816 -4.4336 -0.8031 -3.7436
 3373SOL    HW221582   1.483   1.506   2.877  0.2029  0.6284  2.1352
 3374SOL     OW21583   2.508   3.038   3.571 -0.1685 -0.0569  0.3163
 3374SOL    HW121584   2.425   3.043   3.524 -0.4505 -0.2169  0.8001
 3374SOL    HW221585   2.564   3.006   3.499  0.4458  0.9896  0.3293
 3375SOL     OW21586   4.307   2.885  14.079 -0.2775  0.0903 -0.1847
 3375SOL    HW121587   4.391   2.895  14.035  0.6249 -3.3779  0.7316
 3375SOL    HW221588   4.330   2.879  14.172  2.0302 -1.6165 -0.8529
 3376SOL     OW21589   0.438   0.984  17.092 -0.0941  0.3718  0.4288
 3376SOL    HW121590   0.510   0.929  17.061 -1.3001 -1.3709  0.6458
 3376SOL    HW221591   0.384   0.914  17.129  0.4274  0.5626  1.5342
 3377SOL     OW21592   1.935   4.293  14.194 -0.1859 -0.3741 -0.1913
 3377SOL    HW121593   2.006   4.229  14.203  0.1083 -0.2189 -1.3747
 3377SOL    HW221594   1.952   4.358  14.262  1.2621  1.9288 -2.7162
 3378SOL     OW21595   3.601   4.625   4.076 -0.0688 -1.0271  0.0774
 3378SOL    HW121596   3.614   4.676   3.996  0.8710  0.8788  1.4692
 3378SOL    HW221597   3.638   4.541   4.049 -2.0038 -2.2033  1.0505
 3379SOL     OW21598   0.306   0.428   8.606  0.2658 -1.1705  0.3824
 3379SOL    HW121599   0.311   0.523   8.604 -1.3240 -1.0194  3.7740
 3379SOL    HW221600   0.243   0.407   8.537 -0.0196  0.5379  0.1226
 3380SOL     OW21601   0.927   1.790   5.989 -0.2375  0.0740 -0.3386
 3380SOL    HW121602   0.894   1.837   6.065  0.7379  1.0520 -0.5266
 3380SOL    HW221603   0.870   1.714   5.990  0.0959 -0.1828 -0.8890
 3381SOL     OW21604   2.905   3.496  13.107  0.2296  0.0102  0.2901
 3381SOL    HW121605   2.845   3.524  13.038  1.5013  0.5999 -0.5671
 3381SOL    HW221606   2.853   3.428  13.151 -2.3623  0.1618 -2.5595
 3382SOL     OW21607   2.599   1.901   5.663 -1.2596  0.1331 -0.3036
 3382SOL    HW121608   2.539   1.906   5.588 -0.4450  1.6072 -0.8651
 3382SOL    HW221609   2.646   1.983   5.646 -0.0577 -0.4239  0.2985
 3383SOL     OW21610   2.524   4.524  10.479  0.7662  0.1777 -0.0781
 3383SOL    HW121611   2.528   4.608  10.523 -2.5782  0.8864 -1.0797
 3383SOL    HW221612   2.596   4.478  10.523 -0.2597 -1.1188  0.2707
 3384SOL     OW21613   0.511   2.697   3.969 -0.2166  0.5914 -0.0813
 3384SOL    HW121614   0.562   2.616   3.977 -1.5848 -0.3261 -0.5502
 3384SOL    HW221615   0.443   2.685   4.036  1.2075 -0.5996  1.1293
 3385SOL     OW21616   3.116   2.577   2.673 -0.1768 -0.1831 -0.8801
 3385SOL    HW121617   3.210   2.575   2.660 -0.4114  1.3078 -2.8660
 3385SOL    HW221618   3.094   2.629   2.595 -0.7898 -0.3030 -0.7913
 3386SOL     OW21619   0.282   1.925   5.138  0.1289  0.3706  0.2156
 3386SOL    HW121620   0.299   2.018   5.153 -1.6775  0.5105  1.3959
 3386SOL    HW221621   0.239   1.925   5.053  0.3567 -1.3687  0.1079
 3387SOL     OW21622   4.607   2.320   4.635 -0.4792 -0.2043 -0.3298
 3387SOL    HW121623   4.608   2.396   4.577  1.3329 -0.4922 -0.6761
 3387SOL    HW221624   4.565   2.256   4.577 -0.3042 -1.4644  0.9077
 3388SOL     OW21625   4.196   2.998   5.361 -0.8865 -0.1845  0.2152
 3388SOL    HW121626   4.282   3.036   5.375 -1.7102  1.6622  0.2807
 3388SOL    HW221627   4.149   3.042   5.432 -2.7480 -2.0944  0.1575
 3389SOL     OW21628   0.362   3.886   7.582  0.3326  0.2535 -0.2658
 3389SOL    HW121629   0.430   3.941   7.620  0.2802  0.2608 -0.1825
 3389SOL    HW221630   0.396   3.860   7.496  2.3707 -0.7466  0.8347
 3390SOL     OW21631   1.134   4.287   3.751 -0.0121 -0.5441 -0.1141
 3390SOL    HW121632   1.090   4.274   3.668 -0.3846 -2.2117  0.3464
 3390SOL    HW221633   1.212   4.336   3.723  0.3188 -1.5226 -0.8715
 3391SOL     OW21634   1.239   0.099   2.160  0.1863 -0.0699 -0.2809
 3391SOL    HW121635   1.159   0.098   2.107  0.1563 -0.7078 -0.2246
 3391SOL    HW221636   1.302   0.124   2.092 -0.3794 -4.6376 -2.5482
 3392SOL     OW21637   2.974   3.399  13.690 -0.1158  0.2944 -0.7114
 3392SOL    HW121638   2.919   3.476  13.674 -0.4246 -0.1562 -1.8539
 3392SOL    HW221639   3.054   3.442  13.718  0.7495 -0.6532 -1.7030
 3393SOL     OW21640   2.645   1.199   4.750  0.6457  0.1320  0.5059
 3393SOL    HW121641   2.594   1.150   4.815 -1.5718 -2.0876 -2.8848
 3393SOL    HW221642   2.696   1.256   4.808  1.0866 -1.2270  1.4443
 3394SOL     OW21643   1.716   1.514   1.716  0.2371  0.3147 -0.5322
 3394SOL    HW121644   1.633   1.467   1.714  0.4595  0.0145 -2.3478
 3394SOL    HW221645   1.693   1.595   1.670 -2.9289  0.3486  1.1510
 3395SOL     OW21646   3.505   2.615   7.023 -0.4854  0.0943  0.3614
 3395SOL    HW121647   3.416   2.582   7.010 -0.0496 -1.9325  2.7190
 3395SOL    HW221648   3.547   2.539   7.062 -2.1356 -0.0601  1.8125
 3396SOL     OW21649   0.299   2.069  16.172  0.1184  0.5603  0.2476
 3396SOL    HW121650   0.277   1.985  16.131 -0.3188  0.0391  1.5635
 3396SOL    HW221651   0.265   2.132  16.108 -0.8422  1.9378  2.1125
 3397SOL     OW21652   0.994   2.572  11.276 -0.3897  0.4421 -0.1257
 3397SOL    HW121653   1.075   2.524  11.295 -0.3661  0.7280  0.4853
 3397SOL    HW221654   0.929   2.509  11.306 -0.3335 -0.5627 -2.1393
 3398SOL     OW21655   1.462   3.894   4.539 -0.0498  0.0388 -0.6856
 3398SOL    HW121656   1.535   3.841   4.505 -0.4635 -0.5757 -0.6047
 3398SOL    HW221657   1.465   3.871   4.632  1.7050  0.2104 -0.6846
 3399SOL     OW21658   0.876   3.789   8.797 -0.5322  0.1008  0.7884
 3399SOL    HW121659   0.807   3.724   8.787  0.8094 -1.6784  3.1805
 3399SOL    HW221660   0.955   3.734   8.788 -0.6041 -0.0733  1.2131
 3400SOL     OW21661   1.367   3.571   0.730  0.4087  0.5344 -0.1967
 3400SOL    HW121662   1.419   3.547   0.806  3.1606  0.2986 -2.1796
 3400SOL    HW221663   1.283   3.583   0.776 -0.0400 -0.0197 -0.8658
 3401SOL     OW21664   2.179   1.829   9.419 -0.5860 -0.2465  0.3022
 3401SOL    HW121665   2.138   1.851   9.503  0.9167 -1.4990  1.3644
 3401SOL    HW221666   2.111   1.869   9.366 -1.6536 -2.0883  0.2725
 3402SOL     OW21667   0.599   3.641   0.801 -0.2741 -0.3494  0.4407
 3402SOL    HW121668   0.543   3.651   0.878 -0.6481  0.2132  0.1019
 3402SOL    HW221669   0.565   3.704   0.737  1.3013  0.3930  0.3490
 3403SOL     OW21670   1.468   0.567  13.025  0.4731 -0.8485  0.7047
 3403SOL    HW121671   1.470   0.620  12.945 -0.1330 -1.6310  0.1655
 3403SOL    HW221672   1.489   0.634  13.091 -1.8870 -1.6674  2.2932
 3404SOL     OW21673   3.476   2.410   0.850 -0.4129 -0.0566  0.0283
 3404SOL    HW121674   3.533   2.416   0.773 -0.6388 -2.4484 -0.3261
 3404SOL    HW221675   3.449   2.319   0.859 -1.4589  0.2226 -0.3207
 3405SOL     OW21676   4.178   0.024  10.313 -0.0085  0.1119 -0.1317
 3405SOL    HW121677   4.113   4.704  10.371  0.4698  0.4232  0.6145
 3405SOL    HW221678   4.129   0.096  10.272 -0.0515 -0.4391 -1.0339
 3406SOL     OW21679   3.714   1.144  15.606 -0.1436 -0.2007  0.3109
 3406SOL    HW121680   3.717   1.239  15.621 -0.7633  0.1434 -1.7671
 3406SOL    HW221681   3.751   1.120  15.691  1.1140 -1.6892 -0.6680
 3407SOL     OW21682   0.281   4.640   4.989 -0.3283 -0.6158 -0.1137
 3407SOL    HW121683   0.353   4.583   4.963 -1.1595 -1.4147 -0.6702
 3407SOL    HW221684   0.323   0.004   4.970  0.9972 -0.9469  1.3684
 3408SOL     OW21685   2.083   0.962   2.934 -0.1496 -0.3550  0.5022
 3408SOL    HW121686   2.011   0.917   2.978  1.5903  0.1402  3.8831
 3408SOL    HW221687   2.038   0.984   2.853  0.1437  0.1155  0.4670
 3409SOL     OW21688   4.553   2.123  13.151  0.0146  0.6078 -0.1641
 3409SOL    HW121689   4.624   2.062  13.167  0.5670  2.2958  3.6424
 3409SOL    HW221690   4.478   2.066  13.135  0.1808  0.6103 -0.9835
 3410SOL     OW21691   2.575   4.329   1.716  0.0696  0.6073  0.2469
 3410SOL    HW121692   2.622   4.390   1.772 -0.3694 -0.1041  1.4074
 3410SOL    HW221693   2.623   4.337   1.634  2.8648 -0.0665  1.8462
 3411SOL     OW21694   0.214   1.919   8.076 -0.2040  0.1302  0.0364
 3411SOL    HW121695   0.126   1.959   8.075  0.6022  1.9240  0.5896
 3411SOL    HW221696   0.237   1.933   8.168  0.2281 -0.6640  0.0478
 3412SOL     OW21697   1.037   2.493   4.083 -0.2122 -0.1678 -0.0043
 3412SOL    HW121698   0.950   2.457   4.097 -0.4364  0.7086  0.8626
 3412SOL    HW221699   1.064   2.445   4.004  0.3905 -1.0897  0.7629
 3413SOL     OW21700   4.629   4.064   5.207  0.0265  0.0919 -0.2213
 3413SOL    HW121701   4.570   3.990   5.220 -1.0253  1.1429  0.9046
 3413SOL    HW221702   4.563   4.121   5.168  0.2659  0.6606  0.2032
 3414SOL     OW21703   0.290   2.825   4.452 -0.1816  0.0858 -0.1526
 3414SOL    HW121704   0.265   2.897   4.510 -2.2045 -1.5101  0.9569
 3414SOL    HW221705   0.256   2.862   4.371  1.3442  0.9520 -0.3929
 3415SOL     OW21706   3.815   2.484  13.630  0.0235 -0.4981 -0.5848
 3415SOL    HW121707   3.887   2.547  13.623 -0.7208  0.3604 -0.4337
 3415SOL    HW221708   3.823   2.445  13.543 -0.2863 -2.5422  0.3211
 3416SOL     OW21709   3.466   1.679   6.424  0.5106  0.4476  0.1903
 3416SOL    HW121710   3.446   1.612   6.358 -1.1818  1.8317 -0.7014
 3416SOL    HW221711   3.511   1.621   6.485 -0.2970 -1.7327 -1.2764
 3417SOL     OW21712   0.691   4.268  16.469  0.4517  0.7057 -0.0567
 3417SOL    HW121713   0.676   4.194  16.528 -0.1630  1.8504  1.2379
 3417SOL    HW221714   0.605   4.305  16.450  0.2899 -0.9967 -2.6492
 3418SOL     OW21715   3.713   1.910  13.087  0.4659 -0.7890  0.2567
 3418SOL    HW121716   3.733   2.004  13.087  1.9729 -1.1203  1.5825
 3418SOL    HW221717   3.721   1.897  12.992 -0.9780  2.8021 -0.3866
 3419SOL     OW21718   2.462   1.668  11.945  0.0587  0.0254  0.6566
 3419SOL    HW121719   2.476   1.727  11.871  2.1903  0.7842  1.6717
 3419SOL    HW221720   2.449   1.724  12.022  2.0451  0.6162  0.5439
 3420SOL     OW21721   0.921   0.236  12.392 -0.0885  0.4150 -0.6258
 3420SOL    HW121722   0.955   0.171  12.453 -0.3598  1.6916  0.8591
 3420SOL    HW221723   0.828   0.245  12.415  0.1491 -0.1493  0.5160
 3421SOL     OW21724   4.425   4.586  17.173 -0.4319 -0.4073 -0.3336
 3421SOL    HW121725   4.495   4.630  17.125  0.1591 -2.0035 -0.9500
 3421SOL    HW221726   4.427   4.503  17.126 -0.9637  0.0323 -1.1405
 3422SOL     OW21727   3.216   4.220   6.012  0.1716  0.2185  0.4073
 3422SOL    HW121728   3.214   4.124   6.011 -0.3688  0.2570 -1.3259
 3422SOL    HW221729   3.254   4.239   6.098 -1.2239 -0.6849  1.2212
 3423SOL     OW21730   4.232   1.175   5.008  0.2067  0.4555  0.4520
 3423SOL    HW121731   4.325   1.177   5.034  0.3827  1.1618 -0.2070
 3423SOL    HW221732   4.225   1.255   4.955  0.2877 -0.5904 -1.1183
 3424SOL     OW21733   3.279   3.542   5.733  0.6052  0.1288  0.4396
 3424SOL    HW121734   3.185   3.525   5.728  0.7258 -0.8833  1.5667
 3424SOL    HW221735   3.317   3.484   5.667 -0.7157  0.5303 -0.6797
 3425SOL     OW21736   4.268   0.680  17.502  0.2044 -0.2614 -0.6491
 3425SOL    HW121737   4.199   0.647  17.559  0.0696 -0.0969 -0.7178
 3425SOL    HW221738   4.218   0.718  17.430  1.6684  0.7941 -1.1146
 3426SOL     OW21739   3.720   0.749   7.441 -0.9144  0.2248 -0.8330
 3426SOL    HW121740   3.785   0.814   7.414  0.2286 -0.0473  1.2599
 3426SOL    HW221741   3.761   0.664   7.425  1.1340  1.0690 -0.1693
 3427SOL     OW21742   2.570   2.326  11.670 -0.2699 -0.3449  0.6736
 3427SOL    HW121743   2.603   2.402  11.624  1.9988 -2.1653 -0.6990
 3427SOL    HW221744   2.509   2.285  11.608  0.4264  0.1718 -0.3376
 3428SOL     OW21745   3.606   2.191   2.699  0.6862  0.7008  0.0639
 3428SOL    HW121746   3.645   2.110   2.665 -1.0912 -0.3969  0.6548
 3428SOL    HW221747   3.520   2.153   2.713  2.5409 -2.9911  1.4449
 3429SOL     OW21748   0.957   0.062   7.074 -0.2201 -0.5124 -0.0889
 3429SOL    HW121749   0.959   0.096   7.164  1.1859  0.8261 -0.6302
 3429SOL    HW221750   1.051   0.063   7.062 -0.2390 -2.0845 -0.3678
 3430SOL     OW21751   4.192   2.404   3.462  0.2043  0.0540 -0.7553
 3430SOL    HW121752   4.238   2.376   3.382  0.1592  3.7058 -2.0750
 3430SOL    HW221753   4.105   2.382   3.428  1.2103 -0.8618 -2.7245
 3431SOL     OW21754   3.143   3.638   0.407 -0.1457  0.1888  0.8659
 3431SOL    HW121755   3.069   3.698   0.420 -0.2279  0.3613 -0.3970
 3431SOL    HW221756   3.200   3.645   0.483 -0.6355  0.6407  1.2020
 3432SOL     OW21757   3.141   4.141   3.511 -0.5747 -0.2146 -0.3079
 3432SOL    HW121758   3.225   4.186   3.510  0.0105 -1.3289 -1.5971
 3432SOL    HW221759   3.135   4.118   3.603 -2.1616 -0.8365 -0.5615
 3433SOL     OW21760   3.833   2.164   0.662  0.0799 -0.4380  0.1520
 3433SOL    HW121761   3.825   2.222   0.585 -1.6746 -0.5711  0.2377
 3433SOL    HW221762   3.845   2.079   0.620 -0.6120  0.1591 -1.2738
 3434SOL     OW21763   2.748   1.662  16.080  0.0416  0.3262 -0.1423
 3434SOL    HW121764   2.724   1.754  16.073 -0.3470  0.0631 -2.0917
 3434SOL    HW221765   2.818   1.650  16.144  0.4987 -0.1736 -0.7351
 3435SOL     OW21766   2.797   4.043   7.057 -0.5581 -0.3768  0.7035
 3435SOL    HW121767   2.864   3.975   7.047  1.3035  1.6020 -0.1380
 3435SOL    HW221768   2.726   3.984   7.084 -1.1465 -0.6167 -1.3563
 3436SOL     OW21769   3.336   3.589   7.536  0.2800 -0.5929  0.2432
 3436SOL    HW121770   3.262   3.647   7.514 -0.4067 -1.2128  0.9056
 3436SOL    HW221771   3.369   3.631   7.615 -1.1687 -1.4800  1.3155
 3437SOL     OW21772   1.939   4.355   6.869 -0.0756  0.0548  0.2909
 3437SOL    HW121773   1.992   4.396   6.801 -1.0865 -1.0828 -1.1880
 3437SOL    HW221774   1.996   4.356   6.945  0.9394 -1.3020 -0.4365
 3438SOL     OW21775   2.884   3.172   3.590 -0.2405  0.6392 -0.3388
 3438SOL    HW121776   2.903   3.169   3.496  2.7927 -1.2410  0.3275
 3438SOL    HW221777   2.794   3.206   3.587 -0.8087 -0.8656 -0.5156
 3439SOL     OW21778   1.124   1.168   5.207  0.2033  0.0548 -0.5730
 3439SOL    HW121779   1.076   1.224   5.146  0.9877  0.2358 -1.0353
 3439SOL    HW221780   1.137   1.226   5.282  1.2454 -1.6692  0.6008
 3440SOL     OW21781   3.299   1.262   3.947 -0.1015 -0.1093 -0.1172
 3440SOL    HW121782   3.329   1.197   3.884 -0.7184 -0.2420 -0.2732
 3440SOL    HW221783   3.343   1.238   4.028  1.4814 -0.1340 -0.9879
 3441SOL     OW21784   0.173   0.414   3.201  0.0373  0.0941  0.5051
 3441SOL    HW121785   0.133   0.338   3.159  0.1070 -0.0168  0.6382
 3441SOL    HW221786   0.149   0.480   3.136  1.8268 -0.2067 -0.4593
 3442SOL     OW21787   4.141   3.795   9.218  0.0483  0.0552  0.3863
 3442SOL    HW121788   4.103   3.833   9.139  1.5564 -0.6799 -0.6902
 3442SOL    HW221789   4.162   3.708   9.185 -0.7865  0.3944 -1.0103
 3443SOL     OW21790   1.307   0.066   4.774  0.3466 -0.4494  0.2054
 3443SOL    HW121791   1.340   0.097   4.858 -0.5262 -1.6714  1.0067
 3443SOL    HW221792   1.331   0.144   4.724  2.0217 -1.1159 -0.0385
 3444SOL     OW21793   0.572   3.482   3.281  0.0549 -0.6042 -0.2085
 3444SOL    HW121794   0.601   3.425   3.352 -3.3350 -0.6623  1.1328
 3444SOL    HW221795   0.554   3.416   3.214  2.7275 -1.9901  0.4755
 3445SOL     OW21796   3.899   0.783   6.074  0.3630  0.4917  1.0150
 3445SOL    HW121797   3.904   0.876   6.050  1.6679  0.2476  0.3227
 3445SOL    HW221798   3.924   0.753   5.986  0.0113  0.7731  0.8168
 3446SOL     OW21799   3.123   4.309   1.004 -0.8736 -0.2810 -0.2054
 3446SOL    HW121800   3.146   4.326   1.095 -0.2196  2.1781 -0.8408
 3446SOL    HW221801   3.052   4.372   0.991  0.1235  1.1061  1.0208
 3447SOL     OW21802   1.488   1.431   7.550  0.2117 -0.6203 -0.3746
 3447SOL    HW121803   1.474   1.380   7.630  1.5178 -0.6325 -0.1511
 3447SOL    HW221804   1.506   1.516   7.588  0.0048 -1.8699  2.5010
 3448SOL     OW21805   3.986   1.268   1.761 -0.0958 -0.8557 -0.1335
 3448SOL    HW121806   3.921   1.299   1.824  0.9779  0.2328  0.4593
 3448SOL    HW221807   3.980   1.177   1.789  1.5487 -0.5250  1.3599
 3449SOL     OW21808   0.297   3.785   2.310  0.1443  0.5592  0.2905
 3449SOL    HW121809   0.347   3.864   2.330  2.0448 -0.9859  1.7224
 3449SOL    HW221810   0.372   3.726   2.306  0.1397  0.6395 -1.2801
 3450SOL     OW21811   1.095   0.108   3.780 -0.3138  0.1697 -0.0637
 3450SOL    HW121812   1.073   0.142   3.693 -3.4128 -2.5523 -0.3495
 3450SOL    HW221813   1.009   0.075   3.805  0.5108 -0.8870  1.3741
 3451SOL     OW21814   0.370   4.228   4.051  0.0296 -0.2036 -0.4728
 3451SOL    HW121815   0.453   4.186   4.072  0.1223 -0.7654 -1.9830
 3451SOL    HW221816   0.303   4.162   4.067  0.6285 -1.3165 -2.6835
 3452SOL     OW21817   4.607   0.209   9.646  0.7827  0.1991 -0.4184
 3452SOL    HW121818   4.671   0.208   9.717 -0.6900 -3.7123  0.8772
 3452SOL    HW221819   4.530   0.169   9.688  2.0437  0.2080  1.9031
 3453SOL     OW21820   3.606   1.923   6.356 -0.2930 -0.2159 -0.2654
 3453SOL    HW121821   3.550   1.963   6.290  0.7943  1.3448 -0.2531
 3453SOL    HW221822   3.570   1.834   6.354 -1.5795  0.2754  0.7667
 3454SOL     OW21823   4.490   1.431  14.174 -0.8493 -1.1220  0.9512
 3454SOL    HW121824   4.573   1.472  14.200 -1.2478 -0.2172  0.8105
 3454SOL    HW221825   4.503   1.407  14.083 -0.9745 -0.4396  0.7537
 3455SOL     OW21826   3.954   0.306   2.417  0.5231  0.7349 -0.6863
 3455SOL    HW121827   3.955   0.336   2.326  1.8753  0.4038 -0.7789
 3455SOL    HW221828   4.041   0.334   2.444  0.9435 -0.2055 -1.0642
 3456SOL     OW21829   3.463   1.581   7.570 -0.4024 -0.1319 -0.3099
 3456SOL    HW121830   3.555   1.606   7.565 -0.7319  1.2696  0.8348
 3456SOL    HW221831   3.467   1.499   7.619 -0.2714  0.8840  1.3648
 3457SOL     OW21832   2.731   3.962   5.451 -0.4277  0.0101  0.4264
 3457SOL    HW121833   2.689   3.948   5.536  0.0715  0.4215  0.7396
 3457SOL    HW221834   2.657   3.928   5.401  1.1830  0.7141 -2.4295
 3458SOL     OW21835   1.375   1.677   9.083 -0.2668  0.1274 -0.1561
 3458SOL    HW121836   1.280   1.685   9.079 -0.4436 -2.0638 -0.4631
 3458SOL    HW221837   1.390   1.771   9.085 -1.3259  0.3024 -0.2709
 3459SOL     OW21838   3.502   0.712   6.597  0.2510  0.4785  0.2980
 3459SOL    HW121839   3.508   0.667   6.513  1.7390 -1.4053  1.4246
 3459SOL    HW221840   3.546   0.659   6.664 -1.3186 -1.9816 -0.6080
 3460SOL     OW21841   2.955   2.913  11.217 -0.6231 -0.4884  0.1399
 3460SOL    HW121842   2.942   2.969  11.141  2.4475 -0.5575 -0.4459
 3460SOL    HW221843   3.010   2.842  11.185  1.7498  1.2196  0.3892
 3461SOL     OW21844   1.500   3.286   5.773  0.2262 -0.3845 -0.1007
 3461SOL    HW121845   1.407   3.269   5.786  0.2766 -1.0424 -0.6562
 3461SOL    HW221846   1.548   3.244   5.845  0.6794 -0.2818 -0.3427
 3462SOL     OW21847   0.083   0.546   7.284 -0.0944  0.1950 -0.1348
 3462SOL    HW121848   4.717   0.562   7.243  0.6130  0.9081 -1.3156
 3462SOL    HW221849   0.065   0.468   7.338  0.0397 -0.0085 -0.3852
 3463SOL     OW21850   2.677   3.811   1.396 -0.0214  0.2630  0.1858
 3463SOL    HW121851   2.771   3.816   1.379 -0.1691 -1.6872 -1.3040
 3463SOL    HW221852   2.649   3.723   1.368 -1.3245  0.2054  1.6573
 3464SOL     OW21853   3.519   0.378  15.971 -0.1819 -0.3600  0.1041
 3464SOL    HW121854   3.487   0.460  16.008 -1.1473 -0.0935 -1.3323
 3464SOL    HW221855   3.597   0.349  16.018 -0.2835  0.3031  0.6727
 3465SOL     OW21856   1.704   1.359  10.042 -0.1223  0.1960 -0.3484
 3465SOL    HW121857   1.725   1.307  10.119  0.0707 -1.3244 -1.4413
 3465SOL    HW221858   1.788   1.354   9.995  1.8000 -0.2514  3.1073
 3466SOL     OW21859   3.459   3.905  12.904 -0.4564 -0.2382 -0.0123
 3466SOL    HW121860   3.541   3.865  12.934 -0.1012 -1.9493 -3.2515
 3466SOL    HW221861   3.400   3.866  12.969  1.6901 -0.6854  1.6625
 3467SOL     OW21862   3.456   0.653   1.917 -0.0694 -0.5417  0.0376
 3467SOL    HW121863   3.454   0.562   1.887  0.6560 -1.2669  2.1860
 3467SOL    HW221864   3.366   0.672   1.941  0.5675  0.3486  1.7316
 3468SOL     OW21865   0.365   2.935  10.018  0.2092 -0.0243 -0.3134
 3468SOL    HW121866   0.398   3.004  10.076 -2.3267  2.3591 -1.7370
 3468SOL    HW221867   0.280   2.948  10.060 -0.0256 -1.7085 -0.2667
 3469SOL     OW21868   3.447   0.539   5.041  0.1448 -0.3586  0.1151
 3469SOL    HW121869   3.542   0.525   5.040  0.1889 -0.1641  1.4327
 3469SOL    HW221870   3.418   0.460   5.087  1.8774 -0.7010  0.6303
 3470SOL     OW21871   1.130   2.846   5.242  0.0493  0.2339 -0.3917
 3470SOL    HW121872   1.143   2.819   5.151 -0.8326  0.5105 -0.5926
 3470SOL    HW221873   1.085   2.771   5.281 -1.7745  2.0368  0.9324
 3471SOL     OW21874   4.462   3.854  13.430 -0.2811 -0.1733 -0.1770
 3471SOL    HW121875   4.521   3.779  13.437  2.2448  1.8584  0.6878
 3471SOL    HW221876   4.494   3.918  13.495  2.6732 -0.3245 -1.5010
 3472SOL     OW21877   0.299   3.365   3.411  0.3925  0.1061  0.1798
 3472SOL    HW121878   0.235   3.337   3.345 -1.6969  0.0789  2.1833
 3472SOL    HW221879   0.296   3.459   3.394  2.2636  0.0401 -0.5224
 3473SOL     OW21880   1.923   1.501  10.614  0.2019  0.5129  0.7835
 3473SOL    HW121881   1.981   1.529  10.684  0.1755  1.4096  0.4454
 3473SOL    HW221882   1.891   1.588  10.591 -0.9269 -0.2451 -0.5465
 3474SOL     OW21883   0.744   1.008   8.788  0.6845 -0.2266  0.5109
 3474SOL    HW121884   0.680   1.076   8.769  1.4262  0.1512 -0.6532
 3474SOL    HW221885   0.708   0.965   8.866 -1.9578 -0.9691 -1.1424
 3475SOL     OW21886   0.072   3.650   6.705  0.3327  0.0297 -0.0185
 3475SOL    HW121887   0.125   3.581   6.665  0.4584 -0.4899  1.0369
 3475SOL    HW221888   0.039   3.704   6.633 -0.5256 -0.6127 -0.1007
 3476SOL     OW21889   3.633   4.610  12.527  0.0257 -0.1679 -0.3803
 3476SOL    HW121890   3.558   4.662  12.555 -1.8983 -1.6121 -2.8987
 3476SOL    HW221891   3.685   4.687  12.503 -1.7622  1.4828  0.9911
 3477SOL     OW21892   1.210   1.990   0.397  0.2774  0.5503  0.1670
 3477SOL    HW121893   1.186   2.020   0.485 -0.8385  0.8923 -0.2513
 3477SOL    HW221894   1.287   2.041   0.373 -0.7299  1.9659 -0.0873
 3478SOL     OW21895   4.450   1.364  13.688  0.1539  0.1959  0.2965
 3478SOL    HW121896   4.390   1.431  13.719  0.9688  0.6273  0.9211
 3478SOL    HW221897   4.498   1.332  13.764  1.2134 -0.5874 -0.6848
 3479SOL     OW21898   2.206   1.176   0.959  0.3595  0.5275 -0.3620
 3479SOL    HW121899   2.157   1.201   1.037  1.6847  2.1324 -0.0427
 3479SOL    HW221900   2.192   1.081   0.955  3.0796  0.0661  0.6908
 3480SOL     OW21901   2.970   2.088   9.076  0.4767 -0.6028 -0.1697
 3480SOL    HW121902   3.009   2.175   9.083 -0.9633 -0.2561  3.0394
 3480SOL    HW221903   2.964   2.044   9.161 -0.5526 -1.7125 -0.8096
 3481SOL     OW21904   3.368   1.761   3.425  0.2900  0.8985 -0.3896
 3481SOL    HW121905   3.313   1.839   3.417  0.2366  0.9399  0.3650
 3481SOL    HW221906   3.456   1.793   3.446  0.0830  2.5212 -1.9458
 3482SOL     OW21907   3.161   4.064  10.207  0.2230  0.0096 -0.3861
 3482SOL    HW121908   3.194   4.016  10.283 -1.6530  1.5806  1.3986
 3482SOL    HW221909   3.121   3.993  10.156  0.0138 -1.6068  2.0347
 3483SOL     OW21910   0.978   1.836  13.459 -0.3592  0.0559 -0.1532
 3483SOL    HW121911   1.048   1.841  13.524 -2.2947  0.7023  1.9079
 3483SOL    HW221912   0.915   1.789  13.514 -0.2661 -0.1764 -0.2482
 3484SOL     OW21913   4.359   3.860   3.849 -0.3176  0.1359  0.4505
 3484SOL    HW121914   4.334   3.769   3.869 -2.8545  0.0245 -3.0810
 3484SOL    HW221915   4.428   3.837   3.787  1.8377 -0.4622  3.1054
 3485SOL     OW21916   0.781   3.070  11.336 -0.3300 -0.2897  0.1629
 3485SOL    HW121917   0.706   3.042  11.388  1.2613 -1.6352  1.7505
 3485SOL    HW221918   0.727   3.122  11.277 -0.4345 -1.2367 -0.5737
 3486SOL     OW21919   3.471   1.343   7.695 -0.4041 -0.5437  0.4367
 3486SOL    HW121920   3.414   1.326   7.770 -1.6079 -2.0871 -0.8264
 3486SOL    HW221921   3.502   1.253   7.688 -2.1563 -0.9669 -1.9997
 3487SOL     OW21922   1.547   3.244  14.422 -0.2314  0.3998 -0.1637
 3487SOL    HW121923   1.504   3.325  14.449  0.1812  0.6648 -0.2951
 3487SOL    HW221924   1.487   3.219  14.352 -1.3436  1.2698  0.4733
 3488SOL     OW21925   2.624   4.513   4.120  0.1568  0.0614 -0.2061
 3488SOL    HW121926   2.711   4.487   4.090  0.7307  0.0607  1.4615
 3488SOL    HW221927   2.611   4.595   4.071 -1.6271  0.6107  1.1775
 3489SOL     OW21928   0.693   2.629  12.442  0.5044 -0.1577  0.3350
 3489SOL    HW121929   0.696   2.669  12.355  0.0599  0.6356  0.6862
 3489SOL    HW221930   0.744   2.692  12.493  1.2473  0.4477 -1.1482
 3490SOL     OW21931   3.168   4.246   4.318 -0.0256 -0.3587 -0.1292
 3490SOL    HW121932   3.225   4.173   4.339  0.7082  0.4088  0.5760
 3490SOL    HW221933   3.137   4.224   4.231  0.7755 -3.7225  0.4519
 3491SOL     OW21934   0.451   0.369   0.325 -0.7528  0.3038 -0.1161
 3491SOL    HW121935   0.496   0.289   0.298 -0.2801  0.9489 -1.2122
 3491SOL    HW221936   0.386   0.381   0.255 -0.8077  0.2431 -0.0764
 3492SOL     OW21937   0.174   0.726   3.564  0.2863 -0.1888 -0.4032
 3492SOL    HW121938   0.196   0.780   3.488 -0.9859  0.2066 -0.4835
 3492SOL    HW221939   0.197   0.788   3.633  1.7839 -0.4957 -0.6182
 3493SOL     OW21940   2.133   1.722  13.326 -0.0158 -0.4516 -0.0676
 3493SOL    HW121941   2.116   1.725  13.420 -1.4224  0.8258 -0.3597
 3493SOL    HW221942   2.186   1.798  13.306 -0.3552 -0.8437 -2.4831
 3494SOL     OW21943   3.856   0.852   8.775  0.4425 -0.2266  0.5934
 3494SOL    HW121944   3.922   0.783   8.764  0.5401  0.2024 -1.5019
 3494SOL    HW221945   3.888   0.877   8.862 -1.1276  2.4820  0.3761
 3495SOL     OW21946   1.720   3.341   0.455  0.2679  0.4319  0.5704
 3495SOL    HW121947   1.699   3.429   0.423 -1.6015  0.5272  2.0266
 3495SOL    HW221948   1.660   3.281   0.411 -3.2386  1.3823  4.0579
 3496SOL     OW21949   3.210   2.634   5.866 -0.1223 -0.0950  0.0981
 3496SOL    HW121950   3.241   2.713   5.822  1.3653 -1.1822 -0.8119
 3496SOL    HW221951   3.291   2.584   5.862 -0.8588 -1.3892  1.3485
 3497SOL     OW21952   0.971   0.263  15.729  0.1493 -0.5380 -0.1981
 3497SOL    HW121953   1.031   0.216  15.670  0.7143  3.1337 -2.5652
 3497SOL    HW221954   0.912   0.316  15.676 -1.7023 -1.5174  0.8892
 3498SOL     OW21955   2.729   0.855   5.196 -0.1479  0.0367 -0.4986
 3498SOL    HW121956   2.693   0.795   5.261  0.8863  0.0694  0.1004
 3498SOL    HW221957   2.687   0.937   5.221  0.2728 -0.2746  1.2259
 3499SOL     OW21958   4.289   0.177   4.374  0.5852  0.6749 -0.3442
 3499SOL    HW121959   4.369   0.132   4.402 -1.0664 -2.1493 -0.1624
 3499SOL    HW221960   4.317   0.237   4.304  1.9356  0.0567 -0.3494
 3500SOL     OW21961   4.205   1.320  15.312 -0.3622 -0.0864  0.3825
 3500SOL    HW121962   4.186   1.231  15.340 -3.1938 -0.2245 -1.9659
 3500SOL    HW221963   4.298   1.307  15.294 -1.0680 -1.6478 -2.0818
 3501SOL     OW21964   2.954   0.932  14.891 -0.7219 -0.0876 -0.9251
 3501SOL    HW121965   2.961   0.844  14.855 -1.2585 -0.4761 -0.0816
 3501SOL    HW221966   3.005   0.978  14.823 -2.2079  1.8808 -0.7150
 3502SOL     OW21967   3.137   0.678  12.576 -0.1248 -0.0405  0.4758
 3502SOL    HW121968   3.223   0.678  12.535 -0.0779 -1.5000  0.5667
 3502SOL    HW221969   3.162   0.717  12.660  1.3610  0.5374 -0.2459
 3503SOL     OW21970   3.359   0.253   3.165  0.1385 -0.3044  0.0325
 3503SOL    HW121971   3.297   0.311   3.209 -0.6767 -0.0697 -1.4145
 3503SOL    HW221972   3.336   0.277   3.075  1.4430 -1.9949 -0.7578
 3504SOL     OW21973   4.661   1.537  11.452  0.4397 -0.0888 -0.9504
 3504SOL    HW121974   4.605   1.573  11.384  0.0300  1.0771  0.0063
 3504SOL    HW221975   0.015   1.595  11.431  0.6064 -0.0249 -0.1778
 3505SOL     OW21976   0.201   4.446   1.808  0.3249  0.5524 -0.0405
 3505SOL    HW121977   0.281   4.491   1.838 -1.2460  3.3598 -0.0364
 3505SOL    HW221978   0.221   4.355   1.828  1.2046  1.4909  3.4898
 3506SOL     OW21979   0.906   3.030  13.067  0.0146  0.4220 -0.6081
 3506SOL    HW121980   0.928   2.946  13.028  2.1294  1.0460 -0.7902
 3506SOL    HW221981   0.907   3.003  13.159 -1.5003 -0.9469 -1.0098
 3507SOL     OW21982   2.526   1.538   1.227  0.8423 -0.4029  0.0946
 3507SOL    HW121983   2.506   1.543   1.134  3.1221 -0.8911 -0.4409
 3507SOL    HW221984   2.512   1.445   1.244  2.5797 -0.6672  0.1496
 3508SOL     OW21985   1.407   2.438  10.440 -0.3921  0.1400 -0.6415
 3508SOL    HW121986   1.386   2.347  10.459  0.2269  0.0965 -0.1773
 3508SOL    HW221987   1.493   2.437  10.481 -0.5525 -0.5903 -0.3305
 3509SOL     OW21988   0.500   3.089   1.972 -0.4160 -0.1326  0.3007
 3509SOL    HW121989   0.479   3.056   2.059  0.8830 -3.1244 -0.5340
 3509SOL    HW221990   0.420   3.064   1.925 -0.7914  1.3400  0.1452
 3510SOL     OW21991   2.742   3.810   0.943 -0.4055 -0.1937  0.2274
 3510SOL    HW121992   2.733   3.850   0.857  0.3000  1.0930  0.7476
 3510SOL    HW221993   2.828   3.770   0.932  0.2056  1.5840 -1.4551
 3511SOL     OW21994   0.628   3.463   7.877 -0.1070 -0.7745 -0.4681
 3511SOL    HW121995   0.565   3.393   7.856  0.0732 -0.9562 -0.4076
 3511SOL    HW221996   0.602   3.523   7.807  1.3452 -0.6077 -0.8645
 3512SOL     OW21997   4.666   2.671   7.064  0.4977  0.4258 -0.3463
 3512SOL    HW121998   0.033   2.640   7.038  0.4479  1.3334 -1.5933
 3512SOL    HW221999   4.619   2.634   6.990 -0.8085  1.2143  0.0880
 3513SOL     OW22000   4.668   2.772   5.704  0.0404 -0.6381  0.3837
 3513SOL    HW122001   4.614   2.835   5.753  1.3657  0.2493  0.7064
 3513SOL    HW222002   4.612   2.759   5.627 -0.1414 -1.0077  0.5800
 3514SOL     OW22003   4.515   0.214   2.647  0.7329 -0.8200 -0.1199
 3514SOL    HW122004   4.489   0.289   2.593 -0.2959 -0.6730  0.5694
 3514SOL    HW222005   4.542   0.160   2.573  0.0945 -0.8616 -0.3281
 3515SOL     OW22006   3.882   2.957  13.659 -0.3728 -0.7511 -0.1635
 3515SOL    HW122007   3.887   3.048  13.688  1.0920 -1.1229  0.7755
 3515SOL    HW222008   3.789   2.937  13.668 -0.8927  0.9072 -1.8279
 3516SOL     OW22009   2.844   0.752   6.425 -0.1717 -0.0288  0.1235
 3516SOL    HW122010   2.844   0.667   6.380 -1.7762 -1.3749  2.6562
 3516SOL    HW222011   2.773   0.743   6.489  0.2238  2.8788  0.9786
 3517SOL     OW22012   3.108   2.286   2.166  0.3264 -0.3025  0.9536
 3517SOL    HW122013   3.012   2.283   2.165  0.3212  0.2582 -0.0113
 3517SOL    HW222014   3.112   2.316   2.075  1.3024 -1.4502  0.6270
 3518SOL     OW22015   2.608   1.256   7.696 -0.2117  0.3887  0.1932
 3518SOL    HW122016   2.608   1.350   7.715  2.7597  0.1018  1.5050
 3518SOL    HW222017   2.514   1.247   7.679 -0.1719 -0.5462  0.5303
 3519SOL     OW22018   3.615   2.790   2.865 -0.1607 -0.0454  0.0542
 3519SOL    HW122019   3.624   2.719   2.801  0.7460 -2.3267  2.7012
 3519SOL    HW222020   3.535   2.760   2.909 -0.3781  0.6360  0.1132
 3520SOL     OW22021   2.185   3.874  15.099  0.3166  0.1203 -0.0554
 3520SOL    HW122022   2.142   3.830  15.026  0.7183 -0.0147 -0.2152
 3520SOL    HW222023   2.163   3.967  15.091 -1.9770 -0.3237  1.1498
 3521SOL     OW22024   4.442   4.235   1.693  0.0001 -0.1268  0.3147
 3521SOL    HW122025   4.357   4.191   1.689 -0.2782  0.6730 -2.6277
 3521SOL    HW222026   4.473   4.243   1.603  2.7038  0.1333  1.2545
 3522SOL     OW22027   1.563   1.709   9.912 -0.1020  0.3520 -0.4010
 3522SOL    HW122028   1.658   1.695   9.913 -0.0908  0.4979  0.4856
 3522SOL    HW222029   1.552   1.737  10.002 -2.9526 -0.1405 -0.6204
 3523SOL     OW22030   0.973   1.056   4.866  0.2624 -0.7121  0.5455
 3523SOL    HW122031   0.898   1.017   4.822 -0.2925  0.4457  0.4566
 3523SOL    HW222032   0.941   1.140   4.898 -0.3154 -0.7900  0.1761
 3524SOL     OW22033   2.465   4.369   3.339 -0.1519  0.2153  0.0840
 3524SOL    HW122034   2.466   4.456   3.300  3.1176 -0.0478 -0.3800
 3524SOL    HW222035   2.412   4.382   3.418 -0.9953 -1.8975 -0.1177
 3525SOL     OW22036   0.261   4.400   5.215 -0.2576  0.2038  0.2688
 3525SOL    HW122037   0.230   4.440   5.296 -1.3416  0.3327 -0.2041
 3525SOL    HW222038   0.266   4.472   5.152 -1.1849 -0.5553 -0.6749
 3526SOL     OW22039   1.800   0.028   4.769 -0.4372  0.9794 -0.5303
 3526SOL    HW122040   1.846   4.673   4.808 -0.3523  1.5217  0.3979
 3526SOL    HW222041   1.749   0.065   4.841 -0.6084  1.6854 -1.0147
 3527SOL     OW22042   2.237   0.125   8.561  0.0198 -0.4446  0.7174
 3527SOL    HW122043   2.220   0.217   8.581 -0.2957 -0.6242  1.2545
 3527SOL    HW222044   2.290   0.135   8.482 -3.5326  1.8654 -1.3932
 3528SOL     OW22045   3.311   2.413   6.099  0.6100 -0.6962 -0.5076
 3528SOL    HW122046   3.243   2.351   6.074  1.3955 -2.6556  2.2810
 3528SOL    HW222047   3.364   2.418   6.020  0.8642  0.2157 -0.2845
 3529SOL     OW22048   0.229   1.851   0.394 -0.4795 -0.2441  0.0744
 3529SOL    HW122049   0.204   1.759   0.390 -1.0421 -0.1318  0.9243
 3529SOL    HW222050   0.161   1.879   0.455 -0.4175  1.0794 -0.4700
 3530SOL     OW22051   0.488   3.952  12.872  0.0432 -0.5161  0.6789
 3530SOL    HW122052   0.499   3.861  12.846  0.9466 -0.6268  1.4386
 3530SOL    HW222053   0.401   3.953  12.912  0.0619 -3.5799  0.8100
 3531SOL     OW22054   2.281   2.353   6.629  0.2574  0.4736  0.4188
 3531SOL    HW122055   2.237   2.295   6.691 -1.8197  1.8445  0.2204
 3531SOL    HW222056   2.219   2.425   6.638  2.5594  2.0890  3.2149
 3532SOL     OW22057   1.289   4.490   4.966 -0.3113  0.7463 -0.3814
 3532SOL    HW122058   1.345   4.415   4.943  1.3680  1.1592  2.3436
 3532SOL    HW222059   1.334   4.562   4.922  0.3740 -0.9273 -2.4518
 3533SOL     OW22060   2.935   3.577   6.975 -0.2624  0.2909  0.2547
 3533SOL    HW122061   2.915   3.572   6.881  1.0433 -1.6648  0.0901
 3533SOL    HW222062   3.013   3.522   6.980  0.4427  1.0551 -2.1622
 3534SOL     OW22063   1.003   3.868   1.656  0.8253 -0.0023  0.3831
 3534SOL    HW122064   1.032   3.947   1.612 -1.4694  0.7088  0.1410
 3534SOL    HW222065   0.935   3.893   1.719  0.8594  2.1251 -0.4353
 3535SOL     OW22066   2.885   2.379  16.018  0.1342  0.4080  0.1116
 3535SOL    HW122067   2.830   2.449  15.983 -1.8011  0.1490  2.6687
 3535SOL    HW222068   2.965   2.374  15.964 -0.6128 -2.4549 -0.7185
 3536SOL     OW22069   0.647   1.089   7.791 -0.5859 -0.3607  0.0670
 3536SOL    HW122070   0.644   1.012   7.734  1.6970 -0.7531  0.4752
 3536SOL    HW222071   0.560   1.120   7.769 -0.4317 -1.0855 -1.6457
 3537SOL     OW22072   0.443   2.419   6.671 -1.2087  0.6387  0.0629
 3537SOL    HW122073   0.350   2.429   6.651 -0.9297 -0.8702 -1.9402
 3537SOL    HW222074   0.434   2.417   6.767  2.1084 -3.7320  0.2951
 3538SOL     OW22075   1.079   3.410   6.683 -0.4304 -0.0016  0.9878
 3538SOL    HW122076   1.003   3.429   6.738 -1.4572  1.8901 -1.1099
 3538SOL    HW222077   1.135   3.382   6.756 -1.5244 -3.2954  0.5661
 3539SOL     OW22078   3.738   1.961   8.196 -0.4429 -0.2445  0.2262
 3539SOL    HW122079   3.684   1.941   8.272 -2.7117  0.1526 -1.2943
 3539SOL    HW222080   3.697   2.046   8.178 -0.6622 -0.4037 -0.0185
 3540SOL     OW22081   3.209   2.422  10.322  0.0190 -0.2066 -0.1338
 3540SOL    HW122082   3.154   2.497  10.341  2.7665  1.1516  2.4498
 3540SOL    HW222083   3.185   2.374  10.401  1.3689 -1.4344 -0.4696
 3541SOL     OW22084   4.586   3.707   9.711  0.1180 -0.1905  0.1521
 3541SOL    HW122085   4.521   3.646   9.747 -0.0612 -0.4429 -0.6101
 3541SOL    HW222086   4.540   3.789   9.696  2.0220  0.9029  0.2601
 3542SOL     OW22087   2.422   2.215  11.475  0.2872 -0.4321 -0.1040
 3542SOL    HW122088   2.353   2.165  11.518 -0.1366 -0.1962 -0.5098
 3542SOL    HW222089   2.413   2.166  11.394  0.3351  2.7364 -2.0219
 3543SOL     OW22090   1.278   1.767  12.843  0.1582  0.1623  0.4040
 3543SOL    HW122091   1.289   1.699  12.910  1.1769  2.0798  2.1920
 3543SOL    HW222092   1.183   1.776  12.838  0.5426  3.3723 -1.4181
 3544SOL     OW22093   0.039   3.342   3.591 -0.6339  0.2739 -0.0152
 3544SOL    HW122094   0.025   3.404   3.663  0.0534  1.2183 -0.6939
 3544SOL    HW222095   0.126   3.310   3.615 -0.2749 -0.2585 -2.0767
 3545SOL     OW22096   0.887   3.391   0.774  0.4346  0.1886 -0.0919
 3545SOL    HW122097   0.824   3.384   0.846  0.9903 -0.1191  0.3724
 3545SOL    HW222098   0.938   3.311   0.787 -0.1411 -0.2962 -0.8201
 3546SOL     OW22099   0.454   1.415   4.999  0.0772  0.4743  0.1478
 3546SOL    HW122100   0.384   1.478   5.018 -0.2312 -0.4188  1.9000
 3546SOL    HW222101   0.463   1.378   5.086  1.1747 -0.2629 -0.2797
 3547SOL     OW22102   1.383   3.430   8.755 -0.6416 -0.0449 -0.2851
 3547SOL    HW122103   1.291   3.423   8.782 -0.9524  0.7350 -1.1448
 3547SOL    HW222104   1.403   3.523   8.761 -1.4959  0.1280 -0.0353
 3548SOL     OW22105   3.803   1.391   1.924 -0.1905 -0.8134 -0.5140
 3548SOL    HW122106   3.727   1.388   1.865 -0.5948 -1.1714  0.0212
 3548SOL    HW222107   3.786   1.468   1.979  0.4533  0.5598 -2.2415
 3549SOL     OW22108   1.609   1.368   8.564 -0.1136 -0.1140  0.0717
 3549SOL    HW122109   1.615   1.463   8.556 -0.7570  0.1487  2.7758
 3549SOL    HW222110   1.523   1.351   8.525 -0.4141 -0.5886  0.9467
 3550SOL     OW22111   0.169   3.843   0.894 -0.3953  0.4491 -0.8298
 3550SOL    HW122112   0.160   3.756   0.856  1.0135  0.6886 -1.7180
 3550SOL    HW222113   0.112   3.894   0.837  1.5684  0.7956 -2.5053
 3551SOL     OW22114   1.399   0.851   1.404  0.0905  0.0014  0.4465
 3551SOL    HW122115   1.378   0.930   1.454  0.0452  0.6013 -0.5031
 3551SOL    HW222116   1.350   0.869   1.324  1.3750 -1.8662 -0.7566
 3552SOL     OW22117   4.334   1.214   7.994 -0.5652 -0.8586  0.5963
 3552SOL    HW122118   4.281   1.196   8.071 -0.0008  2.5939  1.7843
 3552SOL    HW222119   4.292   1.172   7.919  0.7521  0.1966 -0.7284
 3553SOL     OW22120   0.788   3.947   4.047  0.0645  0.0767 -0.2921
 3553SOL    HW122121   0.850   4.010   4.011 -0.2826  0.1262 -0.7965
 3553SOL    HW222122   0.767   3.899   3.967 -0.1671 -0.2205 -0.0532
 3554SOL     OW22123   2.145   1.112   8.367  0.1970 -0.1629 -0.0477
 3554SOL    HW122124   2.232   1.147   8.388  0.8712 -0.8976 -1.6314
 3554SOL    HW222125   2.143   1.113   8.271 -0.5345 -0.9880 -0.0367
 3555SOL     OW22126   0.165   2.458   6.691  0.0317  0.2031 -0.0382
 3555SOL    HW122127   0.164   2.537   6.745 -3.1928  1.3181 -1.7136
 3555SOL    HW222128   0.072   2.442   6.673  0.6138 -3.1291 -0.0669
 3556SOL     OW22129   3.161   2.632   7.305  0.1058 -0.3875 -0.3633
 3556SOL    HW122130   3.109   2.622   7.226  0.8020 -2.6106 -0.5346
 3556SOL    HW222131   3.195   2.722   7.298 -0.9837  0.1289  1.0628
 3557SOL     OW22132   3.220   0.606   8.727 -0.0821  0.0512 -0.0532
 3557SOL    HW122133   3.234   0.700   8.716  0.4343 -0.1578 -1.2498
 3557SOL    HW222134   3.218   0.587   8.633  1.5698 -1.8669  0.2974
 3558SOL     OW22135   3.249   4.671   8.428  0.1363  0.5768  0.3562
 3558SOL    HW122136   3.284   4.706   8.346 -1.0173 -0.1415 -0.4329
 3558SOL    HW222137   3.329   4.650   8.477 -0.3782  0.5853  1.2087
 3559SOL     OW22138   1.610   3.355   6.389  0.3451 -0.0810  0.1425
 3559SOL    HW122139   1.570   3.433   6.351  1.1176 -0.3811 -1.3002
 3559SOL    HW222140   1.684   3.403   6.426  1.0653  1.4268 -3.2541
 3560SOL     OW22141   1.386   4.267   4.780  0.1063  0.2585 -0.2909
 3560SOL    HW122142   1.344   4.222   4.706  0.5555  0.1853 -0.5019
 3560SOL    HW222143   1.417   4.349   4.741  3.1937 -0.2397  1.1310
 3561SOL     OW22144   2.220   4.337   2.375  0.5827  0.0815 -0.4192
 3561SOL    HW122145   2.153   4.384   2.325  1.0067  1.1354 -0.0038
 3561SOL    HW222146   2.220   4.378   2.461  0.3126  2.2601 -1.4545
 3562SOL     OW22147   1.793   2.512   7.546  0.1360  0.3523  0.7430
 3562SOL    HW122148   1.767   2.424   7.519  0.4782  1.1532 -2.1813
 3562SOL    HW222149   1.876   2.492   7.589 -0.4661 -0.6641  1.4339
 3563SOL     OW22150   4.296   4.137   1.334  0.1428  0.6513  0.0932
 3563SOL    HW122151   4.298   4.050   1.294  0.8265  1.6533 -2.0339
 3563SOL    HW222152   4.204   4.154   1.354  0.1201 -0.2222  0.7423
 3564SOL     OW22153   3.252   3.623  14.085  0.1553  0.5828  0.2114
 3564SOL    HW122154   3.345   3.622  14.064  0.4128 -2.4762  1.5396
 3564SOL    HW222155   3.230   3.542  14.039  1.4908 -0.0506  0.7093
 3565SOL     OW22156   1.466   2.758  11.155  0.4311 -0.3505  0.7682
 3565SOL    HW122157   1.444   2.849  11.171  0.0074 -0.3527  0.1995
 3565SOL    HW222158   1.477   2.764  11.060 -0.2667 -2.7272  0.5393
 3566SOL     OW22159   3.551   4.238   1.400 -0.0239 -0.0682  0.3308
 3566SOL    HW122160   3.630   4.285   1.424  0.2122 -0.0819 -0.4165
 3566SOL    HW222161   3.481   4.291   1.438  0.4842  0.3031  0.7443
 3567SOL     OW22162   1.370   2.776   3.827 -0.4884 -0.3340  0.6222
 3567SOL    HW122163   1.324   2.834   3.887 -0.5798  2.3543 -2.0383
 3567SOL    HW222164   1.382   2.699   3.883  0.6696 -1.4132 -1.1192
 3568SOL     OW22165   0.964   1.609   8.146 -0.1426 -0.2154  0.3798
 3568SOL    HW122166   0.949   1.639   8.235 -0.0660 -1.1544  0.7079
 3568SOL    HW222167   1.052   1.570   8.150 -0.0604 -0.1304 -0.6220
 3569SOL     OW22168   4.266   2.585  15.412  0.3110  0.7551  0.3407
 3569SOL    HW122169   4.246   2.638  15.335 -2.4460 -1.7672 -0.6819
 3569SOL    HW222170   4.316   2.646  15.466  0.0659  0.8986  0.4038
 3570SOL     OW22171   3.289   2.959   6.863 -0.0760  0.2940 -0.4163
 3570SOL    HW122172   3.364   2.946   6.921  0.5066  2.9512 -0.5575
 3570SOL    HW222173   3.338   2.935   6.784 -0.5920 -0.7420 -0.4180
 3571SOL     OW22174   3.127   1.773  15.056  0.1515  0.0374  0.1320
 3571SOL    HW122175   3.164   1.711  15.118 -0.0903  1.6082  1.8685
 3571SOL    HW222176   3.042   1.733  15.037 -0.7122  1.8275  0.2217
 3572SOL     OW22177   4.028   3.074   5.581  0.3632 -0.3090  0.0530
 3572SOL    HW122178   3.938   3.080   5.614  0.4602  0.5961  0.1681
 3572SOL    HW222179   4.062   3.005   5.637 -1.6414 -0.2834  1.2992
 3573SOL     OW22180   0.860   0.443   2.687 -0.1784 -0.0581  0.2590
 3573SOL    HW122181   0.922   0.373   2.707  0.4786  0.7846  1.1154
 3573SOL    HW222182   0.852   0.442   2.591 -1.6489 -2.9083  0.4110
 3574SOL     OW22183   2.905   1.266   5.925  0.0673  0.0272  0.8777
 3574SOL    HW122184   2.948   1.181   5.930 -1.0280 -0.5215  1.0465
 3574SOL    HW222185   2.947   1.304   6.003 -2.4233 -0.8033  2.6494
 3575SOL     OW22186   0.738   3.263   0.521  0.0421  0.0445 -0.1912
 3575SOL    HW122187   0.716   3.283   0.612 -1.4309 -0.1650 -0.4893
 3575SOL    HW222188   0.763   3.346   0.482 -0.7372  1.5647  2.5244
 3576SOL     OW22189   0.692   2.929  10.889  0.1604 -0.0969  0.2459
 3576SOL    HW122190   0.731   2.988  10.824 -1.2871  0.5557 -0.0231
 3576SOL    HW222191   0.623   2.891  10.835  0.3224  1.8849 -1.3725
 3577SOL     OW22192   0.033   3.046  14.467  0.2554  0.3187  0.4537
 3577SOL    HW122193   4.697   3.104  14.414 -0.5081 -0.7541  0.0883
 3577SOL    HW222194   4.706   2.963  14.460  0.4980  0.0775  1.6007
 3578SOL     OW22195   3.432   0.926   6.262  0.7512 -0.2012 -0.6939
 3578SOL    HW122196   3.513   0.883   6.292  0.2435 -0.7330 -0.0995
 3578SOL    HW222197   3.472   0.966   6.185 -0.3332  0.5386 -0.8638
 3579SOL     OW22198   1.487   3.909   3.657  0.2579  0.4680  0.4809
 3579SOL    HW122199   1.535   3.947   3.584  1.2952 -2.5802 -0.4146
 3579SOL    HW222200   1.409   3.890   3.606 -1.2294 -1.8129  3.5689
 3580SOL     OW22201   1.194   1.192   6.061 -0.7646  0.1993  0.5145
 3580SOL    HW122202   1.182   1.237   6.145  1.5262 -0.2792  1.1169
 3580SOL    HW222203   1.281   1.153   6.073 -1.1156 -1.3507 -2.0448
 3581SOL     OW22204   2.641   4.557  16.480  0.4243 -0.3066  0.0269
 3581SOL    HW122205   2.678   4.569  16.567  0.4183 -1.2308  0.1584
 3581SOL    HW222206   2.547   4.557  16.499  0.5132 -0.0736  0.4571
 3582SOL     OW22207   2.828   2.061  16.779  0.1948 -0.4577 -0.3160
 3582SOL    HW122208   2.861   2.062  16.689  1.2318 -0.6388  0.0534
 3582SOL    HW222209   2.741   2.032  16.752 -0.2394  1.7275 -1.2620
 3583SOL     OW22210   0.653   2.920  13.432  0.0588  0.3567 -0.1499
 3583SOL    HW122211   0.623   2.967  13.354 -0.7479 -0.8614 -0.5818
 3583SOL    HW222212   0.607   2.963  13.503 -0.6407 -1.6466  0.5951
 3584SOL     OW22213   3.846   0.345   3.049  0.3436  0.0587 -0.2674
 3584SOL    HW122214   3.853   0.292   2.969 -1.1906 -0.1929 -0.2421
 3584SOL    HW222215   3.792   0.283   3.098 -0.5708  0.7586 -0.3778
 3585SOL     OW22216   0.652   4.407   0.389 -0.1107 -0.3397 -0.0810
 3585SOL    HW122217   0.735   4.419   0.436  0.1987 -1.2232 -0.4131
 3585SOL    HW222218   0.604   4.367   0.461 -1.4218  0.2470 -0.6230
 3586SOL     OW22219   0.007   3.085  17.112  0.4994 -0.4375  0.4654
 3586SOL    HW122220   4.661   3.115  17.049  2.1133  1.4670 -0.3339
 3586SOL    HW222221   4.664   3.038  17.167 -1.8900  1.1186 -0.9048
 3587SOL     OW22222   0.765   1.211   4.368  0.1880  0.1162 -0.2621
 3587SOL    HW122223   0.857   1.230   4.348  0.2183 -1.0132 -1.2553
 3587SOL    HW222224   0.721   1.241   4.288  0.6154  0.7043 -0.2760
 3588SOL     OW22225   3.003   2.593  10.392 -1.0244  0.1107  0.3608
 3588SOL    HW122226   2.913   2.576  10.419 -0.7998  1.6032  2.0221
 3588SOL    HW222227   2.990   2.671  10.338 -1.6089  0.9100  1.6611
 3589SOL     OW22228   3.801   1.044   6.239  0.3369  0.3514  0.5636
 3589SOL    HW122229   3.813   1.065   6.331  2.6894  0.9553  0.1204
 3589SOL    HW222230   3.891   1.039   6.204 -1.0275 -1.8474 -2.6814
 3590SOL     OW22231   0.051   1.344  10.735  0.3388  0.1780  0.4185
 3590SOL    HW122232   0.025   1.360  10.644  1.3377 -0.3069  0.0542
 3590SOL    HW222233   0.109   1.413  10.766 -0.4913  1.5842 -1.1744
 3591SOL     OW22234   1.194   0.925   7.363  0.1943 -0.0661 -0.0955
 3591SOL    HW122235   1.248   0.868   7.417 -2.4747 -0.5367  2.0700
 3591SOL    HW222236   1.255   0.998   7.350 -0.6028  0.7772  0.9618
 3592SOL     OW22237   1.289   0.166   1.336 -0.2803 -0.3795  0.0939
 3592SOL    HW122238   1.304   0.145   1.244 -0.1656  1.4128 -0.2823
 3592SOL    HW222239   1.372   0.205   1.364  1.2327 -2.9506 -0.7387
 3593SOL     OW22240   2.001   2.058   5.002 -0.1138 -0.2693  0.5181
 3593SOL    HW122241   2.046   2.014   4.929  0.2782  0.9743  0.0047
 3593SOL    HW222242   1.987   1.984   5.061  1.2763  0.7512  2.1528
 3594SOL     OW22243   3.451   2.793   6.161  0.1899  0.5324  0.1312
 3594SOL    HW122244   3.492   2.721   6.112 -0.6340 -0.7936  1.3893
 3594SOL    HW222245   3.483   2.766   6.247  0.9608 -0.2982 -0.4164
 3595SOL     OW22246   0.731   0.522  10.344  0.4463 -0.4327  0.0832
 3595SOL    HW122247   0.819   0.544  10.313  0.2848  0.3297  0.1556
 3595SOL    HW222248   0.749   0.454  10.408  1.1773 -0.0350  0.2978
 3596SOL     OW22249   4.352   4.202   7.451 -0.2938  0.1713  0.2878
 3596SOL    HW122250   4.292   4.182   7.523 -1.2381 -0.8650 -0.7785
 3596SOL    HW222251   4.404   4.276   7.482  0.6837 -0.6053  0.4983
 3597SOL     OW22252   2.445   0.627   2.341 -0.0945  0.5321 -0.2321
 3597SOL    HW122253   2.488   0.688   2.401  0.0353  1.2652 -1.0740
 3597SOL    HW222254   2.375   0.681   2.305 -0.5982  1.0218  1.4685
 3598SOL     OW22255   3.309   1.488   3.573 -0.0864 -0.0709  0.1744
 3598SOL    HW122256   3.269   1.542   3.504  0.1096  0.1357  0.2238
 3598SOL    HW222257   3.341   1.407   3.534  1.9265 -0.4968  2.7158
 3599SOL     OW22258   4.369   4.480   4.136 -0.2151 -0.5067  0.2613
 3599SOL    HW122259   4.453   4.519   4.158  0.8372 -2.7108  0.2252
 3599SOL    HW222260   4.377   4.500   4.043  1.6528  0.2893  0.5960
 3600SOL     OW22261   4.021   2.721   8.997 -0.3266  0.1014  0.1292
 3600SOL    HW122262   3.932   2.751   9.014 -0.1406  0.3539  0.6585
 3600SOL    HW222263   4.001   2.639   8.952 -0.1030 -1.4849  2.9416
 3601SOL     OW22264   3.884   0.324   4.577  0.2952 -0.1981  0.1637
 3601SOL    HW122265   3.977   0.316   4.555  0.7224  4.6386  0.2881
 3601SOL    HW222266   3.869   0.412   4.545  0.3264  0.2113  1.2754
 3602SOL     OW22267   3.398   2.143   7.493  0.3690  0.7242  0.3665
 3602SOL    HW122268   3.415   2.055   7.527  1.2519  0.7888  0.0804
 3602SOL    HW222269   3.350   2.179   7.568  1.1958 -0.8529  1.6493
 3603SOL     OW22270   0.401   4.588   1.924  0.3081 -0.3095  0.4645
 3603SOL    HW122271   0.442   4.574   2.009 -0.2128 -0.8130  0.6301
 3603SOL    HW222272   0.454   4.663   1.898 -0.3193 -0.2293 -0.6117
 3604SOL     OW22273   0.295   0.589  11.405  0.5830  0.7137 -0.1570
 3604SOL    HW122274   0.257   0.670  11.373 -0.6531  0.6125  1.0717
 3604SOL    HW222275   0.228   0.523  11.388 -0.2474  1.2194  1.2057
 3605SOL     OW22276   0.791   4.082  12.901 -0.7160 -0.4071 -0.0767
 3605SOL    HW122277   0.774   3.988  12.898 -1.2730 -0.3220  0.4699
 3605SOL    HW222278   0.858   4.093  12.833  2.5261 -0.9804  3.0191
 3606SOL     OW22279   1.531   2.901  15.429  0.7229 -0.2518  0.1604
 3606SOL    HW122280   1.486   2.845  15.365  0.7163  0.6543 -0.6128
 3606SOL    HW222281   1.477   2.979  15.437  1.5492  0.2450  0.9420
 3607SOL     OW22282   3.570   1.284  13.272 -0.4126  0.7076  0.0623
 3607SOL    HW122283   3.480   1.313  13.288 -0.1716  0.6928  1.4926
 3607SOL    HW222284   3.603   1.296  13.362  0.2638  0.3918 -0.1494
 3608SOL     OW22285   3.282   2.026   3.472  0.2358 -0.7253  0.0115
 3608SOL    HW122286   3.329   2.022   3.555 -1.1063  0.2108  0.8169
 3608SOL    HW222287   3.265   2.121   3.471 -2.0305 -1.1318  3.9901
 3609SOL     OW22288   2.462   4.456  15.328 -0.2303  0.5023 -0.2529
 3609SOL    HW122289   2.543   4.448  15.378 -0.8735  0.6763  0.8209
 3609SOL    HW222290   2.439   4.545  15.355  2.6621  1.8026 -2.1248
 3610SOL     OW22291   2.278   4.100   8.624 -0.1865 -0.1194  0.0377
 3610SOL    HW122292   2.285   4.149   8.542  2.8607  1.4610  1.2282
 3610SOL    HW222293   2.266   4.177   8.680  0.5461  0.1997 -0.2522
 3611SOL     OW22294   4.548   3.746  17.576 -0.4541 -0.2998 -0.2339
 3611SOL    HW122295   4.535   3.729  17.669 -2.0207  0.8500 -0.2345
 3611SOL    HW222296   4.626   3.802  17.584  1.1639 -2.3350 -1.8005
 3612SOL     OW22297   1.331   1.942   1.963  0.1682 -0.2907 -0.0082
 3612SOL    HW122298   1.246   1.902   1.946  0.7115 -1.4347 -0.0332
 3612SOL    HW222299   1.329   2.011   1.896  0.9287  1.5474  1.8885
 3613SOL     OW22300   0.109   3.811   2.974  0.0148 -0.3761 -0.3904
 3613SOL    HW122301   0.204   3.797   2.970  0.4062  2.0418  0.0789
 3613SOL    HW222302   0.106   3.845   2.884 -2.1256  1.1304  0.2628
 3614SOL     OW22303   2.183   2.413   2.611  0.5680 -0.6471  0.0147
 3614SOL    HW122304   2.225   2.428   2.695  0.3132 -0.6111  0.1372
 3614SOL    HW222305   2.150   2.323   2.618  0.1971 -0.4360  1.0242
 3615SOL     OW22306   2.605   3.523   1.069 -0.4766  0.3735  0.2058
 3615SOL    HW122307   2.565   3.609   1.083 -0.4662  0.5118 -0.5984
 3615SOL    HW222308   2.534   3.470   1.033 -0.5612  0.9245 -0.4409
 3616SOL     OW22309   3.997   3.229   5.964  0.3274  0.2265 -0.0358
 3616SOL    HW122310   3.923   3.169   5.956  0.0801  0.3249  1.6032
 3616SOL    HW222311   3.961   3.307   5.920  0.8790  0.6129  0.1945
 3617SOL     OW22312   2.245   4.478   5.569 -0.3984  0.2104 -0.6913
 3617SOL    HW122313   2.310   4.548   5.563  1.4981 -1.2962  2.7166
 3617SOL    HW222314   2.167   4.525   5.600 -2.7525 -2.5773 -2.3896
 3618SOL     OW22315   2.540   4.616   1.506 -0.0203 -0.0221  0.1226
 3618SOL    HW122316   2.614   4.666   1.471  0.4198 -1.7260 -1.3610
 3618SOL    HW222317   2.571   4.526   1.495 -1.3469 -0.5368  0.6660
 3619SOL     OW22318   3.543   2.329  14.615  0.1223  0.0121  0.3483
 3619SOL    HW122319   3.521   2.236  14.621  1.4572 -0.2046  1.8240
 3619SOL    HW222320   3.567   2.333  14.522 -2.6424  0.8954 -0.3200
 3620SOL     OW22321   4.019   4.564   4.410  0.0406 -0.3973 -0.0902
 3620SOL    HW122322   3.990   4.632   4.471  0.9766  1.1593 -1.3684
 3620SOL    HW222323   4.045   4.625   4.341 -1.8988 -0.9460 -1.3107
 3621SOL     OW22324   1.856   3.499   7.783  0.2863  0.3410  0.0293
 3621SOL    HW122325   1.893   3.466   7.701  1.9679 -0.4725  1.1123
 3621SOL    HW222326   1.828   3.421   7.832  0.7623  0.1138 -0.0593
 3622SOL     OW22327   2.901   3.168  17.651 -0.1154 -0.1646  0.0391
 3622SOL    HW122328   2.940   3.249  17.619 -1.2242  0.5658  0.5645
 3622SOL    HW222329   2.826   3.154  17.593 -0.4011 -0.7899  0.5701
 3623SOL     OW22330   0.772   4.430   1.458 -0.1569 -0.3908 -0.2486
 3623SOL    HW122331   0.719   4.442   1.537  0.9609  0.1227  0.4145
 3623SOL    HW222332   0.723   4.486   1.397  1.1157 -0.7838 -1.6233
 3624SOL     OW22333   2.065   3.966  11.903  0.4077  0.1653 -0.2394
 3624SOL    HW122334   2.107   4.050  11.886  1.9608 -0.3234  1.2813
 3624SOL    HW222335   2.022   3.995  11.983 -0.1710  2.1002 -1.2702
 3625SOL     OW22336   0.719   3.510  16.306  0.3791  0.0089  0.4967
 3625SOL    HW122337   0.680   3.520  16.393  0.4800  1.9664  0.3191
 3625SOL    HW222338   0.814   3.502  16.321  0.2959  0.6870  1.4141
 3626SOL     OW22339   3.953   2.879   0.574  0.1036  0.4359  0.5547
 3626SOL    HW122340   3.997   2.962   0.558 -1.2990  1.1241  0.2025
 3626SOL    HW222341   3.979   2.826   0.500  1.7511  0.1212  1.3564
 3627SOL     OW22342   4.078   1.401   4.724 -0.1701 -0.1694  0.7033
 3627SOL    HW122343   4.072   1.482   4.673 -1.6125  0.5743  2.0231
 3627SOL    HW222344   4.016   1.412   4.797 -1.8302  3.3510 -1.2660
 3628SOL     OW22345   3.717   2.006  11.537  0.0790 -0.0926 -0.7445
 3628SOL    HW122346   3.645   2.067  11.551  1.3693  1.3258 -0.1681
 3628SOL    HW222347   3.769   2.043  11.609 -0.9341  1.8710 -1.0161
 3629SOL     OW22348   3.250   1.940   8.372 -0.3215  0.3990  0.4550
 3629SOL    HW122349   3.316   1.973   8.433  1.6865 -1.8927 -0.4594
 3629SOL    HW222350   3.200   1.879   8.425 -0.4147  0.9104  0.9501
 3630SOL     OW22351   2.197   2.225   7.960  0.1740 -0.2930 -0.1425
 3630SOL    HW122352   2.177   2.218   7.867 -0.4427  2.0600 -0.1848
 3630SOL    HW222353   2.161   2.312   7.976 -0.3704 -0.5804  0.2067
 3631SOL     OW22354   1.521   2.644   7.062 -0.2470 -0.0390  0.4271
 3631SOL    HW122355   1.483   2.573   7.011 -0.0484 -1.2930  2.0381
 3631SOL    HW222356   1.490   2.713   7.002 -1.2541  0.9693  2.1031
 3632SOL     OW22357   4.127   1.394   9.439 -0.2405 -0.0677  0.0463
 3632SOL    HW122358   4.107   1.329   9.506  0.9773  0.5515  0.9902
 3632SOL    HW222359   4.155   1.466   9.495 -0.0923 -0.7470  0.8342
 3633SOL     OW22360   0.389   2.009   1.208 -0.1476  0.5631 -0.2789
 3633SOL    HW122361   0.482   1.987   1.211 -0.7434 -1.8003  1.0428
 3633SOL    HW222362   0.373   2.062   1.286 -2.6115  1.1229 -1.1653
 3634SOL     OW22363   0.057   0.395   9.895 -0.3480 -0.1395  0.6770
 3634SOL    HW122364   0.125   0.430   9.837  0.1009 -1.8258  0.1805
 3634SOL    HW222365   4.698   0.433   9.855  1.2230  0.3487 -1.9160
 3635SOL     OW22366   1.824   0.886  10.403 -0.8136  0.0990 -0.1567
 3635SOL    HW122367   1.886   0.934  10.350 -0.3562 -0.6253 -0.2809
 3635SOL    HW222368   1.842   0.800  10.364  1.3184  0.4951 -0.0159
 3636SOL     OW22369   1.981   0.331  16.449  0.1376  0.6423  0.4745
 3636SOL    HW122370   2.045   0.362  16.384  2.0606 -1.3635  1.4093
 3636SOL    HW222371   1.899   0.345  16.402  1.7659  3.7669 -1.4342
 3637SOL     OW22372   3.175   0.444   9.896 -0.0992 -0.7171  0.1995
 3637SOL    HW122373   3.217   0.378   9.841 -1.0669 -1.1968  0.0275
 3637SOL    HW222374   3.089   0.427   9.858 -0.4290 -1.4177  1.2528
 3638SOL     OW22375   3.763   2.054   3.024 -0.1019 -0.0225  0.1733
 3638SOL    HW122376   3.699   2.029   3.091  1.4647 -0.5329  1.4795
 3638SOL    HW222377   3.782   1.968   2.987  1.7915  1.1943 -1.6672
 3639SOL     OW22378   3.899   1.986  14.894 -0.5901  0.3645 -0.1317
 3639SOL    HW122379   3.852   2.006  14.813 -0.5988  1.9737  0.2549
 3639SOL    HW222380   3.972   2.048  14.891 -0.3005 -0.0294 -1.1994
 3640SOL     OW22381   1.691   0.409   7.143  0.2862  0.0440  0.3609
 3640SOL    HW122382   1.669   0.320   7.115 -0.2976  0.1250  0.5796
 3640SOL    HW222383   1.737   0.438   7.064  0.9797 -1.4098  0.2351
 3641SOL     OW22384   3.112   2.882   1.700 -0.6622 -0.1717  0.6423
 3641SOL    HW122385   3.173   2.914   1.766  1.0168 -2.1691  0.0387
 3641SOL    HW222386   3.050   2.856   1.769  1.0008 -0.7540  1.9116
 3642SOL     OW22387   3.773   1.965   4.587 -0.1024 -0.1114 -0.0868
 3642SOL    HW122388   3.711   1.894   4.567 -1.3898  0.6172  1.2801
 3642SOL    HW222389   3.771   2.022   4.511 -1.8321 -0.5946 -0.4105
 3643SOL     OW22390   3.396   1.828   7.321 -0.1441  0.5548 -0.4808
 3643SOL    HW122391   3.313   1.864   7.290 -0.3298  0.6375  0.1104
 3643SOL    HW222392   3.412   1.769   7.248  0.2983  0.1474 -0.0589
 3644SOL     OW22393   1.023   4.567   4.997  0.4792  0.2377  0.6045
 3644SOL    HW122394   0.984   4.539   4.914 -0.4367  3.0437  0.0959
 3644SOL    HW222395   1.114   4.540   4.984 -0.0860 -1.8079  0.7907
 3645SOL     OW22396   1.219   1.517   8.306 -0.2026 -0.2539  0.4585
 3645SOL    HW122397   1.255   1.436   8.343 -3.3225 -2.0998 -0.5466
 3645SOL    HW222398   1.283   1.539   8.239 -2.1350  2.1528 -0.5944
 3646SOL     OW22399   2.672   4.393  14.787  0.2691  0.4406  0.1689
 3646SOL    HW122400   2.703   4.313  14.744 -1.4138  0.6786 -1.4954
 3646SOL    HW222401   2.720   4.461  14.738  1.5287  1.6495  3.0757
 3647SOL     OW22402   4.125   2.283   0.197  0.6930  0.6226 -0.2621
 3647SOL    HW122403   4.099   2.370   0.169 -1.5170 -0.2132 -0.8341
 3647SOL    HW222404   4.217   2.302   0.179  1.2587 -1.0818  0.7785
 3648SOL     OW22405   0.535   4.574   7.008  0.2091 -0.0706  0.0121
 3648SOL    HW122406   0.547   4.632   7.083  0.9174  0.6636 -0.6678
 3648SOL    HW222407   0.471   4.613   6.949  0.0578 -2.3493 -1.3678
 3649SOL     OW22408   0.077   3.180   8.808  0.2004  0.4678  0.3734
 3649SOL    HW122409   0.121   3.234   8.874 -1.6815  1.3814  0.8638
 3649SOL    HW222410   0.150   3.161   8.748  0.9502  1.4670  0.9755
 3650SOL     OW22411   2.040   1.841   7.348  0.1970  0.3713  0.4282
 3650SOL    HW122412   2.062   1.934   7.348 -0.8651  0.6295  0.3646
 3650SOL    HW222413   1.965   1.834   7.407 -0.8522 -0.9403 -1.0343
 3651SOL     OW22414   1.413   3.317   0.634  0.5573  0.2444  0.0007
 3651SOL    HW122415   1.413   3.413   0.626 -0.4390  0.2708  0.3717
 3651SOL    HW222416   1.348   3.305   0.703  3.1894 -0.9183  2.2368
 3652SOL     OW22417   0.757   4.464  16.031  0.0450  0.3338 -0.3004
 3652SOL    HW122418   0.711   4.401  16.088  0.2107 -0.7170 -1.3467
 3652SOL    HW222419   0.829   4.496  16.086 -0.6031 -0.6331  1.1305
 3653SOL     OW22420   1.818   4.573  10.289 -0.3662 -0.3993  0.4984
 3653SOL    HW122421   1.739   4.567  10.236  0.5638  2.7033 -1.2403
 3653SOL    HW222422   1.768   4.614  10.359  2.6672  2.1815  1.1836
 3654SOL     OW22423   3.171   0.162   1.558 -0.1896 -0.4664 -0.0424
 3654SOL    HW122424   3.081   0.141   1.582  0.1091  0.3761  1.8187
 3654SOL    HW222425   3.204   0.099   1.622  1.3738  1.5072  1.0884
 3655SOL     OW22426   0.936   2.038  10.897  0.1069 -0.3537  0.4141
 3655SOL    HW122427   0.857   2.042  10.952 -0.1454  0.5920 -0.0246
 3655SOL    HW222428   1.000   1.991  10.951 -0.4062 -0.9841  0.4866
 3656SOL     OW22429   2.757   2.587   1.009  0.2569  0.3229  0.5443
 3656SOL    HW122430   2.713   2.640   1.075  2.3290  2.5587  0.1185
 3656SOL    HW222431   2.736   2.623   0.923 -1.8959 -0.9567  0.5478
 3657SOL     OW22432   2.455   1.136  12.055 -0.0480 -0.0880  0.0353
 3657SOL    HW122433   2.397   1.211  12.068 -0.3994 -0.3704  0.0922
 3657SOL    HW222434   2.512   1.163  12.128 -0.3162 -0.7593  0.4935
 3658SOL     OW22435   4.579   3.780   0.182  0.2212  0.4687  0.3715
 3658SOL    HW122436   4.613   3.702   0.227  1.4046  1.4613  1.1820
 3658SOL    HW222437   4.662   3.815   0.151 -0.2245  1.5393  0.4079
 3659SOL     OW22438   3.581   0.711   8.825  0.0141 -0.1617 -0.0677
 3659SOL    HW122439   3.648   0.774   8.798 -0.6899  0.2473 -0.8333
 3659SOL    HW222440   3.556   0.750   8.909  1.6443  2.0911 -0.6373
 3660SOL     OW22441   3.185   3.930   5.062  0.6395 -0.3025  0.3532
 3660SOL    HW122442   3.262   3.875   5.076  0.2716 -0.0798  3.3053
 3660SOL    HW222443   3.195   3.961   4.972 -0.0749 -0.9428  0.0590
 3661SOL     OW22444   1.247   4.021  15.612 -0.9219  0.0666 -0.3792
 3661SOL    HW122445   1.197   4.013  15.693  1.6047 -0.6516  1.1022
 3661SOL    HW222446   1.257   3.929  15.587  0.3010 -0.1833  1.0955
 3662SOL     OW22447   0.919   1.181   2.405 -0.2547 -0.8714  0.0360
 3662SOL    HW122448   0.846   1.150   2.459  0.8235 -0.1327  1.9212
 3662SOL    HW222449   0.880   1.232   2.334  0.5552  0.6134  0.6391
 3663SOL     OW22450   1.560   4.255  16.228  0.3085 -0.1654 -0.2472
 3663SOL    HW122451   1.582   4.172  16.185 -0.9370 -1.7821  2.2150
 3663SOL    HW222452   1.482   4.239  16.282  0.6158  2.3951  0.9619
 3664SOL     OW22453   1.794   1.518   1.150 -0.3120  0.1625  0.7496
 3664SOL    HW122454   1.747   1.438   1.127  1.7172 -0.3281 -1.6565
 3664SOL    HW222455   1.811   1.548   1.061  0.1461  3.3301  1.9139
 3665SOL     OW22456   1.034   4.299   4.065  0.4456 -0.4976 -0.1075
 3665SOL    HW122457   0.988   4.376   4.032  2.3900  1.2494  1.2052
 3665SOL    HW222458   1.122   4.328   4.041  1.6193 -1.1683  3.3898
 3666SOL     OW22459   3.125   3.131   6.618  0.4817  0.0401  0.2287
 3666SOL    HW122460   3.181   3.074   6.566  0.3172 -0.0688  0.1730
 3666SOL    HW222461   3.096   3.199   6.557  0.7367  0.9371  1.0958
 3667SOL     OW22462   1.738   4.625   3.480 -0.0946  0.1574 -0.4499
 3667SOL    HW122463   1.763   4.633   3.572  1.5686 -0.8064 -0.8147
 3667SOL    HW222464   1.690   4.543   3.485  0.8326 -0.3667 -0.0982
 3668SOL     OW22465   3.953   0.490   4.992  0.4388 -0.1886  0.0554
 3668SOL    HW122466   4.010   0.462   4.920  1.0900 -0.2817  0.6072
 3668SOL    HW222467   3.988   0.578   5.007  2.1927 -0.9052  0.2137
 3669SOL     OW22468   4.124   3.325   8.222 -0.0523 -0.1433  0.0662
 3669SOL    HW122469   4.193   3.288   8.277 -0.5957  0.2037  0.9874
 3669SOL    HW222470   4.041   3.283   8.243  0.5893 -2.1761 -1.5500
 3670SOL     OW22471   4.641   4.567   2.657  0.2086  0.0350 -0.3984
 3670SOL    HW122472   4.652   4.503   2.588 -2.0964 -0.8764  0.0972
 3670SOL    HW222473   4.662   4.645   2.605  2.1544 -0.9876 -1.1610
 3671SOL     OW22474   0.591   2.651   6.657 -0.0308  0.3522 -0.2017
 3671SOL    HW122475   0.530   2.699   6.601 -0.3560  1.2375  0.9235
 3671SOL    HW222476   0.538   2.574   6.680 -0.1494  0.2169 -0.9092
 3672SOL     OW22477   2.601   0.305   0.461 -0.3545 -0.4613 -0.5677
 3672SOL    HW122478   2.574   0.319   0.552 -0.5790 -0.5823 -0.6138
 3672SOL    HW222479   2.647   0.221   0.473  0.2509  0.3347  2.5906
 3673SOL     OW22480   1.969   0.377  13.984 -0.0586 -0.1959  0.3362
 3673SOL    HW122481   2.058   0.387  14.019  0.0114  3.3098 -0.8701
 3673SOL    HW222482   1.916   0.419  14.052  1.2984 -0.1802  1.3901
 3674SOL     OW22483   2.390   4.253   2.619 -0.0483 -0.4225 -0.6856
 3674SOL    HW122484   2.392   4.158   2.631  0.6429  0.0647  3.1185
 3674SOL    HW222485   2.357   4.287   2.703  1.1462  0.6468 -0.6429
 3675SOL     OW22486   1.686   3.852   7.953  0.8486 -0.1598 -0.5505
 3675SOL    HW122487   1.658   3.921   7.893  1.5713  0.4439 -0.1893
 3675SOL    HW222488   1.600   3.820   7.982  0.8779  1.0796  0.8908
 3676SOL     OW22489   1.539   4.046   8.335  0.7783  0.1255 -0.3972
 3676SOL    HW122490   1.619   4.061   8.386  0.5875 -2.3504  0.6331
 3676SOL    HW222491   1.557   4.097   8.256  0.6278  3.0978  1.5209
 3677SOL     OW22492   4.495   3.795   4.182  0.8845 -0.2619  0.3295
 3677SOL    HW122493   4.555   3.825   4.113  1.1539 -0.5448  0.4385
 3677SOL    HW222494   4.479   3.706   4.150 -0.8020  0.3060 -0.4289
 3678SOL     OW22495   0.500   2.924  11.461 -0.1682 -0.0936 -0.5953
 3678SOL    HW122496   0.495   3.019  11.456 -0.3839 -0.0097  1.1535
 3678SOL    HW222497   0.411   2.893  11.443  0.0167 -1.2598  0.5183
 3679SOL     OW22498   2.276   2.638   4.234  0.1905  0.0050 -0.2807
 3679SOL    HW122499   2.218   2.674   4.301  0.4809  0.3279 -0.2003
 3679SOL    HW222500   2.264   2.547   4.261 -2.1138  1.0519  2.1689
 3680SOL     OW22501   0.777   0.956   4.369 -0.1172  0.4455  0.2852
 3680SOL    HW122502   0.763   1.051   4.367 -0.6808  0.3185 -1.4763
 3680SOL    HW222503   0.804   0.939   4.279 -0.1557  0.4625  0.2706
 3681SOL     OW22504   0.016   2.974   6.080  0.0109  0.3799 -0.4371
 3681SOL    HW122505   0.052   2.968   5.992 -0.2853  1.3949 -0.6222
 3681SOL    HW222506   4.712   2.882   6.093 -3.5136  1.3191 -0.4067
 3682SOL     OW22507   2.280   3.031   1.616  0.0305 -0.1231 -0.2236
 3682SOL    HW122508   2.356   3.087   1.631  0.5856 -1.1726  0.8615
 3682SOL    HW222509   2.208   3.093   1.614  2.0605  2.3025  1.0261
 3683SOL     OW22510   3.766   1.379  11.672  0.2113  0.1406  0.4455
 3683SOL    HW122511   3.685   1.407  11.714 -0.1429  0.8424 -0.7073
 3683SOL    HW222512   3.832   1.373  11.741 -0.1731 -1.1065  0.7144
 3684SOL     OW22513   1.400   0.170   3.271  0.3750 -0.4345  0.2291
 3684SOL    HW122514   1.444   0.149   3.189  0.2779  0.2214  0.0044
 3684SOL    HW222515   1.418   0.264   3.274 -3.0111  0.1763  1.6148
 3685SOL     OW22516   3.707   4.639   9.163  0.1683  0.2937  0.1202
 3685SOL    HW122517   3.802   4.647   9.172 -0.0268  2.3280  0.2091
 3685SOL    HW222518   3.709   4.562   9.106 -2.2191  0.6313 -0.4331
 3686SOL     OW22519   3.576   3.764   2.038 -0.1873 -0.1293  0.0601
 3686SOL    HW122520   3.484   3.738   2.045 -0.5886  1.0465 -0.7901
 3686SOL    HW222521   3.593   3.688   1.982 -1.9164 -0.7305  0.3465
 3687SOL     OW22522   2.012   2.071  10.026 -0.8120  0.4754  0.8198
 3687SOL    HW122523   2.058   2.110  10.101 -0.1189  1.9708 -0.3704
 3687SOL    HW222524   2.039   2.136   9.961 -0.8538 -1.1050 -0.7386
 3688SOL     OW22525   2.789   1.308   1.889  0.3078 -0.3686  0.0621
 3688SOL    HW122526   2.820   1.343   1.972  1.9101  1.8248 -1.4444
 3688SOL    HW222527   2.766   1.388   1.840 -1.2059 -1.6497 -1.3538
 3689SOL     OW22528   1.658   1.253  14.840 -0.4954 -0.0752 -0.3066
 3689SOL    HW122529   1.724   1.249  14.910 -1.2893 -0.0699  0.4513
 3689SOL    HW222530   1.628   1.343  14.852  2.8120  0.9981  0.0503
 3690SOL     OW22531   0.134   3.405   8.958  0.0675  0.0312  0.5956
 3690SOL    HW122532   0.209   3.398   8.899 -0.0094 -0.5523  0.5696
 3690SOL    HW222533   0.113   3.498   8.951  0.5909  0.0853 -0.3302
 3691SOL     OW22534   1.325   1.864   2.594 -0.4038  0.2565 -0.3630
 3691SOL    HW122535   1.342   1.958   2.587  3.0925 -0.1704  2.7565
 3691SOL    HW222536   1.386   1.841   2.663 -2.0615 -1.3776  0.5729
 3692SOL     OW22537   2.596   4.178   7.659  0.2091 -0.3675  0.5141
 3692SOL    HW122538   2.584   4.265   7.695 -0.0726 -0.2428  0.1210
 3692SOL    HW222539   2.514   4.131   7.679 -2.1437  2.2230 -3.0194
 3693SOL     OW22540   3.607   4.543   4.790  0.0055  0.1383 -0.1939
 3693SOL    HW122541   3.571   4.628   4.818  0.8776 -0.6216  3.1511
 3693SOL    HW222542   3.600   4.558   4.696 -4.4341 -1.2483 -0.0765
 3694SOL     OW22543   2.981   2.923   2.964  0.2709 -0.0859 -0.0660
 3694SOL    HW122544   2.973   3.017   2.949  1.7591  0.3079  1.5391
 3694SOL    HW222545   3.057   2.895   2.913 -1.4908 -2.5761 -1.3331
 3695SOL     OW22546   0.177   2.384   0.088 -0.3669 -0.1315 -0.0947
 3695SOL    HW122547   0.157   2.304   0.040  0.8580 -0.4032 -0.1555
 3695SOL    HW222548   0.107   2.433   0.046 -0.4612  0.3709  0.6402
 3696SOL     OW22549   4.511   0.959   5.692  0.1762 -0.2347  0.7418
 3696SOL    HW122550   4.464   0.980   5.773  2.4093  0.2177  1.9149
 3696SOL    HW222551   4.466   1.019   5.632  0.1642  1.5560  2.5433
 3697SOL     OW22552   2.098   1.554   3.921 -0.2403  0.8394  0.1992
 3697SOL    HW122553   2.044   1.514   3.990  1.7397  0.9877  1.8561
 3697SOL    HW222554   2.144   1.628   3.959 -1.7978  1.3400  1.1270
 3698SOL     OW22555   4.686   2.130   8.243  0.0283  0.1582 -0.3042
 3698SOL    HW122556   4.630   2.147   8.167  1.2775 -0.3860 -1.3325
 3698SOL    HW222557   0.025   2.205   8.247 -0.3943  0.4112  1.1128
 3699SOL     OW22558   3.726   3.882   8.983 -0.6511  0.3471  0.1908
 3699SOL    HW122559   3.804   3.924   9.018 -0.2545 -0.6197  0.4582
 3699SOL    HW222560   3.752   3.903   8.893 -0.6058  1.0782  0.3752
 3700SOL     OW22561   0.237   3.093  15.913  0.2529 -0.3935  0.1313
 3700SOL    HW122562   0.199   3.091  15.825 -0.1384 -0.8354  0.3061
 3700SOL    HW222563   0.238   3.188  15.919  0.4082 -0.1864 -3.7008
 3701SOL     OW22564   3.515   0.185  16.672 -0.4412  0.5791  0.2215
 3701SOL    HW122565   3.535   0.094  16.649  0.5043  0.6664  0.7121
 3701SOL    HW222566   3.574   0.208  16.744 -0.2231 -1.0603  0.5800
 3702SOL     OW22567   3.842   1.509   3.383 -0.8078 -0.1299  0.1702
 3702SOL    HW122568   3.841   1.603   3.365 -0.2120 -0.4742 -1.7095
 3702SOL    HW222569   3.766   1.478   3.333  0.7742 -1.6695 -1.2789
 3703SOL     OW22570   0.555   0.781  14.444  0.5350 -0.1109  0.1147
 3703SOL    HW122571   0.605   0.706  14.413 -0.6085 -0.5884 -0.5541
 3703SOL    HW222572   0.476   0.734  14.473 -0.5049  0.5306 -1.6806
 3704SOL     OW22573   2.987   0.747   3.573  0.1221  0.1979 -0.1204
 3704SOL    HW122574   2.961   0.816   3.511 -0.1139  0.8584  0.7078
 3704SOL    HW222575   3.073   0.736   3.533  0.2173 -0.6028  0.3071
 3705SOL     OW22576   4.605   1.010   6.542  0.5313 -0.3347 -0.0996
 3705SOL    HW122577   4.602   1.093   6.495 -0.6957 -0.5890 -0.4975
 3705SOL    HW222578   4.620   0.946   6.472 -1.7857 -0.6827 -0.2958
 3706SOL     OW22579   0.858   1.803   1.370 -0.3906 -0.6958 -0.2746
 3706SOL    HW122580   0.921   1.813   1.441  1.5543 -3.1104 -1.6848
 3706SOL    HW222581   0.904   1.748   1.306  1.4006 -0.9120  1.2062
 3707SOL     OW22582   4.383   3.080  15.828 -0.2419  0.5478  0.2787
 3707SOL    HW122583   4.347   3.129  15.903  0.2410  2.2084 -0.5620
 3707SOL    HW222584   4.476   3.076  15.848 -0.3549  2.0124  1.1656
 3708SOL     OW22585   3.662   3.295   3.954  0.3424 -0.1706 -0.2468
 3708SOL    HW122586   3.734   3.277   4.014 -0.1089  0.5853  0.5147
 3708SOL    HW222587   3.679   3.224   3.891 -2.1163 -2.0452  1.1840
 3709SOL     OW22588   0.966   2.089  16.542 -0.2180  0.3589 -0.0984
 3709SOL    HW122589   1.005   2.048  16.465 -1.2891  0.4076 -0.6638
 3709SOL    HW222590   0.896   2.141  16.503 -0.4809 -1.2768 -1.8167
 3710SOL     OW22591   2.474   0.057   2.867  0.1480  0.1110 -0.4182
 3710SOL    HW122592   2.486   4.682   2.869 -1.5110 -0.0272  2.4797
 3710SOL    HW222593   2.548   0.093   2.818  0.5632 -1.0198 -0.6075
 3711SOL     OW22594   0.004   3.228   3.905 -0.2900  0.2966 -0.1502
 3711SOL    HW122595   4.670   3.294   3.861 -1.2857 -1.0930 -1.0211
 3711SOL    HW222596   4.662   3.158   3.928  1.2419 -0.9259  0.2762
 3712SOL     OW22597   2.436   4.439   4.322 -0.2355  0.2567 -0.4362
 3712SOL    HW122598   2.385   4.519   4.332 -0.4864 -0.2452  2.3313
 3712SOL    HW222599   2.513   4.477   4.280  0.3152 -0.2994  0.0540
 3713SOL     OW22600   2.732   4.084   1.042 -0.8039 -0.0441  0.0499
 3713SOL    HW122601   2.745   3.991   1.024  2.0110  0.6612 -1.5288
 3713SOL    HW222602   2.636   4.085   1.051 -1.1528 -0.8439 -3.4466
 3714SOL     OW22603   2.203   1.864  12.993  0.5617  0.5061  0.6194
 3714SOL    HW122604   2.128   1.859  12.933  0.9240 -4.0444  0.5196
 3714SOL    HW222605   2.239   1.777  12.977 -0.9857 -0.1572  0.6869
 3715SOL     OW22606   0.863   0.003   5.583 -0.0562  0.2648  0.2337
 3715SOL    HW122607   0.877   0.064   5.656  1.4898  0.1186  0.0459
 3715SOL    HW222608   0.823   0.061   5.518 -0.2910  0.5545  0.6318
 3716SOL     OW22609   1.479   1.702   3.387 -0.2986 -0.0394  0.1651
 3716SOL    HW122610   1.418   1.736   3.452 -2.6069 -1.4820 -1.1920
 3716SOL    HW222611   1.548   1.681   3.449 -0.7440 -2.9029 -0.2856
 3717SOL     OW22612   4.514   4.242  11.187 -0.2684 -0.1477 -0.0451
 3717SOL    HW122613   4.514   4.288  11.271 -0.5102  2.6935 -1.5897
 3717SOL    HW222614   4.434   4.284  11.155 -0.5733  1.6408  3.0931
 3718SOL     OW22615   0.157   4.172   1.515  0.2154  0.8283  0.2957
 3718SOL    HW122616   0.109   4.109   1.460 -0.3006  0.9877  0.5596
 3718SOL    HW222617   0.220   4.203   1.450  1.3628  1.5346  1.7643
 3719SOL     OW22618   3.305   0.203   7.761  0.1176  0.2291 -0.6839
 3719SOL    HW122619   3.244   0.235   7.828 -0.1803 -2.0644  0.1190
 3719SOL    HW222620   3.389   0.241   7.784  0.3629 -0.3199 -0.6765
 3720SOL     OW22621   2.097   1.559  13.113 -0.4314  0.3000  0.2671
 3720SOL    HW122622   2.112   1.618  13.186 -1.4643 -0.4224  1.0735
 3720SOL    HW222623   2.010   1.527  13.139  0.0366 -1.2570 -0.1001
 3721SOL     OW22624   4.214   1.090   7.098  0.2388  0.0293 -0.7494
 3721SOL    HW122625   4.146   1.156   7.088  0.3654  0.2373 -0.2101
 3721SOL    HW222626   4.223   1.066   7.006  0.2451 -1.5820 -0.3350
 3722SOL     OW22627   1.444   2.442   1.329  0.8747  0.1966  0.6527
 3722SOL    HW122628   1.351   2.456   1.349  0.7834 -0.5268  0.7440
 3722SOL    HW222629   1.480   2.506   1.390 -0.6722  1.8387 -0.1527
 3723SOL     OW22630   2.101   0.483   4.376 -0.2678 -0.2414 -0.4132
 3723SOL    HW122631   2.014   0.461   4.345  0.8998 -3.2135 -1.5091
 3723SOL    HW222632   2.110   0.412   4.439 -0.2435  0.3304  0.2391
 3724SOL     OW22633   3.962   0.384   2.120 -0.3760 -0.5993  0.1359
 3724SOL    HW122634   3.968   0.479   2.112 -2.6457 -0.4463  0.4765
 3724SOL    HW222635   4.041   0.350   2.078 -0.9405  1.2979 -2.4076
 3725SOL     OW22636   2.124   0.496   1.146  0.2012  0.9662  0.4450
 3725SOL    HW122637   2.150   0.500   1.054 -1.3217 -2.4353 -0.1354
 3725SOL    HW222638   2.189   0.542   1.200  1.0721  0.0446  0.1946
 3726SOL     OW22639   3.565   2.320   2.967  0.5043 -0.5943  0.3061
 3726SOL    HW122640   3.608   2.247   3.013  1.1349  0.4264  1.3498
 3726SOL    HW222641   3.519   2.271   2.899  1.4079 -0.6892 -0.2312
 3727SOL     OW22642   2.787   3.321   1.188  0.1401  0.6126  0.5072
 3727SOL    HW122643   2.730   3.388   1.151  2.4222  1.7249 -0.9752
 3727SOL    HW222644   2.739   3.281   1.260 -0.2530  0.0272 -0.0902
 3728SOL     OW22645   3.047   2.769   2.462 -0.3870  0.3885  0.1959
 3728SOL    HW122646   2.962   2.795   2.426 -0.6189 -0.4434  0.1528
 3728SOL    HW222647   3.108   2.816   2.405  1.3565 -2.6327 -0.4041
 3729SOL     OW22648   2.881   2.860   1.370 -0.0586 -0.4311 -0.0311
 3729SOL    HW122649   2.789   2.875   1.391  0.0780 -0.1310  0.3631
 3729SOL    HW222650   2.885   2.765   1.356  4.0543 -0.2175 -0.3517
 3730SOL     OW22651   0.640   0.321   9.283  0.5668 -0.3631 -0.0709
 3730SOL    HW122652   0.661   0.292   9.371  3.5044 -1.3909 -1.1053
 3730SOL    HW222653   0.637   0.235   9.242 -1.0176  0.2111 -1.1724
 3731SOL     OW22654   3.604   1.246   8.281  0.1047  0.2562  0.4116
 3731SOL    HW122655   3.623   1.165   8.233 -2.4373 -0.7940  1.1854
 3731SOL    HW222656   3.607   1.211   8.370 -0.5030 -1.3359 -0.1827
 3732SOL     OW22657   0.071   2.044  12.008 -0.4795 -0.1223  0.3665
 3732SOL    HW122658   0.118   2.043  12.091  0.3355  0.4434 -0.0889
 3732SOL    HW222659   0.094   2.119  11.953 -0.0193 -0.9335 -0.5702
 3733SOL     OW22660   0.435   3.530  15.243 -0.3752  0.4894 -0.1778
 3733SOL    HW122661   0.350   3.505  15.280 -1.1403  0.3982 -2.0153
 3733SOL    HW222662   0.408   3.552  15.154  2.3769 -2.2212 -1.6716
 3734SOL     OW22663   4.309   2.688   6.686  0.1885 -0.1256  0.2001
 3734SOL    HW122664   4.333   2.773   6.649 -2.8726  1.0346  0.8932
 3734SOL    HW222665   4.260   2.646   6.614 -0.7493  2.8208 -0.8684
 3735SOL     OW22666   2.738   2.070   6.466  0.1695  0.1444  0.2372
 3735SOL    HW122667   2.783   2.001   6.418  0.4467 -0.0875  0.8206
 3735SOL    HW222668   2.648   2.053   6.438 -0.3977  1.0973  1.4355
 3736SOL     OW22669   2.646   1.858   3.145 -0.1040 -0.2989 -0.5156
 3736SOL    HW122670   2.660   1.882   3.237 -1.1358 -3.5985  0.4878
 3736SOL    HW222671   2.667   1.946   3.113  0.1563 -0.3378 -0.4552
 3737SOL     OW22672   1.679   4.283   7.025 -0.1951  0.3101 -0.4096
 3737SOL    HW122673   1.629   4.365   7.036 -0.6890 -0.0487  0.0431
 3737SOL    HW222674   1.759   4.319   6.988  0.9497  0.4009  2.1383
 3738SOL     OW22675   3.320   3.338  11.638 -0.2098 -0.4501 -0.2777
 3738SOL    HW122676   3.241   3.389  11.655 -0.1716 -0.7349  0.7089
 3738SOL    HW222677   3.349   3.389  11.562 -3.0990  1.9563  0.2478
 3739SOL     OW22678   4.040   4.121   8.505 -0.4120  0.2386 -0.1049
 3739SOL    HW122679   4.064   4.079   8.422  1.8158  0.2776  0.5181
 3739SOL    HW222680   4.125   4.137   8.546 -1.9146  2.4252  2.1451
 3740SOL     OW22681   1.115   2.782   6.489 -0.4559 -0.5979 -0.4570
 3740SOL    HW122682   1.181   2.734   6.538 -0.5857 -2.2454 -1.8977
 3740SOL    HW222683   1.040   2.769   6.547  0.5251  2.3611  1.5103
 3741SOL     OW22684   1.768   4.129   0.844  0.4712  0.1602 -0.2670
 3741SOL    HW122685   1.822   4.127   0.765 -1.4174  0.1822 -1.5323
 3741SOL    HW222686   1.719   4.211   0.838  0.7198  0.5689  2.9759
 3742SOL     OW22687   3.805   2.332   4.216 -0.5601 -0.3184 -0.5152
 3742SOL    HW122688   3.805   2.246   4.258  1.6059 -1.5535 -3.0793
 3742SOL    HW222689   3.714   2.337   4.187 -0.9701 -1.5602  0.5228
 3743SOL     OW22690   3.020   2.292  17.497  1.0300  0.0793 -0.2628
 3743SOL    HW122691   2.951   2.300  17.431  0.2056 -2.0798  0.3486
 3743SOL    HW222692   3.041   2.200  17.484  0.5177 -0.2087  0.9630
 3744SOL     OW22693   0.135   0.462  10.860 -0.6959 -0.0689 -0.4999
 3744SOL    HW122694   0.191   0.413  10.800  0.0987  3.3251 -2.4857
 3744SOL    HW222695   0.073   0.497  10.796 -0.7835 -1.1637 -1.0174
 3745SOL     OW22696   0.625   1.784  12.845  0.2668 -0.1035  0.2077
 3745SOL    HW122697   0.636   1.692  12.868  0.8609  0.4341  2.0210
 3745SOL    HW222698   0.533   1.793  12.822  0.7010  0.1661 -1.4334
 3746SOL     OW22699   1.240   0.740   5.595  0.2366  0.5057 -0.3575
 3746SOL    HW122700   1.226   0.821   5.546  0.3550  0.0583 -1.1206
 3746SOL    HW222701   1.206   0.675   5.533 -1.2749  0.3480  0.6366
 3747SOL     OW22702   0.555   0.242   9.806 -0.0386 -0.4850  0.3842
 3747SOL    HW122703   0.553   0.189   9.886 -0.8578 -1.3486 -0.2118
 3747SOL    HW222704   0.462   0.225   9.787 -0.2833  2.0273 -0.7071
 3748SOL     OW22705   1.937   2.263  10.603 -0.0775  0.2993  0.1929
 3748SOL    HW122706   1.869   2.212  10.558  1.3229  0.0171 -1.6015
 3748SOL    HW222707   1.953   2.336  10.543  1.3856 -0.9569 -0.9379
 3749SOL     OW22708   2.094   2.620   0.125  0.1430  0.3470 -0.7586
 3749SOL    HW122709   2.164   2.645   0.185 -0.1675 -0.5278 -0.0231
 3749SOL    HW222710   2.078   2.690   0.062 -1.1773  0.9067  0.2117
 3750SOL     OW22711   4.622   2.674   1.634 -0.3856  0.4438  0.5667
 3750SOL    HW122712   4.531   2.699   1.618 -0.9930 -2.6620 -0.8192
 3750SOL    HW222713   4.636   2.696   1.726 -1.0229 -0.9173  0.9798
 3751SOL     OW22714   1.912   0.126   1.963 -0.4840  0.0054 -0.1323
 3751SOL    HW122715   1.825   0.150   1.994 -0.3726  1.9169 -1.2807
 3751SOL    HW222716   1.966   0.126   2.042 -1.3855 -2.6066  0.4910
 3752SOL     OW22717   4.366   3.214  12.266 -0.1556  0.1056  0.6497
 3752SOL    HW122718   4.391   3.132  12.308  2.9866  0.5963 -0.2954
 3752SOL    HW222719   4.358   3.273  12.341  4.0248  0.8099  0.5483
 3753SOL     OW22720   3.941   2.631   9.810  0.0089 -0.3038  0.0412
 3753SOL    HW122721   3.859   2.653   9.766 -0.3436  1.8239  1.7218
 3753SOL    HW222722   3.983   2.717   9.819  1.2201 -0.7639 -1.2132
 3754SOL     OW22723   4.194   1.487  15.845 -0.0771 -0.4624 -0.1280
 3754SOL    HW122724   4.172   1.427  15.773 -0.0557 -1.6703  0.8696
 3754SOL    HW222725   4.176   1.573  15.807  1.3802 -0.5978 -1.1382
 3755SOL     OW22726   0.387   3.791   9.244 -0.3480 -0.4590  1.0468
 3755SOL    HW122727   0.430   3.731   9.182 -0.9952  0.9145 -0.7342
 3755SOL    HW222728   0.351   3.728   9.307 -2.4367  0.4952  0.8132
 3756SOL     OW22729   2.700   0.204   1.075 -0.1508 -0.1734 -0.5239
 3756SOL    HW122730   2.745   0.211   1.159  1.0020 -3.6861 -0.8762
 3756SOL    HW222731   2.665   0.115   1.075  2.0006 -1.0008 -0.0889
 3757SOL     OW22732   1.445   1.386   9.966  0.0606 -0.7468 -0.2774
 3757SOL    HW122733   1.538   1.401   9.983  0.0754 -1.1371 -0.0099
 3757SOL    HW222734   1.464   1.304   9.921  0.5011 -1.4192  1.1428
 3758SOL     OW22735   3.403   3.955   7.585  0.1414  0.0967  0.1039
 3758SOL    HW122736   3.438   3.932   7.671  0.3416 -0.8534 -0.2343
 3758SOL    HW222737   3.312   3.925   7.591  0.2047 -0.2313 -0.5912
 3759SOL     OW22738   2.567   3.133   7.248 -0.1949 -0.5464 -0.1176
 3759SOL    HW122739   2.588   3.115   7.340  0.9547 -0.4414 -0.3625
 3759SOL    HW222740   2.636   3.193   7.220 -0.9365  1.0397  1.5126
 3760SOL     OW22741   1.195   2.370   8.975 -0.2532  0.5435  0.3574
 3760SOL    HW122742   1.176   2.276   8.970 -1.3231  0.7471  0.4752
 3760SOL    HW222743   1.163   2.387   9.064 -0.7978 -1.7534  0.6241
 3761SOL     OW22744   2.167   1.423   0.863 -0.7208  0.5235  0.4979
 3761SOL    HW122745   2.197   1.333   0.875  1.6323  1.5524  2.4609
 3761SOL    HW222746   2.131   1.443   0.950  1.0323  1.9522  0.8865
 3762SOL     OW22747   2.636   2.700   7.178  0.6605  0.4717  0.6028
 3762SOL    HW122748   2.623   2.670   7.269  1.4060  0.7804  0.8052
 3762SOL    HW222749   2.612   2.621   7.130 -1.5813  0.6189  1.4822
 3763SOL     OW22750   1.368   2.022   4.717 -0.3879 -0.4068  0.6248
 3763SOL    HW122751   1.434   2.082   4.682 -1.0391 -0.9124 -1.4150
 3763SOL    HW222752   1.333   2.083   4.782 -1.5077  0.6675 -0.9812
 3764SOL     OW22753   0.648   2.730   4.686  0.6781  0.0092  0.2282
 3764SOL    HW122754   0.622   2.753   4.597 -0.6147 -1.4869  0.2241
 3764SOL    HW222755   0.583   2.779   4.737  1.1179  0.5782  0.2421
 3765SOL     OW22756   4.325   3.425  12.477 -0.1672 -0.1151  0.2324
 3765SOL    HW122757   4.237   3.415  12.514 -0.0422  1.5121  0.9683
 3765SOL    HW222758   4.355   3.498  12.531 -1.0658 -0.2913  0.9751
 3766SOL     OW22759   3.392   3.784  16.068  0.8800 -0.6385  0.0843
 3766SOL    HW122760   3.410   3.710  16.127  1.9250 -0.5594 -0.1259
 3766SOL    HW222761   3.465   3.763  16.009 -0.2618 -0.8316 -1.2355
 3767SOL     OW22762   1.932   3.900  10.507 -0.5584  0.8851 -0.2558
 3767SOL    HW122763   1.909   3.957  10.580  1.8759  0.2520  0.9916
 3767SOL    HW222764   1.928   3.966  10.438  3.4160 -0.2069 -1.5537
 3768SOL     OW22765   3.526   0.914   6.771 -0.0223  0.6104  0.1825
 3768SOL    HW122766   3.522   0.851   6.699  0.6099  0.9069 -0.1050
 3768SOL    HW222767   3.620   0.931   6.774  0.0924 -0.1136  0.7791
 3769SOL     OW22768   1.723   0.315   9.398 -0.1172  0.0590 -0.2175
 3769SOL    HW122769   1.807   0.319   9.352 -1.0324  1.1856 -1.8261
 3769SOL    HW222770   1.669   0.309   9.319  1.0346 -2.9433 -0.7805
 3770SOL     OW22771   4.635   3.998   9.079 -0.3760  0.4946  0.1015
 3770SOL    HW122772   4.705   4.021   9.141  0.6327 -1.9280 -0.1171
 3770SOL    HW222773   4.652   4.067   9.015 -0.1480 -0.8751 -1.2998
 3771SOL     OW22774   2.332   3.670  13.983  0.2921  0.0047  0.0744
 3771SOL    HW122775   2.426   3.655  13.990  0.6599  1.3027 -1.8339
 3771SOL    HW222776   2.316   3.727  14.058 -1.8952 -2.1890  1.2853
 3772SOL     OW22777   3.744   2.937   6.194  0.0824 -0.0754 -0.4343
 3772SOL    HW122778   3.770   3.008   6.253 -1.4545  1.0151 -1.0795
 3772SOL    HW222779   3.655   2.962   6.170  0.3275 -0.4990 -1.7474
 3773SOL     OW22780   0.522   0.078   0.599  0.1622  0.4378  0.3103
 3773SOL    HW122781   0.464   0.013   0.639  0.6043 -0.1409 -0.0032
 3773SOL    HW222782   0.472   0.155   0.570 -0.9394  0.0380  1.1129
 3774SOL     OW22783   1.853   2.692   5.954 -0.1268 -0.5019  0.0125
 3774SOL    HW122784   1.834   2.732   5.869  1.5882  1.8419  0.7019
 3774SOL    HW222785   1.825   2.602   5.940 -0.9202 -0.2498 -0.0264
 3775SOL     OW22786   4.293   3.560   3.758 -0.3289  0.0225 -0.3282
 3775SOL    HW122787   4.218   3.505   3.779  0.1173 -1.6072 -3.1062
 3775SOL    HW222788   4.324   3.540   3.670 -2.6117  1.8476 -1.5612
 3776SOL     OW22789   1.179   1.798  13.932 -0.6034  0.0494  0.2526
 3776SOL    HW122790   1.187   1.732  14.000 -0.8057 -0.8163 -0.5656
 3776SOL    HW222791   1.265   1.839  13.944  0.7873 -2.8203  0.0744
 3777SOL     OW22792   2.962   1.993  17.585  0.1704  0.4695  0.1783
 3777SOL    HW122793   2.893   1.928  17.574  1.2061 -0.5653 -0.0887
 3777SOL    HW222794   2.959   2.027  17.496  1.6053 -1.7181 -0.6942
 3778SOL     OW22795   4.282   1.899  15.082  0.1709  0.5462  0.9523
 3778SOL    HW122796   4.342   1.957  15.035 -2.7159  2.0101 -0.9003
 3778SOL    HW222797   4.211   1.887  15.019  2.2661 -0.3607 -1.2228
 3779SOL     OW22798   3.621   1.108   8.556 -0.6651 -0.2922 -0.7114
 3779SOL    HW122799   3.558   1.059   8.505 -0.7511 -0.7022 -0.2134
 3779SOL    HW222800   3.684   1.053   8.603  0.1582  0.6979 -0.6627
 3780SOL     OW22801   0.733   4.542   5.362 -0.5129  0.4898  0.1032
 3780SOL    HW122802   0.711   4.500   5.446  1.0785  1.1529  0.8493
 3780SOL    HW222803   0.801   4.606   5.382  0.3031 -0.2290 -0.4232
 3781SOL     OW22804   3.693   1.336   2.729 -0.0955  0.1973 -0.3402
 3781SOL    HW122805   3.737   1.396   2.790  1.9345 -0.7809 -0.8443
 3781SOL    HW222806   3.747   1.360   2.654  1.5382  1.3462  1.2046
 3782SOL     OW22807   4.475   0.808   2.901  0.1358 -0.2511 -0.5205
 3782SOL    HW122808   4.471   0.813   2.996 -0.2195  1.4914 -0.6246
 3782SOL    HW222809   4.387   0.785   2.869 -0.1898  1.6098 -1.0023
 3783SOL     OW22810   0.101   4.228   5.078  0.1362 -0.0076 -0.6003
 3783SOL    HW122811   0.155   4.288   5.130  0.6463 -0.8711 -0.1335
 3783SOL    HW222812   0.058   4.181   5.150 -1.2235  0.5621 -1.0661
 3784SOL     OW22813   0.224   3.052   6.974 -0.2459 -0.2491 -0.9652
 3784SOL    HW122814   0.144   3.043   7.025 -0.0023  3.3076  0.0632
 3784SOL    HW222815   0.282   2.999   7.028 -0.9429  0.5634  0.5802
 3785SOL     OW22816   3.820   1.503   3.651 -0.1811 -0.6010 -0.0210
 3785SOL    HW122817   3.832   1.514   3.557 -2.9015  2.4171  0.0019
 3785SOL    HW222818   3.738   1.548   3.672  0.1190  1.4815 -3.5304
 3786SOL     OW22819   0.673   4.293   2.541 -0.8569 -0.2208 -0.0655
 3786SOL    HW122820   0.743   4.245   2.498 -0.8676 -0.7575  0.5204
 3786SOL    HW222821   0.694   4.292   2.634  0.3160  0.8272 -0.3229
 3787SOL     OW22822   4.456   1.345   5.417 -0.6334  0.1598  0.3988
 3787SOL    HW122823   4.549   1.322   5.411 -0.4452  0.7734  1.0621
 3787SOL    HW222824   4.448   1.397   5.337  0.7587 -0.5045 -0.1732
 3788SOL     OW22825   2.043   4.457   2.174 -0.4169  0.0338  0.4920
 3788SOL    HW122826   1.964   4.494   2.135  1.0266 -0.1627 -2.6683
 3788SOL    HW222827   2.103   4.462   2.099 -0.6217  0.7477  0.3789
 3789SOL     OW22828   0.444   0.215   8.103 -0.0760 -0.6846 -0.3037
 3789SOL    HW122829   0.393   0.226   8.023  0.8649 -2.2616 -1.1014
 3789SOL    HW222830   0.431   0.297   8.151  0.7147 -0.8686  0.2227
 3790SOL     OW22831   0.790   0.787   0.303  0.1417  0.3273 -0.5728
 3790SOL    HW122832   0.770   0.694   0.310  0.2951  0.2532 -1.1215
 3790SOL    HW222833   0.717   0.822   0.353  0.8189  2.7487 -1.2514
 3791SOL     OW22834   2.660   1.655  10.469  0.4776 -0.4654  0.6143
 3791SOL    HW122835   2.737   1.599  10.479  1.2100  0.4999  0.4062
 3791SOL    HW222836   2.695   1.724  10.412 -0.6282  0.7635  1.4182
 3792SOL     OW22837   2.931   1.856   6.560  0.6585 -0.3726 -0.1016
 3792SOL    HW122838   2.934   1.911   6.638  3.7533  0.6796 -0.9423
 3792SOL    HW222839   3.019   1.870   6.525  1.9697 -3.2565  1.9761
 3793SOL     OW22840   4.557   4.421   6.678 -0.6256  0.2919 -0.3219
 3793SOL    HW122841   4.610   4.431   6.757 -2.6424  1.1819  0.9087
 3793SOL    HW222842   4.508   4.344   6.706  1.6208 -0.7539  0.7122
 3794SOL     OW22843   0.449   0.001   8.706 -0.1473 -0.1497  0.7930
 3794SOL    HW122844   0.396   4.712   8.785 -2.1494  0.9533 -0.4563
 3794SOL    HW222845   0.484   0.089   8.716  0.4503 -0.1314 -1.4671
 3795SOL     OW22846   1.861   4.411   5.559  0.7497  0.2083 -0.3902
 3795SOL    HW122847   1.836   4.358   5.635 -0.9485 -0.8661 -1.6876
 3795SOL    HW222848   1.930   4.471   5.587  1.2828 -1.5444  2.0815
 3796SOL     OW22849   2.578   3.319  13.979 -0.4586  0.6978  0.5828
 3796SOL    HW122850   2.671   3.300  13.968 -0.4243  1.3113 -0.1764
 3796SOL    HW222851   2.578   3.324  14.075 -2.6758  1.2276  0.5521
 3797SOL     OW22852   1.698   4.168   3.833 -0.3222 -0.0536 -0.3351
 3797SOL    HW122853   1.747   4.144   3.754 -0.3368  0.3665 -0.4720
 3797SOL    HW222854   1.765   4.208   3.888  1.1653 -1.8102 -0.8924
 3798SOL     OW22855   1.154   0.968  11.121  0.2513 -0.3490 -0.2975
 3798SOL    HW122856   1.152   1.043  11.061  0.4864  0.7980  1.1139
 3798SOL    HW222857   1.089   0.912  11.079 -1.5252 -0.1325  2.1270
 3799SOL     OW22858   2.777   2.941   0.864 -0.6761 -0.1040 -0.2903
 3799SOL    HW122859   2.818   2.918   0.948  0.6299 -0.2792 -0.9729
 3799SOL    HW222860   2.776   2.858   0.818  0.0571  0.7012 -1.7451
 3800SOL     OW22861   0.341   4.379   3.280 -0.4295  0.0884  0.0879
 3800SOL    HW122862   0.344   4.474   3.296 -1.1714  0.2755 -0.8717
 3800SOL    HW222863   0.324   4.383   3.186  1.3969  4.4200 -0.0916
 3801SOL     OW22864   0.513   3.901  16.903 -0.3464 -0.9075 -0.2473
 3801SOL    HW122865   0.573   3.966  16.941 -1.1743 -1.3352  1.7356
 3801SOL    HW222866   0.496   3.842  16.976  0.9277 -1.1207 -0.1192
 3802SOL     OW22867   0.459   2.951   2.224 -0.3117 -1.0981 -0.1126
 3802SOL    HW122868   0.428   2.968   2.313 -3.8942 -0.4659 -1.4879
 3802SOL    HW222869   0.500   2.865   2.237  1.0880 -0.3138  0.6503
 3803SOL     OW22870   2.427   3.867  12.626  0.1940 -0.0246 -0.1891
 3803SOL    HW122871   2.479   3.795  12.662  0.7785  0.7983  0.6311
 3803SOL    HW222872   2.378   3.823  12.557 -0.2919 -1.3180  0.9820
 3804SOL     OW22873   4.237   0.580   3.868  0.2816  0.2914 -0.5670
 3804SOL    HW122874   4.322   0.623   3.865  0.2107  0.6555  2.3577
 3804SOL    HW222875   4.172   0.651   3.873 -1.9668 -1.6953 -1.4575
 3805SOL     OW22876   4.242   0.518  12.878 -0.4207 -0.1480 -0.5746
 3805SOL    HW122877   4.266   0.608  12.858  1.5458 -0.6253 -0.4220
 3805SOL    HW222878   4.174   0.538  12.942 -1.2746 -0.6875 -1.3218
 3806SOL     OW22879   0.990   1.782   6.451 -0.3392  0.0468  0.0006
 3806SOL    HW122880   0.996   1.823   6.537 -1.6921  1.1302 -0.4217
 3806SOL    HW222881   0.917   1.831   6.412 -2.2358 -1.2084  1.9891
 3807SOL     OW22882   1.213   1.114   8.424 -0.3221  0.4259  0.4606
 3807SOL    HW122883   1.138   1.120   8.366 -1.0068 -0.2292  1.2757
 3807SOL    HW222884   1.285   1.107   8.362 -0.7359  0.7440 -0.0467
 3808SOL     OW22885   1.542   2.702   1.015 -0.0991  0.2549  0.2065
 3808SOL    HW122886   1.529   2.629   0.954 -1.6738 -0.0217  0.8697
 3808SOL    HW222887   1.555   2.773   0.953 -1.1231  0.4296  0.1789
 3809SOL     OW22888   1.582   2.408   5.306  0.0524  0.0118 -0.2551
 3809SOL    HW122889   1.645   2.481   5.307  1.1189 -0.9525  1.3495
 3809SOL    HW222890   1.601   2.365   5.222  1.9126 -1.2389  0.8053
 3810SOL     OW22891   1.427   0.676   8.026  0.3935  0.7278 -0.1403
 3810SOL    HW122892   1.392   0.609   8.086  0.5310 -0.7117 -1.6558
 3810SOL    HW222893   1.488   0.622   7.975  1.1594 -1.3782  3.0342
 3811SOL     OW22894   1.280   2.361   8.357  0.6409  0.2328 -0.3455
 3811SOL    HW122895   1.282   2.363   8.453  0.6949  0.1098 -0.3431
 3811SOL    HW222896   1.188   2.377   8.336  0.3335 -2.6747 -1.2108
 3812SOL     OW22897   2.427   0.814   4.723 -0.7575 -0.1139 -0.1984
 3812SOL    HW122898   2.358   0.826   4.788 -2.0668  0.8624 -1.7807
 3812SOL    HW222899   2.491   0.836   4.791  0.2156 -2.6973 -0.2963
 3813SOL     OW22900   0.720   3.897  14.027 -0.4390 -0.0077  0.6078
 3813SOL    HW122901   0.705   3.898  13.933 -0.5126  0.7193  0.6313
 3813SOL    HW222902   0.649   3.840  14.058 -0.5184 -0.7198 -0.8771
 3814SOL     OW22903   3.136   2.710  11.374 -0.1756  0.1978 -0.0192
 3814SOL    HW122904   3.070   2.661  11.326  0.5302 -0.0804 -0.7150
 3814SOL    HW222905   3.210   2.649  11.365 -0.1988 -0.6583  5.5281
 3815SOL     OW22906   2.404   1.253   5.794 -0.3126 -0.3131 -0.1076
 3815SOL    HW122907   2.328   1.270   5.850 -2.8625 -1.7616 -3.0857
 3815SOL    HW222908   2.474   1.256   5.859  0.7939  2.1266 -1.4127
 3816SOL     OW22909   3.419   2.453  13.956  0.2187 -0.1505  0.0552
 3816SOL    HW122910   3.451   2.395  14.025 -3.3126 -1.4612  0.5737
 3816SOL    HW222911   3.325   2.453  13.974  0.4193 -1.5505  1.0225
 3817SOL     OW22912   0.986   0.937   6.822  0.0043 -0.1068 -0.2539
 3817SOL    HW122913   1.038   0.883   6.882 -0.3593 -1.7815 -1.4183
 3817SOL    HW222914   0.936   0.998   6.875 -0.6654  0.2587 -1.2977
 3818SOL     OW22915   3.775   1.110   4.344  0.0981 -0.6107 -0.2574
 3818SOL    HW122916   3.809   1.023   4.364 -0.1184 -0.7109 -0.3291
 3818SOL    HW222917   3.712   1.084   4.278  1.4192  1.4464 -2.3219
 3819SOL     OW22918   4.150   1.423   8.967 -0.2285  0.8366  0.2526
 3819SOL    HW122919   4.123   1.459   8.882 -0.1629  0.1698 -0.0478
 3819SOL    HW222920   4.230   1.474   8.980 -0.0178  0.3236  0.9344
 3820SOL     OW22921   0.829   2.861   8.323  0.1653 -0.4030  0.0579
 3820SOL    HW122922   0.743   2.894   8.298 -0.7747 -0.7536  2.8479
 3820SOL    HW222923   0.870   2.859   8.237  0.1030 -2.1413  0.0682
 3821SOL     OW22924   3.245   3.840   6.913 -0.6769 -0.0711  1.1171
 3821SOL    HW122925   3.273   3.759   6.870 -1.7025  0.3771 -0.4237
 3821SOL    HW222926   3.186   3.869   6.843 -0.5335 -0.2250  0.9320
 3822SOL     OW22927   3.926   0.623   9.133 -0.0578  0.1431  0.4963
 3822SOL    HW122928   3.866   0.690   9.100 -0.2531  1.0320  2.6721
 3822SOL    HW222929   4.000   0.679   9.155  1.0749 -0.9227 -0.5981
 3823SOL     OW22930   1.251   1.415   7.891 -0.0308 -0.8617 -0.2819
 3823SOL    HW122931   1.233   1.507   7.874 -0.2964 -0.8615 -0.0061
 3823SOL    HW222932   1.337   1.399   7.854  0.4151  0.8064  0.0363
 3824SOL     OW22933   3.643   3.542   9.707 -0.0686  0.9124 -0.1698
 3824SOL    HW122934   3.646   3.635   9.728 -3.1098  0.8359  0.5949
 3824SOL    HW222935   3.558   3.520   9.745  0.2167  0.7409  0.3695
 3825SOL     OW22936   2.351   1.915  10.158 -0.2192  0.4936 -0.2877
 3825SOL    HW122937   2.336   1.824  10.185  3.5401 -0.4557 -1.3042
 3825SOL    HW222938   2.285   1.913  10.088 -0.9525  0.0852  0.4177
 3826SOL     OW22939   1.729   0.870   9.521 -0.0947 -0.0078  0.3684
 3826SOL    HW122940   1.696   0.790   9.480 -1.7454  0.1816  1.3336
 3826SOL    HW222941   1.713   0.932   9.450  2.1414 -0.9011 -0.9424
 3827SOL     OW22942   1.078   4.219  14.466 -0.0323  0.2592  0.2479
 3827SOL    HW122943   1.093   4.262  14.550 -0.5669  0.5365  0.1999
 3827SOL    HW222944   1.165   4.211  14.426 -0.1320 -0.1703  0.1101
 3828SOL     OW22945   1.910   3.262  16.332  0.1009 -0.1234 -0.0291
 3828SOL    HW122946   1.969   3.192  16.360 -0.8369 -0.0502  2.2100
 3828SOL    HW222947   1.836   3.201  16.325 -0.6046  0.5723  1.2325
 3829SOL     OW22948   4.059   4.635   2.485  0.0527  0.4818  0.3263
 3829SOL    HW122949   4.033   4.596   2.569 -0.9427 -0.6827 -0.5441
 3829SOL    HW222950   3.987   4.610   2.428  1.1904  3.5664 -2.4318
 3830SOL     OW22951   0.349   0.559   7.902  0.0027 -0.1930 -0.6421
 3830SOL    HW122952   0.389   0.533   7.819 -1.7685 -0.4060 -1.4232
 3830SOL    HW222953   0.421   0.607   7.943  1.8610 -1.6235 -2.1962
 3831SOL     OW22954   1.553   2.769   1.275  0.0837  0.3806  0.2089
 3831SOL    HW122955   1.549   2.750   1.182  0.7487 -0.8955  0.4400
 3831SOL    HW222956   1.518   2.858   1.266 -2.0992 -0.2928  1.9729
 3832SOL     OW22957   1.030   2.606  14.832 -0.1053  0.1162 -0.1092
 3832SOL    HW122958   1.048   2.568  14.918  1.1057 -0.0192 -0.4114
 3832SOL    HW222959   1.079   2.552  14.769  0.7565  0.1265  0.5411
 3833SOL     OW22960   2.153   4.481   3.927  0.1004  0.2755 -0.2142
 3833SOL    HW122961   2.108   4.481   4.012 -2.2252  0.5260 -1.4541
 3833SOL    HW222962   2.175   4.389   3.912 -0.3071  0.1931 -0.3005
 3834SOL     OW22963   1.403   0.665   6.783  0.0816  0.3667  0.4856
 3834SOL    HW122964   1.385   0.672   6.876 -0.5351  2.7996  0.1852
 3834SOL    HW222965   1.434   0.575   6.775  0.5869  0.4271  1.7175
 3835SOL     OW22966   4.023   3.525  13.791  0.2494  0.1373  0.1906
 3835SOL    HW122967   4.003   3.504  13.699 -0.7845 -0.9885  0.6846
 3835SOL    HW222968   4.117   3.505  13.797 -0.6367 -4.6448 -1.5834
 3836SOL     OW22969   2.763   3.717  17.064 -0.3424 -0.0184  0.0301
 3836SOL    HW122970   2.745   3.802  17.106  0.6977  0.7234 -1.0478
 3836SOL    HW222971   2.718   3.740  16.983 -1.5656 -0.3594  0.6086
 3837SOL     OW22972   1.324   3.072   6.834 -0.0604  0.0328 -0.2221
 3837SOL    HW122973   1.296   3.155   6.872  0.9186  0.4698 -0.4689
 3837SOL    HW222974   1.314   3.084   6.740  1.9078 -0.6713 -0.5113
 3838SOL     OW22975   4.294   4.534   7.723  0.0096  0.2679  0.9204
 3838SOL    HW122976   4.202   4.530   7.698  0.2147 -0.5351  0.3129
 3838SOL    HW222977   4.344   4.533   7.642  0.3802 -2.1453  1.1881
 3839SOL     OW22978   3.902   2.811   4.506 -0.5526 -0.1037  0.5491
 3839SOL    HW122979   3.937   2.729   4.541  0.0860 -0.9635 -2.1114
 3839SOL    HW222980   3.976   2.869   4.521 -2.3807  2.2949  0.2785
 3840SOL     OW22981   1.095   2.902  14.641 -0.5443  0.2320  0.2372
 3840SOL    HW122982   1.087   2.876  14.549 -0.9827  0.0583  0.3236
 3840SOL    HW222983   1.100   2.997  14.628  0.1850  0.2095  0.3503
 3841SOL     OW22984   3.435   2.942   6.634  0.0730 -0.5489 -0.0251
 3841SOL    HW122985   3.440   2.925   6.540 -1.3383  3.1559 -0.8051
 3841SOL    HW222986   3.467   3.032   6.626 -2.1088  0.1347 -1.1212
 3842SOL     OW22987   0.944   1.555  14.872 -0.0470  0.4352  0.3679
 3842SOL    HW122988   0.985   1.619  14.930 -2.1057  2.3342 -0.2756
 3842SOL    HW222989   0.980   1.470  14.899  1.3860  0.7152 -0.6631
 3843SOL     OW22990   1.925   1.576  17.248 -0.2776 -0.1543  0.0023
 3843SOL    HW122991   1.868   1.513  17.205  1.3939 -1.3189 -0.5229
 3843SOL    HW222992   1.933   1.648  17.184  2.6909  0.0197  0.5460
 3844SOL     OW22993   4.101   4.548  15.124  0.2122 -0.1830  0.8249
 3844SOL    HW122994   4.182   4.499  15.142 -0.8775 -1.7184  1.4926
 3844SOL    HW222995   4.140   4.627  15.084  0.5522 -0.6654  0.1988
 3845SOL     OW22996   2.057   3.046   9.558  0.1016  0.0568 -0.0267
 3845SOL    HW122997   1.993   3.055   9.629  1.2902  1.5228  0.8606
 3845SOL    HW222998   2.012   3.007   9.483 -0.4479 -1.2829  1.0126
 3846SOL     OW22999   4.677   2.021  14.109  0.0713  0.9281 -0.1510
 3846SOL    HW123000   0.036   2.074  14.120 -0.5100  1.4293  1.5599
 3846SOL    HW223001   4.616   2.094  14.099  0.1830  1.2591  1.4449
 3847SOL     OW23002   2.183   3.471   7.511 -0.0944  0.5120 -0.0557
 3847SOL    HW123003   2.163   3.554   7.554  1.2925  0.4944  0.6262
 3847SOL    HW223004   2.094   3.449   7.485 -0.1893  0.6278  0.1744
 3848SOL     OW23005   3.993   2.699  13.686  0.1333 -0.2644  0.1582
 3848SOL    HW123006   4.058   2.727  13.750 -2.1773  1.0479  1.9158
 3848SOL    HW223007   3.935   2.775  13.695 -0.2859 -0.6727  0.9247
 3849SOL     OW23008   0.998   3.028  16.488 -0.0875  0.1525 -0.0390
 3849SOL    HW123009   1.040   3.045  16.572 -0.2776 -1.7096  0.4407
 3849SOL    HW223010   0.965   2.938  16.496 -1.2659  0.5166 -0.7206
 3850SOL     OW23011   1.758   1.547   4.441  0.0881 -0.0350 -0.1532
 3850SOL    HW123012   1.735   1.462   4.403  0.1142 -0.0850 -0.0570
 3850SOL    HW223013   1.669   1.581   4.436 -0.2134 -0.7137  0.7150
 3851SOL     OW23014   4.189   0.696  15.697  0.4448 -0.1795  0.1277
 3851SOL    HW123015   4.210   0.619  15.644  1.3122 -0.1787  0.4781
 3851SOL    HW223016   4.276   0.729  15.721  0.1510 -0.0984  1.0694
 3852SOL     OW23017   1.103   1.674   9.037  0.2058  0.2895  0.5398
 3852SOL    HW123018   1.021   1.632   9.012  0.3209 -0.2879  1.1425
 3852SOL    HW223019   1.080   1.760   9.002  0.6168  1.0156  2.0648
 3853SOL     OW23020   3.222   1.097   3.415  0.6671  0.2895  0.4547
 3853SOL    HW123021   3.235   1.009   3.378 -0.5425 -0.5418  1.9917
 3853SOL    HW223022   3.129   1.102   3.392  0.9525  1.3484 -0.4405
 3854SOL     OW23023   1.635   1.890  10.196 -0.5658  0.0435 -0.3738
 3854SOL    HW123024   1.721   1.858  10.171 -0.6345  1.6208 -2.6359
 3854SOL    HW223025   1.655   1.888  10.290  0.8830  1.1286 -0.6726
 3855SOL     OW23026   3.979   1.952   5.037  0.0540 -0.2256  0.2663
 3855SOL    HW123027   4.044   1.934   4.969 -1.5792 -4.5422 -0.1908
 3855SOL    HW223028   3.903   1.976   4.983  0.0659  2.4921  1.4715
 3856SOL     OW23029   2.193   0.216  15.207 -0.0835 -0.1091 -0.3417
 3856SOL    HW123030   2.225   0.229  15.297  1.4520 -0.9062 -0.7725
 3856SOL    HW223031   2.247   0.144  15.175 -1.4270 -1.5872  0.6682
 3857SOL     OW23032   4.571   4.572  10.339  0.1354  0.0726 -0.5711
 3857SOL    HW123033   4.530   4.576  10.425  0.4287  2.9595 -0.5813
 3857SOL    HW223034   4.532   4.647  10.294 -0.6950  2.0548  3.4551
 3858SOL     OW23035   3.067   4.257   4.082  0.6408  0.0455  0.1165
 3858SOL    HW123036   3.086   4.321   4.012 -0.5223  0.0591 -0.1778
 3858SOL    HW223037   3.124   4.187   4.051 -2.3016 -2.6364  0.8263
 3859SOL     OW23038   1.685   0.900   5.453  0.1005  0.7679  0.1268
 3859SOL    HW123039   1.610   0.952   5.422  1.1377  0.7975 -2.2987
 3859SOL    HW223040   1.668   0.902   5.548  1.2532  1.9647  0.3133
 3860SOL     OW23041   0.729   2.335  17.111  0.1447 -0.3255  0.4359
 3860SOL    HW123042   0.771   2.293  17.186  0.0004 -0.4768  0.4308
 3860SOL    HW223043   0.678   2.401  17.158  1.8003  0.2007  1.5115
 3861SOL     OW23044   0.505   0.216   1.274  0.0811  0.4213  0.4407
 3861SOL    HW123045   0.482   0.190   1.184  1.8528 -1.3739  0.4949
 3861SOL    HW223046   0.572   0.284   1.269  2.1553 -1.6667 -0.0952
 3862SOL     OW23047   0.537   1.849  15.517  0.3362 -0.0455  0.0610
 3862SOL    HW123048   0.511   1.790  15.447  2.4021  0.3423 -1.0192
 3862SOL    HW223049   0.556   1.927  15.466  0.3414 -0.9724 -1.3407
 3863SOL     OW23050   0.413   3.921   4.497 -0.3168 -0.6972  0.2639
 3863SOL    HW123051   0.389   3.982   4.566  0.3662  0.6413 -0.6879
 3863SOL    HW223052   0.475   3.976   4.449 -2.0975  1.1840  0.1199
 3864SOL     OW23053   3.145   1.114   2.277  0.5775  0.2231 -0.2360
 3864SOL    HW123054   3.142   1.199   2.234  0.5453  0.2917 -0.0971
 3864SOL    HW223055   3.065   1.070   2.246  1.5022 -1.5077 -0.1830
 3865SOL     OW23056   4.478   3.083  15.133 -0.1696 -0.4128 -0.1316
 3865SOL    HW123057   4.404   3.120  15.086 -2.1686 -2.9529  1.0475
 3865SOL    HW223058   4.441   3.067  15.220  1.9454 -0.2651  0.8181
 3866SOL     OW23059   4.319   3.898   1.195  0.4649  0.0775 -0.1188
 3866SOL    HW123060   4.355   3.838   1.130  0.9486  1.9232 -1.5675
 3866SOL    HW223061   4.224   3.885   1.188  0.1502  1.3118  1.7016
 3867SOL     OW23062   0.893   0.097   0.803  0.3053 -0.1269 -0.1941
 3867SOL    HW123063   0.988   0.097   0.816  0.5262 -0.4033 -1.8857
 3867SOL    HW223064   0.874   0.186   0.832  1.8747  0.1475 -0.0029
 3868SOL     OW23065   4.465   2.361  10.905  0.7684 -0.7498  0.0600
 3868SOL    HW123066   4.446   2.422  10.834 -1.0177  0.3204  1.4547
 3868SOL    HW223067   4.499   2.292  10.849  1.1803 -0.4630 -0.0423
 3869SOL     OW23068   0.815   3.538   4.581 -0.0421 -0.3964  0.0790
 3869SOL    HW123069   0.821   3.482   4.504  1.5634 -0.6889  0.4167
 3869SOL    HW223070   0.872   3.614   4.570  1.3225 -1.2843  0.9649
 3870SOL     OW23071   3.044   1.013   4.362 -0.0851  0.4826 -0.0403
 3870SOL    HW123072   3.107   0.971   4.304 -0.6838 -1.1225  0.4632
 3870SOL    HW223073   2.972   0.954   4.340  1.3347 -1.2889  0.0943
 3871SOL     OW23074   3.389   3.276   7.555  0.6322  0.6423  0.1385
 3871SOL    HW123075   3.334   3.353   7.542  2.4799  1.4830 -2.5756
 3871SOL    HW223076   3.474   3.304   7.592 -0.7917  1.8558  2.5099
 3872SOL     OW23077   4.383   3.414  10.356  0.2837  0.4245 -0.1382
 3872SOL    HW123078   4.405   3.475  10.287 -0.7082  0.0447 -0.7825
 3872SOL    HW223079   4.313   3.367  10.311  0.2519 -0.1735  0.5179
 3873SOL     OW23080   4.094   2.877   8.299 -0.7331  0.3207  0.0963
 3873SOL    HW123081   4.090   2.849   8.391 -1.5522  2.6667  0.7746
 3873SOL    HW223082   4.131   2.804   8.249  0.6325  0.8554  0.3331
 3874SOL     OW23083   2.500   1.822  11.560  0.0512 -0.1821  0.7116
 3874SOL    HW123084   2.496   1.908  11.603 -2.1555 -0.1467  0.4331
 3874SOL    HW223085   2.585   1.787  11.586  1.2094 -0.3534 -3.4521
 3875SOL     OW23086   4.097   2.941   9.139 -0.8610 -0.0713  0.5902
 3875SOL    HW123087   4.005   2.935   9.167 -0.5607 -0.1338  1.5742
 3875SOL    HW223088   4.094   2.863   9.084 -0.3831 -0.9318  1.7818
 3876SOL     OW23089   3.739   3.252   6.967  0.0888 -0.6958  0.3164
 3876SOL    HW123090   3.735   3.170   7.016  2.9176  0.4794  2.4977
 3876SOL    HW223091   3.808   3.296   7.016 -0.5350  0.4605  0.1394
 3877SOL     OW23092   2.725   0.444  11.820  0.7678  0.7546  0.0940
 3877SOL    HW123093   2.646   0.468  11.869  0.9966  0.9696  0.3548
 3877SOL    HW223094   2.785   0.420  11.890  1.0008 -1.7945 -0.9734
 3878SOL     OW23095   0.343   3.030   3.464 -0.3956 -1.0357 -0.2462
 3878SOL    HW123096   0.362   3.049   3.556 -1.9587  2.5646 -0.6343
 3878SOL    HW223097   0.368   2.938   3.457 -1.5149 -1.1783 -2.4416
 3879SOL     OW23098   0.218   4.416   8.732  0.1224 -0.3109 -0.2571
 3879SOL    HW123099   0.190   4.496   8.776  2.5439 -0.2406  1.1451
 3879SOL    HW223100   0.313   4.424   8.736  0.0948  0.7444 -1.9170
 3880SOL     OW23101   3.809   4.216   9.440 -0.1483  0.1484 -0.1568
 3880SOL    HW123102   3.838   4.249   9.355  3.1491 -0.1017  0.8600
 3880SOL    HW223103   3.889   4.167   9.459 -0.3859 -0.0871  0.2303
 3881SOL     OW23104   2.792   1.100   4.553 -0.3863 -0.3769 -0.0427
 3881SOL    HW123105   2.827   1.178   4.510 -2.0218  0.4506  0.1232
 3881SOL    HW223106   2.740   1.144   4.620  1.1174 -0.6107  1.2544
 3882SOL     OW23107   4.195   0.963   6.014 -0.6217  0.3186  0.1278
 3882SOL    HW123108   4.252   1.006   5.950 -0.8429  2.8907  1.6949
 3882SOL    HW223109   4.240   0.878   6.014 -0.4456  0.4145 -1.4241
 3883SOL     OW23110   2.611   3.012  12.268 -0.5548  0.2807 -0.5169
 3883SOL    HW123111   2.567   2.975  12.345  1.4719  0.3258  0.6823
 3883SOL    HW223112   2.559   3.089  12.248 -0.6006  0.0037 -1.4555
 3884SOL     OW23113   0.537   3.773   5.826  0.0015  0.2291  0.0210
 3884SOL    HW123114   0.462   3.814   5.783 -0.0241 -0.0279 -0.1792
 3884SOL    HW223115   0.600   3.801   5.758  1.3332 -1.6439  0.4994
 3885SOL     OW23116   0.672   2.870   7.885  0.4751  0.1634  0.0667
 3885SOL    HW123117   0.588   2.823   7.885  1.3350 -1.3914  0.5536
 3885SOL    HW223118   0.675   2.903   7.795  1.0072  0.0892  0.0593
 3886SOL     OW23119   4.688   0.168   3.924 -0.7121 -0.3976  0.4115
 3886SOL    HW123120   4.697   0.090   3.870  1.1754  0.0740  0.0332
 3886SOL    HW223121   0.050   0.207   3.893 -0.9602 -0.0327  0.2111
 3887SOL     OW23122   4.359   4.292  10.237 -0.2419 -0.0520  0.3396
 3887SOL    HW123123   4.374   4.241  10.317 -0.7552 -0.4024  0.2121
 3887SOL    HW223124   4.345   4.385  10.252 -2.9022 -0.1607 -1.7063
 3888SOL     OW23125   2.865   3.706   7.715  0.2215  0.0550  0.0457
 3888SOL    HW123126   2.913   3.691   7.796 -0.1109 -2.8339 -0.2940
 3888SOL    HW223127   2.776   3.710   7.747  0.9840  2.4295  1.9093
 3889SOL     OW23128   3.252   4.496   4.835 -0.0674 -0.5839  0.3287
 3889SOL    HW123129   3.251   4.502   4.740  2.6526 -4.7611 -0.0002
 3889SOL    HW223130   3.332   4.542   4.859 -0.7667  0.2081  1.1345
 3890SOL     OW23131   3.314   1.852  13.343 -0.1149 -0.4422 -0.2704
 3890SOL    HW123132   3.229   1.885  13.314 -0.5861  1.6985  3.5643
 3890SOL    HW223133   3.291   1.799  13.418  0.3924 -1.6856 -0.9913
 3891SOL     OW23134   3.821   3.799   4.504  0.7844 -0.0988  0.0082
 3891SOL    HW123135   3.772   3.750   4.570  2.0333 -1.1062  0.1850
 3891SOL    HW223136   3.885   3.837   4.563 -0.2976  1.9163 -0.0978
 3892SOL     OW23137   2.879   2.803   7.282 -0.2355  0.3229 -0.5918
 3892SOL    HW123138   2.944   2.758   7.229  0.5644  1.0740 -0.2435
 3892SOL    HW223139   2.808   2.758   7.236 -0.0329  0.5479 -1.1304
 3893SOL     OW23140   1.797   2.581   4.277  0.0263 -0.5193  0.7752
 3893SOL    HW123141   1.740   2.658   4.273 -1.6472 -1.6771  2.2675
 3893SOL    HW223142   1.760   2.515   4.219  2.4680 -0.6485 -0.6446
 3894SOL     OW23143   2.161   2.000   0.232  0.2873  0.7449 -0.2015
 3894SOL    HW123144   2.178   1.974   0.323  0.3502  5.6203  1.1774
 3894SOL    HW223145   2.245   2.039   0.209 -0.1514  1.0798 -1.2203
 3895SOL     OW23146   3.169   2.186   7.959 -0.3223  0.2237 -0.2338
 3895SOL    HW123147   3.124   2.270   7.971  0.4558  0.5748  0.2206
 3895SOL    HW223148   3.240   2.181   8.022 -0.4712 -0.6892 -0.1338
 3896SOL     OW23149   1.780   1.146   5.252 -0.3775 -0.2081 -0.1537
 3896SOL    HW123150   1.739   1.176   5.333 -1.2903 -0.6616 -0.4512
 3896SOL    HW223151   1.719   1.176   5.185 -0.7205 -2.9522 -1.0785
 3897SOL     OW23152   4.018   3.830   8.664 -0.2499  0.0137 -0.1582
 3897SOL    HW123153   4.076   3.808   8.736 -1.5970 -1.2675  0.5370
 3897SOL    HW223154   4.075   3.889   8.614 -0.6287 -0.9438 -1.7098
 3898SOL     OW23155   2.001   1.617   6.546 -0.4072  0.7805  0.0283
 3898SOL    HW123156   2.019   1.707   6.518  2.2197  0.4529  0.6322
 3898SOL    HW223157   1.921   1.623   6.598 -0.0963  2.2719  0.3383
 3899SOL     OW23158   3.084   3.351   3.853  0.1285  0.1291 -0.0479
 3899SOL    HW123159   3.021   3.403   3.902  0.1834  0.1972 -0.0510
 3899SOL    HW223160   3.132   3.312   3.926 -1.4540 -0.4211  0.7008
 3900SOL     OW23161   4.016   3.338   7.427 -0.8264  0.3380 -0.6342
 3900SOL    HW123162   4.005   3.250   7.464 -0.5503  0.7123  0.3147
 3900SOL    HW223163   3.946   3.386   7.470 -0.4735 -0.6402  1.0411
 3901SOL     OW23164   2.870   0.992   3.108  0.3157 -0.1146  0.2742
 3901SOL    HW123165   2.920   1.071   3.092 -0.4747 -0.1569 -2.4635
 3901SOL    HW223166   2.862   0.942   3.026 -0.3667  1.0040 -0.3420
 3902SOL     OW23167   3.741   1.255  13.820 -0.0753  0.1530  0.2770
 3902SOL    HW123168   3.671   1.253  13.756 -0.4945  1.3192  0.7013
 3902SOL    HW223169   3.709   1.329  13.871 -0.6076 -1.0899  1.7436
 3903SOL     OW23170   1.825   4.490   6.409  0.0274  0.7845  0.4705
 3903SOL    HW123171   1.755   4.538   6.364 -0.1691 -2.8171 -3.0459
 3903SOL    HW223172   1.822   4.402   6.370 -0.1384  0.5744  0.9601
 3904SOL     OW23173   1.175   4.411   1.601  0.0497 -0.0372 -0.0659
 3904SOL    HW123174   1.110   4.406   1.671 -0.9739  0.8149 -0.9614
 3904SOL    HW223175   1.138   4.472   1.537  2.3580 -0.4902 -1.8318
 3905SOL     OW23176   2.505   4.323   5.590  0.4140  0.7313 -0.5859
 3905SOL    HW123177   2.582   4.375   5.566  1.7452 -0.2260  1.6912
 3905SOL    HW223178   2.437   4.377   5.549 -0.9103  0.8835  1.8365
 3906SOL     OW23179   4.458   0.196   3.778 -0.0937  0.2942 -0.5551
 3906SOL    HW123180   4.502   0.168   3.859 -1.2961  0.8597  0.2838
 3906SOL    HW223181   4.495   0.282   3.759  1.3898  0.0939  1.4251
 3907SOL     OW23182   3.689   3.502   5.023  0.1778  0.8335  0.7685
 3907SOL    HW123183   3.603   3.542   5.033  0.8170  2.2306  0.7046
 3907SOL    HW223184   3.719   3.554   4.949 -0.3527 -0.3967 -0.3068
 3908SOL     OW23185   4.550   0.547   7.190 -0.3101  0.0963 -0.3921
 3908SOL    HW123186   4.491   0.586   7.126 -0.9590  0.4918  0.4479
 3908SOL    HW223187   4.527   0.454   7.188 -0.8921  0.2264  0.2470
 3909SOL     OW23188   1.048   0.042   4.688  0.1910  0.3575 -0.5965
 3909SOL    HW123189   1.123   0.048   4.748 -0.2963 -0.3362  0.0757
 3909SOL    HW223190   1.062   0.125   4.642 -1.3868  1.1646  0.4112
 3910SOL     OW23191   3.013   4.487  10.559 -0.4163  0.4344 -0.0703
 3910SOL    HW123192   2.918   4.484  10.557 -0.4078 -0.8934  1.4854
 3910SOL    HW223193   3.042   4.492  10.467 -1.6428 -1.4569 -0.5627
 3911SOL     OW23194   0.230   2.515  17.233 -0.0671 -0.2376  0.4200
 3911SOL    HW123195   0.253   2.568  17.157  0.5947 -1.3395 -0.1382
 3911SOL    HW223196   0.315   2.482  17.262 -0.6569 -1.2238  1.0044
 3912SOL     OW23197   3.976   1.727   6.733  0.2951  0.0098  0.1486
 3912SOL    HW123198   3.934   1.644   6.752  0.3206  0.5125  2.3921
 3912SOL    HW223199   3.902   1.779   6.700 -1.0077 -0.5148  2.2721
 3913SOL     OW23200   1.718   1.796   8.775  0.1714 -0.0138  0.2344
 3913SOL    HW123201   1.726   1.802   8.871  1.2942  3.3681 -0.0604
 3913SOL    HW223202   1.625   1.774   8.772 -0.0521  0.9562  0.0659
 3914SOL     OW23203   2.165   4.474   4.646  0.6818  0.0885 -0.0860
 3914SOL    HW123204   2.133   4.392   4.607  1.1363  0.5537 -1.4437
 3914SOL    HW223205   2.255   4.448   4.661 -1.0173 -4.5884  2.1101
 3915SOL     OW23206   3.540   0.624  14.418 -0.0402 -0.3636 -0.1242
 3915SOL    HW123207   3.497   0.594  14.338 -1.7435  0.4643  0.4869
 3915SOL    HW223208   3.579   0.541  14.446  0.3168 -0.7264 -1.7322
 3916SOL     OW23209   2.732   4.443   5.529 -0.0806 -0.4296  0.2747
 3916SOL    HW123210   2.811   4.496   5.522 -1.0420  0.9572  0.0436
 3916SOL    HW223211   2.765   4.366   5.483  0.4280  0.7530 -1.3454
 3917SOL     OW23212   0.282   0.795   5.261 -0.3898  0.0324  0.4445
 3917SOL    HW123213   0.272   0.863   5.194  1.0372 -0.2774 -0.0715
 3917SOL    HW223214   0.206   0.747   5.227  0.1191 -0.5925  0.1920
 3918SOL     OW23215   4.212   1.433  14.700  0.1365  0.1059 -0.2511
 3918SOL    HW123216   4.275   1.494  14.661  0.6295 -0.0599  0.2921
 3918SOL    HW223217   4.265   1.354  14.715  1.8202  0.9579 -1.5935
 3919SOL     OW23218   0.268   2.664   2.030 -0.0412 -0.2124  0.0622
 3919SOL    HW123219   0.273   2.759   2.021 -0.7936 -0.2255 -0.4856
 3919SOL    HW223220   0.184   2.642   1.990 -0.8452 -1.4481  2.4424
 3920SOL     OW23221   1.274   2.097   1.759 -0.0211  0.0557 -0.4684
 3920SOL    HW123222   1.348   2.154   1.739  0.5194 -0.2256  0.7465
 3920SOL    HW223223   1.244   2.082   1.669  0.2178 -1.6256 -0.2661
 3921SOL     OW23224   0.612   2.575  10.980  0.0293  0.8842  0.2094
 3921SOL    HW123225   0.575   2.496  11.020  0.5367 -0.5046 -2.0771
 3921SOL    HW223226   0.652   2.526  10.908 -1.9720 -1.1688  0.4783
 3922SOL     OW23227   2.058   1.547  10.019 -0.2662  0.7515  0.1995
 3922SOL    HW123228   2.063   1.558  10.114  0.3176 -0.6811  0.3258
 3922SOL    HW223229   2.105   1.464  10.021 -2.1936 -0.4026 -3.6408
 3923SOL     OW23230   1.488   3.205   8.834 -0.2431 -0.8768 -0.2637
 3923SOL    HW123231   1.488   3.216   8.929 -0.3230 -1.8516 -0.1439
 3923SOL    HW223232   1.455   3.288   8.801  0.4467 -0.5791 -0.1983
 3924SOL     OW23233   0.861   1.143   5.969 -0.5240  0.2963  0.0769
 3924SOL    HW123234   0.864   1.235   5.997  1.9613 -0.0512  0.9782
 3924SOL    HW223235   0.766   1.128   5.964 -0.3890 -0.2753 -0.7008
 3925SOL     OW23236   0.937   2.047   5.240 -0.4060  0.2187  0.5595
 3925SOL    HW123237   0.940   2.067   5.333  0.0517 -0.8762  0.7738
 3925SOL    HW223238   0.925   1.952   5.243  0.5394  0.2019  3.6373
 3926SOL     OW23239   0.206   3.445   5.360 -0.2025  0.6860  0.3992
 3926SOL    HW123240   0.241   3.447   5.271 -0.2401  0.4777  0.3804
 3926SOL    HW223241   0.112   3.436   5.343  0.0374 -1.4316  0.1666
 3927SOL     OW23242   4.178   3.284  14.089 -0.3907 -0.2564 -0.0597
 3927SOL    HW123243   4.244   3.225  14.053  0.0346  1.3079 -1.8656
 3927SOL    HW223244   4.118   3.307  14.018 -3.1339 -1.0643  2.0193
 3928SOL     OW23245   2.454   3.192   5.248 -0.6262 -0.1816 -0.7210
 3928SOL    HW123246   2.392   3.257   5.283  0.5191  0.8824 -0.6767
 3928SOL    HW223247   2.514   3.169   5.319  0.7574  1.0435 -1.5025
 3929SOL     OW23248   0.334   4.234   8.543 -0.1907 -0.6015 -0.1245
 3929SOL    HW123249   0.307   4.180   8.618  0.1626  0.2359  0.6060
 3929SOL    HW223250   0.364   4.320   8.573 -0.6966  0.0724 -1.5491
 3930SOL     OW23251   2.110   4.294   6.437  0.5796  0.6150 -0.4922
 3930SOL    HW123252   2.135   4.349   6.511 -2.3759 -0.1437  1.0555
 3930SOL    HW223253   2.171   4.332   6.373 -0.4519  2.7172 -0.2083
 3931SOL     OW23254   1.264   0.134  15.233 -0.4252  0.0484  0.1616
 3931SOL    HW123255   1.358   0.134  15.220 -0.9957  1.0449 -3.9063
 3931SOL    HW223256   1.227   0.176  15.155  1.6386  1.9858  0.2298
 3932SOL     OW23257   0.886   2.306  11.124  0.5395 -0.3198  0.2891
 3932SOL    HW123258   0.837   2.223  11.123 -0.1601  0.1207 -1.7679
 3932SOL    HW223259   0.827   2.354  11.182 -1.8524  0.0224 -2.4152
 3933SOL     OW23260   3.830   2.978  15.230 -0.1085 -0.0026  0.0448
 3933SOL    HW123261   3.798   2.951  15.144 -2.9021  0.9465  0.7884
 3933SOL    HW223262   3.925   2.970  15.218 -0.1561  0.9816 -0.9332
 3934SOL     OW23263   2.653   3.432   2.095  0.4409  0.4043 -0.4884
 3934SOL    HW123264   2.579   3.373   2.083 -0.9065  1.2358  3.7181
 3934SOL    HW223265   2.660   3.474   2.010 -0.4122 -0.0639 -0.7899
 3935SOL     OW23266   3.950   1.154   8.889  0.3645 -0.4524  0.7318
 3935SOL    HW123267   4.039   1.124   8.875  0.2226 -0.2762 -0.5255
 3935SOL    HW223268   3.978   1.233   8.935 -0.9781  1.2279 -1.3263
 3936SOL     OW23269   4.196   3.661  15.073  0.3640 -0.0333  0.1451
 3936SOL    HW123270   4.278   3.696  15.037 -1.0915  0.6154 -2.5686
 3936SOL    HW223271   4.235   3.652  15.160 -1.6370 -3.0097  0.7033
 3937SOL     OW23272   3.471   4.187  16.153 -0.2713 -0.0435  0.3107
 3937SOL    HW123273   3.516   4.147  16.079  0.5736  0.8295  0.3530
 3937SOL    HW223274   3.518   4.270  16.160 -0.4951  0.2618 -1.7030
 3938SOL     OW23275   2.707   3.048   7.472  0.1021  0.0711 -0.4177
 3938SOL    HW123276   2.787   3.000   7.451  0.3108  0.5363 -0.7024
 3938SOL    HW223277   2.730   3.127   7.521  0.6951 -1.4902  1.8230
 3939SOL     OW23278   0.357   4.527   4.621  0.5327  0.0267  0.1486
 3939SOL    HW123279   0.272   4.496   4.652  0.0138  2.3875  1.0692
 3939SOL    HW223280   0.411   4.465   4.671  3.2784  1.8361 -0.5348
 3940SOL     OW23281   2.087   2.067   1.837 -0.5903  0.0957 -0.2328
 3940SOL    HW123282   2.115   2.084   1.747 -1.0426 -1.4041 -0.6649
 3940SOL    HW223283   2.175   2.073   1.875  0.2288 -0.1155 -2.0631
 3941SOL     OW23284   0.173   0.114   3.743  0.1007  0.8232 -0.5948
 3941SOL    HW123285   0.267   0.107   3.756  0.2595  0.9711 -1.6628
 3941SOL    HW223286   0.167   0.052   3.670  0.4489 -0.5007  0.5069
 3942SOL     OW23287   0.528   1.469  16.090 -0.1426  0.1182 -0.0786
 3942SOL    HW123288   0.564   1.424  16.166 -0.0329  0.8277  0.2961
 3942SOL    HW223289   0.444   1.506  16.118 -1.1045 -1.3632 -1.0226
 3943SOL     OW23290   3.603   2.543   4.846  0.1376  0.4188  0.2303
 3943SOL    HW123291   3.633   2.475   4.786  0.5697  0.5799  0.2638
 3943SOL    HW223292   3.668   2.530   4.915 -1.0428 -2.4501  0.8341
 3944SOL     OW23293   3.162   0.760   5.272  0.4190 -0.1020 -0.3754
 3944SOL    HW123294   3.203   0.844   5.253  0.8727 -0.4028 -0.7065
 3944SOL    HW223295   3.097   0.751   5.202 -0.1974 -0.4756  0.2375
 3945SOL     OW23296   0.529   4.224   9.612  0.3981  0.3113 -0.8905
 3945SOL    HW123297   0.617   4.240   9.578  0.1501 -2.0578 -2.6810
 3945SOL    HW223298   0.528   4.129   9.599 -1.1772  0.3344 -1.0081
 3946SOL     OW23299   4.606   3.275   6.727  0.0013  0.0041 -0.5483
 3946SOL    HW123300   4.583   3.271   6.820  2.1384 -0.7681 -0.0521
 3946SOL    HW223301   4.541   3.208   6.702 -1.6561  1.2931  0.2852
 3947SOL     OW23302   3.789   4.363   4.037  0.0947  0.2421 -0.1556
 3947SOL    HW123303   3.827   4.406   3.960  2.7334 -0.9637  0.4548
 3947SOL    HW223304   3.808   4.269   4.030 -1.9822 -0.2233  0.4890
 3948SOL     OW23305   1.701   0.156  15.712  0.4770  0.3181 -0.1408
 3948SOL    HW123306   1.692   0.104  15.632  2.2752 -1.3594  0.7599
 3948SOL    HW223307   1.612   0.146  15.747  0.6893 -0.3569  0.2007
 3949SOL     OW23308   0.249   1.267  13.762  0.1200  0.0034 -0.5214
 3949SOL    HW123309   0.205   1.347  13.790  2.9806  1.6587 -0.7778
 3949SOL    HW223310   0.341   1.279  13.788 -0.5444  0.8166  1.4771
 3950SOL     OW23311   4.235   4.156   7.035 -0.8640 -0.1513 -0.1366
 3950SOL    HW123312   4.221   4.241   7.077 -0.6748  0.5005 -1.3867
 3950SOL    HW223313   4.281   4.107   7.102 -0.2043 -3.0054 -2.6731
 3951SOL     OW23314   3.089   3.224   1.951  0.3067  0.1397  0.1587
 3951SOL    HW123315   3.082   3.131   1.930  0.9825  0.3252 -0.9192
 3951SOL    HW223316   3.004   3.235   1.993  1.0065  1.0171  1.3629
 3952SOL     OW23317   2.715   1.945  15.553 -0.1350  0.0277  0.0102
 3952SOL    HW123318   2.627   1.909  15.562 -0.6170  1.1513 -0.2104
 3952SOL    HW223319   2.767   1.867  15.571  1.4261  1.1149  0.2999
 3953SOL     OW23320   4.060   2.716   0.115  0.0847  0.1377  0.1564
 3953SOL    HW123321   4.073   2.784   0.049 -0.8144  2.0038  1.9080
 3953SOL    HW223322   3.966   2.704   0.103  0.4004 -1.3105 -0.8121
 3954SOL     OW23323   4.519   4.549   5.462 -0.3824  0.4558 -0.2995
 3954SOL    HW123324   4.429   4.572   5.487  0.5556 -1.1569  4.5534
 3954SOL    HW223325   4.564   4.603   5.527 -0.4211  0.3594 -0.1922
 3955SOL     OW23326   2.970   3.847   7.004  0.0008 -0.1257 -0.2338
 3955SOL    HW123327   3.021   3.840   6.923 -0.3964  1.5047 -0.6356
 3955SOL    HW223328   2.956   3.756   7.030 -1.8401 -0.0091 -0.7712
 3956SOL     OW23329   1.929   3.349   7.524  0.0025 -0.0476 -0.3589
 3956SOL    HW123330   1.840   3.316   7.537 -0.1090 -0.1401 -1.3751
 3956SOL    HW223331   1.967   3.303   7.449  0.6686  0.0860 -0.1054
 3957SOL     OW23332   4.663   4.664   9.875  0.2160 -0.5491 -0.1933
 3957SOL    HW123333   4.592   4.608   9.845  1.6786 -1.2587 -2.3810
 3957SOL    HW223334   4.687   4.607   9.948  1.9797  0.5264  0.0879
 3958SOL     OW23335   4.612   2.009   7.022 -0.3350 -0.8221  0.1980
 3958SOL    HW123336   4.646   2.095   6.995  0.9549 -1.8091 -1.3472
 3958SOL    HW223337   4.693   1.959   7.033 -0.6660 -1.1973  0.8794
 3959SOL     OW23338   3.898   3.429   0.002  0.4475 -0.1204 -0.2080
 3959SOL    HW123339   3.803   3.440   0.013  0.6404  2.0361 -0.7053
 3959SOL    HW223340   3.933   3.480   0.075  1.4999 -0.7574 -0.2768
 3960SOL     OW23341   4.461   0.994  17.350  0.6334 -0.1330 -0.3595
 3960SOL    HW123342   4.372   1.005  17.315 -0.7465 -1.9679  2.4930
 3960SOL    HW223343   4.498   0.975  17.264  1.1893 -0.6685 -0.0032
 3961SOL     OW23344   1.488   3.845   5.069  0.1461  0.3823 -0.9615
 3961SOL    HW123345   1.413   3.875   5.120  0.6393 -1.2230  0.7112
 3961SOL    HW223346   1.513   3.780   5.135 -0.1684  0.7872 -0.4424
 3962SOL     OW23347   2.312   1.898   2.907 -0.0530 -0.2310  1.0318
 3962SOL    HW123348   2.343   1.989   2.910  1.4409 -0.7607  1.1461
 3962SOL    HW223349   2.386   1.846   2.938 -1.2383 -2.2358  0.5147
 3963SOL     OW23350   3.257   3.060  11.365 -0.2868  0.1592 -0.9627
 3963SOL    HW123351   3.254   3.149  11.400 -1.6585 -0.4641  0.5009
 3963SOL    HW223352   3.167   3.027  11.372 -0.4578  1.3761  2.7291
 3964SOL     OW23353   4.497   1.658  13.159 -0.1297 -0.3666 -0.0300
 3964SOL    HW123354   4.559   1.728  13.143 -1.3252  0.5983 -0.4621
 3964SOL    HW223355   4.489   1.617  13.072  2.0690  0.1741 -0.4856
 3965SOL     OW23356   1.564   1.036   6.822  0.4198 -0.0121  0.0082
 3965SOL    HW123357   1.582   0.953   6.779  0.3341 -0.3393  0.6119
 3965SOL    HW223358   1.498   1.008   6.885  0.3465 -1.5448 -0.7574
 3966SOL     OW23359   2.308   0.552   3.184 -0.2212 -0.2161 -0.5741
 3966SOL    HW123360   2.306   0.598   3.267  1.0831 -2.7507  0.8570
 3966SOL    HW223361   2.283   0.627   3.130 -1.9182 -0.7519 -0.5495
 3967SOL     OW23362   3.681   2.760   0.517  0.0972  0.0470  0.5127
 3967SOL    HW123363   3.686   2.777   0.423  1.2914 -0.2993  0.5065
 3967SOL    HW223364   3.766   2.797   0.542 -0.7044  1.7283  0.7652
 3968SOL     OW23365   1.768   1.225   8.751 -0.5429  0.4487  0.2540
 3968SOL    HW123366   1.732   1.253   8.666 -0.1078  1.0427  0.2598
 3968SOL    HW223367   1.729   1.291   8.809  1.1371  0.1723  1.6716
 3969SOL     OW23368   3.680   2.218   6.838  0.2007 -0.2498 -0.2690
 3969SOL    HW123369   3.763   2.263   6.854  0.4822 -0.9248  0.1211
 3969SOL    HW223370   3.693   2.176   6.753 -1.6737 -0.4035 -0.4758
 3970SOL     OW23371   4.666   0.945  12.134  0.1006 -0.1126  0.0139
 3970SOL    HW123372   4.622   0.868  12.099 -1.9947  0.2085  1.9755
 3970SOL    HW223373   4.676   0.909  12.222 -3.2603  2.8274  1.5883
 3971SOL     OW23374   2.428   2.069   0.426 -0.2072  0.9463 -0.2335
 3971SOL    HW123375   2.504   2.038   0.376 -0.0493  1.0135 -0.0324
 3971SOL    HW223376   2.442   2.033   0.513  0.7189 -1.1904 -1.2565
 3972SOL     OW23377   3.418   0.380   5.534 -0.1697  0.2219 -0.7412
 3972SOL    HW123378   3.395   0.345   5.619 -2.4619  2.0402 -0.6279
 3972SOL    HW223379   3.405   0.471   5.559 -1.5745 -0.4075  0.7850
 3973SOL     OW23380   1.323   2.968  10.157  0.3468 -0.0710  0.0271
 3973SOL    HW123381   1.275   3.046  10.185  2.6888  1.6125 -0.6738
 3973SOL    HW223382   1.399   3.014  10.122  0.0120  0.2212 -0.3200
 3974SOL     OW23383   0.415   3.332   6.070  0.4766  0.1982 -0.0873
 3974SOL    HW123384   0.412   3.407   6.010 -1.2086 -0.0145 -0.2927
 3974SOL    HW223385   0.338   3.292   6.029 -0.1919  1.0834  0.3068
 3975SOL     OW23386   2.366   2.091  12.698 -0.1200 -0.3689 -0.3085
 3975SOL    HW123387   2.456   2.125  12.689 -0.5543 -0.5862 -5.0887
 3975SOL    HW223388   2.353   2.096  12.793  2.2446  1.9694 -0.0974
 3976SOL     OW23389   0.154   4.189   4.398 -0.0927 -0.3606 -0.4355
 3976SOL    HW123390   0.211   4.183   4.476 -0.1821 -2.0788 -0.5139
 3976SOL    HW223391   0.189   4.269   4.359 -1.6789  0.8553  0.6290
 3977SOL     OW23392   4.713   0.917   2.536 -0.4350  0.2398  0.2402
 3977SOL    HW123393   4.691   0.979   2.466 -3.1250 -0.7928  0.1565
 3977SOL    HW223394   4.625   0.881   2.528 -0.0112 -0.6624 -0.2903
 3978SOL     OW23395   3.718   1.952  15.580 -1.1303 -0.7088  0.1767
 3978SOL    HW123396   3.765   1.968  15.498 -0.9999 -0.4101  0.3111
 3978SOL    HW223397   3.745   2.018  15.643  1.3394 -0.3115 -1.3052
 3979SOL     OW23398   2.458   2.401   2.780  0.5055 -0.0961 -0.1687
 3979SOL    HW123399   2.483   2.492   2.795  2.1306 -0.2069 -2.0875
 3979SOL    HW223400   2.526   2.376   2.717 -0.8098 -1.2055 -1.1463
 3980SOL     OW23401   1.543   1.022  14.738 -0.2334  0.1604  0.1071
 3980SOL    HW123402   1.561   1.111  14.768  0.1551  0.0551  0.1938
 3980SOL    HW223403   1.586   0.971  14.808  0.3430 -0.1715 -0.4858
 3981SOL     OW23404   1.490   0.737   9.901 -0.2321  0.2376 -0.0966
 3981SOL    HW123405   1.580   0.707   9.917 -0.1459  0.8179  0.5146
 3981SOL    HW223406   1.465   0.730   9.993 -1.0472  0.9833 -0.2712
 3982SOL     OW23407   4.302   3.824   6.811  0.6638 -0.4261 -0.3700
 3982SOL    HW123408   4.315   3.800   6.719  0.6330  0.7175 -0.6676
 3982SOL    HW223409   4.234   3.891   6.809  0.8232 -0.3154 -1.9062
 3983SOL     OW23410   2.277   2.376   4.392  0.6068  0.6761  0.0448
 3983SOL    HW123411   2.356   2.418   4.428  0.2315  2.4786 -1.2591
 3983SOL    HW223412   2.210   2.384   4.460 -0.8149  1.0369 -1.4274
 3984SOL     OW23413   0.791   1.765   5.698 -0.0919 -0.2155  0.4767
 3984SOL    HW123414   0.859   1.821   5.735  0.6363  0.0715 -1.3049
 3984SOL    HW223415   0.772   1.693   5.759 -0.7870 -0.4140  0.0190
 3985SOL     OW23416   0.400   2.421   0.241  0.1363  0.1771 -0.0968
 3985SOL    HW123417   0.431   2.500   0.198  1.8874 -0.2305  0.4291
 3985SOL    HW223418   0.323   2.400   0.187  1.0217 -0.3229 -1.1546
 3986SOL     OW23419   3.133   1.423  12.983  0.5658 -0.1078  0.2209
 3986SOL    HW123420   3.221   1.386  12.997  0.5773  0.2012  0.9631
 3986SOL    HW223421   3.149   1.475  12.904  0.2763  0.3947  0.4964
 3987SOL     OW23422   1.062   0.205   7.280 -0.1899  0.3095 -0.3610
 3987SOL    HW123423   1.152   0.181   7.255 -0.3026  0.6711 -1.1254
 3987SOL    HW223424   1.068   0.224   7.373 -1.2628  0.6546 -0.3636
 3988SOL     OW23425   0.361   2.532   0.667 -0.2952  0.0900 -0.1166
 3988SOL    HW123426   0.370   2.613   0.716 -0.0519  0.5507 -0.9199
 3988SOL    HW223427   0.283   2.568   0.624 -0.6205  0.1349  0.5149
 3989SOL     OW23428   3.981   2.328   4.984 -0.4540 -0.0948 -0.4377
 3989SOL    HW123429   4.074   2.326   5.007 -0.2376 -1.5248 -1.4673
 3989SOL    HW223430   3.985   2.269   4.910 -1.5486 -0.5349 -0.1355
 3990SOL     OW23431   3.784   3.694  16.071  0.2044  0.6598 -0.2597
 3990SOL    HW123432   3.716   3.747  16.029  0.6354  0.2914 -1.4441
 3990SOL    HW223433   3.761   3.603  16.055  1.2822 -0.0366  2.1918
 3991SOL     OW23434   3.654   0.366  14.445  0.7146  0.6061 -0.4025
 3991SOL    HW123435   3.725   0.333  14.502  1.9390 -0.7088 -2.7004
 3991SOL    HW223436   3.691   0.346  14.359  0.8526  0.7486 -0.3764
 3992SOL     OW23437   4.327   3.514   6.035  0.6390 -0.2295  0.8215
 3992SOL    HW123438   4.264   3.517   5.963  1.2881  0.5894  0.2729
 3992SOL    HW223439   4.295   3.571   6.104 -0.6033 -0.2329  0.2445
 3993SOL     OW23440   2.811   1.922  15.120  0.2272  0.3561 -0.2614
 3993SOL    HW123441   2.773   1.963  15.197  0.9279 -0.4208  0.4981
 3993SOL    HW223442   2.806   1.999  15.064  1.2982  1.3821  1.0713
 3994SOL     OW23443   0.592   2.222   7.691 -0.1505 -0.6102  0.3490
 3994SOL    HW123444   0.502   2.235   7.661 -0.5708  0.0027  1.8637
 3994SOL    HW223445   0.570   2.171   7.769  0.4826  0.4983  1.2632
 3995SOL     OW23446   3.804   2.116  13.496 -0.3236 -0.2422  0.3296
 3995SOL    HW123447   3.812   2.204  13.459  0.0434  0.4035  1.9281
 3995SOL    HW223448   3.863   2.117  13.572  0.7481 -1.0331 -0.4892
 3996SOL     OW23449   2.341   2.011   4.630 -0.3955  0.2069  0.7659
 3996SOL    HW123450   2.246   2.008   4.637 -0.5845  1.4943 -1.0326
 3996SOL    HW223451   2.359   2.097   4.668 -0.8239  0.8709 -0.5123
 3997SOL     OW23452   1.361   2.185  14.692 -0.3144 -0.1838  0.0129
 3997SOL    HW123453   1.410   2.235  14.625 -0.6954 -1.8247 -1.4986
 3997SOL    HW223454   1.409   2.102  14.693 -0.9824 -0.5905 -1.5313
 3998SOL     OW23455   2.185   1.205   3.050  0.0787 -0.2081 -0.0183
 3998SOL    HW123456   2.262   1.171   3.004  1.3968  1.5640  0.8816
 3998SOL    HW223457   2.116   1.144   3.023 -0.2243 -0.4091  1.2294
 3999SOL     OW23458   3.449   4.197   2.354 -0.4150  0.5371  0.5010
 3999SOL    HW123459   3.465   4.107   2.383  1.1644  0.1174 -1.6302
 3999SOL    HW223460   3.359   4.215   2.381 -1.6849 -1.0412 -2.6311
 4000SOL     OW23461   2.386   0.918   8.934  0.4964  0.1162 -0.6285
 4000SOL    HW123462   2.404   0.915   8.840  0.3422 -0.9619 -0.6138
 4000SOL    HW223463   2.473   0.897   8.969 -0.5340 -0.6296  1.4815
 4001SOL     OW23464   3.635   3.268   5.230 -0.9508 -0.3544 -0.0501
 4001SOL    HW123465   3.678   3.279   5.146 -0.7735  2.2204  0.3894
 4001SOL    HW223466   3.650   3.354   5.268  0.4962 -0.4245 -0.4414
 4002SOL     OW23467   3.061   2.187   5.654 -0.1614  0.2060  0.3798
 4002SOL    HW123468   2.981   2.152   5.692 -1.4665  3.2217  0.4044
 4002SOL    HW223469   3.033   2.267   5.609  0.2031 -0.4018 -0.9203
 4003SOL     OW23470   1.399   0.241   9.116  0.2616  0.3904  0.0345
 4003SOL    HW123471   1.410   0.153   9.152 -0.9684 -0.3785 -1.4712
 4003SOL    HW223472   1.446   0.237   9.032 -0.0862  1.6689 -0.2209
 4004SOL     OW23473   1.366   3.678  11.300 -0.1401 -0.0818  0.5871
 4004SOL    HW123474   1.450   3.652  11.263  0.0544 -0.7464  1.5151
 4004SOL    HW223475   1.327   3.719  11.222  2.7913  1.3400 -0.1392
 4005SOL     OW23476   4.023   1.113  13.464  0.6015  0.0425 -0.8747
 4005SOL    HW123477   4.085   1.042  13.484  0.3491  0.1928  0.4779
 4005SOL    HW223478   4.002   1.148  13.551 -0.9684 -2.3532 -0.2824
 4006SOL     OW23479   3.336   1.523   3.263 -0.3521 -0.7831 -0.1635
 4006SOL    HW123480   3.255   1.558   3.226  1.2857  2.1294 -0.9823
 4006SOL    HW223481   3.365   1.600   3.312  0.2896  0.5252 -2.6171
 4007SOL     OW23482   2.856   1.237  14.721 -0.4598 -0.0283 -0.1174
 4007SOL    HW123483   2.850   1.310  14.782  0.4985  0.1022 -0.1790
 4007SOL    HW223484   2.795   1.265  14.652 -1.5180  1.3552  1.4054
 4008SOL     OW23485   2.433   1.046   6.926 -0.7332  0.2236  0.1603
 4008SOL    HW123486   2.431   1.060   6.831  1.4967 -2.2324 -0.2720
 4008SOL    HW223487   2.371   0.973   6.926  1.1423 -1.3639  0.2356
 4009SOL     OW23488   4.429   0.185   9.860  0.1120 -0.3957 -0.7641
 4009SOL    HW123489   4.480   0.217   9.934 -0.6960  0.4554 -0.5757
 4009SOL    HW223490   4.353   0.163   9.913  0.4153  0.2305 -0.0632
 4010SOL     OW23491   0.764   2.291   7.014  0.3678  0.1452 -0.7126
 4010SOL    HW123492   0.780   2.290   7.108 -1.7514  0.2869 -0.3671
 4010SOL    HW223493   0.828   2.224   6.987  0.7432  0.7066 -1.2077
 4011SOL     OW23494   3.635   2.036   1.066  0.3623 -0.2984 -0.0649
 4011SOL    HW123495   3.710   2.039   1.007  1.0047 -1.4404  0.6829
 4011SOL    HW223496   3.579   1.975   1.018  1.0764 -0.8066 -0.2422
 4012SOL     OW23497   3.304   0.503   7.704 -0.0490  0.1464 -0.2908
 4012SOL    HW123498   3.323   0.411   7.684 -0.6710 -0.6733  2.9170
 4012SOL    HW223499   3.392   0.539   7.699  0.6930 -1.2749  2.3719
 4013SOL     OW23500   4.648   4.353  14.987  0.0137 -0.1387  0.0315
 4013SOL    HW123501   4.632   4.268  15.029  0.7105  0.2633  1.1245
 4013SOL    HW223502   4.558   4.371  14.960  0.6083  3.6047  0.5408
 4014SOL     OW23503   2.293   4.252   4.481  0.3436  0.1866 -0.1925
 4014SOL    HW123504   2.328   4.300   4.406  1.1677 -1.5588 -0.9490
 4014SOL    HW223505   2.321   4.308   4.552  1.2268  0.1566 -0.5111
 4015SOL     OW23506   3.038   1.950  13.804  0.5471  0.5888  0.3399
 4015SOL    HW123507   3.055   1.882  13.868 -0.8074 -0.2650 -0.2137
 4015SOL    HW223508   2.983   1.899  13.745  1.7604  1.4256 -1.5361
 4016SOL     OW23509   0.205   3.750   7.295 -0.4233  0.0351 -0.2027
 4016SOL    HW123510   0.160   3.794   7.367  0.7387 -0.3922  0.7754
 4016SOL    HW223511   0.169   3.790   7.216  0.8187  1.1360 -0.2000
 4017SOL     OW23512   3.748   0.405   9.202  0.3312  0.0069  0.2474
 4017SOL    HW123513   3.814   0.464   9.165  0.6837 -2.8251 -3.6262
 4017SOL    HW223514   3.683   0.398   9.132  1.3178 -0.7656 -0.6032
 4018SOL     OW23515   2.738   0.821  17.570  0.3363  0.3359 -0.5707
 4018SOL    HW123516   2.833   0.832  17.577  0.4923 -1.9259  1.1995
 4018SOL    HW223517   2.732   0.733  17.532 -0.9504 -0.2915  1.0239
 4019SOL     OW23518   3.834   4.707   3.224  0.5378 -0.5993 -0.3250
 4019SOL    HW123519   3.835   4.719   3.319  0.5535  0.5270 -0.4641
 4019SOL    HW223520   3.751   0.028   3.197  1.1126  0.4853 -0.4196
 4020SOL     OW23521   3.004   0.132   7.087 -0.5877  0.9323  0.0112
 4020SOL    HW123522   3.093   0.130   7.124 -0.6566 -2.4443 -0.0455
 4020SOL    HW223523   3.010   0.045   7.048 -3.0080  0.4569  0.7000
 4021SOL     OW23524   4.193   0.326   4.820 -0.0838 -0.4987  0.1939
 4021SOL    HW123525   4.209   0.344   4.913  1.9722 -0.6184 -0.1203
 4021SOL    HW223526   4.280   0.295   4.796 -0.6628 -1.3900 -0.7064
 4022SOL     OW23527   1.482   4.176   0.736 -0.2825  0.1507 -0.0444
 4022SOL    HW123528   1.496   4.102   0.796  0.4029 -0.0391 -0.4394
 4022SOL    HW223529   1.542   4.242   0.771  0.8322  0.2900 -2.2056
 4023SOL     OW23530   1.672   1.297   5.465  0.5394 -0.2920  0.3179
 4023SOL    HW123531   1.637   1.383   5.443  0.6438 -0.5266 -0.7977
 4023SOL    HW223532   1.598   1.265   5.517 -0.8460 -1.0336 -2.1116
 4024SOL     OW23533   0.460   0.775   8.033 -0.6906  0.0621  0.2479
 4024SOL    HW123534   0.419   0.861   8.026 -1.7818 -0.6759 -2.5437
 4024SOL    HW223535   0.421   0.748   8.117 -1.0847  1.0325  0.3808
 4025SOL     OW23536   2.369   2.483   2.358 -0.2882 -0.2649 -0.4187
 4025SOL    HW123537   2.325   2.404   2.328 -0.3898 -0.3775  0.0331
 4025SOL    HW223538   2.380   2.460   2.451  0.8026 -0.5354 -0.6119
 4026SOL     OW23539   3.543   1.498   5.106  0.7482 -0.3693  0.3628
 4026SOL    HW123540   3.455   1.518   5.139  1.3379  2.4013  0.2203
 4026SOL    HW223541   3.538   1.525   5.015  1.1141 -4.0299 -0.7301
 4027SOL     OW23542   0.436   0.010   9.953  0.6197  0.2156 -0.1452
 4027SOL    HW123543   0.353   4.709   9.995 -0.7000  3.7210 -0.9512
 4027SOL    HW223544   0.417   4.689   9.868 -2.4674  0.5254  0.3870
 4028SOL     OW23545   1.629   1.783  11.863  0.0637 -0.3538 -0.4149
 4028SOL    HW123546   1.654   1.809  11.774  0.6311  0.1047 -0.1231
 4028SOL    HW223547   1.561   1.849  11.874  0.7449 -0.3138  3.6260
 4029SOL     OW23548   4.679   1.214   6.049  0.0910 -0.4225 -0.0572
 4029SOL    HW123549   0.021   1.147   6.019 -0.2539 -0.3591 -0.8990
 4029SOL    HW223550   4.641   1.158   6.117  0.2426 -1.9644 -1.2433
 4030SOL     OW23551   1.782   0.669  16.487 -0.0252 -0.3244  0.2002
 4030SOL    HW123552   1.840   0.742  16.508  0.2477 -0.9925  1.7224
 4030SOL    HW223553   1.733   0.671  16.569  0.5619 -0.6985  0.5591
 4031SOL     OW23554   1.454   1.385   2.524 -0.4634 -0.1823  0.2152
 4031SOL    HW123555   1.544   1.399   2.555 -0.5471 -0.3217  0.5155
 4031SOL    HW223556   1.417   1.466   2.559 -0.1245  1.6762 -3.6850
 4032SOL     OW23557   4.466   0.581   0.515 -0.0037 -0.4166 -0.6509
 4032SOL    HW123558   4.515   0.505   0.483  1.4016  0.4410 -0.5650
 4032SOL    HW223559   4.502   0.586   0.604  0.2331  3.3701 -0.9851
 4033SOL     OW23560   0.179   0.014   7.338 -0.7467  0.2481 -0.2943
 4033SOL    HW123561   0.139   0.003   7.252  0.4854 -2.6873 -0.4668
 4033SOL    HW223562   0.272   0.007   7.314 -0.9225 -0.1577 -0.8326
 4034SOL     OW23563   2.317   0.064   2.118  0.5677 -0.0688  0.3598
 4034SOL    HW123564   2.307   4.689   2.102 -0.6726  0.2541 -0.7041
 4034SOL    HW223565   2.343   0.097   2.032  0.9616 -2.0914 -0.3007
 4035SOL     OW23566   3.455   2.746   8.252  0.2903 -0.1285  0.1485
 4035SOL    HW123567   3.427   2.782   8.336 -2.7538  0.6256 -1.2110
 4035SOL    HW223568   3.542   2.712   8.275 -0.3700 -2.4641 -0.7847
 4036SOL     OW23569   0.740   2.918  16.124  0.3120  0.3014  0.1669
 4036SOL    HW123570   0.664   2.973  16.102  0.4600  0.9327  1.2285
 4036SOL    HW223571   0.791   2.929  16.045  2.0716 -0.8014  1.1417
 4037SOL     OW23572   2.818   2.194   3.770 -0.0438 -0.2771  0.1309
 4037SOL    HW123573   2.818   2.249   3.848  0.6849 -0.9607  0.6068
 4037SOL    HW223574   2.723   2.179   3.762 -0.1032  0.6447 -0.7653
 4038SOL     OW23575   4.267   2.194   5.527 -0.0399  0.0503  0.8682
 4038SOL    HW123576   4.242   2.268   5.470 -1.9029 -0.7792  0.6277
 4038SOL    HW223577   4.362   2.188   5.517 -0.5232 -3.4436 -1.4621
 4039SOL     OW23578   0.126   0.302   6.418 -0.7176  0.9223  0.7175
 4039SOL    HW123579   0.158   0.224   6.374 -4.0622  1.4231 -2.6487
 4039SOL    HW223580   0.156   0.372   6.359 -0.8651 -0.0688 -0.5309
 4040SOL     OW23581   4.067   0.099  11.581 -0.3051  0.2946  0.2230
 4040SOL    HW123582   4.071   0.067  11.671  0.7280 -1.6001 -0.4854
 4040SOL    HW223583   4.062   0.014  11.536 -1.0610 -1.1990  3.1020
 4041SOL     OW23584   1.942   0.465   4.843  0.8519 -0.7131 -0.2144
 4041SOL    HW123585   2.007   0.520   4.799  2.9779 -2.2681  1.0116
 4041SOL    HW223586   1.995   0.386   4.854  2.7983  0.5815 -0.4853
 4042SOL     OW23587   2.618   1.554   6.399  0.2712  0.0091 -0.8246
 4042SOL    HW123588   2.586   1.464   6.405 -1.9859  1.0078  2.1431
 4042SOL    HW223589   2.690   1.552   6.462  0.4110  1.3883 -0.9551
 4043SOL     OW23590   4.644   2.129  10.822 -0.2144 -0.2078 -0.1375
 4043SOL    HW123591   4.648   2.135  10.726 -0.4846  0.4437 -0.1050
 4043SOL    HW223592   4.719   2.185  10.841  0.8520 -1.6587 -0.0199
 4044SOL     OW23593   3.507   1.700   5.386 -0.3066 -0.4756  0.2213
 4044SOL    HW123594   3.487   1.735   5.473  0.3321  0.6308 -0.0691
 4044SOL    HW223595   3.554   1.620   5.410 -2.2595 -0.9763  2.3798
 4045SOL     OW23596   1.725   3.141   5.166  0.3623  0.2282  0.0663
 4045SOL    HW123597   1.733   3.211   5.100  1.5539  0.0189 -0.0092
 4045SOL    HW223598   1.632   3.148   5.186  0.3465 -0.4061  0.1864
 4046SOL     OW23599   1.299   3.592   6.532  0.0708  0.7169  0.2880
 4046SOL    HW123600   1.343   3.597   6.446  1.1019 -1.2183  0.7172
 4046SOL    HW223601   1.268   3.502   6.525 -0.4060  0.9754 -0.9356
 4047SOL     OW23602   2.783   4.386   3.090 -0.0829 -0.5464 -0.1806
 4047SOL    HW123603   2.788   4.480   3.105 -0.6176 -0.4224 -0.8044
 4047SOL    HW223604   2.813   4.350   3.174  2.0630  1.8256  0.0658
 4048SOL     OW23605   4.242   3.557   9.101  0.2061 -0.2924  0.4258
 4048SOL    HW123606   4.336   3.551   9.087  0.3605  2.6580  0.3170
 4048SOL    HW223607   4.213   3.527   9.014 -3.1064 -0.2729  1.5093
 4049SOL     OW23608   1.685   1.063   3.422 -0.4229 -0.4793  0.5163
 4049SOL    HW123609   1.610   1.018   3.381 -1.5564  2.2619 -0.4247
 4049SOL    HW223610   1.645   1.150   3.422 -2.6011 -1.4411 -3.9248
 4050SOL     OW23611   3.244   1.416   1.267 -0.1718 -0.1645 -0.1101
 4050SOL    HW123612   3.256   1.326   1.296 -1.8885  0.1773  1.6616
 4050SOL    HW223613   3.327   1.438   1.225  0.8090 -1.6256  1.0761
 4051SOL     OW23614   3.587   2.511   0.604  0.1042  0.1020  0.0974
 4051SOL    HW123615   3.678   2.491   0.584  0.3701 -0.1925  1.6250
 4051SOL    HW223616   3.597   2.607   0.605  0.9413  0.0154  0.0299
 4052SOL     OW23617   4.249   2.819   4.553 -0.0007  0.7864  0.0932
 4052SOL    HW123618   4.286   2.907   4.544 -0.6917  1.0709  0.0100
 4052SOL    HW223619   4.317   2.771   4.600  0.0446  0.5483 -0.2148
 4053SOL     OW23620   0.453   0.018  16.187 -0.0553  0.0048  0.5129
 4053SOL    HW123621   0.538   4.701  16.211  1.3467  2.7308 -0.2755
 4053SOL    HW223622   0.445   0.077  16.261 -1.4533  2.0340 -1.2488
 4054SOL     OW23623   4.040   3.852   6.360 -0.2741 -0.1211  0.6561
 4054SOL    HW123624   3.973   3.804   6.311  0.2074  1.0543 -1.1339
 4054SOL    HW223625   4.002   3.939   6.346  0.3226  0.0826  0.3197
 4055SOL     OW23626   3.387   1.846   4.301  0.0329 -0.0241 -0.7061
 4055SOL    HW123627   3.375   1.757   4.334  0.0903 -0.9559 -3.1844
 4055SOL    HW223628   3.332   1.900   4.359 -0.4078 -0.4127 -0.7684
 4056SOL     OW23629   0.502   4.621   0.271  0.0369  0.5344  0.4139
 4056SOL    HW123630   0.442   4.566   0.322 -0.2797  1.8550  1.4814
 4056SOL    HW223631   0.582   4.580   0.304 -0.2168 -0.9672 -0.8427
 4057SOL     OW23632   1.857   2.126  12.692  0.2854  0.5325 -0.0238
 4057SOL    HW123633   1.942   2.167  12.677 -0.4734  1.5455 -1.4868
 4057SOL    HW223634   1.830   2.182  12.765 -0.5660  1.1373 -0.8078
 4058SOL     OW23635   3.667   3.623   1.817  0.5716 -0.2481  0.2584
 4058SOL    HW123636   3.736   3.583   1.870  0.4805  0.7621  1.1438
 4058SOL    HW223637   3.597   3.570   1.855 -2.0053  1.8558 -1.4734
 4059SOL     OW23638   1.864   3.323  15.135 -0.7633 -0.1324 -0.3570
 4059SOL    HW123639   1.932   3.376  15.175 -0.9362  0.3040 -0.6324
 4059SOL    HW223640   1.843   3.376  15.058 -4.1145  2.6060  2.3806
 4060SOL     OW23641   0.825   4.053   8.630 -0.4747  0.2206 -0.0243
 4060SOL    HW123642   0.868   3.967   8.628  0.0632  0.4982 -0.3646
 4060SOL    HW223643   0.889   4.112   8.589 -0.9258  3.0678  3.3373
 4061SOL     OW23644   0.467   2.844   7.022 -0.1535  0.4297 -0.1174
 4061SOL    HW123645   0.553   2.818   6.989  0.8081  0.3385  2.4357
 4061SOL    HW223646   0.503   2.926   7.057  0.4690  0.3964 -0.6864
 4062SOL     OW23647   2.033   1.498  15.236 -0.1853  0.1752 -0.0400
 4062SOL    HW123648   1.950   1.506  15.188 -0.1531  1.4496  0.1138
 4062SOL    HW223649   2.079   1.431  15.185 -0.4762 -0.6152  0.7480
 4063SOL     OW23650   0.163   2.008  16.499 -0.1130  0.6169  0.4170
 4063SOL    HW123651   0.193   2.098  16.490  1.2316  0.2924  1.6961
 4063SOL    HW223652   0.095   2.000  16.432 -1.5707 -0.2099  2.0032
 4064SOL     OW23653   2.361   1.987   2.126  0.6320  0.1598  0.0605
 4064SOL    HW123654   2.304   1.929   2.075 -1.1008 -2.3803  4.9371
 4064SOL    HW223655   2.438   1.999   2.070  1.1551  1.5163  1.0591
 4065SOL     OW23656   3.957   0.724   2.354 -0.2952  0.7345 -0.6903
 4065SOL    HW123657   3.914   0.795   2.306  0.9292  1.7604 -0.2509
 4065SOL    HW223658   3.920   0.736   2.441 -0.1742  3.5296 -1.0179
 4066SOL     OW23659   3.437   4.243   3.032 -0.3214  0.1662 -0.4223
 4066SOL    HW123660   3.462   4.150   3.036  0.0785  0.2240 -1.5100
 4066SOL    HW223661   3.520   4.289   3.019 -0.8718  0.3224 -3.4860
 4067SOL     OW23662   2.622   1.268   8.263 -0.2023  0.8404  0.3533
 4067SOL    HW123663   2.655   1.192   8.311  1.5425  1.7038  0.4959
 4067SOL    HW223664   2.677   1.272   8.185  1.0225 -0.3771  1.1427
 4068SOL     OW23665   1.148   0.142  15.558  0.2109 -0.0818  0.0054
 4068SOL    HW123666   1.146   0.077  15.487 -0.8759 -0.0071 -0.0331
 4068SOL    HW223667   1.241   0.157  15.545  0.3571 -0.9965  0.0075
 4069SOL     OW23668   3.970   3.009   9.571 -0.2669  0.4387 -0.3959
 4069SOL    HW123669   3.882   3.036   9.542 -1.1352 -0.6569  1.2141
 4069SOL    HW223670   4.016   3.091   9.549  1.3473 -0.6434 -1.0044
 4070SOL     OW23671   2.580   1.959  12.338 -0.1010 -0.2159 -0.1473
 4070SOL    HW123672   2.506   2.009  12.305  0.0560 -0.2346 -0.5307
 4070SOL    HW223673   2.618   1.941  12.252 -0.1245  0.7544 -0.3578
 4071SOL     OW23674   1.502   2.543   8.341  0.2668 -0.1531 -0.8253
 4071SOL    HW123675   1.482   2.633   8.315 -2.1452 -0.9850 -1.7885
 4071SOL    HW223676   1.413   2.507   8.343  0.1853  0.1220  1.0765
 4072SOL     OW23677   1.711   2.849   2.994 -0.6607 -0.3985  0.0456
 4072SOL    HW123678   1.718   2.770   3.048  2.4735 -0.9650 -1.1931
 4072SOL    HW223679   1.667   2.810   2.919  0.9549 -1.8879 -0.1395
 4073SOL     OW23680   3.225   3.682  11.280  0.2080 -0.0876 -0.0860
 4073SOL    HW123681   3.170   3.705  11.355  0.7603 -1.1057  0.6219
 4073SOL    HW223682   3.165   3.713  11.212 -0.4185  2.5022  1.6851
 4074SOL     OW23683   3.905   3.152  15.803  0.6492 -0.5361  0.3879
 4074SOL    HW123684   3.982   3.180  15.852  1.3371  1.5988 -1.9276
 4074SOL    HW223685   3.924   3.184  15.715 -3.8684 -0.5519 -0.6294
 4075SOL     OW23686   2.555   3.894   4.931  0.4037 -0.0493 -0.0913
 4075SOL    HW123687   2.460   3.887   4.933  0.6192 -2.8332  1.6392
 4075SOL    HW223688   2.580   3.828   4.996 -0.6744  0.4979  0.8814
 4076SOL     OW23689   0.464   3.830   3.903  0.1515  0.2742  0.5894
 4076SOL    HW123690   0.404   3.777   3.850  1.9874 -2.6165  1.4180
 4076SOL    HW223691   0.401   3.888   3.946 -2.1402 -1.2571 -0.6421
 4077SOL     OW23692   0.215   4.249   3.473  0.7325 -0.2156  0.1003
 4077SOL    HW123693   0.254   4.162   3.483  1.1303 -0.2408 -1.6429
 4077SOL    HW223694   0.267   4.290   3.403 -1.4211  2.2131 -0.0785
 4078SOL     OW23695   2.947   2.455  17.084 -0.3002  0.0760  0.4149
 4078SOL    HW123696   2.990   2.492  17.008 -0.2976  0.1648  0.4601
 4078SOL    HW223697   2.943   2.361  17.063  0.9599 -0.0542  0.7920
 4079SOL     OW23698   1.872   4.328  15.700 -0.2070 -0.4177 -0.2096
 4079SOL    HW123699   1.796   4.283  15.737 -0.0490 -0.3896  0.1416
 4079SOL    HW223700   1.921   4.342  15.781 -1.7550  1.2701  0.4360
 4080SOL     OW23701   2.150   0.373   3.673  0.0269 -0.2545  0.3805
 4080SOL    HW123702   2.178   0.433   3.742  0.6004  0.2063 -0.2460
 4080SOL    HW223703   2.232   0.341   3.635 -0.6074 -0.3869 -0.9102
 4081SOL     OW23704   1.798   0.391   3.182 -0.5072  0.2472 -0.5507
 4081SOL    HW123705   1.892   0.410   3.178 -0.2079 -0.9061  0.7432
 4081SOL    HW223706   1.797   0.354   3.270  3.5034  1.0655 -0.1502
 4082SOL     OW23707   2.653   0.224   4.282 -0.1865 -0.3305  0.1387
 4082SOL    HW123708   2.559   0.224   4.262  0.0902  2.2660 -1.0871
 4082SOL    HW223709   2.652   0.319   4.291 -0.6260 -0.1897 -1.5468
 4083SOL     OW23710   2.477   2.468  11.369  0.5402 -0.4378 -0.6683
 4083SOL    HW123711   2.472   2.384  11.415 -1.1215  0.0367  0.0374
 4083SOL    HW223712   2.566   2.490  11.395  1.3646 -2.4226 -1.8367
 4084SOL     OW23713   1.733   3.405   8.305 -0.3449 -0.4252  0.4203
 4084SOL    HW123714   1.818   3.446   8.291  0.9833 -1.9415  3.8636
 4084SOL    HW223715   1.677   3.464   8.254  0.6140  0.8998  0.9017
 4085SOL     OW23716   1.304   4.553  15.184  0.4426  0.3766  0.3376
 4085SOL    HW123717   1.257   4.559  15.267  0.0972  0.1595  0.1559
 4085SOL    HW223718   1.339   4.641  15.168 -1.0381  0.3206 -3.1577
 4086SOL     OW23719   2.444   4.194   1.089 -0.7498  0.4381  0.2948
 4086SOL    HW123720   2.377   4.205   1.021 -0.2529 -1.2772 -0.4948
 4086SOL    HW223721   2.389   4.135   1.142 -0.4674 -0.8520 -0.8266
 4087SOL     OW23722   2.452   2.920  11.811  0.0045 -0.3351  0.8967
 4087SOL    HW123723   2.544   2.946  11.814  0.1824 -0.7057 -1.2357
 4087SOL    HW223724   2.439   2.948  11.721 -2.0514  0.6433  1.5048
 4088SOL     OW23725   3.284   0.114   5.090  0.4438  0.1554 -0.1397
 4088SOL    HW123726   3.202   0.077   5.120  0.8477 -0.2636  0.4450
 4088SOL    HW223727   3.251   0.186   5.036 -0.4572 -1.0814 -1.2343
 4089SOL     OW23728   3.073   2.481   8.123  0.2185  0.5490  0.1248
 4089SOL    HW123729   3.082   2.471   8.218 -0.7742 -2.1471 -0.0949
 4089SOL    HW223730   3.141   2.548   8.115  0.2575  0.5917  0.8297
 4090SOL     OW23731   0.599   3.261   2.239 -0.5681  0.0628  0.1121
 4090SOL    HW123732   0.609   3.290   2.149  1.4378  2.6707  1.1902
 4090SOL    HW223733   0.636   3.172   2.239  0.8369  0.6310  2.0045
 4091SOL     OW23734   3.968   2.526   2.680  0.2473  0.3273 -0.1768
 4091SOL    HW123735   3.949   2.605   2.628  0.1520 -0.3478 -1.1651
 4091SOL    HW223736   3.981   2.460   2.612  0.7370 -0.5953  0.8246
 4092SOL     OW23737   0.987   2.898  11.435 -0.0391  0.1384 -0.5673
 4092SOL    HW123738   0.939   2.961  11.382  1.2339  0.1147 -1.7356
 4092SOL    HW223739   1.041   2.864  11.365 -0.9438 -1.8894 -0.2896
 4093SOL     OW23740   4.511   2.237  12.363 -0.3092 -0.1711  0.1794
 4093SOL    HW123741   4.470   2.161  12.404  0.9925 -0.2669  1.2870
 4093SOL    HW223742   4.493   2.221  12.270 -0.9692 -1.8751  0.6015
 4094SOL     OW23743   0.832   4.339   6.286  0.5326  0.4274  0.1303
 4094SOL    HW123744   0.907   4.396   6.269  0.5507  0.4279  0.2137
 4094SOL    HW223745   0.769   4.409   6.303  0.1161  0.3450 -1.0676
 4095SOL     OW23746   0.496   1.641   6.358  0.4815 -0.4140 -0.1797
 4095SOL    HW123747   0.542   1.720   6.386 -2.1466  2.0526 -2.7766
 4095SOL    HW223748   0.541   1.593   6.427  0.3728  0.4399  0.4806
 4096SOL     OW23749   0.736   2.972   5.818  0.0893 -0.0815  0.8122
 4096SOL    HW123750   0.727   2.973   5.723 -0.2497 -0.2973  0.8407
 4096SOL    HW223751   0.776   3.057   5.838  2.6348 -0.8609 -1.1054
 4097SOL     OW23752   3.727   0.140   5.039 -0.1596  0.4154  0.1087
 4097SOL    HW123753   3.665   0.074   5.009 -1.0396  0.8125  1.0730
 4097SOL    HW223754   3.687   0.149   5.125  0.6813  0.8571  0.4495
 4098SOL     OW23755   1.480   4.252   4.425  0.2013 -0.2931 -0.3387
 4098SOL    HW123756   1.526   4.169   4.414  1.1661  0.3728 -1.2769
 4098SOL    HW223757   1.396   4.209   4.444  0.6301 -1.2318 -0.5713
 4099SOL     OW23758   0.055   3.878  17.591  0.0023 -0.1102 -1.1348
 4099SOL    HW123759   0.132   3.823  17.575 -0.0857 -0.7680  0.6719
 4099SOL    HW223760   0.086   3.914  17.674  2.0096  1.8818 -2.7324
 4100SOL     OW23761   4.005   4.708   5.628 -0.2768  0.0774  0.9777
 4100SOL    HW123762   3.916   4.706   5.593  0.8035 -0.5562 -1.6537
 4100SOL    HW223763   4.003   4.616   5.652  3.8984 -0.1742  0.3384
 4101SOL     OW23764   4.036   0.883   2.838 -0.3683  0.2014  0.1498
 4101SOL    HW123765   4.048   0.891   2.933  2.8863  0.4546 -0.2696
 4101SOL    HW223766   4.118   0.911   2.796 -0.0699 -0.1536  0.5045
 4102SOL     OW23767   3.577   3.885  12.007  0.6659 -0.0503 -0.5348
 4102SOL    HW123768   3.482   3.890  12.005  0.6954 -1.6167 -4.1276
 4102SOL    HW223769   3.595   3.910  11.917 -0.3145 -0.9967 -0.9767
 4103SOL     OW23770   1.517   3.277   6.656 -0.1465  0.4927 -0.2100
 4103SOL    HW123771   1.582   3.269   6.586  0.8419 -1.2295  0.9184
 4103SOL    HW223772   1.434   3.298   6.613 -0.2124 -2.6882 -1.6169
 4104SOL     OW23773   0.575   3.010  12.737  0.2609  0.3954  0.6484
 4104SOL    HW123774   0.613   3.090  12.701 -0.6346  1.8731  3.0144
 4104SOL    HW223775   0.496   2.996  12.685  1.3078 -1.4585 -0.4260
 4105SOL     OW23776   3.420   2.980   1.347 -0.0864  0.8036  0.7443
 4105SOL    HW123777   3.352   3.026   1.397  0.8066  0.5720  2.1989
 4105SOL    HW223778   3.391   2.889   1.349 -3.1468  1.7735  0.5200
 4106SOL     OW23779   3.767   1.312  12.359 -0.2501 -0.2093  0.0978
 4106SOL    HW123780   3.852   1.311  12.316  0.5509 -0.5805  1.6987
 4106SOL    HW223781   3.788   1.268  12.441 -1.7296 -0.5189  0.3087
 4107SOL     OW23782   2.513   2.898   7.630  0.0434  0.1585 -0.3340
 4107SOL    HW123783   2.547   2.964   7.568  1.9393 -0.7820 -0.3083
 4107SOL    HW223784   2.460   2.856   7.562  0.5118  0.5110 -0.9247
 4108SOL     OW23785   0.542   0.527   4.036  0.3921 -0.2270  0.9061
 4108SOL    HW123786   0.537   0.591   4.107  1.0365 -1.6207  2.2020
 4108SOL    HW223787   0.488   0.578   3.975  3.4677  0.9886 -0.7847
 4109SOL     OW23788   3.786   3.094   1.789  0.1822 -0.1958  0.3540
 4109SOL    HW123789   3.732   3.089   1.711 -1.5263 -1.4705  1.6343
 4109SOL    HW223790   3.857   3.034   1.765 -0.9184 -1.5612  0.5585
 4110SOL     OW23791   2.946   0.354   3.125  0.5750  0.4822 -0.1480
 4110SOL    HW123792   2.860   0.383   3.154  0.0608 -1.5444  0.4047
 4110SOL    HW223793   3.002   0.363   3.202 -0.4550  1.2271  0.5098
 4111SOL     OW23794   1.499   0.338   7.765  0.2166 -0.0970 -0.0295
 4111SOL    HW123795   1.540   0.388   7.835 -1.6224  1.2176  0.1202
 4111SOL    HW223796   1.575   0.284   7.746 -1.1395 -2.3654  1.0547
 4112SOL     OW23797   1.316   1.736   7.275  0.3452 -0.2187 -0.2233
 4112SOL    HW123798   1.320   1.737   7.370  3.4854  1.2816 -0.3560
 4112SOL    HW223799   1.223   1.750   7.257  0.5410  0.0442 -1.0401
 4113SOL     OW23800   2.383   2.044   7.704  0.0295 -0.5416  0.8061
 4113SOL    HW123801   2.413   1.958   7.731  0.4502 -0.9531 -0.9854
 4113SOL    HW223802   2.305   2.015   7.658  1.5240 -0.2880 -1.9309
 4114SOL     OW23803   3.324   3.620  12.821  1.0019  0.5115 -0.3160
 4114SOL    HW123804   3.313   3.675  12.900 -0.8299  0.3286 -0.4262
 4114SOL    HW223805   3.233   3.605  12.793  1.1316 -0.0078 -0.4399
 4115SOL     OW23806   1.674   2.459   8.551  0.3578 -0.2915 -0.1917
 4115SOL    HW123807   1.664   2.371   8.517  2.3931 -0.5058 -0.1925
 4115SOL    HW223808   1.610   2.503   8.494 -1.0579 -1.4546  0.5053
 4116SOL     OW23809   0.111   3.834   1.167 -0.2050 -0.1113 -0.2426
 4116SOL    HW123810   0.196   3.803   1.198  0.7906  1.5964 -1.2904
 4116SOL    HW223811   0.129   3.858   1.076  1.9125  2.1532  0.7685
 4117SOL     OW23812   3.646   2.522   3.535 -0.4358 -0.1113  0.1909
 4117SOL    HW123813   3.563   2.566   3.555 -0.6446 -0.6808  0.5553
 4117SOL    HW223814   3.658   2.551   3.444  2.4565 -0.7369  0.3559
 4118SOL     OW23815   0.566   0.706   7.786 -0.2049 -0.6362  0.3479
 4118SOL    HW123816   0.557   0.774   7.718 -0.0022 -1.3511 -0.3914
 4118SOL    HW223817   0.561   0.756   7.867  0.1833  1.4770 -0.9125
 4119SOL     OW23818   2.304   1.531  12.199 -0.2907  0.2115 -0.2471
 4119SOL    HW123819   2.289   1.460  12.137  2.1090  0.6620 -1.3119
 4119SOL    HW223820   2.248   1.595  12.155 -0.8928  0.0978  0.3536
 4120SOL     OW23821   1.146   2.371   2.145  0.3323 -0.2164 -0.6978
 4120SOL    HW123822   1.092   2.310   2.196 -0.7803  0.4590 -1.0691
 4120SOL    HW223823   1.237   2.357   2.171  0.2289  1.6065  0.6073
 4121SOL     OW23824   2.271   3.611   2.849 -0.2875  0.6458 -0.9020
 4121SOL    HW123825   2.269   3.697   2.808 -4.0688 -0.6041 -3.3703
 4121SOL    HW223826   2.265   3.641   2.940 -0.4837  0.9641 -1.0168
 4122SOL     OW23827   3.838   0.773   7.802  0.2118 -0.2033  0.1858
 4122SOL    HW123828   3.930   0.798   7.808  0.4956 -1.3895  0.6551
 4122SOL    HW223829   3.808   0.823   7.726  0.9793 -0.7614 -0.4801
 4123SOL     OW23830   1.715   2.215   9.126 -0.5563  0.3871 -0.2252
 4123SOL    HW123831   1.780   2.171   9.072  2.0844  0.4956  2.8422
 4123SOL    HW223832   1.773   2.281   9.164 -0.0489 -1.3620  2.0449
 4124SOL     OW23833   3.520   2.008  16.125 -0.2839 -0.4368 -0.3350
 4124SOL    HW123834   3.440   2.030  16.173 -1.9511  0.4454 -3.5495
 4124SOL    HW223835   3.479   1.973  16.046  3.0015 -1.9990 -1.3527
 4125SOL     OW23836   2.744   0.139   3.654  0.1406  0.0762  0.4577
 4125SOL    HW123837   2.761   0.097   3.739  0.6346  0.4980  0.5640
 4125SOL    HW223838   2.711   0.067   3.599  0.0452  1.2317 -1.0024
 4126SOL     OW23839   4.583   1.030  11.803  0.4039  0.0889 -0.1745
 4126SOL    HW123840   4.675   1.053  11.814  0.7410 -1.1416 -0.3949
 4126SOL    HW223841   4.552   1.074  11.882 -1.2728 -0.6883 -0.3966
 4127SOL     OW23842   3.385   3.624  11.901  0.1987  0.1149 -0.7897
 4127SOL    HW123843   3.433   3.542  11.911  1.4378  0.8880 -0.4795
 4127SOL    HW223844   3.384   3.636  11.806 -1.2168 -1.5554 -0.9884
 4128SOL     OW23845   0.813   2.748  16.788 -0.3353  0.1499 -0.7994
 4128SOL    HW123846   0.880   2.809  16.820  1.8940 -2.5967 -0.2932
 4128SOL    HW223847   0.856   2.667  16.816  0.5235  1.0523  0.4841
 4129SOL     OW23848   2.837   2.103   4.983  0.3795  0.3683 -0.1985
 4129SOL    HW123849   2.767   2.161   5.013 -1.6037 -1.4124 -1.3652
 4129SOL    HW223850   2.897   2.094   5.057 -0.0359 -0.1201  0.0874
 4130SOL     OW23851   3.073   1.132   9.093 -0.0476 -0.1508  0.3094
 4130SOL    HW123852   3.168   1.118   9.102  0.1558  1.5387  0.8043
 4130SOL    HW223853   3.065   1.107   9.001  1.4506  0.1396  0.0864
 4131SOL     OW23854   2.750   2.978   5.838  0.4934  0.1699 -0.1854
 4131SOL    HW123855   2.702   3.059   5.850 -0.9577 -0.7110 -0.0273
 4131SOL    HW223856   2.786   2.982   5.927 -2.5985  2.8387  0.9048
 4132SOL     OW23857   0.859   1.541   8.988 -0.0232 -0.1493 -0.1589
 4132SOL    HW123858   0.796   1.567   9.056  2.7195 -1.0134  2.7305
 4132SOL    HW223859   0.850   1.446   8.990 -0.3421 -0.1276 -0.7308
 4133SOL     OW23860   4.151   0.400   9.443  0.3095  0.1434  0.2086
 4133SOL    HW123861   4.115   0.473   9.494 -0.8672  1.5893 -2.7157
 4133SOL    HW223862   4.238   0.388   9.481  1.0971  0.9194 -1.3320
 4134SOL     OW23863   3.645   3.929   4.322 -0.0307 -0.0780  0.2644
 4134SOL    HW123864   3.715   3.897   4.378 -0.0364 -0.9902 -0.2498
 4134SOL    HW223865   3.641   4.018   4.357 -2.3261 -1.0588  2.4844
 4135SOL     OW23866   3.741   2.870   4.805 -0.3707  0.4377 -0.1091
 4135SOL    HW123867   3.694   2.951   4.826 -1.4134 -0.7276  2.0604
 4135SOL    HW223868   3.800   2.854   4.879  3.3771  2.2134 -2.7296
 4136SOL     OW23869   3.438   0.724  13.317 -0.2869  0.2313 -0.0454
 4136SOL    HW123870   3.444   0.629  13.312  0.5494  0.3268 -0.6999
 4136SOL    HW223871   3.346   0.732  13.290  0.0044  1.6511 -0.6565
 4137SOL     OW23872   0.436   0.487   5.481 -0.0810 -0.1880 -0.1603
 4137SOL    HW123873   0.524   0.490   5.520  1.1418  2.4276 -3.0692
 4137SOL    HW223874   0.408   0.578   5.491 -1.9475 -0.6369 -1.3190
 4138SOL     OW23875   0.800   4.713   4.082 -0.3127 -0.2338  0.6424
 4138SOL    HW123876   0.834   0.081   4.099 -1.3104 -0.1751  2.3814
 4138SOL    HW223877   0.705   0.001   4.073 -0.3513 -3.1958 -1.4039
 4139SOL     OW23878   0.362   3.656  16.718  0.0305 -0.1201 -0.4535
 4139SOL    HW123879   0.399   3.707  16.790 -1.0959 -0.2480  0.2010
 4139SOL    HW223880   0.352   3.576  16.768 -0.2068  0.5704  0.5951
 4140SOL     OW23881   2.933   3.723   7.983  0.7938  0.4254  0.4157
 4140SOL    HW123882   2.886   3.692   8.060 -0.3721 -1.5852 -1.0939
 4140SOL    HW223883   2.928   3.816   8.004 -1.3626  0.5483 -0.6396
 4141SOL     OW23884   2.060   2.443  10.446  0.1804 -0.2936  0.3235
 4141SOL    HW123885   2.097   2.530  10.429 -1.5425 -0.4319 -4.1083
 4141SOL    HW223886   2.139   2.395  10.473  0.0151  0.1070  1.5235
 4142SOL     OW23887   2.686   2.574  15.921 -0.0011  0.0471  0.6113
 4142SOL    HW123888   2.656   2.556  16.009 -0.3181 -0.1530  0.4612
 4142SOL    HW223889   2.663   2.667  15.918  1.9234  0.4548 -2.0634
 4143SOL     OW23890   3.481   3.442  14.397  0.1050  0.0237  0.1030
 4143SOL    HW123891   3.533   3.361  14.397 -0.4333 -0.3257  0.2573
 4143SOL    HW223892   3.479   3.457  14.492  1.1809 -0.1840  0.1634
 4144SOL     OW23893   4.522   2.380   5.625  0.0455  0.6381 -0.0282
 4144SOL    HW123894   4.493   2.434   5.699 -0.3237  1.3312 -0.6810
 4144SOL    HW223895   4.530   2.295   5.668  1.4165 -0.4589 -2.4645
 4145SOL     OW23896   4.055   0.486   5.780 -0.0068  0.0887 -0.5035
 4145SOL    HW123897   4.010   0.426   5.720 -0.6981  0.5413 -0.4391
 4145SOL    HW223898   3.993   0.559   5.785 -1.0273 -0.8136 -0.1020
 4146SOL     OW23899   0.550   2.746   9.686 -0.5147 -0.0407  0.0633
 4146SOL    HW123900   0.554   2.715   9.595  0.7422 -0.8701  0.4033
 4146SOL    HW223901   0.594   2.830   9.682 -4.2110  1.8916 -0.4791
 4147SOL     OW23902   2.574   3.692   8.740  0.0751 -0.5831  0.1869
 4147SOL    HW123903   2.517   3.746   8.685  0.6261  0.0996  0.2813
 4147SOL    HW223904   2.655   3.697   8.689 -1.0817 -1.2813 -1.7461
 4148SOL     OW23905   2.538   0.480   8.523 -0.3905  0.2658  0.2119
 4148SOL    HW123906   2.610   0.523   8.569 -0.4746  1.5556 -0.8543
 4148SOL    HW223907   2.484   0.469   8.601  0.9174  1.1945  1.2529
 4149SOL     OW23908   2.440   1.384   3.932 -0.1929 -0.3773 -0.0037
 4149SOL    HW123909   2.412   1.348   3.847  1.5422  0.5360 -0.9527
 4149SOL    HW223910   2.408   1.474   3.933  0.8863 -0.0036  0.2961
 4150SOL     OW23911   2.887   3.496   8.686  0.1210 -0.7199  0.6407
 4150SOL    HW123912   2.852   3.409   8.666  2.6488 -1.6655  0.4162
 4150SOL    HW223913   2.828   3.553   8.636  0.8241  0.6676  1.3866
 4151SOL     OW23914   3.388   0.172   6.006 -0.0528  0.1260 -0.1099
 4151SOL    HW123915   3.394   0.125   6.089  1.6449  0.2588 -0.1427
 4151SOL    HW223916   3.477   0.167   5.971 -0.5224  0.6528 -1.3805
 4152SOL     OW23917   1.969   3.592   6.719 -0.8073 -0.0435  0.4157
 4152SOL    HW123918   2.005   3.676   6.749  1.7592 -0.8925 -0.2699
 4152SOL    HW223919   2.031   3.588   6.646 -4.1529  2.1559 -2.5446
 4153SOL     OW23920   0.479   4.011   2.857 -0.1386  0.0610 -0.4152
 4153SOL    HW123921   0.513   4.001   2.946 -0.2692  1.7382 -0.1903
 4153SOL    HW223922   0.435   4.095   2.866 -0.4245 -0.1197 -0.1444
 4154SOL     OW23923   0.206   1.730  12.768  0.5752  0.5078  0.0907
 4154SOL    HW123924   0.277   1.790  12.744  1.4564  0.0601  1.5657
 4154SOL    HW223925   0.193   1.700  12.678 -0.8168 -1.9876  1.1451
 4155SOL     OW23926   1.165   2.386   6.374 -0.3248  0.7175  0.5248
 4155SOL    HW123927   1.073   2.361   6.381 -0.4112  1.4243  1.9821
 4155SOL    HW223928   1.170   2.421   6.285 -1.6781 -0.0992  0.1346
 4156SOL     OW23929   2.520   0.779  17.129  0.0441  0.1657  0.2338
 4156SOL    HW123930   2.466   0.846  17.171 -0.6549 -0.7194  0.7532
 4156SOL    HW223931   2.592   0.763  17.190  1.2109  3.0560 -0.3629
 4157SOL     OW23932   1.527   1.006   2.223 -0.0166  0.5542 -0.1350
 4157SOL    HW123933   1.483   0.938   2.275 -0.3362  0.7957 -0.0836
 4157SOL    HW223934   1.514   1.083   2.279 -0.5229  0.1176  0.3496
 4158SOL     OW23935   2.978   0.208   3.499 -0.2123 -0.2583  0.0616
 4158SOL    HW123936   2.929   0.193   3.580  0.0552 -0.0700  0.2583
 4158SOL    HW223937   3.060   0.164   3.523 -0.0872  0.4747  0.9488
 4159SOL     OW23938   1.357   1.089   3.772  0.1911  0.1798  0.5141
 4159SOL    HW123939   1.415   1.157   3.737 -2.4695  2.7676  1.1912
 4159SOL    HW223940   1.297   1.146   3.819  1.6832  3.7555 -1.8371
 4160SOL     OW23941   3.775   3.448   1.978  0.2833  0.3996 -0.2061
 4160SOL    HW123942   3.868   3.463   1.990  0.7255  0.7840 -4.2942
 4160SOL    HW223943   3.752   3.447   2.071 -2.0988  0.0710 -0.7995
 4161SOL     OW23944   2.945   2.185  17.035  0.4632 -0.0124  0.1791
 4161SOL    HW123945   2.923   2.154  16.947 -1.7430  0.3981  0.5794
 4161SOL    HW223946   3.023   2.136  17.062 -0.2274 -0.1027  2.0025
 4162SOL     OW23947   3.686   1.445   7.304 -0.3313  0.2392  0.3098
 4162SOL    HW123948   3.717   1.482   7.222 -0.3157 -0.6712 -0.0938
 4162SOL    HW223949   3.733   1.500   7.366 -0.9662  0.9788  0.1341
 4163SOL     OW23950   3.397   2.069   5.870 -0.1839 -0.4547  0.6081
 4163SOL    HW123951   3.418   1.979   5.894  2.4059  0.1182  0.4831
 4163SOL    HW223952   3.424   2.079   5.778  2.4253 -0.4335  1.3641
 4164SOL     OW23953   0.963   1.324   1.369 -0.1380 -0.7865 -0.1714
 4164SOL    HW123954   0.884   1.366   1.405 -1.0743 -2.1953 -0.5962
 4164SOL    HW223955   0.949   1.353   1.279  0.0192  1.2867  0.4775
 4165SOL     OW23956   0.070   2.506  15.158 -0.1749 -0.5168 -0.1982
 4165SOL    HW123957   0.002   2.568  15.134  1.2976  1.0873 -0.2478
 4165SOL    HW223958   0.018   2.456  15.221 -1.4325 -0.9138 -1.5391
 4166SOL     OW23959   0.986   3.714   4.471 -0.3419 -0.8565 -0.6264
 4166SOL    HW123960   1.076   3.705   4.502 -0.2406  1.9139 -0.0652
 4166SOL    HW223961   0.994   3.707   4.376 -2.4856 -2.3951 -0.6996
 4167SOL     OW23962   2.402   0.055   3.731 -0.7132 -0.5937 -0.0176
 4167SOL    HW123963   2.358   0.029   3.650 -0.6483  1.9420 -0.8711
 4167SOL    HW223964   2.417   0.149   3.717  0.6474 -0.5788  1.5797
 4168SOL     OW23965   4.577   1.876  12.852 -0.1289  0.4136 -0.0533
 4168SOL    HW123966   4.621   1.834  12.778  0.7611  0.1870  0.5919
 4168SOL    HW223967   4.625   1.832  12.923 -0.6773  0.0177  0.0655
 4169SOL     OW23968   2.060   1.928   4.631 -0.3856 -0.1138  0.0500
 4169SOL    HW123969   2.017   1.843   4.631 -0.4177 -0.0899 -1.9450
 4169SOL    HW223970   2.027   1.969   4.551  0.0331 -0.7897 -0.4696
 4170SOL     OW23971   3.866   0.204   2.816  0.3613  0.3573  0.0585
 4170SOL    HW123972   3.946   0.175   2.859  0.0961  0.6779  0.7579
 4170SOL    HW223973   3.841   0.120   2.777 -0.2120 -0.3534  1.9688
 4171SOL     OW23974   4.135   2.335   9.848  0.1349  0.2086  0.2508
 4171SOL    HW123975   4.060   2.277   9.839 -0.7984  1.4003  0.3902
 4171SOL    HW223976   4.087   2.417   9.841 -1.5163 -0.9904 -2.3313
 4172SOL     OW23977   4.692   1.055   3.405  0.4037  0.0464 -1.0455
 4172SOL    HW123978   0.011   1.112   3.338 -0.4954 -1.1705 -2.6050
 4172SOL    HW223979   0.018   0.975   3.379 -1.4601 -1.4879  0.4323
 4173SOL     OW23980   0.053   1.154   7.784  0.0002 -0.0062  0.1991
 4173SOL    HW123981   0.086   1.104   7.710  3.0246  2.8486 -0.3531
 4173SOL    HW223982   0.076   1.237   7.741 -1.7653 -0.1127 -0.9805
 4174SOL     OW23983   4.417   0.993   6.735  0.1540 -0.1961 -0.0701
 4174SOL    HW123984   4.472   0.990   6.657 -1.9220 -2.5680 -1.4231
 4174SOL    HW223985   4.455   1.061   6.791  0.4667  0.8546 -1.5522
 4175SOL     OW23986   4.424   1.728   2.107 -0.5406  0.0656 -0.2349
 4175SOL    HW123987   4.408   1.776   2.026 -1.4868 -0.7760 -0.5499
 4175SOL    HW223988   4.412   1.639   2.073  1.4662  0.5336 -2.1728
 4176SOL     OW23989   0.626   1.368   2.763  0.6542  0.0916  0.2834
 4176SOL    HW123990   0.660   1.414   2.686 -1.1062 -1.1889 -1.2583
 4176SOL    HW223991   0.532   1.387   2.768  0.5908 -0.2447  0.3952
 4177SOL     OW23992   2.682   2.751   7.790  0.3566  0.0618  0.2255
 4177SOL    HW123993   2.634   2.832   7.775  2.1093  1.5555  2.5069
 4177SOL    HW223994   2.611   2.691   7.767 -0.3718  0.7346  0.7184
 4178SOL     OW23995   4.117   2.321  10.442 -0.1103  0.9147 -0.5994
 4178SOL    HW123996   4.090   2.367  10.521  1.9924  1.3427 -0.1338
 4178SOL    HW223997   4.174   2.249  10.468 -0.6022  0.6712 -0.1738
 4179SOL     OW23998   2.010   3.773   2.142  0.0413  0.5960  0.4866
 4179SOL    HW123999   2.011   3.841   2.073 -1.3780  0.8506  0.7135
 4179SOL    HW224000   1.946   3.809   2.203  0.7268 -1.1105  2.1814
 4180SOL     OW24001   1.812   4.388  15.178  0.4761 -0.3068  0.4453
 4180SOL    HW124002   1.841   4.389  15.269  0.4213  0.7195  0.4442
 4180SOL    HW224003   1.718   4.402  15.178  0.4388 -0.6117  1.2404
 4181SOL     OW24004   4.070   1.540   8.742  0.0077 -0.4952  0.2208
 4181SOL    HW124005   4.004   1.500   8.685 -0.6483 -0.2998  0.8377
 4181SOL    HW224006   4.142   1.555   8.681  0.3079 -0.5295  0.5617
 4182SOL     OW24007   1.469   1.263   3.141 -0.6378 -0.0860  0.5516
 4182SOL    HW124008   1.542   1.281   3.083  0.0250  2.4431  2.2056
 4182SOL    HW224009   1.429   1.349   3.151  1.2365  0.8919 -0.4270
 4183SOL     OW24010   1.621   1.062   4.745  0.8056  0.2282 -0.8438
 4183SOL    HW124011   1.545   1.111   4.775  1.5239  1.0694 -0.4020
 4183SOL    HW224012   1.659   1.123   4.681  0.1286 -0.1523 -1.6059
 4184SOL     OW24013   3.608   3.302   8.002 -0.6991 -0.3171 -0.4987
 4184SOL    HW124014   3.537   3.245   8.032 -0.8993  0.6156  0.7752
 4184SOL    HW224015   3.620   3.360   8.077 -3.1332 -0.6675  0.1536
 4185SOL     OW24016   1.892   1.343   9.084  0.2918 -0.4148  0.3586
 4185SOL    HW124017   1.876   1.273   9.147  2.4249 -0.7824  0.5058
 4185SOL    HW224018   1.987   1.352   9.089  0.4511 -1.7991 -0.1532
 4186SOL     OW24019   0.263   1.075  13.069  0.0775 -0.0627 -0.1358
 4186SOL    HW124020   0.358   1.064  13.072  0.2480  1.4509  0.2577
 4186SOL    HW224021   0.260   1.148  13.132  2.9705 -0.3240  0.2638
 4187SOL     OW24022   0.577   4.342   6.549  0.0293 -0.2293 -0.2171
 4187SOL    HW124023   0.657   4.326   6.498 -0.1808 -1.1640 -0.2514
 4187SOL    HW224024   0.608   4.416   6.602 -1.1894 -1.0977  1.7036
 4188SOL     OW24025   3.154   3.218   3.637  0.4803 -0.4021 -0.0278
 4188SOL    HW124026   3.136   3.250   3.725  3.0267  2.0746 -0.4118
 4188SOL    HW224027   3.061   3.208   3.613  0.0849 -0.2819  1.4562
 4189SOL     OW24028   3.056   3.888   2.129 -0.0907 -0.0569 -0.0283
 4189SOL    HW124029   2.982   3.861   2.074  0.6014 -0.5539 -0.7090
 4189SOL    HW224030   3.041   3.824   2.200 -1.8199 -0.9840 -1.2225
 4190SOL     OW24031   0.059   2.760  11.636  0.3336 -0.4842  0.0919
 4190SOL    HW124032   4.698   2.804  11.662  0.9879  1.2355 -0.7537
 4190SOL    HW224033   0.088   2.722  11.719  0.9072 -0.0853  0.0757
 4191SOL     OW24034   0.224   1.819  11.672  0.1363 -0.2583 -0.1877
 4191SOL    HW124035   0.291   1.769  11.626 -2.0125 -2.8103 -0.5345
 4191SOL    HW224036   0.233   1.787  11.761 -0.8234 -0.9753 -0.3472
 4192SOL     OW24037   0.211   1.401   7.871  0.1093 -0.6736  0.1139
 4192SOL    HW124038   0.161   1.476   7.905  1.3702  0.3883 -0.3554
 4192SOL    HW224039   0.178   1.414   7.782  0.5103  0.2329  0.0907
 4193SOL     OW24040   4.520   2.383   6.386  0.2924  0.3611  0.0327
 4193SOL    HW124041   4.434   2.425   6.377 -0.2523 -0.8402 -0.3379
 4193SOL    HW224042   4.502   2.313   6.324 -0.0528  0.5952 -0.1361
 4194SOL     OW24043   2.381   0.575   6.593  0.7187  0.2416 -0.1455
 4194SOL    HW124044   2.346   0.517   6.526 -0.7516  0.1338  0.7090
 4194SOL    HW224045   2.315   0.644   6.583  0.2290 -0.3701 -1.1687
 4195SOL     OW24046   1.241   3.067  12.023  0.3521 -0.6656  0.4124
 4195SOL    HW124047   1.146   3.061  12.016  0.5338 -1.9686 -0.8529
 4195SOL    HW224048   1.272   3.003  11.960 -0.7245  0.8374 -1.6374
 4196SOL     OW24049   2.725   1.362   4.974 -0.1914 -0.2364  0.1262
 4196SOL    HW124050   2.661   1.331   5.038 -0.0994 -0.2988  0.1876
 4196SOL    HW224051   2.703   1.455   4.967  1.0368  0.0932  0.6842
 4197SOL     OW24052   4.667   2.996   1.593  0.3514 -0.4697 -0.0895
 4197SOL    HW124053   0.015   3.052   1.554 -0.3774  0.9851  0.7843
 4197SOL    HW224054   4.680   3.009   1.687  1.1280  0.6285 -0.3460
 4198SOL     OW24055   4.405   2.504   7.425  0.3563  0.2299 -0.1512
 4198SOL    HW124056   4.314   2.492   7.449  0.6136 -1.9736 -0.2736
 4198SOL    HW224057   4.425   2.415   7.395  1.0480  0.2612  0.2198
 4199SOL     OW24058   0.148   0.217  14.520 -0.4781  0.1095 -0.2058
 4199SOL    HW124059   0.064   0.256  14.495  0.1419  2.0051  0.6510
 4199SOL    HW224060   0.201   0.297  14.520  0.7164 -0.6840 -1.3188
 4200SOL     OW24061   1.421   1.501   5.047  0.7977  0.1880 -0.4271
 4200SOL    HW124062   1.480   1.570   5.077  0.4787  0.1526  0.2838
 4200SOL    HW224063   1.487   1.472   4.984  2.1184  0.2873  0.9234
 4201SOL     OW24064   4.575   3.226  15.628 -0.1026  0.7254  0.3812
 4201SOL    HW124065   4.605   3.169  15.698  0.9419 -1.0014 -1.4645
 4201SOL    HW224066   4.494   3.263  15.663 -0.7078 -1.0998  0.9087
 4202SOL     OW24067   2.474   4.132   7.374 -0.6083 -0.1725 -0.6028
 4202SOL    HW124068   2.439   4.053   7.415 -0.9416 -0.1856 -0.9109
 4202SOL    HW224069   2.564   4.136   7.405 -0.5720 -0.4769 -0.6741
 4203SOL     OW24070   1.446   1.365   1.754  0.3621  0.3578  0.2647
 4203SOL    HW124071   1.398   1.337   1.832  0.5816 -0.3328  0.1536
 4203SOL    HW224072   1.490   1.280   1.744 -1.0087 -0.1785 -1.2137
 4204SOL     OW24073   0.367   4.011   3.517 -0.4195  1.0610  0.2995
 4204SOL    HW124074   0.461   3.995   3.522 -0.2342  2.0010 -0.1768
 4204SOL    HW224075   0.329   3.931   3.554  2.5480  0.7571  2.6116
 4205SOL     OW24076   0.337   0.584   9.353  0.3035 -0.0338 -0.2329
 4205SOL    HW124077   0.325   0.490   9.343  1.5146 -0.3033  0.7814
 4205SOL    HW224078   0.357   0.602   9.445  2.0431 -0.5765 -0.5098
 4206SOL     OW24079   3.252   2.493   7.844 -0.2110 -0.1641  0.1991
 4206SOL    HW124080   3.238   2.567   7.784 -1.8117  0.4139  1.2846
 4206SOL    HW224081   3.228   2.529   7.929  0.0844 -1.9427  1.0327
 4207SOL     OW24082   4.503   1.766   0.741  0.1425 -0.2122  0.1772
 4207SOL    HW124083   4.451   1.702   0.692 -2.2110  0.6061  1.6374
 4207SOL    HW224084   4.590   1.731   0.720 -0.0561 -0.3898 -0.3611
 4208SOL     OW24085   0.914   1.909   9.609 -0.7466 -0.4787 -0.5910
 4208SOL    HW124086   0.920   1.839   9.674 -1.8005  1.6293  1.7888
 4208SOL    HW224087   0.954   1.981   9.656 -1.1147  0.4034 -1.6149
 4209SOL     OW24088   4.340   2.577  12.208  0.2482  0.2343 -0.3385
 4209SOL    HW124089   4.364   2.519  12.135  0.8778  0.2777 -0.1638
 4209SOL    HW224090   4.301   2.506  12.259 -1.1364  0.4215 -1.1285
 4210SOL     OW24091   3.153   4.408   2.647 -0.3952  0.4447 -0.0595
 4210SOL    HW124092   3.101   4.445   2.718  1.5365  2.2133  0.4291
 4210SOL    HW224093   3.201   4.346   2.701 -0.5696  1.6115  1.4361
 4211SOL     OW24094   1.712   3.696   5.846 -0.2148 -0.3903  0.1098
 4211SOL    HW124095   1.688   3.646   5.769 -1.6341  0.2679  0.1068
 4211SOL    HW224096   1.767   3.764   5.806  1.0472  0.2391  2.8891
 4212SOL     OW24097   2.920   0.731   7.115  0.1327 -0.2881  0.0809
 4212SOL    HW124098   2.986   0.693   7.173  0.1328  0.1106  0.3410
 4212SOL    HW224099   2.947   0.820   7.094 -0.8402 -0.2673 -1.0956
 4213SOL     OW24100   1.197   1.411   3.185  0.4265 -0.1742 -0.2404
 4213SOL    HW124101   1.191   1.388   3.092  0.1655  2.4465 -0.8947
 4213SOL    HW224102   1.130   1.479   3.194  0.1441 -0.3734 -0.8524
 4214SOL     OW24103   4.691   1.665   8.575 -0.2036  0.3437  0.4258
 4214SOL    HW124104   4.600   1.651   8.600 -0.1422 -0.5512  0.1735
 4214SOL    HW224105   4.694   1.641   8.482  0.2669  2.3504 -0.0629
 4215SOL     OW24106   2.279   3.460   1.947  0.1533  0.6229  0.2678
 4215SOL    HW124107   2.202   3.405   1.932  0.3865  0.7874 -1.5061
 4215SOL    HW224108   2.338   3.393   1.981 -2.1505 -1.6053 -0.0630
 4216SOL     OW24109   4.127   3.338   3.901 -0.1035  0.9388 -0.1277
 4216SOL    HW124110   4.072   3.259   3.898  0.9395  0.3611 -3.6160
 4216SOL    HW224111   4.082   3.404   3.953 -1.3526  0.1797 -0.2399
 4217SOL     OW24112   1.215   3.663   2.437  0.0379 -0.0311  0.0927
 4217SOL    HW124113   1.177   3.688   2.353  0.3172  1.3948  0.3951
 4217SOL    HW224114   1.143   3.607   2.465 -0.8412  0.8724 -0.3640
 4218SOL     OW24115   3.037   3.430   8.942  0.1290 -0.2594  0.6565
 4218SOL    HW124116   2.957   3.422   8.994 -0.1707 -1.9908 -0.0459
 4218SOL    HW224117   3.009   3.438   8.851  1.1115  1.2989  0.4962
 4219SOL     OW24118   4.214   2.073   1.082 -0.3113 -0.3095  0.5481
 4219SOL    HW124119   4.185   2.042   0.996 -0.6997  0.9828  0.2277
 4219SOL    HW224120   4.202   2.165   1.061  1.0519 -0.1837  0.3140
 4220SOL     OW24121   2.105   0.035   3.952  0.3125  0.3441 -1.0642
 4220SOL    HW124122   2.045   0.026   4.026  2.0059  0.8407  0.3645
 4220SOL    HW224123   2.113   4.666   3.919 -0.2081 -0.3120  0.5903
 4221SOL     OW24124   3.329   3.266   2.961 -0.4884  0.0969 -0.2953
 4221SOL    HW124125   3.367   3.179   2.966 -1.4750 -0.3402 -0.4840
 4221SOL    HW224126   3.238   3.253   2.934 -0.3557 -0.4088 -0.4916
 4222SOL     OW24127   3.987   1.600   5.418  0.5781  0.3922  0.0857
 4222SOL    HW124128   3.901   1.615   5.379  1.3314  1.5791 -1.1343
 4222SOL    HW224129   4.046   1.594   5.343 -0.0480  0.2774 -0.3949
 4223SOL     OW24130   3.731   3.249  15.584  1.0338  0.3195 -0.4486
 4223SOL    HW124131   3.716   3.156  15.604 -0.5612  0.6226 -0.1888
 4223SOL    HW224132   3.825   3.252  15.595  0.9707  1.8461 -0.3655
 4224SOL     OW24133   3.257   2.764   4.308 -0.5776 -0.1259 -0.0591
 4224SOL    HW124134   3.187   2.781   4.245  1.7264  0.0361 -2.5755
 4224SOL    HW224135   3.324   2.822   4.272 -1.2458  0.6481 -0.0473
 4225SOL     OW24136   0.838   3.154   7.582  0.4018  0.0444  0.4417
 4225SOL    HW124137   0.808   3.244   7.597  0.6354  0.3405 -0.7859
 4225SOL    HW224138   0.764   3.099   7.608  0.8610 -1.6102 -1.7562
 4226SOL     OW24139   3.192   2.633   6.188 -0.0154  0.2840  0.3323
 4226SOL    HW124140   3.266   2.684   6.223  1.2139  0.7778 -2.9838
 4226SOL    HW224141   3.238   2.560   6.147  0.2157  0.8939 -0.5139
 4227SOL     OW24142   3.955   2.660   6.043 -0.3631  0.0061  0.0891
 4227SOL    HW124143   3.980   2.711   6.119 -1.7171 -2.2225  2.0443
 4227SOL    HW224144   4.008   2.581   6.054 -2.1992 -1.3130 -0.5188
 4228SOL     OW24145   3.564   2.400  13.453 -0.2212 -0.6039  0.2330
 4228SOL    HW124146   3.587   2.491  13.469  2.2747 -1.2522  0.2537
 4228SOL    HW224147   3.655   2.373  13.440  0.0933  1.6628 -2.3473
 4229SOL     OW24148   4.480   0.702   9.082 -0.3399 -0.0346  0.1510
 4229SOL    HW124149   4.384   0.694   9.079 -0.4241  0.6659  1.1278
 4229SOL    HW224150   4.482   0.789   9.121  0.4280 -0.3150  0.7203
 4230SOL     OW24151   3.538   0.645   3.176 -0.2088  0.3587  0.4574
 4230SOL    HW124152   3.597   0.714   3.145  0.3908 -0.5122 -0.3486
 4230SOL    HW224153   3.468   0.639   3.111  0.8702 -1.6621 -0.5346
 4231SOL     OW24154   3.533   0.338   7.857 -0.5568  0.0871 -0.5465
 4231SOL    HW124155   3.580   0.262   7.893 -1.3859 -1.0427 -1.8476
 4231SOL    HW224156   3.610   0.388   7.828 -1.1602  2.2502  1.5241
 4232SOL     OW24157   2.387   0.172   5.331  0.2709 -0.2350  0.4594
 4232SOL    HW124158   2.413   0.190   5.241 -0.2111  2.1149  0.7822
 4232SOL    HW224159   2.474   0.181   5.371  1.1553 -0.5391 -1.4136
 4233SOL     OW24160   2.690   4.069   6.797  0.5885 -0.0152  0.4391
 4233SOL    HW124161   2.774   4.058   6.843  0.6054  0.5030  0.5357
 4233SOL    HW224162   2.649   4.008   6.858 -0.0206 -0.2610 -0.2177
 4234SOL     OW24163   2.454   1.414  15.575 -0.3097  0.4938 -0.3119
 4234SOL    HW124164   2.530   1.361  15.597 -0.4942  0.1760 -0.4382
 4234SOL    HW224165   2.385   1.395  15.639 -0.9707  1.7424 -0.6474
 4235SOL     OW24166   3.420   1.706   1.176 -0.0693 -0.1764 -0.1425
 4235SOL    HW124167   3.469   1.766   1.119 -0.7677 -1.1159 -1.6965
 4235SOL    HW224168   3.423   1.619   1.138 -1.2362  0.8108 -2.4477
 4236SOL     OW24169   1.470   0.699   6.030 -0.2842 -0.1911  0.7496
 4236SOL    HW124170   1.531   0.739   6.091  0.6765  0.8354 -0.8836
 4236SOL    HW224171   1.525   0.621   6.017  1.4134  1.0024  0.7926
 4237SOL     OW24172   4.493   4.524  16.202  0.9535  0.8154 -0.5096
 4237SOL    HW124173   4.457   4.482  16.124  1.3506  0.9235 -0.7458
 4237SOL    HW224174   4.504   4.612  16.167  1.0273  1.0611  0.1346
 4238SOL     OW24175   0.646   4.338   3.018  0.0262 -0.3777 -0.6539
 4238SOL    HW124176   0.740   4.327   3.006  0.3454  1.8285 -0.1267
 4238SOL    HW224177   0.641   4.425   3.057  0.9387 -0.3062 -0.7036
 4239SOL     OW24178   4.522   3.322  16.106  0.2799 -0.2022 -0.4682
 4239SOL    HW124179   4.438   3.282  16.082  0.6392  0.1586 -2.3439
 4239SOL    HW224180   4.506   3.409  16.070 -0.0783 -0.9858 -2.2322
 4240SOL     OW24181   2.666   0.689   8.262 -0.1594 -0.2502  0.2579
 4240SOL    HW124182   2.600   0.750   8.295 -0.0510  0.0622 -0.1027
 4240SOL    HW224183   2.721   0.750   8.212 -0.0431 -0.5707 -0.0045
 4241SOL     OW24184   3.395   4.231   7.542  0.1036 -0.4786  0.1130
 4241SOL    HW124185   3.309   4.265   7.566  0.8344  0.8301  0.9110
 4241SOL    HW224186   3.381   4.139   7.520 -2.7403  0.3898 -1.7145
 4242SOL     OW24187   4.204   3.017   2.695 -0.0979  0.1996  0.3053
 4242SOL    HW124188   4.269   3.059   2.638  1.3914 -0.2869  1.6508
 4242SOL    HW224189   4.238   2.928   2.704 -1.9160 -0.3736  1.5370
 4243SOL     OW24190   2.849   0.357  12.047 -0.3271  0.7438 -0.1669
 4243SOL    HW124191   2.920   0.388  12.104  1.3044 -1.3159 -1.0894
 4243SOL    HW224192   2.880   0.273  12.014 -1.5719  0.1012  0.2953
 4244SOL     OW24193   3.135   1.607   6.597 -0.1188  0.2009 -0.0445
 4244SOL    HW124194   3.093   1.521   6.600  1.3341 -0.4836  0.4511
 4244SOL    HW224195   3.190   1.602   6.676  1.2811 -0.3715 -1.0687
 4245SOL     OW24196   1.489   0.576   9.023 -0.3958 -0.1748  0.2246
 4245SOL    HW124197   1.488   0.663   9.063  0.2991  0.3235 -0.8461
 4245SOL    HW224198   1.457   0.598   8.936 -0.9272 -4.4221 -0.6607
 4246SOL     OW24199   3.577   1.609  17.258 -0.3331  0.0470  0.0151
 4246SOL    HW124200   3.657   1.571  17.223 -0.0920  0.4524  0.1235
 4246SOL    HW224201   3.542   1.640  17.175  1.0360 -1.3657 -1.0781
 4247SOL     OW24202   1.426   1.332   4.577  0.1225  0.1253 -0.4599
 4247SOL    HW124203   1.432   1.427   4.569  0.1406  0.1186 -0.5221
 4247SOL    HW224204   1.519   1.310   4.568 -0.0552 -1.2252  0.9747
 4248SOL     OW24205   1.407   4.285   8.518 -0.1082 -0.9405 -0.5278
 4248SOL    HW124206   1.435   4.265   8.607 -1.3281  0.3184  0.1416
 4248SOL    HW224207   1.433   4.198   8.486  1.1563 -0.6832 -0.1930
 4249SOL     OW24208   0.556   1.073  15.001 -0.3923 -0.2183  0.3415
 4249SOL    HW124209   0.598   1.142  15.051 -1.0609  1.8038 -1.8693
 4249SOL    HW224210   0.608   1.077  14.920 -1.6257 -0.1419 -0.4573
 4250SOL     OW24211   1.743   3.315   1.612 -0.4301  0.3025 -0.4710
 4250SOL    HW124212   1.754   3.410   1.615  1.7266  0.0552 -0.1938
 4250SOL    HW224213   1.782   3.290   1.528 -2.7028 -0.4355 -1.3073
 4251SOL     OW24214   4.513   3.555   1.538 -0.5681  0.4888  0.3119
 4251SOL    HW124215   4.528   3.642   1.502  1.1819 -0.5961 -1.6510
 4251SOL    HW224216   4.485   3.502   1.463 -2.1289  1.5709  0.1350
 4252SOL     OW24217   0.096   4.389   4.688  0.2071 -0.5174 -0.0737
 4252SOL    HW124218   0.082   4.305   4.731  1.3334 -1.0516 -0.7454
 4252SOL    HW224219   0.038   4.450   4.734 -0.3330 -0.6633 -0.5618
 4253SOL     OW24220   3.626   0.136   5.894 -0.0546 -0.4356 -0.4583
 4253SOL    HW124221   3.612   0.177   5.808  2.1372 -0.3318 -0.7769
 4253SOL    HW224222   3.717   0.162   5.907 -0.7992  1.7314  0.3434
 4254SOL     OW24223   1.883   1.059   4.976  1.0748  0.4088  0.5492
 4254SOL    HW124224   1.831   1.104   5.043  0.5580 -1.8628  1.6629
 4254SOL    HW224225   1.887   1.124   4.905  0.7449 -0.5931 -0.3753
 4255SOL     OW24226   2.391   1.290  12.993 -0.3537  0.3397 -0.3094
 4255SOL    HW124227   2.487   1.299  12.990 -0.3408  0.4379  0.3542
 4255SOL    HW224228   2.372   1.201  12.961 -3.0886  1.6974 -2.4550
 4256SOL     OW24229   4.012   0.540   6.966  0.7534  0.0068  0.5594
 4256SOL    HW124230   3.978   0.459   7.005 -0.3126  0.2765  0.1644
 4256SOL    HW224231   4.040   0.513   6.878  0.7033  1.9941 -0.0482
 4257SOL     OW24232   0.431   0.203  11.088 -0.1303  0.2667 -0.1651
 4257SOL    HW124233   0.502   0.244  11.137  1.0866 -1.2024 -0.6780
 4257SOL    HW224234   0.392   0.136  11.145  0.5465 -0.3426 -0.4040
 4258SOL     OW24235   2.794   1.774  17.564 -0.2455  0.4104 -0.4018
 4258SOL    HW124236   2.834   1.687  17.558 -1.4561 -0.1863  0.3579
 4258SOL    HW224237   2.713   1.751  17.519 -0.6600 -1.5986  1.3516
 4259SOL     OW24238   2.328   1.955   8.988  0.1644  0.4983 -0.0114
 4259SOL    HW124239   2.301   1.870   8.954  1.0879 -0.3780  1.4308
 4259SOL    HW224240   2.389   1.937   9.060 -1.5656  1.1990  1.6511
 4260SOL     OW24241   0.153   4.052  10.044 -0.1426 -0.0019 -0.0694
 4260SOL    HW124242   0.077   4.094  10.003 -1.9575 -3.8808 -0.7131
 4260SOL    HW224243   0.114   4.046  10.132 -1.4435  1.1758 -0.5602
 4261SOL     OW24244   4.109   3.826   9.501 -0.3217  0.2024 -0.0259
 4261SOL    HW124245   4.114   3.820   9.405  0.4124  1.0641 -0.0315
 4261SOL    HW224246   4.173   3.756   9.515  1.1465  0.9056 -3.2385
 4262SOL     OW24247   3.466   1.846   0.940  0.1770  0.3545  0.2437
 4262SOL    HW124248   3.408   1.916   0.911 -0.1861 -0.0300  0.0385
 4262SOL    HW224249   3.510   1.800   0.869 -2.4417  0.3397 -1.3896
 4263SOL     OW24250   1.515   1.254   5.708 -0.1290 -0.4651 -0.3917
 4263SOL    HW124251   1.541   1.281   5.796  0.2883  0.7980 -0.8973
 4263SOL    HW224252   1.432   1.301   5.706  0.4676  0.5472 -1.5695
 4264SOL     OW24253   1.804   1.005  17.462 -0.0451 -0.0141  0.4518
 4264SOL    HW124254   1.818   0.959  17.545  0.6831  0.1533  0.4176
 4264SOL    HW224255   1.845   0.934  17.413 -0.2274  0.8363 -0.9239
 4265SOL     OW24256   1.650   3.652   3.999  0.0681  0.0405  0.3306
 4265SOL    HW124257   1.642   3.743   3.969  0.7575  0.0222  0.0904
 4265SOL    HW224258   1.633   3.605   3.918 -0.2637  0.9604 -0.1411
 4266SOL     OW24259   2.622   3.318   3.246 -0.5138  0.4974  0.0554
 4266SOL    HW124260   2.691   3.370   3.206 -1.0429  0.4426 -0.9454
 4266SOL    HW224261   2.579   3.290   3.165  1.5214 -0.2944 -0.7548
 4267SOL     OW24262   0.348   4.005   9.443 -0.3951  0.1041 -0.2130
 4267SOL    HW124263   0.343   3.961   9.359  1.6758  2.9765 -1.8636
 4267SOL    HW224264   0.352   3.929   9.500 -3.1653  0.4531  0.4269
 4268SOL     OW24265   1.116   2.695   3.696 -0.0426  0.3193  0.1448
 4268SOL    HW124266   1.077   2.745   3.768  0.7613  0.8788  0.1916
 4268SOL    HW224267   1.206   2.727   3.703 -0.1410  0.6646 -0.1688
 4269SOL     OW24268   1.445   2.325   7.306 -0.0168  0.3153  0.0737
 4269SOL    HW124269   1.438   2.242   7.353  0.3463 -0.0622 -0.5399
 4269SOL    HW224270   1.357   2.347   7.274 -1.0111 -2.3082  1.0180
 4270SOL     OW24271   2.012   4.321   1.830  0.2599 -0.0228 -0.1014
 4270SOL    HW124272   1.979   4.249   1.777  0.4655  0.3471 -0.7335
 4270SOL    HW224273   1.939   4.334   1.891 -0.8349  0.1763 -1.4509
 4271SOL     OW24274   0.827   4.373   4.624 -0.1954  0.0795  0.6488
 4271SOL    HW124275   0.917   4.364   4.655  0.0054 -3.2650 -0.8997
 4271SOL    HW224276   0.817   4.464   4.653 -1.6476 -0.6707  2.4235
 4272SOL     OW24277   0.147   2.969   7.556  0.3044 -0.1738 -0.4617
 4272SOL    HW124278   0.124   2.957   7.648  0.7786  0.6998 -0.2325
 4272SOL    HW224279   0.237   3.001   7.561 -0.4054  1.2125  2.9463
 4273SOL     OW24280   0.304   2.211   4.519  0.1819 -0.3291 -0.5092
 4273SOL    HW124281   0.287   2.237   4.429  2.2197  1.1565 -0.4832
 4273SOL    HW224282   0.365   2.138   4.512  0.2646 -0.3206  0.0811
 4274SOL     OW24283   0.144   2.519   5.889  0.3953 -0.1094  0.1017
 4274SOL    HW124284   0.215   2.525   5.953  1.3096  2.4980 -1.1527
 4274SOL    HW224285   0.106   2.606   5.905 -0.1328 -0.1545 -0.9277
 4275SOL     OW24286   2.289   0.243  14.818  0.0521  0.5532  0.2623
 4275SOL    HW124287   2.350   0.187  14.867 -0.3563 -1.7730 -1.8914
 4275SOL    HW224288   2.268   0.307  14.886  0.9993  1.7378 -0.5686
 4276SOL     OW24289   0.778   2.439   9.509 -0.0868  0.4756 -0.2246
 4276SOL    HW124290   0.775   2.426   9.604 -1.6938 -0.8074 -0.4523
 4276SOL    HW224291   0.872   2.446   9.492 -0.2185 -0.2498 -1.2653
 4277SOL     OW24292   2.716   2.924  10.460  0.1817 -0.2343 -0.0426
 4277SOL    HW124293   2.680   2.981  10.528 -2.0807 -2.6519  0.7818
 4277SOL    HW224294   2.777   2.981  10.413  0.3000 -0.1350  0.2290
 4278SOL     OW24295   4.173   3.018   0.140 -0.4147 -0.5618  0.0624
 4278SOL    HW124296   4.127   3.095   0.173  0.2642  0.6881 -1.8803
 4278SOL    HW224297   4.148   3.007   0.048  0.7661 -1.1361 -0.1877
 4279SOL     OW24298   1.992   1.734  14.110 -0.0523 -0.0846  0.3160
 4279SOL    HW124299   1.996   1.825  14.081 -3.3659 -0.0940 -0.1644
 4279SOL    HW224300   2.074   1.729  14.160  1.2798  2.7473 -1.6169
 4280SOL     OW24301   0.263   0.265   4.829  0.1456  0.0228 -0.5592
 4280SOL    HW124302   0.279   0.204   4.757 -0.5160  2.4176 -2.7461
 4280SOL    HW224303   0.332   0.238   4.889  0.2625  0.7697 -0.3529
 4281SOL     OW24304   2.907   3.053   4.057  0.1563  0.1189  0.4489
 4281SOL    HW124305   2.968   3.125   4.045  0.6958 -0.6534 -1.4221
 4281SOL    HW224306   2.876   3.049   3.967 -0.1112 -3.0915  0.6754
 4282SOL     OW24307   2.002   3.500   1.529 -0.2208 -0.2862  0.4726
 4282SOL    HW124308   1.928   3.549   1.564 -0.2274  0.8842 -1.2028
 4282SOL    HW224309   2.056   3.575   1.504  0.2079 -0.0639  2.0979
 4283SOL     OW24310   4.098   4.669   3.573 -0.2805 -0.7536 -0.4398
 4283SOL    HW124311   4.100   4.645   3.666 -1.2906  1.4544  0.1503
 4283SOL    HW224312   4.014   4.715   3.572  1.6927  2.7976  0.1138
 4284SOL     OW24313   2.537   1.586   8.740 -0.4389  0.1637  0.1564
 4284SOL    HW124314   2.529   1.493   8.720  0.6881 -0.2711  1.7258
 4284SOL    HW224315   2.620   1.607   8.696  0.8146  0.7875  2.8206
 4285SOL     OW24316   2.130   1.581   7.261 -0.2411 -0.1152 -0.2036
 4285SOL    HW124317   2.200   1.622   7.210  1.4601  2.0455  3.8625
 4285SOL    HW224318   2.083   1.662   7.280  0.7291  0.7350 -1.3777
 4286SOL     OW24319   3.204   3.254   1.551 -0.2431  0.2138  0.8279
 4286SOL    HW124320   3.114   3.278   1.575 -0.2527 -0.0398  1.0455
 4286SOL    HW224321   3.193   3.193   1.479 -0.1822  0.4429  0.6267
 4287SOL     OW24322   4.341   0.390   4.218 -0.7286  0.4119 -0.4228
 4287SOL    HW124323   4.412   0.390   4.155  1.0033 -0.2073  1.5280
 4287SOL    HW224324   4.330   0.485   4.227  0.9381  0.7122 -1.5716
 4288SOL     OW24325   2.745   0.578   8.673 -0.2254  0.4618 -0.1272
 4288SOL    HW124326   2.770   0.503   8.726 -2.2671  0.7508  1.2672
 4288SOL    HW224327   2.826   0.629   8.665 -0.6812  1.1350 -0.5276
 4289SOL     OW24328   2.539   2.292   3.406 -0.8643  0.6717  0.3750
 4289SOL    HW124329   2.461   2.335   3.440  0.9541  1.0509  4.0494
 4289SOL    HW224330   2.543   2.210   3.454  3.3020  0.8922  0.4495
 4290SOL     OW24331   3.398   1.780   5.619 -0.1882  0.3446  0.2507
 4290SOL    HW124332   3.323   1.836   5.601 -0.4062  1.1173  3.5558
 4290SOL    HW224333   3.361   1.736   5.696  2.0371 -0.1226  1.0478
 4291SOL     OW24334   3.009   0.379   7.907  0.1901  0.3159 -0.0089
 4291SOL    HW124335   3.006   0.473   7.886  0.6413  0.2081 -0.5580
 4291SOL    HW224336   2.935   0.361   7.965 -0.7679 -1.3536 -1.7590
 4292SOL     OW24337   3.560   2.122   0.684  0.3917 -0.6355 -0.1826
 4292SOL    HW124338   3.573   2.029   0.703 -2.7139 -1.2272 -1.0192
 4292SOL    HW224339   3.648   2.157   0.701  0.2689 -1.2325  1.7356
 4293SOL     OW24340   2.247   4.108   2.194 -0.1135  0.2420  0.1337
 4293SOL    HW124341   2.274   4.154   2.115  1.0447 -0.6585 -0.0024
 4293SOL    HW224342   2.248   4.184   2.251  1.1673 -0.3003  0.8317
 4294SOL     OW24343   1.513   4.381   5.642  0.1456 -0.1519 -0.1088
 4294SOL    HW124344   1.549   4.449   5.698 -1.9245  1.5376 -0.8023
 4294SOL    HW224345   1.508   4.306   5.701 -1.4548  0.2722  0.2937
 4295SOL     OW24346   2.686   2.839   2.115  0.1908  0.2188  0.3040
 4295SOL    HW124347   2.666   2.895   2.040  0.9982  0.1138  0.0174
 4295SOL    HW224348   2.611   2.779   2.110  2.4913 -2.7471  1.4630
 4296SOL     OW24349   2.617   4.418   8.892  0.2986  0.2135  0.0133
 4296SOL    HW124350   2.602   4.511   8.875 -0.9365  0.2645  1.3366
 4296SOL    HW224351   2.563   4.377   8.824 -0.7038  1.3154  0.1465
 4297SOL     OW24352   3.708   3.819  12.524  0.1142 -0.1248 -0.0929
 4297SOL    HW124353   3.691   3.770  12.443 -0.6694 -1.0072  0.6085
 4297SOL    HW224354   3.613   3.826  12.536  0.5518  2.7302  1.5791
 4298SOL     OW24355   1.748   3.151   8.782  0.2633 -0.2929 -0.1370
 4298SOL    HW124356   1.789   3.238   8.780 -0.1951 -0.0202  2.4377
 4298SOL    HW224357   1.654   3.168   8.789 -0.1253 -3.5119  2.2205
 4299SOL     OW24358   1.992   0.430   7.829  0.4627 -0.2099  0.2767
 4299SOL    HW124359   1.939   0.436   7.749 -0.1404  1.3629  0.7959
 4299SOL    HW224360   2.065   0.473   7.785 -0.1227 -1.2926 -1.7233
 4300SOL     OW24361   1.191   4.690   6.275 -0.7969  0.5870 -0.7934
 4300SOL    HW124362   1.105   4.650   6.267 -0.0987 -0.4260 -3.4698
 4300SOL    HW224363   1.164   0.050   6.320 -0.5332 -0.1862  0.7139
 4301SOL     OW24364   4.212   2.477   4.983 -0.3149 -0.2777 -0.2161
 4301SOL    HW124365   4.272   2.551   4.989  0.1755 -0.5839 -1.4197
 4301SOL    HW224366   4.144   2.511   4.924  0.5904 -0.1915 -1.1952
 4302SOL     OW24367   3.548   2.515   3.138  0.3567  0.1412 -0.4535
 4302SOL    HW124368   3.483   2.549   3.077 -0.2029  1.0140  0.6408
 4302SOL    HW224369   3.584   2.445   3.083  2.1196  1.3644 -0.8648
 4303SOL     OW24370   4.292   4.008   1.903  0.1295  0.1301  0.4277
 4303SOL    HW124371   4.271   3.915   1.906 -2.0917  0.6924  2.6267
 4303SOL    HW224372   4.240   4.049   1.835  1.1972 -0.4938 -0.7696
 4304SOL     OW24373   3.893   1.202  13.240 -0.7781 -0.0161  0.5064
 4304SOL    HW124374   3.814   1.217  13.293 -0.8494 -1.1581  0.7256
 4304SOL    HW224375   3.945   1.170  13.313  0.2690 -0.4717 -0.4357
 4305SOL     OW24376   2.010   2.374   1.740 -0.3464 -0.1365 -0.0408
 4305SOL    HW124377   2.047   2.337   1.820  1.4571 -0.3512 -0.9591
 4305SOL    HW224378   2.014   2.469   1.753  0.5693 -0.5084  2.4423
 4306SOL     OW24379   1.164   2.543  11.939  0.5497  0.1066 -0.0369
 4306SOL    HW124380   1.147   2.637  11.934  0.6395  0.1556  0.5356
 4306SOL    HW224381   1.245   2.544  11.889  0.4955  0.8897 -0.0952
 4307SOL     OW24382   1.145   2.552   6.037 -0.6720  0.0889  0.3870
 4307SOL    HW124383   1.114   2.552   5.947  1.5745  2.4040 -0.3938
 4307SOL    HW224384   1.102   2.472   6.067 -0.2052  0.7938  2.8941
 4308SOL     OW24385   3.211   0.688   2.072 -0.3181  0.1191  0.2064
 4308SOL    HW124386   3.130   0.735   2.092 -0.8785  0.2184 -2.3350
 4308SOL    HW224387   3.275   0.757   2.088  0.0951 -0.3961  0.7970
 4309SOL     OW24388   2.517   0.553  11.387 -0.2785 -0.6888 -0.0887
 4309SOL    HW124389   2.602   0.594  11.404 -0.4458  0.5808 -2.3581
 4309SOL    HW224390   2.502   0.520  11.476  0.5308 -2.4132 -0.5888
 4310SOL     OW24391   0.947   0.593   9.119  0.9505  0.1312  0.3987
 4310SOL    HW124392   1.034   0.599   9.158  0.8164  0.9710  0.5621
 4310SOL    HW224393   0.896   0.564   9.195  3.2906  0.7325  2.1766
 4311SOL     OW24394   1.907   2.652   9.134  0.0333  0.4113  0.0537
 4311SOL    HW124395   1.937   2.733   9.092  2.1879  0.4871  1.7729
 4311SOL    HW224396   1.883   2.684   9.221  2.2816  1.2978  0.3484
 4312SOL     OW24397   4.096   3.367  10.879  0.2323 -0.4518  0.1055
 4312SOL    HW124398   4.089   3.389  10.786  2.3980 -2.7115 -0.6054
 4312SOL    HW224399   4.174   3.311  10.879  2.1297  2.1811  1.8580
 4313SOL     OW24400   2.844   3.196   2.051  0.0325  0.4194  0.3880
 4313SOL    HW124401   2.793   3.218   2.128  1.6432  0.0392  1.5693
 4313SOL    HW224402   2.776   3.146   2.005  0.6295  0.0921 -0.1498
 4314SOL     OW24403   3.600   1.582   4.289 -0.2017  0.0966 -0.0182
 4314SOL    HW124404   3.599   1.655   4.228 -0.5283  1.2960  1.4060
 4314SOL    HW224405   3.618   1.509   4.230 -0.4868 -1.4210  1.7602
 4315SOL     OW24406   0.248   3.275   1.142 -0.2323 -0.5314  0.0594
 4315SOL    HW124407   0.172   3.277   1.199 -0.7890 -1.0478 -0.6759
 4315SOL    HW224408   0.290   3.201   1.186 -3.4840 -1.0735  2.2159
 4316SOL     OW24409   0.046   2.122  15.171 -0.1828  0.2451 -0.1719
 4316SOL    HW124410   4.705   2.158  15.106  1.2170  4.0682  0.6099
 4316SOL    HW224411   0.082   2.056  15.113  0.2008 -0.5111  0.9257
 4317SOL     OW24412   1.201   1.295   6.313 -0.3635  0.9846 -0.0091
 4317SOL    HW124413   1.161   1.246   6.385 -0.4172  0.9345 -0.0734
 4317SOL    HW224414   1.292   1.267   6.312 -0.6887 -0.0621  0.5303
 4318SOL     OW24415   2.384   2.707   6.055  0.7976 -0.3316  0.3883
 4318SOL    HW124416   2.387   2.617   6.085 -0.7190 -0.0973  1.2458
 4318SOL    HW224417   2.471   2.704   6.016 -0.1688 -1.2631 -1.6551
 4319SOL     OW24418   2.776   0.996   9.355 -0.5026 -0.4874 -0.1032
 4319SOL    HW124419   2.702   0.987   9.415  0.2397 -0.6046  0.7933
 4319SOL    HW224420   2.851   0.946   9.386 -0.7271 -0.2091  0.8711
 4320SOL     OW24421   4.237   1.978   2.765 -0.2474  0.6268  0.0980
 4320SOL    HW124422   4.222   1.905   2.704 -0.2489 -0.1868  1.0740
 4320SOL    HW224423   4.180   2.043   2.724 -0.5728  0.1857 -0.1488
 4321SOL     OW24424   0.645   2.192  12.953 -0.1107 -0.3466  0.1857
 4321SOL    HW124425   0.652   2.230  13.040 -2.8554  2.0323 -0.6135
 4321SOL    HW224426   0.609   2.104  12.965  0.6001 -1.0150 -2.6916
 4322SOL     OW24427   1.141   3.564  14.174  0.3491 -0.2665 -0.1372
 4322SOL    HW124428   1.172   3.622  14.244 -2.1082  2.5290 -1.3321
 4322SOL    HW224429   1.079   3.504  14.216  0.1496 -1.1269 -1.6813
 4323SOL     OW24430   3.057   2.188   8.746 -0.2260  0.0066  0.4794
 4323SOL    HW124431   3.137   2.174   8.796  0.5130 -1.0223 -0.9736
 4323SOL    HW224432   3.066   2.277   8.712 -1.7306  0.2852  0.7979
 4324SOL     OW24433   2.349   4.606   6.992 -0.6781  0.4616 -0.1692
 4324SOL    HW124434   2.365   4.520   6.954 -0.1855  0.2736  0.4719
 4324SOL    HW224435   2.315   4.584   7.078  1.6630  0.1489  0.6639
 4325SOL     OW24436   4.088   1.029   9.323 -0.6702  0.1326 -0.1590
 4325SOL    HW124437   4.079   1.073   9.407 -0.5076  0.8504 -0.5151
 4325SOL    HW224438   4.071   1.092   9.253  0.3002  0.8264  0.2347
 4326SOL     OW24439   1.497   2.288   1.037  0.5349 -0.0870  0.1075
 4326SOL    HW124440   1.503   2.223   1.107 -0.7013  0.9530  1.1544
 4326SOL    HW224441   1.496   2.367   1.090 -1.0091  1.0972 -1.6700
 4327SOL     OW24442   1.315   1.969   6.069  0.0307  0.7473  0.4546
 4327SOL    HW124443   1.273   2.054   6.056 -1.4757 -0.1737 -0.5764
 4327SOL    HW224444   1.273   1.945   6.151  1.2431 -0.9429  0.5841
 4328SOL     OW24445   4.155   1.993   9.636 -0.2498 -0.3317  0.7916
 4328SOL    HW124446   4.062   1.972   9.645  0.4534 -3.3606  1.3137
 4328SOL    HW224447   4.183   1.917   9.584 -0.8145 -0.1875  0.2747
 4329SOL     OW24448   2.614   2.730   8.236  0.5420 -0.5301 -0.1738
 4329SOL    HW124449   2.703   2.753   8.212 -1.2043  3.7659 -2.5613
 4329SOL    HW224450   2.565   2.812   8.228  2.1719  0.4412  0.0035
 4330SOL     OW24451   1.196   4.550  12.513  0.0098 -0.1391 -0.3494
 4330SOL    HW124452   1.133   4.586  12.575  1.8035 -1.0321  1.9794
 4330SOL    HW224453   1.267   4.615  12.521  0.0931 -0.1063 -1.3789
 4331SOL     OW24454   1.993   2.816   7.991  0.2234 -0.1251 -0.0923
 4331SOL    HW124455   2.012   2.873   8.065  1.3247 -0.8561  0.1783
 4331SOL    HW224456   1.940   2.745   8.029 -1.2228  1.8235  1.5390
 4332SOL     OW24457   2.942   3.448   8.420 -0.4521 -0.1309 -0.6024
 4332SOL    HW124458   2.937   3.481   8.510  0.0796  1.2587 -1.0788
 4332SOL    HW224459   2.993   3.371   8.442  0.5377  0.7335  0.0776
 4333SOL     OW24460   0.187   0.516  14.688  0.2850 -0.2389 -0.2852
 4333SOL    HW124461   0.272   0.484  14.720 -0.8317 -1.2442  1.6861
 4333SOL    HW224462   0.202   0.476  14.603  1.9938  0.2607 -0.2351
 4334SOL     OW24463   1.183   3.976  15.882 -0.0201  0.4199 -0.3392
 4334SOL    HW124464   1.163   3.884  15.895 -2.4031  1.0703  0.5308
 4334SOL    HW224465   1.094   4.006  15.866  0.6817  1.9392 -1.4188
 4335SOL     OW24466   3.597   2.059  13.698  0.1792 -0.4480  0.2771
 4335SOL    HW124467   3.682   2.076  13.739  0.8964 -2.2146 -0.4887
 4335SOL    HW224468   3.568   2.149  13.684 -0.6107 -0.8344 -0.5650
 4336SOL     OW24469   3.880   1.924   6.368 -0.0120  0.1121  0.0555
 4336SOL    HW124470   3.785   1.917   6.356 -0.1994 -0.6220  1.9151
 4336SOL    HW224471   3.878   2.019   6.360  4.6724  0.1582 -0.1898
 4337SOL     OW24472   1.836   2.775  11.029 -0.1721  0.4465  0.2291
 4337SOL    HW124473   1.884   2.731  11.099 -2.5559  1.0925  2.2604
 4337SOL    HW224474   1.845   2.708  10.962 -0.0003  1.2989 -0.5935
 4338SOL     OW24475   2.692   1.992  12.086  0.1808 -0.4329  0.0555
 4338SOL    HW124476   2.719   2.083  12.075  1.3505 -0.9741 -1.5650
 4338SOL    HW224477   2.771   1.940  12.093  0.1459 -0.1791  2.1187
 4339SOL     OW24478   3.483   3.703  15.205  0.2860  0.1919  0.2091
 4339SOL    HW124479   3.515   3.613  15.209 -0.8859 -0.2325  0.0752
 4339SOL    HW224480   3.476   3.731  15.296 -0.8299  1.1298 -0.1555
 4340SOL     OW24481   3.890   1.629  12.408 -0.0266 -0.4320  0.2477
 4340SOL    HW124482   3.926   1.546  12.376  0.2607 -0.0050 -0.5339
 4340SOL    HW224483   3.833   1.598  12.479 -1.9151 -0.0249 -1.0746
 4341SOL     OW24484   3.220   3.137   3.236  0.1017 -0.1308  0.5604
 4341SOL    HW124485   3.282   3.094   3.176 -2.1135 -1.8544 -0.4819
 4341SOL    HW224486   3.265   3.110   3.316  0.8718  1.7563  0.7463
 4342SOL     OW24487   2.598   0.694  10.330  0.4466  0.2422 -0.2016
 4342SOL    HW124488   2.628   0.648  10.408 -0.2175 -0.0908 -0.1380
 4342SOL    HW224489   2.597   0.629  10.259 -1.7762 -0.4984  0.5025
 4343SOL     OW24490   3.139   1.643   4.591  0.5573  0.4988 -0.2369
 4343SOL    HW124491   3.226   1.635   4.552 -0.4569 -1.2155 -2.1588
 4343SOL    HW224492   3.091   1.663   4.511 -1.9066 -1.1405  0.8279
 4344SOL     OW24493   1.317   2.611   3.486  0.1189 -0.4459  0.3099
 4344SOL    HW124494   1.350   2.689   3.442 -1.0750 -0.5735 -0.8238
 4344SOL    HW224495   1.229   2.629   3.517  0.4251  0.6778  0.5203
 4345SOL     OW24496   0.672   0.461   5.574 -0.4267  0.0853  0.1016
 4345SOL    HW124497   0.706   0.376   5.602  2.3509  0.4634 -2.1278
 4345SOL    HW224498   0.756   0.504   5.561 -0.4477 -0.3217 -1.3822
 4346SOL     OW24499   0.627   3.179   3.786  0.4709 -0.3113 -0.1775
 4346SOL    HW124500   0.541   3.188   3.746  1.2805  1.7101 -1.4175
 4346SOL    HW224501   0.667   3.263   3.765 -0.7430  0.1755 -0.5154
 4347SOL     OW24502   4.517   1.806   7.644 -0.1469  0.3850 -0.5835
 4347SOL    HW124503   4.600   1.820   7.690 -0.9032 -1.2064  1.2429
 4347SOL    HW224504   4.499   1.718   7.677 -1.1846  0.3771 -1.1706
 4348SOL     OW24505   1.627   3.118   4.440  0.1083 -0.2406 -0.0090
 4348SOL    HW124506   1.553   3.080   4.487  0.4034  0.1149  0.7531
 4348SOL    HW224507   1.596   3.126   4.350  1.2345  0.5186 -0.3297
 4349SOL     OW24508   4.326   4.443   8.957 -0.3726 -0.0233  0.4160
 4349SOL    HW124509   4.329   4.513   9.022 -2.5303 -0.6346  1.1877
 4349SOL    HW224510   4.289   4.381   9.020  0.0435 -1.1844 -0.4836
 4350SOL     OW24511   3.279   3.234   4.327  0.3271  0.4654 -0.6462
 4350SOL    HW124512   3.309   3.256   4.415 -1.2748  2.7411 -0.6598
 4350SOL    HW224513   3.354   3.254   4.272 -0.7128  1.8718 -1.5559
 4351SOL     OW24514   3.419   2.087  14.195 -0.1090  0.2183  0.1507
 4351SOL    HW124515   3.437   2.181  14.189  1.6265 -0.3028 -2.9373
 4351SOL    HW224516   3.434   2.057  14.106 -2.1085  0.2595 -0.1906
 4352SOL     OW24517   3.670   2.985   2.386  0.0927 -0.9472  0.4231
 4352SOL    HW124518   3.646   3.062   2.334  0.9690 -0.4389  0.7684
 4352SOL    HW224519   3.763   3.003   2.402  0.6438 -1.3915 -2.1343
 4353SOL     OW24520   0.680   3.312   6.082 -0.4055  0.7357  0.5373
 4353SOL    HW124521   0.585   3.302   6.069 -0.3421  0.8366 -0.0023
 4353SOL    HW224522   0.678   3.382   6.147  3.0284  1.4161 -0.0898
 4354SOL     OW24523   0.201   4.658   2.848 -0.0070  1.3480 -0.0216
 4354SOL    HW124524   0.199   0.023   2.803  1.1823  2.1809  1.4806
 4354SOL    HW224525   0.289   4.634   2.820  0.0049 -1.6063  2.5238
 4355SOL     OW24526   2.462   4.387   6.075 -0.6810 -0.5329  0.4397
 4355SOL    HW124527   2.442   4.462   6.019  0.0852 -0.2991  0.4791
 4355SOL    HW224528   2.507   4.324   6.018 -2.7359  0.4600 -2.3038
 4356SOL     OW24529   0.272   0.787   2.861 -0.1546  0.3125  0.1362
 4356SOL    HW124530   0.259   0.851   2.791 -0.5619  1.6988  1.4809
 4356SOL    HW224531   0.367   0.782   2.867  0.0406  1.2390 -2.1707
 4357SOL     OW24532   0.898   2.514  16.545  0.0608 -0.0142 -0.5320
 4357SOL    HW124533   0.882   2.521  16.639 -1.5689  1.1761 -0.8762
 4357SOL    HW224534   0.817   2.465  16.529  0.0731 -0.5084  0.9884
 4358SOL     OW24535   1.493   1.586   4.587  0.4387  0.4596  0.0309
 4358SOL    HW124536   1.432   1.633   4.644 -2.0389 -0.5340 -1.8346
 4358SOL    HW224537   1.520   1.656   4.528  0.6897  0.0159 -0.3815
 4359SOL     OW24538   4.118   2.792  10.560 -0.1267 -0.2245 -0.7213
 4359SOL    HW124539   4.167   2.709  10.561  0.5834  0.1697 -2.6706
 4359SOL    HW224540   4.115   2.819  10.468 -1.1214  2.5267  0.1256
 4360SOL     OW24541   0.222   0.311  16.625  0.5804  0.4114  0.3849
 4360SOL    HW124542   0.190   0.263  16.549  0.5779 -0.6475  1.0473
 4360SOL    HW224543   0.183   0.396  16.603  0.2646 -0.0918 -0.9870
 4361SOL     OW24544   3.263   0.193   7.244  0.4938 -0.9143  0.1679
 4361SOL    HW124545   3.252   0.187   7.339 -2.0018  0.9931  0.0172
 4361SOL    HW224546   3.324   0.267   7.249  1.0930 -1.3684 -0.4083
 4362SOL     OW24547   1.417   1.203   4.843 -0.0985 -0.3991 -0.3555
 4362SOL    HW124548   1.430   1.268   4.774 -1.9134 -0.1602 -0.4668
 4362SOL    HW224549   1.334   1.240   4.872 -0.7835 -1.4082 -1.0212
 4363SOL     OW24550   0.083   2.411   6.359 -0.0586  0.1050  0.0710
 4363SOL    HW124551   0.095   2.506   6.360 -0.6713  0.2243 -2.1729
 4363SOL    HW224552   4.709   2.409   6.381 -0.1228 -2.4554 -0.4378
 4364SOL     OW24553   3.546   2.411  13.144  0.4240  0.5802  0.0746
 4364SOL    HW124554   3.514   2.501  13.137  1.6336  1.0542  0.6077
 4364SOL    HW224555   3.640   2.420  13.158  0.0409  3.0165  1.1228
 4365SOL     OW24556   1.861   1.909   9.719 -0.3697  0.6817  0.0186
 4365SOL    HW124557   1.829   1.889   9.807 -1.6121  1.1859 -0.3043
 4365SOL    HW224558   1.803   1.859   9.663  0.2782 -2.1537  1.8910
 4366SOL     OW24559   2.990   0.366   6.923  0.2927 -0.0138 -0.3323
 4366SOL    HW124560   3.007   0.286   6.973 -2.6185  0.2869  1.1315
 4366SOL    HW224561   2.898   0.374   6.947  0.5412  2.1768 -0.0554
 4367SOL     OW24562   3.606   2.260   7.399 -0.0731  0.4798 -0.1784
 4367SOL    HW124563   3.671   2.195   7.427 -2.1787 -1.0725  1.0476
 4367SOL    HW224564   3.528   2.206   7.415  0.1090  1.0663  2.6721
 4368SOL     OW24565   3.564   1.773  11.576  0.3814  0.1890 -0.5253
 4368SOL    HW124566   3.509   1.825  11.634  1.6350 -0.0773  0.9141
 4368SOL    HW224567   3.637   1.834  11.568  0.0380  0.5930 -0.5258
 4369SOL     OW24568   1.566   1.004   5.665 -0.3257 -0.3857 -0.1566
 4369SOL    HW124569   1.481   0.962   5.679 -2.4340  2.4191 -4.5954
 4369SOL    HW224570   1.547   1.094   5.692 -1.0975 -1.2639  2.2475
 4370SOL     OW24571   0.907   3.289  10.395 -0.0719 -0.5394 -0.2350
 4370SOL    HW124572   0.830   3.246  10.430 -0.0794 -0.4554 -0.1479
 4370SOL    HW224573   0.920   3.244  10.311 -1.9402 -1.1812 -0.1802
 4371SOL     OW24574   4.528   0.136   1.709  0.1120 -0.6618 -0.5997
 4371SOL    HW124575   4.575   0.064   1.751 -0.7839 -0.7507  0.2438
 4371SOL    HW224576   4.598   0.196   1.684 -0.2354  0.4344  1.0812
 4372SOL     OW24577   1.445   0.870   2.461 -0.0459 -0.4962  0.3100
 4372SOL    HW124578   1.362   0.829   2.486 -0.0260  1.1492  3.0983
 4372SOL    HW224579   1.436   0.957   2.499  1.7649  0.0993 -0.6431
 4373SOL     OW24580   2.456   2.571   0.120 -0.1586  0.8148 -0.2806
 4373SOL    HW124581   2.411   2.544   0.040 -1.1301 -1.0495  0.8958
 4373SOL    HW224582   2.442   2.665   0.113 -0.9138  0.7207 -0.0534
 4374SOL     OW24583   0.234   3.676  17.581  0.9362 -0.8716 -0.6168
 4374SOL    HW124584   0.308   3.736  17.568  1.2801 -1.1961 -0.1852
 4374SOL    HW224585   0.261   3.624  17.657 -0.8647 -0.0513  0.5732
 4375SOL     OW24586   3.804   0.239   6.866 -0.4268  0.4091  0.0952
 4375SOL    HW124587   3.769   0.234   6.955  0.2411 -1.9449  0.2247
 4375SOL    HW224588   3.755   0.169   6.823  0.5664 -0.5066  0.4495
 4376SOL     OW24589   4.616   3.527   6.201  0.1230  0.5106 -0.5146
 4376SOL    HW124590   4.535   3.498   6.243  0.4602 -0.0537 -0.2514
 4376SOL    HW224591   4.679   3.461   6.232  0.7942  0.5351 -1.8120
 4377SOL     OW24592   3.357   2.571   2.065  0.1360  0.0328  0.5392
 4377SOL    HW124593   3.436   2.615   2.036 -1.3528  2.0871 -0.3665
 4377SOL    HW224594   3.293   2.642   2.063 -3.5024 -3.2707 -0.5154
 4378SOL     OW24595   0.803   1.896   8.944 -0.0857  0.5858  0.3973
 4378SOL    HW124596   0.894   1.901   8.974  0.0364  0.0599  0.1002
 4378SOL    HW224597   0.765   1.957   9.008 -1.4268  0.4168 -0.2345
 4379SOL     OW24598   3.411   2.892   7.176 -0.0152 -0.0013  0.2109
 4379SOL    HW124599   3.472   2.954   7.136 -0.9070  0.7628  0.0363
 4379SOL    HW224600   3.451   2.809   7.151  0.3498 -0.0691  1.0185
 4380SOL     OW24601   3.629   0.236   3.187  0.2751  0.1033 -0.3198
 4380SOL    HW124602   3.615   0.296   3.260  1.7126  0.7711 -0.5793
 4380SOL    HW224603   3.538   0.235   3.159  0.2193  2.2391 -0.2510
 4381SOL     OW24604   3.321   3.739  12.276  0.5808  0.2291 -0.2966
 4381SOL    HW124605   3.313   3.756  12.182  0.3862  0.0004 -0.3219
 4381SOL    HW224606   3.301   3.826  12.311 -2.7629 -1.0983  1.0582
 4382SOL     OW24607   0.720   3.599   6.338 -0.1885  0.0039  0.6229
 4382SOL    HW124608   0.678   3.637   6.415 -0.4254 -0.5726  0.7818
 4382SOL    HW224609   0.780   3.536   6.379  0.2467  0.6619  0.9835
 4383SOL     OW24610   2.992   4.129   6.255  0.2739 -0.2116 -0.1768
 4383SOL    HW124611   3.046   4.182   6.314  0.1811 -0.5310  0.1978
 4383SOL    HW224612   3.049   4.052   6.251 -0.5983 -0.7319 -2.8245
 4384SOL     OW24613   4.538   1.382   7.996  0.2968 -0.5885 -0.2136
 4384SOL    HW124614   4.461   1.325   8.004 -0.6039  0.4595 -1.2254
 4384SOL    HW224615   4.592   1.353   8.069  0.5241  0.1445 -0.0858
 4385SOL     OW24616   2.892   3.226   7.676 -0.1935 -0.3708  0.1121
 4385SOL    HW124617   2.921   3.173   7.602  0.4466 -0.3660  0.3546
 4385SOL    HW224618   2.977   3.270   7.680  1.1810 -2.7062 -3.3506
 4386SOL     OW24619   2.859   0.236   1.288 -0.0973 -0.3171  0.1461
 4386SOL    HW124620   2.831   0.233   1.379 -0.1668  1.2118  0.1797
 4386SOL    HW224621   2.939   0.290   1.290  1.4690 -2.5806 -1.9774
 4387SOL     OW24622   0.222   1.187   2.310 -0.3555 -0.2933 -0.1126
 4387SOL    HW124623   0.154   1.255   2.310  0.4739  0.5329 -0.2602
 4387SOL    HW224624   0.166   1.110   2.303 -0.4284 -0.2499 -0.0183
 4388SOL     OW24625   2.307   2.446   3.526  0.4930  0.4087  0.4220
 4388SOL    HW124626   2.279   2.519   3.471  3.6912  2.5585  1.6281
 4388SOL    HW224627   2.333   2.493   3.605 -0.7017  1.4135  0.2236
 4389SOL     OW24628   2.607   3.472  17.570 -0.3040  0.7208 -0.1866
 4389SOL    HW124629   2.670   3.523  17.520  1.7585  1.1665  2.9247
 4389SOL    HW224630   2.607   3.518  17.654  1.0404  0.4503 -0.0481
 4390SOL     OW24631   4.088   1.506  12.568  0.2933 -0.5454 -0.2194
 4390SOL    HW124632   3.995   1.493  12.588 -0.1896  0.8708 -1.5446
 4390SOL    HW224633   4.089   1.599  12.543  1.8995 -1.0201 -1.9072
 4391SOL     OW24634   3.090   1.433   6.127  0.1132  0.9412 -0.1143
 4391SOL    HW124635   3.087   1.503   6.062  1.5107  1.3403  0.2460
 4391SOL    HW224636   3.175   1.442   6.170  0.0493  1.2506 -0.0525
 4392SOL     OW24637   1.000   0.236   2.816  0.0262 -0.0203  0.2401
 4392SOL    HW124638   1.046   0.265   2.894  1.0115 -0.4903 -0.1676
 4392SOL    HW224639   0.916   0.214   2.857  0.4064 -1.9031  0.0103
 4393SOL     OW24640   0.400   3.700   8.113 -0.3993 -0.0269 -0.3012
 4393SOL    HW124641   0.357   3.730   8.033  0.5632  1.1444 -0.3825
 4393SOL    HW224642   0.324   3.652   8.147  0.3362 -0.6279  0.4767
 4394SOL     OW24643   0.662   4.478   8.997  0.0526  0.8891 -0.3086
 4394SOL    HW124644   0.698   4.396   8.964 -0.8510  1.0952 -1.8421
 4394SOL    HW224645   0.578   4.455   9.037 -0.7999  0.8416 -2.1124
 4395SOL     OW24646   0.744   2.004  15.961  0.0564 -0.0356  0.2239
 4395SOL    HW124647   0.702   1.981  15.877  0.1954  2.4809 -0.5317
 4395SOL    HW224648   0.737   1.922  16.010  1.2996 -0.4926 -0.3711
 4396SOL     OW24649   3.119   3.229   8.472 -0.2066 -0.3807 -0.0877
 4396SOL    HW124650   3.200   3.216   8.522 -1.7937  1.5712  2.9780
 4396SOL    HW224651   3.094   3.137   8.471 -1.1550 -0.0997 -1.2626
 4397SOL     OW24652   3.687   2.526   5.448  0.2628  0.1287  0.1336
 4397SOL    HW124653   3.689   2.500   5.540 -0.3825 -0.6942 -0.0795
 4397SOL    HW224654   3.758   2.590   5.442 -0.5053  0.9033 -0.6205
 4398SOL     OW24655   0.458   3.106   0.320 -0.1254  0.4616  0.1415
 4398SOL    HW124656   0.543   3.149   0.309 -0.2886  0.3290 -1.6812
 4398SOL    HW224657   0.489   3.041   0.383  1.2803 -0.1362 -1.1654
 4399SOL     OW24658   3.523   3.888   6.861 -0.1574  0.1418 -0.1768
 4399SOL    HW124659   3.541   3.876   6.954  0.4296  0.7612 -0.2121
 4399SOL    HW224660   3.428   3.888   6.853 -0.1995  1.5715  0.3653
 4400SOL     OW24661   1.928   2.270   5.730  0.2040  0.0341 -0.1206
 4400SOL    HW124662   1.930   2.361   5.760  0.9409 -1.0829  3.2452
 4400SOL    HW224663   1.891   2.228   5.808  1.5463  3.1490  2.1815
 4401SOL     OW24664   3.253   1.514   5.118 -0.1931 -0.3193 -0.7603
 4401SOL    HW124665   3.168   1.485   5.086 -1.1657  0.1823  1.3846
 4401SOL    HW224666   3.236   1.549   5.205 -0.4169 -1.0130 -0.5262
 4402SOL     OW24667   2.095   4.244   5.486 -0.7250  0.0808 -0.3801
 4402SOL    HW124668   2.144   4.327   5.485 -1.5510  0.5775 -0.1220
 4402SOL    HW224669   2.008   4.283   5.499  0.2751  0.9066  3.7000
 4403SOL     OW24670   4.077   0.463   2.933  0.5825  0.2100 -0.0898
 4403SOL    HW124671   4.139   0.515   2.985 -3.2361  0.1278  4.5169
 4403SOL    HW224672   4.021   0.432   3.004 -0.1146  0.6075 -0.4601
 4404SOL     OW24673   2.574   0.177  16.436 -0.1168 -0.6462 -0.0257
 4404SOL    HW124674   2.606   0.222  16.514  0.1729  2.0959 -1.7272
 4404SOL    HW224675   2.519   0.110  16.476 -0.0104  0.3492  1.7989
 4405SOL     OW24676   2.536   3.219  14.715  0.8197 -0.1818 -0.6317
 4405SOL    HW124677   2.545   3.297  14.769  2.6326  0.5075 -1.9070
 4405SOL    HW224678   2.443   3.200  14.705  0.3518  0.9869  1.6483
 4406SOL     OW24679   1.027   3.730   4.852 -0.3758 -0.1750  0.1748
 4406SOL    HW124680   1.059   3.752   4.939  0.5380  0.0384 -0.2240
 4406SOL    HW224681   1.045   3.810   4.802  0.2824 -0.5548 -0.1792
 4407SOL     OW24682   1.356   3.454  14.407 -0.8611  0.1897 -0.0910
 4407SOL    HW124683   1.285   3.424  14.350 -1.8050  0.1399  1.1180
 4407SOL    HW224684   1.325   3.544  14.415 -1.1375  0.1195 -0.3794
 4408SOL     OW24685   3.868   2.664  15.086  0.4823  0.3840 -0.2714
 4408SOL    HW124686   3.882   2.632  14.997  0.4495 -0.4088  0.0045
 4408SOL    HW224687   3.828   2.746  15.058  0.9931  0.0366 -1.9971
 4409SOL     OW24688   3.018   1.469  14.487 -0.4075 -0.6999  0.6884
 4409SOL    HW124689   3.095   1.454  14.432 -0.8392 -1.7679  0.3761
 4409SOL    HW224690   2.950   1.409  14.457 -0.8291 -0.6212  1.5080
 4410SOL     OW24691   4.071   1.725   6.345 -0.2028 -0.7801 -0.4122
 4410SOL    HW124692   4.120   1.752   6.423  0.5040 -2.4741 -0.2710
 4410SOL    HW224693   4.004   1.793   6.340 -0.3642 -1.1578 -3.5695
 4411SOL     OW24694   1.364   1.003  16.908  0.2476  0.4279 -0.1662
 4411SOL    HW124695   1.449   0.960  16.895 -0.1645 -0.7609  1.1344
 4411SOL    HW224696   1.310   0.928  16.885  1.9984 -1.0331  0.5293
 4412SOL     OW24697   3.305   4.518  10.937 -0.4255  0.3369 -0.2492
 4412SOL    HW124698   3.262   4.546  11.018 -2.6365  0.4754 -1.4658
 4412SOL    HW224699   3.379   4.474  10.978 -2.1819 -1.5804  0.8549
 4413SOL     OW24700   0.923   2.618   8.387 -0.2624 -0.5022 -0.9017
 4413SOL    HW124701   0.912   2.624   8.482  0.2922  1.3471 -0.9593
 4413SOL    HW224702   0.932   2.713   8.376 -1.4145 -0.1865  0.8727
 4414SOL     OW24703   4.552   1.722   0.427  0.3125 -0.0478 -0.5609
 4414SOL    HW124704   4.603   1.702   0.349 -0.7471 -0.6279 -1.1088
 4414SOL    HW224705   4.498   1.644   0.437  0.8512 -0.4937 -1.1890
 4415SOL     OW24706   0.986   4.094   3.899 -0.3694 -0.2615  0.5571
 4415SOL    HW124707   1.005   4.172   3.951 -0.0105  0.5568 -0.8236
 4415SOL    HW224708   1.010   4.122   3.811  2.3509 -1.6875  0.8202
 4416SOL     OW24709   3.762   2.441   8.701 -0.0994 -0.2273 -0.7873
 4416SOL    HW124710   3.848   2.468   8.732  0.6654 -0.1838 -2.9923
 4416SOL    HW224711   3.753   2.362   8.756 -2.1294  0.4584 -0.1215
 4417SOL     OW24712   4.522   2.395  11.183  0.3097 -0.1217  0.1516
 4417SOL    HW124713   4.509   2.407  11.089 -0.7184 -0.4921  0.2427
 4417SOL    HW224714   4.530   2.300  11.177 -0.1546 -0.1763  0.4554
 4418SOL     OW24715   2.373   0.540   4.166  0.6734 -0.0620  0.6598
 4418SOL    HW124716   2.449   0.595   4.146 -0.8149  1.7206 -0.1241
 4418SOL    HW224717   2.311   0.573   4.101  1.9296  1.1192  0.0543
 4419SOL     OW24718   0.258   1.808  16.009 -0.2859 -0.5980  0.3625
 4419SOL    HW124719   0.279   1.741  16.075 -0.5793 -1.6382 -0.5931
 4419SOL    HW224720   0.262   1.757  15.928  3.2045  0.4634 -0.1147
 4420SOL     OW24721   0.353   1.950  12.009 -0.2211 -0.6079 -0.0091
 4420SOL    HW124722   0.423   1.899  11.967 -1.2546 -1.4000 -0.7614
 4420SOL    HW224723   0.278   1.906  11.970  0.8539 -0.9691 -1.6610
 4421SOL     OW24724   4.013   4.215   8.819  0.6099 -0.3789  0.0642
 4421SOL    HW124725   3.966   4.298   8.810  0.9240 -0.2180 -0.0953
 4421SOL    HW224726   4.100   4.253   8.811 -1.4520  4.2282 -0.4669
 4422SOL     OW24727   3.015   0.233  16.260 -0.0587 -0.6704 -0.7284
 4422SOL    HW124728   3.035   0.214  16.352  1.8966 -0.3836 -1.0778
 4422SOL    HW224729   3.095   0.281  16.239 -1.4420  1.4808 -1.0296
 4423SOL     OW24730   2.151   4.154  15.114  0.5974  0.3684 -0.3227
 4423SOL    HW124731   2.191   4.237  15.087  0.2494  0.5760 -0.2023
 4423SOL    HW224732   2.132   4.168  15.207  2.5633 -1.8869  0.4091
 4424SOL     OW24733   1.335   1.155  15.578  0.1306  0.3595 -0.0074
 4424SOL    HW124734   1.273   1.134  15.649  0.3050 -2.0457 -0.5379
 4424SOL    HW224735   1.286   1.200  15.509  2.2307  2.1930 -0.2911
 4425SOL     OW24736   1.874   4.518   5.091 -0.2094 -0.1149 -0.4599
 4425SOL    HW124737   1.879   4.459   5.015  0.3840  0.0854 -0.5746
 4425SOL    HW224738   1.966   4.522   5.117 -0.0142  0.9037 -1.3135
 4426SOL     OW24739   0.488   2.853  15.122  0.4733  0.1866  0.3263
 4426SOL    HW124740   0.425   2.784  15.140 -2.1602  2.4674 -0.2027
 4426SOL    HW224741   0.564   2.810  15.161  0.8253  0.8721  0.4098
 4427SOL     OW24742   1.360   1.806   4.119 -0.0451  0.5653  0.1731
 4427SOL    HW124743   1.342   1.833   4.029 -0.7053  2.5235  0.8901
 4427SOL    HW224744   1.426   1.872   4.141  0.7076 -0.1465  0.0311
 4428SOL     OW24745   1.687   3.081  16.568 -0.6044 -0.5025 -0.4924
 4428SOL    HW124746   1.690   2.991  16.601  1.3764 -0.5632 -0.8636
 4428SOL    HW224747   1.699   3.055  16.476  0.8571 -2.9197  0.3905
 4429SOL     OW24748   3.354   0.390   2.718  0.3622 -0.5405  0.1355
 4429SOL    HW124749   3.264   0.401   2.747  1.5320  1.2797  3.0254
 4429SOL    HW224750   3.373   0.304   2.755 -0.5869  0.9008  3.9117
 4430SOL     OW24751   3.896   4.304   4.797 -0.1603  0.1231  0.1265
 4430SOL    HW124752   3.959   4.327   4.729  1.2837 -1.5891  0.8809
 4430SOL    HW224753   3.852   4.230   4.754 -0.1250  1.2900 -1.9330
 4431SOL     OW24754   0.365   3.909   5.665  0.0057 -0.2011 -0.3953
 4431SOL    HW124755   0.342   3.860   5.587  0.7129  0.3432 -0.9472
 4431SOL    HW224756   0.294   3.973   5.668  0.8265  0.7121 -0.0804
 4432SOL     OW24757   1.653   2.075  12.409  0.9486 -0.1939 -0.0268
 4432SOL    HW124758   1.598   2.087  12.487  2.9918  0.5395  1.3177
 4432SOL    HW224759   1.706   2.155  12.407  3.6852 -2.0456 -1.1640
 4433SOL     OW24760   3.749   0.992   7.066 -0.1257  0.5013 -0.4565
 4433SOL    HW124761   3.769   1.048   6.991  0.8042  2.8388  1.5168
 4433SOL    HW224762   3.695   1.047   7.123  0.0783  0.6352 -0.3931
 4434SOL     OW24763   1.807   0.438  12.302 -0.2109  0.4230 -0.1630
 4434SOL    HW124764   1.719   0.457  12.335 -1.2590 -2.4062 -1.3146
 4434SOL    HW224765   1.835   0.528  12.283 -0.3583  0.4096 -0.4506
 4435SOL     OW24766   4.411   4.166  10.478  0.0614 -0.4642 -0.3961
 4435SOL    HW124767   4.498   4.206  10.469  0.4141 -1.3198 -0.8037
 4435SOL    HW224768   4.390   4.182  10.570 -0.3595 -0.2828 -0.5243
 4436SOL     OW24769   2.935   3.699  17.297  0.1835  0.2561 -0.0003
 4436SOL    HW124770   2.878   3.683  17.222  0.7795  0.3794 -0.4731
 4436SOL    HW224771   3.015   3.674  17.252 -0.4648 -1.3111 -0.2852
 4437SOL     OW24772   1.224   3.950   6.115 -0.4773  0.1961  0.6732
 4437SOL    HW124773   1.143   3.998   6.098 -1.5741 -2.5163 -1.7517
 4437SOL    HW224774   1.278   4.016   6.159 -1.8003  1.7644 -0.0760
 4438SOL     OW24775   4.541   1.898  15.013 -0.0984  0.4350 -0.0976
 4438SOL    HW124776   4.458   1.860  15.042 -0.0998 -0.0856 -0.7843
 4438SOL    HW224777   4.543   1.870  14.921 -0.9971 -1.4017  0.4348
 4439SOL     OW24778   2.098   2.845   5.188 -0.1450  0.2789 -0.0579
 4439SOL    HW124779   2.077   2.837   5.095  0.0336 -1.6433  0.0677
 4439SOL    HW224780   2.189   2.818   5.180  0.2330  0.9172  2.1476
 4440SOL     OW24781   3.087   4.593   3.749  0.3625 -0.2097  0.1343
 4440SOL    HW124782   3.021   4.539   3.705  1.4651 -1.6705  0.2590
 4440SOL    HW224783   3.117   4.651   3.679 -0.5108 -0.3167 -0.3331
 4441SOL     OW24784   3.479   1.635   9.630 -0.2570  0.0995  0.5638
 4441SOL    HW124785   3.416   1.617   9.700  1.5290  0.1583  2.2012
 4441SOL    HW224786   3.531   1.554   9.634 -0.1045  0.1125 -1.1643
 4442SOL     OW24787   3.903   3.031   4.240 -0.0942  0.0234 -0.0498
 4442SOL    HW124788   3.922   3.090   4.167  0.8203 -0.8731 -0.5401
 4442SOL    HW224789   3.984   3.003   4.283 -0.7349  1.4523  2.0808
 4443SOL     OW24790   2.013   3.446   8.171 -0.4814 -0.1008 -0.1512
 4443SOL    HW124791   2.042   3.489   8.090 -1.5574  2.3483  0.7689
 4443SOL    HW224792   2.089   3.468   8.225 -0.3422 -0.5964 -0.1461
 4444SOL     OW24793   2.939   0.501  16.026  0.2536  0.2611 -0.0314
 4444SOL    HW124794   3.028   0.468  16.039  0.0494 -0.5282 -0.6412
 4444SOL    HW224795   2.890   0.419  16.021 -1.1197  1.0295  0.7734
 4445SOL     OW24796   3.026   2.039   5.192 -0.4893 -0.2829 -0.5906
 4445SOL    HW124797   2.983   1.993   5.264 -1.2850  2.5237  0.7628
 4445SOL    HW224798   3.073   1.972   5.143  0.5409  0.7848 -1.0807
 4446SOL     OW24799   2.660   0.516  12.196  0.5313 -0.2982  1.0009
 4446SOL    HW124800   2.606   0.565  12.134  1.1405  0.4874  1.0784
 4446SOL    HW224801   2.709   0.452  12.144 -0.8114 -1.2065  0.8856
 4447SOL     OW24802   1.607   2.858   9.081  0.6835  0.0690 -0.0168
 4447SOL    HW124803   1.678   2.865   9.017 -0.0169 -1.3321 -0.9457
 4447SOL    HW224804   1.525   2.855   9.031  0.5681 -1.3835  0.2672
 4448SOL     OW24805   1.803   2.126  12.161 -0.1634 -0.1996 -0.2260
 4448SOL    HW124806   1.831   2.081  12.082 -0.6675 -0.0395 -0.5028
 4448SOL    HW224807   1.727   2.176  12.129 -2.0277 -0.4643  3.7080
 4449SOL     OW24808   2.278   3.874   4.929 -0.2746  0.0533  0.0303
 4449SOL    HW124809   2.251   3.839   4.844 -0.5532  0.7122 -0.1495
 4449SOL    HW224810   2.202   3.864   4.986  0.1855 -1.3387  0.3921
 4450SOL     OW24811   2.745   2.455   5.888 -0.2904 -0.2623  0.5415
 4450SOL    HW124812   2.794   2.526   5.930 -0.6554 -0.6516  1.6155
 4450SOL    HW224813   2.758   2.462   5.794 -1.2821 -1.0921  0.3335
 4451SOL     OW24814   1.480   0.083  17.157  0.3143 -0.2956  0.2578
 4451SOL    HW124815   1.545   0.054  17.092 -0.4462 -0.2964 -0.4949
 4451SOL    HW224816   1.509   0.028  17.230  0.1947 -3.1164 -1.8120
 4452SOL     OW24817   4.314   2.734   8.130 -0.4589 -0.3279 -0.2446
 4452SOL    HW124818   4.226   2.704   8.107 -1.3675  0.4941  2.2130
 4452SOL    HW224819   4.343   2.759   8.042 -0.3718 -1.8310 -0.6384
 4453SOL     OW24820   0.299   4.533   1.180  0.0279  0.0070  0.1599
 4453SOL    HW124821   0.211   4.497   1.193  0.0926 -1.4948 -3.5799
 4453SOL    HW224822   0.282   4.610   1.234  0.4507 -0.7960  1.4369
 4454SOL     OW24823   3.442   3.936   2.483 -0.3324 -0.2494 -0.0160
 4454SOL    HW124824   3.491   3.919   2.564 -0.9327  0.8958  0.5841
 4454SOL    HW224825   3.505   3.911   2.415 -1.5217  1.2089 -1.6531
 4455SOL     OW24826   2.312   3.864   2.348  0.3282  0.2188 -0.2239
 4455SOL    HW124827   2.291   3.871   2.441  0.3973  1.8574 -0.3260
 4455SOL    HW224828   2.281   3.949   2.318  0.5813  0.5389  0.4094
 4456SOL     OW24829   2.283   2.508  13.590 -1.0746 -0.0626  0.1253
 4456SOL    HW124830   2.222   2.495  13.663 -1.7236 -0.2030 -0.4438
 4456SOL    HW224831   2.226   2.462  13.528 -0.8584  1.6621 -1.3897
 4457SOL     OW24832   1.350   0.098   9.569  0.1500  0.0291 -0.8065
 4457SOL    HW124833   1.433   0.087   9.523  1.3571  3.0467  0.6387
 4457SOL    HW224834   1.353   0.192   9.583  1.7368 -0.1086 -0.1878
 4458SOL     OW24835   4.137   3.867   7.840 -0.1359  0.2897  0.2381
 4458SOL    HW124836   4.215   3.923   7.842 -0.3979  0.6612  0.0212
 4458SOL    HW224837   4.167   3.786   7.800  0.9686 -0.4185  2.5447
 4459SOL     OW24838   4.714   1.714   5.498  0.3268  0.3934  0.0569
 4459SOL    HW124839   0.063   1.781   5.499  0.9305 -0.2306  0.7184
 4459SOL    HW224840   4.667   1.750   5.423  1.6171  4.5590  1.2475
 4460SOL     OW24841   0.752   1.868   3.072  0.1276 -0.1404  0.0071
 4460SOL    HW124842   0.689   1.936   3.047  2.5975  1.9734 -0.3608
 4460SOL    HW224843   0.696   1.800   3.110  0.4889 -0.2389  0.3693
 4461SOL     OW24844   1.468   2.802  11.959 -0.0725  0.3197 -0.0890
 4461SOL    HW124845   1.426   2.823  12.042 -1.9000  0.0608 -0.9475
 4461SOL    HW224846   1.511   2.886  11.940  1.4908 -0.2660  0.7955
 4462SOL     OW24847   0.131   2.267   4.839 -0.0540  0.6065 -0.5952
 4462SOL    HW124848   0.086   2.309   4.766 -1.9001  0.2490  0.3392
 4462SOL    HW224849   0.192   2.334   4.870  0.0759  0.1179  0.2171
 4463SOL     OW24850   1.104   2.718  15.348 -0.2998 -0.7238 -0.3197
 4463SOL    HW124851   1.185   2.689  15.305 -0.7172 -1.0201 -0.9092
 4463SOL    HW224852   1.143   2.798  15.383 -0.3474 -1.7343  2.0821
 4464SOL     OW24853   2.663   1.195   6.952  0.1637  0.5296  0.0079
 4464SOL    HW124854   2.659   1.261   6.883 -1.0213  1.8893  1.3686
 4464SOL    HW224855   2.593   1.134   6.931 -0.3192  0.9935  0.2569
 4465SOL     OW24856   1.939   1.760  10.523 -0.0637 -0.3835  0.0594
 4465SOL    HW124857   1.868   1.801  10.474  0.3069 -0.1216 -0.2603
 4465SOL    HW224858   2.019   1.790  10.480  0.6023 -1.2641  0.7021
 4466SOL     OW24859   1.011   2.730   4.500  0.1180 -0.6449 -0.4029
 4466SOL    HW124860   1.072   2.684   4.443  1.7343  0.4885  0.3993
 4466SOL    HW224861   0.931   2.696   4.460 -0.5704  0.7992 -0.2766
 4467SOL     OW24862   4.107   2.801   5.740  0.0205  0.6015 -0.2918
 4467SOL    HW124863   4.031   2.743   5.739 -0.5324  1.3301 -0.2333
 4467SOL    HW224864   4.175   2.734   5.730  0.2978  1.0976 -1.7475
 4468SOL     OW24865   0.970   0.739   6.617  0.0787  0.0856  0.6434
 4468SOL    HW124866   1.031   0.734   6.691 -1.9193  1.6622  2.3903
 4468SOL    HW224867   1.005   0.668   6.564  0.3925  1.5479 -1.1252
 4469SOL     OW24868   0.790   3.110  15.908 -0.0921 -0.2477 -0.4354
 4469SOL    HW124869   0.795   3.205  15.912  0.0283 -0.2251 -1.0569
 4469SOL    HW224870   0.698   3.096  15.882 -0.1496  0.2832 -0.5280
 4470SOL     OW24871   0.597   2.493   5.582 -0.3435 -0.0935  0.0773
 4470SOL    HW124872   0.527   2.451   5.531 -0.2098 -1.4136  0.9860
 4470SOL    HW224873   0.677   2.452   5.549  1.4315  2.1061  1.6779
 4471SOL     OW24874   1.126   3.703  15.781 -0.1740  0.6182  0.4669
 4471SOL    HW124875   1.032   3.690  15.789 -0.5195  2.1383 -1.0543
 4471SOL    HW224876   1.160   3.617  15.755 -2.5764 -0.2963  0.3305
 4472SOL     OW24877   3.589   4.643  16.043 -0.0109  0.4296 -0.6807
 4472SOL    HW124878   3.632   4.633  15.958  2.5950 -0.9725  0.8191
 4472SOL    HW224879   3.627   0.002  16.081 -0.9539  0.5347  0.0558
 4473SOL     OW24880   0.083   2.682   2.655 -0.5831 -0.2108 -0.4182
 4473SOL    HW124881   0.170   2.647   2.677 -2.1029 -5.5165 -2.8954
 4473SOL    HW224882   0.105   2.688   2.562 -1.5507  2.8556 -0.4282
 4474SOL     OW24883   3.855   2.472   0.614 -0.5146 -0.3785  0.2008
 4474SOL    HW124884   3.902   2.415   0.553 -1.9081 -1.4042  0.0775
 4474SOL    HW224885   3.929   2.514   0.658 -0.4735  0.2859 -0.4914
 4475SOL     OW24886   0.053   1.537  14.225 -0.1822  0.0245  0.4514
 4475SOL    HW124887   0.133   1.574  14.262  1.0271 -2.6026  0.4712
 4475SOL    HW224888   0.001   1.605  14.182 -1.2673 -0.4678  0.9777
 4476SOL     OW24889   3.243   3.721   4.363  0.2672 -0.1509  0.4190
 4476SOL    HW124890   3.198   3.780   4.422  1.2514  0.9972  0.0113
 4476SOL    HW224891   3.194   3.641   4.382  0.5075 -0.7788 -1.5162
 4477SOL     OW24892   2.808   1.404   5.396 -0.1636 -0.2738 -0.1634
 4477SOL    HW124893   2.793   1.403   5.490  2.3270 -1.3305  0.2428
 4477SOL    HW224894   2.795   1.496   5.375  1.5905 -0.1960 -0.8845
 4478SOL     OW24895   1.470   0.578   9.671 -0.0900 -0.2199  0.2949
 4478SOL    HW124896   1.457   0.641   9.742 -1.4582 -1.9304  1.5676
 4478SOL    HW224897   1.517   0.636   9.612 -1.3012 -0.5366 -0.9823
 4479SOL     OW24898   1.624   0.817   6.212 -0.2177 -0.7758  0.1432
 4479SOL    HW124899   1.717   0.793   6.211  0.1484  0.5563  3.2357
 4479SOL    HW224900   1.629   0.912   6.218  0.7031 -0.7112 -1.5783
 4480SOL     OW24901   3.373   0.418   5.269 -0.0190  0.1749 -0.3868
 4480SOL    HW124902   3.348   0.356   5.338  2.1494  1.6996  1.7440
 4480SOL    HW224903   3.418   0.480   5.326 -2.9071  1.4028  0.5585
 4481SOL     OW24904   4.299   4.684   5.625  0.0583  0.2074  0.1373
 4481SOL    HW124905   4.212   4.646   5.639  1.0482 -0.3982  4.6780
 4481SOL    HW224906   4.270   0.040   5.575 -0.8866  0.4499  1.0409
 4482SOL     OW24907   2.049   1.974   8.696 -0.0413  0.3919 -0.1545
 4482SOL    HW124908   2.009   2.048   8.650 -1.7288 -0.3844  0.0579
 4482SOL    HW224909   2.135   2.009   8.719 -0.5476  1.3110  0.3156
 4483SOL     OW24910   3.123   0.693   5.678 -0.4374  0.0635 -0.4066
 4483SOL    HW124911   3.126   0.719   5.770  3.0576  2.1926 -1.1220
 4483SOL    HW224912   3.216   0.678   5.663 -0.5488 -0.0128 -1.0167
 4484SOL     OW24913   0.930   0.906   6.167 -0.0708 -0.0455 -0.2784
 4484SOL    HW124914   0.929   0.986   6.114 -0.2579 -0.5860 -1.0944
 4484SOL    HW224915   1.015   0.868   6.146  0.4854  0.9694  0.0914
 4485SOL     OW24916   0.913   2.612  10.768  0.0948 -0.0298  0.2477
 4485SOL    HW124917   0.897   2.663  10.689 -0.1340 -0.1335  0.2270
 4485SOL    HW224918   1.008   2.606  10.763 -0.1458 -1.7806 -2.3574
 4486SOL     OW24919   4.644   2.846   0.502  0.4993 -0.1086 -0.1624
 4486SOL    HW124920   4.591   2.916   0.540  1.4104 -1.7544  4.0991
 4486SOL    HW224921   4.576   2.779   0.511 -0.6295  1.3873  2.3113
 4487SOL     OW24922   0.387   0.248  12.657  0.1214 -0.2928 -0.2287
 4487SOL    HW124923   0.372   0.181  12.723 -2.8737 -0.8771 -1.4632
 4487SOL    HW224924   0.319   0.311  12.683  0.7245 -0.1553  1.0010
 4488SOL     OW24925   4.185   0.950   0.041 -0.4144 -0.5923 -0.1691
 4488SOL    HW124926   4.198   0.856   0.027  0.0908 -0.6691  0.8272
 4488SOL    HW224927   4.275   0.983   0.034 -1.1638  1.6466  0.5760
 4489SOL     OW24928   2.314   0.741  16.369 -0.4463 -0.0519  0.1841
 4489SOL    HW124929   2.218   0.742  16.370 -0.4345  1.8086 -0.1912
 4489SOL    HW224930   2.326   0.836  16.370  0.7054 -0.1749 -2.3318
 4490SOL     OW24931   3.970   0.220   6.300  0.2634 -0.3174 -0.3434
 4490SOL    HW124932   4.050   0.260   6.266 -0.2432  0.6489 -0.4022
 4490SOL    HW224933   3.967   0.262   6.385 -0.6933  0.0579 -0.5555
 4491SOL     OW24934   3.722   3.229   4.414 -0.0406 -0.0767  0.4996
 4491SOL    HW124935   3.741   3.136   4.399 -0.5692 -0.3970  1.7616
 4491SOL    HW224936   3.635   3.236   4.374 -1.1605  1.5211  3.2201
 4492SOL     OW24937   4.219   0.145  17.116  0.1529 -0.1262  0.0352
 4492SOL    HW124938   4.222   0.128  17.210 -0.6354  2.0748  0.4702
 4492SOL    HW224939   4.172   0.226  17.097 -2.1697 -1.4198  0.1887
 4493SOL     OW24940   2.333   3.315   1.475 -0.6791 -0.0315 -0.5249
 4493SOL    HW124941   2.407   3.283   1.526  0.2269  2.8144 -0.0404
 4493SOL    HW224942   2.269   3.293   1.543  0.5405 -0.2106  0.5587
 4494SOL     OW24943   3.266   1.547  13.212  0.7023  0.7893  0.6617
 4494SOL    HW124944   3.206   1.476  13.235  0.5918  1.4408  2.3988
 4494SOL    HW224945   3.319   1.550  13.291  1.1038 -2.5790  0.5097
 4495SOL     OW24946   2.625   0.511   7.518 -0.5991 -0.2477  0.0647
 4495SOL    HW124947   2.677   0.583   7.484  1.3402 -2.3186 -1.3719
 4495SOL    HW224948   2.535   0.541   7.508 -0.6380  0.0481  1.2536
 4496SOL     OW24949   1.276   1.405   7.367  0.5851  0.4320 -0.4035
 4496SOL    HW124950   1.293   1.311   7.366 -1.5211  0.0528 -0.1694
 4496SOL    HW224951   1.342   1.435   7.429 -0.3831 -0.3934  1.0095
 4497SOL     OW24952   2.474   3.252   3.020  0.0294  0.1732  0.5226
 4497SOL    HW124953   2.553   3.211   2.985  1.5119  1.2756  2.5935
 4497SOL    HW224954   2.424   3.266   2.939  2.9325 -0.8213 -1.4607
 4498SOL     OW24955   4.165   1.541   7.043 -0.6892  0.0291 -0.4392
 4498SOL    HW124956   4.251   1.512   7.073 -0.8838 -1.3399 -1.1848
 4498SOL    HW224957   4.181   1.627   7.005  1.8291 -0.1539  0.2134
 4499SOL     OW24958   1.921   3.303   2.993  0.1358  0.5923  0.1554
 4499SOL    HW124959   1.963   3.350   2.921 -0.5656  1.6171  0.4064
 4499SOL    HW224960   1.890   3.220   2.957  1.3364 -0.2967  1.1582
 4500SOL     OW24961   0.467   0.495  16.380 -0.1941  0.0120  0.1809
 4500SOL    HW124962   0.464   0.584  16.414  1.2823  0.5350 -1.0335
 4500SOL    HW224963   0.540   0.505  16.319  0.4102 -2.8514  0.4510
 4501SOL     OW24964   1.695   2.232   5.086 -0.3169 -0.2854  0.3986
 4501SOL    HW124965   1.788   2.245   5.068  0.0551  1.2337  3.3783
 4501SOL    HW224966   1.691   2.140   5.110 -0.9996 -0.5649 -0.7975
 4502SOL     OW24967   0.935   3.113   8.529  0.5560 -0.9694  0.4180
 4502SOL    HW124968   0.881   3.073   8.597  0.6378  2.3500  2.4369
 4502SOL    HW224969   0.927   3.060   8.450 -0.4422 -1.8546  1.1077
 4503SOL     OW24970   4.109   4.475   9.270  0.2256 -0.5866 -0.5248
 4503SOL    HW124971   4.057   4.550   9.240  0.7175  0.3265  0.8976
 4503SOL    HW224972   4.079   4.473   9.361 -0.9936  3.4364 -0.8376
 4504SOL     OW24973   2.963   4.133   5.166  0.6130  0.3189 -0.1892
 4504SOL    HW124974   3.018   4.166   5.095  0.3844 -1.0608 -1.0140
 4504SOL    HW224975   2.886   4.121   5.110 -0.8711  1.1995  1.6677
 4505SOL     OW24976   4.596   2.981   4.304  0.1023  0.4928  0.1347
 4505SOL    HW124977   4.626   2.902   4.349  1.1457 -0.1431 -1.6706
 4505SOL    HW224978   4.604   2.944   4.216  1.0806  0.3713  0.2825
 4506SOL     OW24979   1.127   0.296   4.574 -0.6433 -0.0082 -0.2559
 4506SOL    HW124980   1.176   0.303   4.492  2.1734  2.6739  1.6288
 4506SOL    HW224981   1.152   0.380   4.614 -0.0913 -1.4004  2.3433
 4507SOL     OW24982   2.379   1.729   7.955 -0.2144  0.2083 -0.0291
 4507SOL    HW124983   2.333   1.812   7.947  0.5229  0.4948 -1.2300
 4507SOL    HW224984   2.430   1.755   7.878  1.3366 -0.2245  0.8678
 4508SOL     OW24985   3.404   4.157  15.187 -0.1726  0.4026  0.0717
 4508SOL    HW124986   3.328   4.186  15.238 -2.4655  0.2861 -3.2676
 4508SOL    HW224987   3.414   4.229  15.126 -0.8999  0.3105 -0.1638
 4509SOL     OW24988   2.636   3.550   0.737  0.2546  0.2237 -0.1341
 4509SOL    HW124989   2.670   3.638   0.720  2.6274 -0.4002  1.3432
 4509SOL    HW224990   2.709   3.516   0.789  0.1259  0.9621  0.5139
 4510SOL     OW24991   1.921   1.899   6.803  0.3752 -0.5235 -0.0134
 4510SOL    HW124992   1.997   1.842   6.793 -1.5555 -3.1449  0.1760
 4510SOL    HW224993   1.936   1.938   6.889  1.2218 -0.2472 -0.2887
 4511SOL     OW24994   1.855   4.105  14.685 -0.1522  0.1444  0.0595
 4511SOL    HW124995   1.937   4.139  14.652 -0.3768  0.5258 -0.0993
 4511SOL    HW224996   1.872   4.113  14.779 -0.0199  3.8471 -0.2965
 4512SOL     OW24997   4.698   0.924   1.446 -0.0757  0.8029  0.1907
 4512SOL    HW124998   0.021   0.902   1.363  1.2970 -1.6055  1.5071
 4512SOL    HW224999   0.055   0.904   1.500 -0.5560 -0.4015  0.4242
 4513SOL     OW25000   1.872   0.325  11.800  0.1729 -0.1433 -0.2691
 4513SOL    HW125001   1.850   0.361  11.714 -2.6502  3.6212  2.0746
 4513SOL    HW225002   1.900   0.405  11.844 -1.9003  0.1105  0.5476
 4514SOL     OW25003   3.461   2.575   0.334 -0.1099  0.0491 -0.3719
 4514SOL    HW125004   3.516   2.522   0.277  0.8140  1.6849 -1.0000
 4514SOL    HW225005   3.438   2.518   0.408  2.5169  1.4911  1.5221
 4515SOL     OW25006   3.384   0.476   5.938  0.3446  0.2233 -0.0519
 4515SOL    HW125007   3.396   0.502   6.029 -0.3640 -0.2165  0.1651
 4515SOL    HW225008   3.373   0.381   5.950  0.3709  0.4137  1.4048
 4516SOL     OW25009   0.285   1.067   4.758  0.0395 -0.3385 -0.8873
 4516SOL    HW125010   0.246   0.980   4.751 -0.2058 -0.1653 -1.6688
 4516SOL    HW225011   0.243   1.114   4.685  0.6804 -0.7621 -1.5330
 4517SOL     OW25012   3.593   2.075  11.803 -0.3083 -0.1431  0.4354
 4517SOL    HW125013   3.534   2.004  11.777 -1.7712  0.9865  0.7359
 4517SOL    HW225014   3.596   2.070  11.898  0.0548 -0.6568  0.4025
 4518SOL     OW25015   3.784   2.016   9.100  0.1035 -0.3197 -0.6176
 4518SOL    HW125016   3.718   1.961   9.059 -2.5613 -0.0165  3.2211
 4518SOL    HW225017   3.836   1.963   9.160  0.8978  0.9429 -0.1911
 4519SOL     OW25018   2.987   3.919  15.677 -0.5418 -0.9044  0.2735
 4519SOL    HW125019   3.069   3.909  15.725 -0.0855 -3.5239 -1.0284
 4519SOL    HW225020   2.933   3.869  15.738 -2.6524  0.7291 -0.2677
 4520SOL     OW25021   0.245   2.104   3.002  0.3389  0.5530 -0.1123
 4520SOL    HW125022   0.269   2.104   2.909 -0.2367 -2.2440 -0.2446
 4520SOL    HW225023   0.211   2.193   3.014 -0.6846  0.1943 -0.3958
 4521SOL     OW25024   0.093   0.828   4.786  0.2760  0.1183  0.4352
 4521SOL    HW125025   0.003   0.819   4.818  0.5345 -1.9664  0.5871
 4521SOL    HW225026   0.081   0.798   4.696 -0.6117  0.6823  0.3624
 4522SOL     OW25027   1.835   0.980   6.689 -0.6322 -0.0077 -0.0435
 4522SOL    HW125028   1.741   0.999   6.688 -0.4702  0.8451  1.0656
 4522SOL    HW225029   1.865   1.056   6.739 -1.2536  0.8513 -0.9769
 4523SOL     OW25030   3.276   1.910   2.424 -0.1650 -0.3907 -0.0837
 4523SOL    HW125031   3.295   1.955   2.341  2.1687  2.5740  2.0517
 4523SOL    HW225032   3.186   1.882   2.407  0.6328 -3.2746  0.5438
 4524SOL     OW25033   3.896   1.160   7.705 -0.5739  0.2877  0.6486
 4524SOL    HW125034   3.830   1.111   7.755 -2.4562  3.4482  1.3074
 4524SOL    HW225035   3.923   1.085   7.654 -0.0289  0.4500  0.6986
 4525SOL     OW25036   4.174   3.260   2.361  0.4024  1.5014  0.3007
 4525SOL    HW125037   4.218   3.345   2.372  0.7299  0.9251  3.2814
 4525SOL    HW225038   4.220   3.220   2.287 -2.2205  0.2972 -0.6757
 4526SOL     OW25039   0.698   0.008   7.825  0.7511 -0.6433  0.0686
 4526SOL    HW125040   0.690   4.637   7.796 -1.8971 -1.5558  3.6182
 4526SOL    HW225041   0.606   0.031   7.815  0.9835 -0.3022 -1.2549
 4527SOL     OW25042   2.947   1.106  14.249  0.7154 -0.2224 -0.6118
 4527SOL    HW125043   2.948   1.174  14.317 -0.6584  0.7320 -1.5581
 4527SOL    HW225044   3.038   1.115  14.220  0.2242  2.8056 -1.1655
 4528SOL     OW25045   3.781   2.551  12.513 -0.9512  0.2540  0.4640
 4528SOL    HW125046   3.854   2.581  12.568 -0.6466 -0.6859  0.5754
 4528SOL    HW225047   3.785   2.456  12.526  1.5960  0.3100  0.1220
 4529SOL     OW25048   0.163   1.357   6.584 -0.1037 -0.2848 -0.3816
 4529SOL    HW125049   0.247   1.396   6.607 -0.6827  0.1195  1.0244
 4529SOL    HW225050   0.191   1.276   6.628 -1.1363  0.3260  1.3941
 4530SOL     OW25051   1.815   2.875   4.539  0.5042 -0.0940  0.1685
 4530SOL    HW125052   1.752   2.927   4.489 -0.3174 -1.3260 -0.0780
 4530SOL    HW225053   1.848   2.811   4.476 -0.3971 -1.1469  0.7701
 4531SOL     OW25054   1.900   2.278   3.077 -0.3656 -0.3745  0.2228
 4531SOL    HW125055   1.818   2.327   3.091  0.0311 -0.1028  1.6384
 4531SOL    HW225056   1.920   2.279   3.171 -1.4883 -0.9598  0.4759
 4532SOL     OW25057   2.785   0.029   5.787 -0.8979 -0.0600 -0.3322
 4532SOL    HW125058   2.785   4.654   5.804 -0.0595  0.1171  0.6172
 4532SOL    HW225059   2.864   0.030   5.734 -1.1960  0.8868 -0.7513
 4533SOL     OW25060   3.099   3.713  17.526  0.1089 -0.3345 -0.6263
 4533SOL    HW125061   3.192   3.700  17.545 -0.1480  0.2279  1.0980
 4533SOL    HW225062   3.106   3.744  17.436 -0.5012  0.6730 -0.3315
 4534SOL     OW25063   2.150   0.624   6.889 -0.0386 -0.3202 -0.4819
 4534SOL    HW125064   2.205   0.702   6.881  0.4310 -0.6245 -0.2261
 4534SOL    HW225065   2.210   0.572   6.943  0.1600  2.2280  1.7568
 4535SOL     OW25066   0.429   2.133   8.430 -0.5809  0.5246 -0.7895
 4535SOL    HW125067   0.380   2.204   8.389 -1.2353  0.5987  0.0984
 4535SOL    HW225068   0.395   2.150   8.518  0.8350 -3.2061  0.4467
 4536SOL     OW25069   0.166   0.781   7.810  0.2248 -0.1151 -0.3207
 4536SOL    HW125070   0.195   0.692   7.830 -1.4471 -1.0096 -1.8368
 4536SOL    HW225071   0.197   0.834   7.883  0.2870 -2.1623  1.1240
 4537SOL     OW25072   0.261   0.948   1.562 -0.1264 -0.1567  0.1222
 4537SOL    HW125073   0.322   0.876   1.578  1.2139  0.8888 -0.3171
 4537SOL    HW225074   0.298   0.972   1.477 -0.4512 -1.7986 -0.4682
 4538SOL     OW25075   1.761   1.800   9.074 -0.0086  0.0206  0.1674
 4538SOL    HW125076   1.672   1.830   9.096 -0.9558 -2.2152 -0.5610
 4538SOL    HW225077   1.804   1.830   9.154 -1.2097  0.5854  0.5997
 4539SOL     OW25078   1.319   0.019   8.747  0.3709  0.0373  0.3549
 4539SOL    HW125079   1.321   0.100   8.797 -2.4249 -1.2945  2.6486
 4539SOL    HW225080   1.248   0.042   8.686  1.4320 -2.6460 -1.9449
 4540SOL     OW25081   3.309   3.665   6.290  0.1669  0.0916 -0.4458
 4540SOL    HW125082   3.296   3.615   6.209 -2.3835  0.8108 -0.4784
 4540SOL    HW225083   3.356   3.740   6.253  1.7591  0.1849  1.7579
 4541SOL     OW25084   2.220   4.487  16.023 -0.0932 -0.6801  0.1576
 4541SOL    HW125085   2.221   4.532  16.108 -0.8255 -1.5599  0.6175
 4541SOL    HW225086   2.153   4.532  15.972  0.6208  0.0596 -0.1303
 4542SOL     OW25087   0.441   3.536   7.317  0.6370  0.0911  0.1378
 4542SOL    HW125088   0.393   3.454   7.330 -0.5743  0.5108 -1.7343
 4542SOL    HW225089   0.369   3.592   7.290  1.0866  0.0493 -1.1577
 4543SOL     OW25090   0.207   3.137   2.601  0.3942 -0.5446  0.1450
 4543SOL    HW125091   0.235   3.183   2.521  0.3871 -0.6121  0.1041
 4543SOL    HW225092   0.194   3.049   2.567  1.0283 -0.8275  0.6571
 4544SOL     OW25093   3.417   2.492  14.857 -0.0403 -0.1950 -0.0669
 4544SOL    HW125094   3.356   2.484  14.784  0.7622  0.8703 -0.8695
 4544SOL    HW225095   3.499   2.488  14.806  1.1826 -1.9645  2.0744
 4545SOL     OW25096   4.452   2.822  15.489 -0.2426  0.3585 -0.2784
 4545SOL    HW125097   4.368   2.866  15.490  0.2166  1.2410 -0.5311
 4545SOL    HW225098   4.504   2.887  15.536 -0.5671  1.0667 -0.8953
 4546SOL     OW25099   2.896   0.761   0.243  0.4459  0.2820 -0.3577
 4546SOL    HW125100   2.926   0.714   0.164 -1.7154 -0.0640 -0.9804
 4546SOL    HW225101   2.926   0.704   0.314  2.4789  1.2875 -0.4117
 4547SOL     OW25102   0.968   0.083  13.079  0.1950  0.1393 -0.0342
 4547SOL    HW125103   0.982   0.135  13.000  2.2912  1.8849  1.4942
 4547SOL    HW225104   1.021   0.006  13.060 -3.2035 -1.9598 -0.9010
 4548SOL     OW25105   0.489   3.164  10.160 -0.6257 -0.1322  0.1515
 4548SOL    HW125106   0.542   3.094  10.200  1.4804  1.5283  0.2920
 4548SOL    HW225107   0.479   3.222  10.236  0.3979 -0.4159  0.5116
 4549SOL     OW25108   0.166   4.246   2.169 -0.0118 -0.2554 -0.5428
 4549SOL    HW125109   0.152   4.152   2.170  1.8288 -0.5108  0.5966
 4549SOL    HW225110   0.082   4.279   2.136 -0.7119 -2.8647 -1.3323
 4550SOL     OW25111   3.499   3.260   4.207  0.0786  0.6786  0.5926
 4550SOL    HW125112   3.547   3.266   4.124 -0.2460  0.8651  0.4181
 4550SOL    HW225113   3.512   3.344   4.251 -1.4030  2.0673 -1.6429
 4551SOL     OW25114   2.025   1.914   7.784  0.2187 -0.2080  0.0591
 4551SOL    HW125115   1.946   1.958   7.815 -0.1608 -0.3469 -0.7058
 4551SOL    HW225116   1.988   1.830   7.755  2.0126 -1.3287  1.0154
 4552SOL     OW25117   0.227   2.362  13.945  0.1127 -0.1083  0.0397
 4552SOL    HW125118   0.194   2.450  13.960 -0.2483 -0.0373 -1.1739
 4552SOL    HW225119   0.318   2.363  13.914 -0.9328  1.2732 -3.0335
 4553SOL     OW25120   1.974   0.131  16.069 -0.4657  0.2239 -0.1281
 4553SOL    HW125121   2.056   0.114  16.114 -1.1560  0.1714  1.1194
 4553SOL    HW225122   1.912   0.107  16.138 -0.3331  1.0259  0.2578
 4554SOL     OW25123   1.250   1.715   5.971  0.2040  0.3141 -0.2363
 4554SOL    HW125124   1.209   1.663   6.040 -0.1407 -0.5003 -1.0466
 4554SOL    HW225125   1.277   1.794   6.018  1.9108 -1.2202  1.3495
 4555SOL     OW25126   0.857   3.456   8.934  0.1511 -0.5655 -0.5566
 4555SOL    HW125127   0.850   3.463   8.839  2.9808  2.5052 -0.5585
 4555SOL    HW225128   0.857   3.361   8.949 -0.4581  0.0714  3.5255
 4556SOL     OW25129   4.496   1.253  10.818  0.0457  0.3467 -0.0062
 4556SOL    HW125130   4.577   1.304  10.820 -0.1029  0.5418  1.4073
 4556SOL    HW225131   4.518   1.194  10.891  5.0924  0.7134 -1.2845
 4557SOL     OW25132   0.405   4.666  13.392 -0.0398  0.2340  0.0483
 4557SOL    HW125133   0.353   4.697  13.466  1.6706  1.8574  0.5578
 4557SOL    HW225134   0.470   0.016  13.388 -0.1676  0.2536 -1.7138
 4558SOL     OW25135   1.675   3.917   8.729  0.0569  0.4762 -0.3891
 4558SOL    HW125136   1.710   3.881   8.810  2.5557 -1.1349 -2.1960
 4558SOL    HW225137   1.634   3.995   8.767 -0.1613 -0.3920  1.1460
 4559SOL     OW25138   4.253   2.339  12.312  0.0323  0.1862  0.1888
 4559SOL    HW125139   4.342   2.333  12.348 -1.1221 -2.9449  2.4796
 4559SOL    HW225140   4.217   2.272  12.370 -0.1505 -0.0814 -0.2358
 4560SOL     OW25141   4.635   0.078   8.632  0.7396  0.1458 -0.7150
 4560SOL    HW125142   4.591   0.031   8.703  1.7089  0.0181 -0.1906
 4560SOL    HW225143   4.674   0.002   8.589 -1.9252 -1.0436 -1.0098
 4561SOL     OW25144   1.537   0.692   3.787 -0.5926 -0.4251  0.1991
 4561SOL    HW125145   1.493   0.764   3.833 -1.1012 -2.0985  2.3446
 4561SOL    HW225146   1.622   0.726   3.762 -2.1864  3.7420  0.5593
 4562SOL     OW25147   2.744   0.181   6.025 -0.0285 -0.0342 -0.4539
 4562SOL    HW125148   2.743   0.138   5.940  2.4400 -1.0294  0.0086
 4562SOL    HW225149   2.839   0.178   6.041  0.2507 -0.0587 -2.1408
 4563SOL     OW25150   4.702   0.473   8.842 -0.8239  0.1155 -0.2019
 4563SOL    HW125151   0.030   0.551   8.872  1.2574 -0.7994 -1.1599
 4563SOL    HW225152   0.051   0.406   8.842 -0.8085  0.1415  0.8531
 4564SOL     OW25153   1.082   3.135   3.610 -0.4288 -0.5345  0.4824
 4564SOL    HW125154   1.153   3.115   3.671 -0.8444 -0.5843  0.9489
 4564SOL    HW225155   1.003   3.123   3.662  0.3633  0.5189  1.9331
 4565SOL     OW25156   2.271   2.214   0.589  0.3317 -0.0091 -0.2186
 4565SOL    HW125157   2.331   2.176   0.525  0.8180 -2.1199  1.4848
 4565SOL    HW225158   2.208   2.249   0.526 -1.3852 -1.8916  0.4443
 4566SOL     OW25159   2.064   2.281  17.680  0.3624  0.2706 -0.2685
 4566SOL    HW125160   2.014   2.245  17.607 -1.3101  1.6618  0.2093
 4566SOL    HW225161   2.014   2.232   0.064  2.6947  0.0714  1.3760
 4567SOL     OW25162   2.506   1.208   2.403  0.1205 -0.2044 -0.0991
 4567SOL    HW125163   2.481   1.283   2.458 -0.1224 -0.1191 -0.3231
 4567SOL    HW225164   2.420   1.168   2.412 -0.0531  0.2525  0.2958
 4568SOL     OW25165   4.644   4.491   1.490 -0.0081 -0.1005  0.4561
 4568SOL    HW125166   4.592   4.503   1.570 -0.7118  0.0927 -0.0369
 4568SOL    HW225167   4.626   4.399   1.473  0.5901 -0.2920  0.8400
 4569SOL     OW25168   0.745   2.033   9.161 -1.0308 -0.2384  0.2678
 4569SOL    HW125169   0.662   2.081   9.160 -0.9536 -0.1429 -1.9522
 4569SOL    HW225170   0.771   2.038   9.252  1.7779 -0.4590 -0.5190
 4570SOL     OW25171   1.764   2.842   9.870  0.4650 -0.5241 -0.1496
 4570SOL    HW125172   1.762   2.885   9.956 -0.4203  1.7603 -1.2988
 4570SOL    HW225173   1.799   2.911   9.814 -0.7197 -0.6426 -1.0361
 4571SOL     OW25174   4.000   4.692   9.186  0.4382  0.0209  0.8448
 4571SOL    HW125175   3.983   0.056   9.229  2.9465  0.1535  1.5817
 4571SOL    HW225176   4.026   0.003   9.099  0.5288 -0.4928  0.6925
 4572SOL     OW25177   0.211   4.205   7.706 -0.0741  0.3404  0.0672
 4572SOL    HW125178   0.249   4.159   7.781 -0.1741 -0.8536 -0.6144
 4572SOL    HW225179   0.134   4.247   7.744  0.0022  2.1729 -1.8494
 4573SOL     OW25180   4.026   1.148   9.567  0.2568  0.4023  0.1032
 4573SOL    HW125181   3.961   1.099   9.617 -1.8731 -0.6683 -3.7250
 4573SOL    HW225182   3.966   1.215   9.536 -0.2567 -0.1003  0.0151
 4574SOL     OW25183   1.861   0.755   6.898 -0.1660  0.5855 -0.5811
 4574SOL    HW125184   1.843   0.816   6.826  2.5437  3.0850  0.8709
 4574SOL    HW225185   1.948   0.724   6.874 -0.0732  1.3129 -1.1986
 4575SOL     OW25186   2.926   2.957   7.823 -0.3759 -0.3501  0.6091
 4575SOL    HW125187   2.860   3.021   7.847 -1.3220 -0.5610 -1.4757
 4575SOL    HW225188   3.009   2.984   7.863 -0.8194  1.8730 -0.0195
 4576SOL     OW25189   2.366   4.060   7.722  0.0392  0.0309  0.5754
 4576SOL    HW125190   2.342   3.970   7.701 -0.7600  0.9074 -2.2167
 4576SOL    HW225191   2.285   4.108   7.704 -0.6877 -1.4347  0.0030
 4577SOL     OW25192   3.107   0.395   1.950  0.6570  0.1210 -0.5290
 4577SOL    HW125193   3.027   0.361   1.988  0.3949 -0.7665 -1.8885
 4577SOL    HW225194   3.079   0.478   1.912 -0.4146  0.6537  1.4177
 4578SOL     OW25195   1.741   2.126  10.001  0.2087  0.4685  0.1674
 4578SOL    HW125196   1.742   2.033  10.026  0.8040 -0.1211 -2.0607
 4578SOL    HW225197   1.833   2.135   9.976 -0.3849 -0.5829 -2.4181
 4579SOL     OW25198   1.411   0.222   2.892  0.0993  0.0916 -0.0208
 4579SOL    HW125199   1.483   0.266   2.938 -0.4229  0.8053  0.1043
 4579SOL    HW225200   1.454   0.204   2.808  1.5815 -1.2635  1.0084
 4580SOL     OW25201   4.683   0.999   2.840 -0.0004 -0.1355  0.2499
 4580SOL    HW125202   0.026   0.945   2.889 -0.5342 -1.0672 -0.1041
 4580SOL    HW225203   4.603   0.956   2.870 -0.8378  0.8446 -0.5837
 4581SOL     OW25204   2.883   2.824   6.311  0.1205  0.5974  0.3534
 4581SOL    HW125205   2.885   2.826   6.216 -0.5202  1.5251  0.3621
 4581SOL    HW225206   2.937   2.745   6.320 -2.6011 -1.3035 -0.3282
 4582SOL     OW25207   3.178   2.718   7.708 -0.0364 -0.0645 -0.5112
 4582SOL    HW125208   3.189   2.792   7.767 -2.0261 -1.7279  1.9854
 4582SOL    HW225209   3.218   2.749   7.627 -0.2039 -1.4798 -1.1456
 4583SOL     OW25210   3.357   1.169  17.148  0.1212  0.3774 -0.1680
 4583SOL    HW125211   3.263   1.156  17.165 -0.2014 -0.9842 -2.9296
 4583SOL    HW225212   3.389   1.130  17.229  0.0247 -1.6515 -1.0930
 4584SOL     OW25213   3.095   3.332  11.305 -0.2356 -0.2161 -0.1432
 4584SOL    HW125214   3.000   3.335  11.316 -0.1888  1.4531 -0.1677
 4584SOL    HW225215   3.107   3.336  11.210  1.7448 -0.9954  0.0673
 4585SOL     OW25216   3.381   0.532   4.777 -0.0762  0.4859 -0.1938
 4585SOL    HW125217   3.289   0.551   4.795 -0.2209 -1.0618  0.6395
 4585SOL    HW225218   3.419   0.550   4.864  1.1905 -1.0348 -0.4321
 4586SOL     OW25219   2.233   1.907   6.649  0.2585  0.1390 -0.1908
 4586SOL    HW125220   2.151   1.895   6.602 -0.0232 -1.9388  0.8228
 4586SOL    HW225221   2.252   1.817   6.676  0.1472  0.2935  0.4186
 4587SOL     OW25222   4.371   4.554  12.934  0.2597 -0.3211 -0.5079
 4587SOL    HW125223   4.412   4.481  12.887  0.5745  0.0009 -0.7331
 4587SOL    HW225224   4.322   4.499  12.996 -0.9747  0.9182 -0.4132
 4588SOL     OW25225   3.630   4.004  17.652  0.3979  0.1937  0.5338
 4588SOL    HW125226   3.718   4.018  17.618  0.6514  0.5169  1.3266
 4588SOL    HW225227   3.610   4.095  17.675 -1.3732  0.2990 -1.3548
 4589SOL     OW25228   0.269   2.917   4.188  0.4608 -0.3285 -0.0671
 4589SOL    HW125229   0.228   2.884   4.108  0.8372 -1.2144  0.1067
 4589SOL    HW225230   0.248   3.009   4.171 -1.9735 -0.9551 -0.5206
 4590SOL     OW25231   4.059   2.021   0.823  0.1199 -0.3272 -0.3422
 4590SOL    HW125232   4.122   1.979   0.764  4.0038 -1.0251  4.2984
 4590SOL    HW225233   4.050   2.099   0.768  0.2646 -0.9079 -1.1910
 4591SOL     OW25234   4.576   0.451   6.342 -0.9292  0.9566 -0.2792
 4591SOL    HW125235   4.663   0.490   6.347  0.0671 -1.5982  2.7970
 4591SOL    HW225236   4.600   0.366   6.379  1.3829  1.2969 -1.0100
 4592SOL     OW25237   0.520   2.536  17.069  0.0571 -0.1058 -0.1807
 4592SOL    HW125238   0.569   2.589  17.132 -0.5781 -2.1317  2.0147
 4592SOL    HW225239   0.554   2.565  16.984  0.2243 -2.0504 -0.7557
 4593SOL     OW25240   0.141   0.462   2.374 -0.2113  0.1020  0.0221
 4593SOL    HW125241   0.147   0.399   2.446  1.0465  0.0484 -0.1234
 4593SOL    HW225242   0.175   0.542   2.414 -1.9981  0.2912  1.1371
 4594SOL     OW25243   1.196   4.373  14.965 -0.7428  0.5534  0.4483
 4594SOL    HW125244   1.262   4.420  15.015 -0.7494  1.5760 -0.5174
 4594SOL    HW225245   1.163   4.318  15.036  1.7380  0.2301  1.3526
 4595SOL     OW25246   2.729   1.505  13.977  0.0926 -0.5084  0.2700
 4595SOL    HW125247   2.703   1.597  13.965 -0.4036 -0.6728  0.0689
 4595SOL    HW225248   2.690   1.480  13.893 -0.4829  1.0725  0.0614
 4596SOL     OW25249   1.488   0.581   5.747  0.2695  0.4784 -0.0240
 4596SOL    HW125250   1.466   0.633   5.824 -0.5631 -0.5808  0.4575
 4596SOL    HW225251   1.431   0.626   5.684  0.1380  0.3117 -0.0267
 4597SOL     OW25252   1.498   2.194  10.689 -0.4273  0.4288 -0.6095
 4597SOL    HW125253   1.425   2.160  10.742  0.2090 -0.1928 -0.1251
 4597SOL    HW225254   1.455   2.192  10.604 -1.6435  2.6555 -0.0583
 4598SOL     OW25255   1.634   3.304   3.259  0.1287  0.3345 -0.4197
 4598SOL    HW125256   1.658   3.369   3.192 -1.6561  2.2817  0.8293
 4598SOL    HW225257   1.716   3.256   3.268 -0.0918 -0.0977 -0.7186
 4599SOL     OW25258   0.314   1.741   2.826 -0.5911 -0.1889 -0.1283
 4599SOL    HW125259   0.220   1.761   2.821 -0.8194 -1.5416 -1.1561
 4599SOL    HW225260   0.342   1.833   2.831 -1.5697  0.1397 -0.6815
 4600SOL     OW25261   1.068   4.280  12.802 -0.4315 -0.0757  0.6613
 4600SOL    HW125262   0.984   4.327  12.799 -0.2138  0.1641 -1.5715
 4600SOL    HW225263   1.061   4.234  12.886  0.3269 -1.8083 -0.2291
 4601SOL     OW25264   2.947   2.661   4.319 -0.3240 -0.2095 -0.2407
 4601SOL    HW125265   2.993   2.727   4.268 -0.9276  1.6858  1.6676
 4601SOL    HW225266   2.882   2.720   4.358 -2.2449 -1.6770 -1.1749
 4602SOL     OW25267   3.388   1.381   9.514 -0.1629 -0.4986 -0.3653
 4602SOL    HW125268   3.421   1.384   9.424  0.3852 -0.0113 -0.1497
 4602SOL    HW225269   3.297   1.402   9.493 -0.0360  0.9411  0.4847
 4603SOL     OW25270   1.675   3.087   1.711  0.1109 -0.1364  0.5558
 4603SOL    HW125271   1.706   3.176   1.691  0.2031  0.1510  1.9723
 4603SOL    HW225272   1.624   3.065   1.633  0.0879  2.9767 -0.3229
 4604SOL     OW25273   2.335   3.731   4.251  0.3384 -0.5453  0.4993
 4604SOL    HW125274   2.324   3.785   4.329 -0.4960  0.6601 -0.4505
 4604SOL    HW225275   2.263   3.668   4.249  0.9409 -1.2528  1.3374
 4605SOL     OW25276   0.758   2.953   8.669  0.2172  0.0383  0.5313
 4605SOL    HW125277   0.695   2.893   8.628  0.0971 -0.1104  0.9309
 4605SOL    HW225278   0.826   2.888   8.688 -0.8082 -1.7287 -1.7935
 4606SOL     OW25279   4.270   2.700   5.232  0.1806 -0.2246  0.0749
 4606SOL    HW125280   4.314   2.767   5.180 -0.1283 -1.3684 -1.6500
 4606SOL    HW225281   4.260   2.741   5.318 -2.5660 -1.5258  0.3832
 4607SOL     OW25282   3.050   3.353   0.197 -0.0638 -0.1969  0.1082
 4607SOL    HW125283   3.035   3.319   0.109 -0.3842  0.1626  0.0235
 4607SOL    HW225284   3.098   3.432   0.174 -0.0579 -0.3505 -0.4190
 4608SOL     OW25285   4.055   1.305   6.167  0.1574  0.5987  0.9384
 4608SOL    HW125286   4.117   1.346   6.226 -0.3711  1.4213  0.9294
 4608SOL    HW225287   4.064   1.211   6.186  2.6282  0.3708 -1.3879
 4609SOL     OW25288   3.337   2.256   7.719 -0.2646 -0.1545 -0.3913
 4609SOL    HW125289   3.322   2.343   7.757  1.4436 -0.1687  0.3019
 4609SOL    HW225290   3.263   2.209   7.758 -0.0650 -1.0323 -1.0589
 4610SOL     OW25291   0.647   4.568   7.394 -0.0978  0.2590  0.6155
 4610SOL    HW125292   0.740   4.587   7.407  0.3254 -1.7987  0.6350
 4610SOL    HW225293   0.604   4.653   7.382  1.2828  0.7676 -0.7408
 4611SOL     OW25294   3.784   3.014   8.950 -0.4668  0.4320  0.2358
 4611SOL    HW125295   3.787   3.003   9.045 -0.8662 -3.4787 -0.1807
 4611SOL    HW225296   3.765   3.106   8.932 -2.1169  0.2644  1.1424
 4612SOL     OW25297   3.249   1.281   2.666 -0.2916  0.1793  0.4391
 4612SOL    HW125298   3.295   1.283   2.582  0.6245  1.7586  0.9962
 4612SOL    HW225299   3.242   1.192   2.701  0.8220 -0.2617 -0.4652
 4613SOL     OW25300   4.229   2.547   8.593  0.0580  0.2490  0.1343
 4613SOL    HW125301   4.231   2.455   8.621 -1.0833  0.4623  0.9457
 4613SOL    HW225302   4.206   2.532   8.501  2.0107  1.4370 -0.5436
 4614SOL     OW25303   0.272   3.087   6.460  0.7216  0.2336 -0.1226
 4614SOL    HW125304   0.350   3.096   6.406  0.5679 -2.0041 -0.7101
 4614SOL    HW225305   0.202   3.058   6.402  1.0430  0.9677 -0.8731
 4615SOL     OW25306   1.676   0.417  13.237  0.6509 -0.0165  0.0776
 4615SOL    HW125307   1.582   0.437  13.245  0.3145 -0.8830 -1.5978
 4615SOL    HW225308   1.683   0.354  13.309  2.1461  0.6652  0.5198
 4616SOL     OW25309   3.797   3.469   2.732  0.1370 -0.2952  0.5454
 4616SOL    HW125310   3.725   3.406   2.739  1.2590 -1.4254  1.7852
 4616SOL    HW225311   3.873   3.426   2.771 -0.4563 -2.7656 -1.0108
 4617SOL     OW25312   0.288   3.484  10.274 -0.3387  0.5492  0.4263
 4617SOL    HW125313   0.259   3.541  10.345  1.0513  0.8416  0.7723
 4617SOL    HW225314   0.374   3.456  10.305  0.4588  4.1140  1.4301
 4618SOL     OW25315   0.219   4.584   7.922  0.0789  0.4956  0.1041
 4618SOL    HW125316   0.202   4.586   7.828  0.9661  2.6508 -0.0251
 4618SOL    HW225317   0.163   4.656   7.952 -2.3368 -1.1677 -0.3627
 4619SOL     OW25318   1.766   2.614   3.400 -0.2698 -0.6264 -0.4113
 4619SOL    HW125319   1.754   2.563   3.480  0.4263 -1.5956 -0.9269
 4619SOL    HW225320   1.687   2.583   3.354 -1.8480  1.6893  0.7387
 4620SOL     OW25321   2.019   1.037  13.193 -0.0584  0.3145 -0.1231
 4620SOL    HW125322   2.021   1.114  13.137 -0.6094  2.1641  2.4009
 4620SOL    HW225323   2.105   0.998  13.175  0.3017  0.6561  0.8401
 4621SOL     OW25324   1.029   4.394   2.399  0.5893  0.0655 -0.0268
 4621SOL    HW125325   1.078   4.463   2.353  0.3153  0.0964 -0.2780
 4621SOL    HW225326   1.032   4.321   2.336  1.0305  1.1403 -1.2629
 4622SOL     OW25327   1.178   2.924   8.706  0.2933 -0.3813 -0.3480
 4622SOL    HW125328   1.084   2.911   8.718  0.4384 -2.2908 -1.2474
 4622SOL    HW225329   1.211   2.958   8.789  3.7174  0.7126 -2.1543
 4623SOL     OW25330   3.670   0.738  16.471  0.1962 -0.0229  0.0224
 4623SOL    HW125331   3.626   0.758  16.388  0.7628  1.9607  0.1942
 4623SOL    HW225332   3.725   0.662  16.452 -0.5980 -0.3438 -1.0072
 4624SOL     OW25333   4.310   4.106   8.195  0.2201 -0.0930 -0.4772
 4624SOL    HW125334   4.328   4.014   8.178 -0.6166 -0.4932  0.7773
 4624SOL    HW225335   4.217   4.118   8.174  0.2866  1.1598 -0.0391
 4625SOL     OW25336   4.100   4.560   8.401 -0.1296  0.6264 -0.3455
 4625SOL    HW125337   4.166   4.499   8.434 -0.9722 -0.1660 -0.1395
 4625SOL    HW225338   4.132   4.637   8.449  1.8991  0.6502 -1.7136
 4626SOL     OW25339   2.796   1.608   8.127 -0.2373 -0.4282  0.4253
 4626SOL    HW125340   2.811   1.679   8.065  1.0648 -0.3077  0.8753
 4626SOL    HW225341   2.719   1.645   8.170 -0.0262  2.8864 -2.0797
 4627SOL     OW25342   0.884   4.494   8.013  0.1609 -0.3546 -0.2590
 4627SOL    HW125343   0.954   4.445   7.971  0.7487  1.1833 -1.0645
 4627SOL    HW225344   0.923   4.581   8.007 -1.2751  0.1981 -1.7438
 4628SOL     OW25345   1.097   2.454  15.049  0.0793 -0.2992 -0.1017
 4628SOL    HW125346   1.127   2.373  15.007 -1.1247  0.3692 -2.2368
 4628SOL    HW225347   1.124   2.414  15.132 -1.2221 -1.5994 -0.3051
 4629SOL     OW25348   3.870   3.577  16.865  0.5069  0.2020 -0.1148
 4629SOL    HW125349   3.882   3.508  16.929  0.8668 -0.8084 -1.2740
 4629SOL    HW225350   3.937   3.643  16.881  1.6237 -0.8652 -0.4450
 4630SOL     OW25351   3.707   1.201  10.987 -0.4789  0.3788  0.1581
 4630SOL    HW125352   3.650   1.130  10.956 -0.6081  0.7407 -0.4547
 4630SOL    HW225353   3.705   1.255  10.907  1.0078 -1.9907 -1.4648
 4631SOL     OW25354   1.743   1.495  11.775  0.0664  0.0864 -0.0187
 4631SOL    HW125355   1.660   1.523  11.813  0.1064  0.0794  0.0747
 4631SOL    HW225356   1.705   1.412  11.747 -1.8743  1.2026 -0.6720
 4632SOL     OW25357   3.169   1.993   7.261  1.2819  0.0255  0.5230
 4632SOL    HW125358   3.176   2.047   7.182 -0.2215 -1.9078 -0.9384
 4632SOL    HW225359   3.220   2.048   7.320  0.7132  1.7597 -0.6169
 4633SOL     OW25360   2.729   0.431  17.057  0.1858 -0.2211 -0.2716
 4633SOL    HW125361   2.640   0.454  17.081  0.4084  0.8506 -0.4776
 4633SOL    HW225362   2.749   0.507  17.003 -0.7528  0.2018 -0.0101
 4634SOL     OW25363   1.025   1.104   8.218  0.3199 -0.6187 -0.5030
 4634SOL    HW125364   1.116   1.094   8.191 -0.4248 -2.1707 -2.3575
 4634SOL    HW225365   0.974   1.101   8.137 -0.5485  0.7389 -0.0131
 4635SOL     OW25366   1.475   2.080   7.506  0.0598 -0.0377  0.2647
 4635SOL    HW125367   1.419   2.058   7.432 -0.3581  0.5910  0.3899
 4635SOL    HW225368   1.404   2.096   7.569  0.7809 -1.0734  1.3431
 4636SOL     OW25369   3.779   0.572   2.893 -0.0143 -0.0884  0.2772
 4636SOL    HW125370   3.778   0.496   2.950 -1.0242  0.3824  0.8834
 4636SOL    HW225371   3.838   0.537   2.827 -0.5145 -0.9843  0.3119
 4637SOL     OW25372   2.788   3.676  17.512  0.1998 -0.1757  0.9689
 4637SOL    HW125373   2.877   3.680  17.477 -0.4748  0.3198 -0.6865
 4637SOL    HW225374   2.747   3.715  17.435 -1.7171 -1.3420  1.3994
 4638SOL     OW25375   0.587   1.150  13.466  0.2745  0.9009 -0.5737
 4638SOL    HW125376   0.567   1.059  13.443  2.1575  0.6601 -1.2969
 4638SOL    HW225377   0.506   1.189  13.498 -0.1783 -1.4389  1.1218
 4639SOL     OW25378   0.519   2.044  11.649  0.0133 -0.0161  0.1397
 4639SOL    HW125379   0.474   1.960  11.663  0.1072  0.2294  1.9559
 4639SOL    HW225380   0.553   2.071  11.735 -0.6216  5.3259 -1.3152
 4640SOL     OW25381   3.652   4.359  12.604 -0.0516 -0.1313  0.1914
 4640SOL    HW125382   3.634   4.449  12.579 -1.6453 -0.4759  0.0580
 4640SOL    HW225383   3.562   4.328  12.620 -0.9549  1.4752 -1.7920
 4641SOL     OW25384   0.089   1.625   3.833  0.0169  0.7055 -0.0864
 4641SOL    HW125385   0.051   1.700   3.789  1.1949  1.6889  0.5736
 4641SOL    HW225386   0.071   1.635   3.927  5.4776  1.1792  0.9188
 4642SOL     OW25387   2.134   2.798  10.405 -0.2623 -0.4456 -0.4491
 4642SOL    HW125388   2.227   2.818  10.402 -0.1851 -0.6281  0.5448
 4642SOL    HW225389   2.098   2.882  10.377  0.5019 -0.4500 -1.4195
 4643SOL     OW25390   3.438   3.922   0.924  0.4271  0.3244 -0.9777
 4643SOL    HW125391   3.401   3.853   0.978 -0.2058  3.3715  2.4802
 4643SOL    HW225392   3.406   4.001   0.967  0.6633  0.1661 -0.5082
 4644SOL     OW25393   4.459   3.852   5.254 -0.0891  0.1273  0.0232
 4644SOL    HW125394   4.385   3.867   5.313 -0.7564  1.8638 -1.2790
 4644SOL    HW225395   4.471   3.758   5.272 -0.3857  0.2239  0.7157
 4645SOL     OW25396   4.364   4.411   7.055  0.1912  0.0189  0.1001
 4645SOL    HW125397   4.444   4.360   7.047 -0.1898 -0.3734 -1.2399
 4645SOL    HW225398   4.388   4.457   7.135 -0.9835 -0.1277  0.5368
 4646SOL     OW25399   2.969   2.958   0.138 -0.3579 -0.1727  0.2254
 4646SOL    HW125400   2.931   3.027   0.084 -0.9746 -0.6569  0.0368
 4646SOL    HW225401   2.966   2.890   0.070 -0.9023  0.7384 -0.6671
 4647SOL     OW25402   1.273   1.985   7.735 -0.2173 -0.1892  0.0686
 4647SOL    HW125403   1.339   1.964   7.801  1.3386  2.1780 -0.7159
 4647SOL    HW225404   1.243   2.070   7.768 -2.4836 -1.6618  1.7756
 4648SOL     OW25405   2.643   2.709   3.598 -0.1660  0.0147 -0.2865
 4648SOL    HW125406   2.642   2.667   3.512 -0.8172 -1.1022  0.2618
 4648SOL    HW225407   2.734   2.735   3.611  0.1071 -0.1839 -1.7461
 4649SOL     OW25408   3.784   2.034  14.651 -0.0016  0.1441  0.2085
 4649SOL    HW125409   3.837   1.964  14.613  1.3464  0.9950  0.5202
 4649SOL    HW225410   3.717   2.055  14.586  0.7107  2.4435  0.2169
 4650SOL     OW25411   3.785   3.184   9.953  0.4894 -0.3570 -0.6881
 4650SOL    HW125412   3.854   3.213   9.894 -2.2400  1.8118 -2.8387
 4650SOL    HW225413   3.794   3.089   9.948 -1.6406 -0.5890 -0.2981
 4651SOL     OW25414   3.383   1.676   2.178  0.3267  0.4885  0.3671
 4651SOL    HW125415   3.447   1.740   2.209  0.1175  1.0509 -0.3731
 4651SOL    HW225416   3.432   1.604   2.139  0.1473 -0.5331  1.9814
 4652SOL     OW25417   0.821   3.263   3.251 -0.3121 -0.1491  0.0783
 4652SOL    HW125418   0.901   3.313   3.264 -1.5011  0.6848  4.2132
 4652SOL    HW225419   0.792   3.270   3.342  0.0191  0.9229  0.0930
 4653SOL     OW25420   2.855   2.323   1.245  0.2136 -0.1345 -0.2446
 4653SOL    HW125421   2.856   2.273   1.163 -1.5287 -1.9945  0.8749
 4653SOL    HW225422   2.796   2.268   1.295  0.1072  0.0440 -0.1730
 4654SOL     OW25423   4.320   4.290  12.813  0.0226 -0.0206 -0.0210
 4654SOL    HW125424   4.325   4.223  12.882 -0.8156  1.1782  1.1953
 4654SOL    HW225425   4.235   4.332  12.828  1.1963  2.3362 -0.0128
 4655SOL     OW25426   0.064   0.611   6.386  0.7954 -0.5886  0.2252
 4655SOL    HW125427   0.148   0.613   6.339  0.5118  1.3144 -0.1929
 4655SOL    HW225428   0.088   0.640   6.475  1.4739 -0.8888  0.1433
 4656SOL     OW25429   3.886   3.707   1.432  1.1103 -0.0539 -0.7409
 4656SOL    HW125430   3.842   3.623   1.441  1.5597 -0.2787 -0.6518
 4656SOL    HW225431   3.880   3.747   1.519 -0.5353 -0.6846 -0.5671
 4657SOL     OW25432   4.403   1.488   1.990  0.6144  0.4613 -0.7415
 4657SOL    HW125433   4.334   1.442   1.943 -1.5298  0.9316  1.9069
 4657SOL    HW225434   4.466   1.495   1.918  0.0459  1.5479 -1.1333
 4658SOL     OW25435   4.567   0.061   0.798 -0.3391 -0.1054 -0.3639
 4658SOL    HW125436   4.482   0.094   0.768 -1.1918 -1.2511  0.7984
 4658SOL    HW225437   4.574   0.109   0.880 -2.3662 -0.2825 -0.0885
 4659SOL     OW25438   1.613   4.632   9.785  0.2453 -0.4343 -0.1130
 4659SOL    HW125439   1.549   4.572   9.747  0.4999 -0.2295 -0.8674
 4659SOL    HW225440   1.671   4.564   9.819 -0.4824 -0.0382  1.9038
 4660SOL     OW25441   3.687   0.845   5.479  0.0415  0.3295 -0.3270
 4660SOL    HW125442   3.631   0.803   5.414  0.5293 -0.1142 -0.4602
 4660SOL    HW225443   3.773   0.854   5.438 -0.0410 -0.9916 -0.7965
 4661SOL     OW25444   1.234   2.189   7.099 -0.5279 -0.1093  0.0465
 4661SOL    HW125445   1.241   2.176   7.004 -1.4366 -0.0687 -0.0243
 4661SOL    HW225446   1.184   2.270   7.103  0.9755  0.6941  2.6090
 4662SOL     OW25447   0.108   2.867   3.951 -0.4431  0.1870 -0.2943
 4662SOL    HW125448   0.072   2.786   3.917 -1.0727  0.8637 -1.2537
 4662SOL    HW225449   0.026   2.917   3.962  0.0933  0.5672  2.0331
 4663SOL     OW25450   1.609   1.393  13.115  0.0647  0.7157  0.3079
 4663SOL    HW125451   1.611   1.487  13.096 -1.2408  0.3752 -1.5298
 4663SOL    HW225452   1.685   1.384  13.171  1.1649 -0.5092 -1.3853
 4664SOL     OW25453   3.526   4.456   6.856 -0.0007  0.4243  0.0335
 4664SOL    HW125454   3.558   4.374   6.818 -0.3641  0.3069 -0.0229
 4664SOL    HW225455   3.568   4.448   6.942 -0.1091  0.7925  0.1186
 4665SOL     OW25456   2.139   1.440  17.459  0.1229  0.2281 -0.5082
 4665SOL    HW125457   2.056   1.435  17.506  1.4778  0.4362  1.9335
 4665SOL    HW225458   2.108   1.476  17.376  2.4485  0.3885 -1.3231
 4666SOL     OW25459   2.571   4.522   2.884  0.3719  0.1152  0.2983
 4666SOL    HW125460   2.641   4.473   2.840  0.0744  2.9165 -3.2515
 4666SOL    HW225461   2.603   4.512   2.973  0.4200  2.3119  0.5092
 4667SOL     OW25462   4.520   0.480   4.022  0.5145  0.5283 -0.1155
 4667SOL    HW125463   4.615   0.484   4.009  0.2294 -0.3810 -2.4343
 4667SOL    HW225464   4.499   0.553   3.964  2.2910  0.9269 -0.2579
 4668SOL     OW25465   3.437   3.910   4.044  0.5394 -0.1238  0.2897
 4668SOL    HW125466   3.472   3.946   4.125 -0.2584  0.2562  0.4603
 4668SOL    HW225467   3.479   3.824   4.039  1.0846  0.2339 -1.3237
 4669SOL     OW25468   1.818   4.033   6.247  0.6291 -0.2756 -0.4568
 4669SOL    HW125469   1.847   3.997   6.330 -0.6639  0.6487  0.3927
 4669SOL    HW225470   1.834   4.127   6.253 -0.2082 -0.1071 -0.8304
 4670SOL     OW25471   4.005   3.192   2.653  0.3084 -0.2657  0.0263
 4670SOL    HW125472   3.973   3.205   2.742 -0.1535  0.2446 -0.2147
 4670SOL    HW225473   4.065   3.118   2.664  1.6254  0.5302 -1.7939
 4671SOL     OW25474   1.240   3.345   9.279  0.0932 -0.0126  0.3962
 4671SOL    HW125475   1.159   3.298   9.301  0.3218 -0.7202 -0.2745
 4671SOL    HW225476   1.227   3.419   9.338  1.4115 -0.5185  1.3256
 4672SOL     OW25477   4.695   4.659  14.499  0.6442  0.2580 -0.1846
 4672SOL    HW125478   4.657   4.571  14.493 -3.1441  1.9591 -1.2733
 4672SOL    HW225479   4.620   4.696  14.451  2.5801 -0.3083 -3.5635
 4673SOL     OW25480   0.952   4.291   3.550 -0.1934  0.5221 -0.0899
 4673SOL    HW125481   0.958   4.386   3.539 -0.0001  0.5662  0.3961
 4673SOL    HW225482   0.860   4.291   3.575  0.5168  2.0410  2.4695
 4674SOL     OW25483   3.581   2.611   5.191 -0.3757 -0.1909 -0.5542
 4674SOL    HW125484   3.590   2.562   5.273  0.7366  0.7821 -0.1139
 4674SOL    HW225485   3.647   2.565   5.140 -1.9266 -1.8495 -1.0971
 4675SOL     OW25486   4.308   1.407   7.659 -0.5963  0.6718 -0.0337
 4675SOL    HW125487   4.257   1.346   7.712 -1.9261  0.1627 -1.9005
 4675SOL    HW225488   4.258   1.489   7.650  0.6321  1.4319  0.0957
 4676SOL     OW25489   0.910   2.640   0.661  0.0443  0.1290 -0.0109
 4676SOL    HW125490   0.987   2.593   0.629 -1.3421 -1.6726 -0.6386
 4676SOL    HW225491   0.840   2.576   0.655 -1.2196  1.4456  0.7777
 4677SOL     OW25492   1.260   4.095  15.331  0.3220  0.9386  0.2582
 4677SOL    HW125493   1.344   4.141  15.330  0.5873  0.4441 -0.2497
 4677SOL    HW225494   1.261   4.076  15.425  0.8623  2.6241  0.5997
 4678SOL     OW25495   3.076   1.781   6.900  0.1232  0.1786 -0.0796
 4678SOL    HW125496   3.011   1.777   6.969 -0.9682  0.2577 -1.1012
 4678SOL    HW225497   3.027   1.828   6.833 -0.1944  1.2232  0.8959
 4679SOL     OW25498   4.155   3.825   8.303 -0.0996  0.4854 -0.1713
 4679SOL    HW125499   4.096   3.750   8.291 -0.9177  1.4253 -2.0694
 4679SOL    HW225500   4.225   3.801   8.242 -0.7168 -0.3294 -0.5649
 4680SOL     OW25501   3.124   3.322   8.194 -0.5036 -0.0119 -0.2578
 4680SOL    HW125502   3.156   3.311   8.284 -2.6452 -0.7210  0.4191
 4680SOL    HW225503   3.102   3.414   8.179 -0.4114  0.1715  0.7441
 4681SOL     OW25504   3.570   1.812   0.629 -0.1777  0.1063  0.6121
 4681SOL    HW125505   3.536   1.744   0.571  0.2080 -0.8163  1.4844
 4681SOL    HW225506   3.641   1.840   0.571  1.7141 -1.4825  2.1886
 4682SOL     OW25507   0.067   1.446  17.152 -0.2425  0.0121 -0.2347
 4682SOL    HW125508   0.057   1.357  17.185  2.1327  0.3808  1.4735
 4682SOL    HW225509   0.043   1.505  17.223 -0.2017 -0.8681  0.5039
 4683SOL     OW25510   2.207   1.391   8.760 -0.1088  0.0357 -0.2202
 4683SOL    HW125511   2.171   1.479   8.754 -0.1680 -0.0535 -1.1797
 4683SOL    HW225512   2.276   1.414   8.822  1.7586 -3.1259 -1.1428
 4684SOL     OW25513   0.738   3.851   8.032 -0.4565  1.1336 -0.4033
 4684SOL    HW125514   0.664   3.907   8.007 -2.8259 -1.1823  1.3160
 4684SOL    HW225515   0.693   3.782   8.081  2.7751 -0.8039 -0.2160
 4685SOL     OW25516   3.287   1.285  12.188 -0.6188 -0.1526 -0.0475
 4685SOL    HW125517   3.254   1.200  12.158  2.3097 -0.8045 -1.4093
 4685SOL    HW225518   3.381   1.269  12.193 -0.1424  2.5998 -0.5725
 4686SOL     OW25519   1.059   1.415   5.921  0.5580  0.0434 -0.1124
 4686SOL    HW125520   1.094   1.477   5.985 -0.4436  0.4210  0.0769
 4686SOL    HW225521   1.093   1.334   5.958  1.1688 -0.9313 -2.8640
 4687SOL     OW25522   2.778   0.007   6.249  0.3472  0.0681  0.2388
 4687SOL    HW125523   2.747   0.054   6.171 -1.6473  0.9185  1.5319
 4687SOL    HW225524   2.816   4.645   6.215  0.8126 -0.8019  2.8585
 4688SOL     OW25525   4.471   0.372   0.780  0.5032 -0.0990  0.1198
 4688SOL    HW125526   4.504   0.353   0.868 -2.2169 -0.4537  1.0612
 4688SOL    HW225527   4.482   0.467   0.780  0.9263 -0.1425 -0.5918
 4689SOL     OW25528   2.918   3.919   2.546 -0.2502 -0.5932  0.1537
 4689SOL    HW125529   2.926   3.847   2.484 -1.9528 -0.1632 -0.5670
 4689SOL    HW225530   2.923   3.994   2.488 -1.0432 -1.1933 -0.6910
 4690SOL     OW25531   3.076   3.452   7.352 -0.2763  0.5273 -0.1379
 4690SOL    HW125532   3.120   3.529   7.315 -2.2399  1.7729  0.0883
 4690SOL    HW225533   3.050   3.400   7.276 -0.2413  1.0418 -0.5004
 4691SOL     OW25534   0.898   3.115   3.811 -0.6746 -0.3420  0.3908
 4691SOL    HW125535   0.918   3.182   3.877  1.1969 -0.2682 -0.2692
 4691SOL    HW225536   0.803   3.124   3.804 -0.4462 -0.2038 -2.2720
 4692SOL     OW25537   3.931   1.754   2.806  0.2247 -0.2220 -0.4886
 4692SOL    HW125538   3.855   1.730   2.753 -1.1544 -0.8194  1.7673
 4692SOL    HW225539   3.997   1.692   2.775 -0.1926 -1.1285  0.4244
 4693SOL     OW25540   3.348   2.433   9.109 -0.1130  0.0378 -0.2009
 4693SOL    HW125541   3.383   2.351   9.074  2.3036  0.8380  0.3954
 4693SOL    HW225542   3.273   2.434   9.049 -0.1593  0.3071 -0.1372
 4694SOL     OW25543   2.170   0.440   5.927  0.2835  0.0224 -0.7432
 4694SOL    HW125544   2.178   0.536   5.925 -0.7325  0.0898 -1.6558
 4694SOL    HW225545   2.182   0.427   5.833  0.8953 -1.1933 -0.4914
 4695SOL     OW25546   0.073   0.458   0.680  0.4822 -0.0235  0.3311
 4695SOL    HW125547   0.116   0.383   0.721 -1.3148 -1.7635 -0.9555
 4695SOL    HW225548   4.712   0.450   0.731  0.7964  0.8666  0.9573
 4696SOL     OW25549   1.099   1.504   7.548  0.7220 -0.6843 -0.0844
 4696SOL    HW125550   1.153   1.471   7.476 -1.7807 -2.0994 -1.3219
 4696SOL    HW225551   1.140   1.589   7.559  1.2507 -1.0764  0.9347
 4697SOL     OW25552   3.242   3.099   1.153 -0.3005  0.2159 -0.0009
 4697SOL    HW125553   3.207   3.015   1.125 -0.1863 -0.4090  1.6910
 4697SOL    HW225554   3.312   3.068   1.211  0.3275 -0.0786 -0.9125
 4698SOL     OW25555   2.613   0.204   2.116 -0.3045  0.4967  0.4762
 4698SOL    HW125556   2.588   0.136   2.179 -1.4741 -0.6412 -1.2454
 4698SOL    HW225557   2.582   0.288   2.149 -0.1393 -0.5575  3.3434
 4699SOL     OW25558   3.657   0.763  13.537 -0.8230 -0.1768 -0.5595
 4699SOL    HW125559   3.616   0.746  13.452 -1.0580 -2.0035 -0.0826
 4699SOL    HW225560   3.740   0.724  13.510 -0.0888 -0.2064  1.7343
 4700SOL     OW25561   0.499   3.147   6.324 -0.0061  0.3006 -0.2602
 4700SOL    HW125562   0.581   3.101   6.307 -0.9680 -0.6868 -2.2203
 4700SOL    HW225563   0.495   3.188   6.237 -1.6647  1.5201  0.3739
 4701SOL     OW25564   0.645   0.804   1.500 -0.7090  0.6648 -0.2232
 4701SOL    HW125565   0.737   0.816   1.524 -0.2465  1.1968 -2.3035
 4701SOL    HW225566   0.650   0.781   1.407  1.9189  0.4035 -0.0095
 4702SOL     OW25567   2.163   1.507  14.484  0.5021 -0.0733 -0.1755
 4702SOL    HW125568   2.133   1.526  14.395  0.6389 -0.9167 -0.3972
 4702SOL    HW225569   2.081   1.495  14.531  0.2507 -0.3131 -0.6810
 4703SOL     OW25570   0.563   1.213   6.056  0.5249 -0.1496  0.7862
 4703SOL    HW125571   0.524   1.130   6.084 -1.3623 -0.1824 -1.9734
 4703SOL    HW225572   0.519   1.253   6.131  1.2070 -1.2196  1.7561
 4704SOL     OW25573   1.741   2.674  16.375 -0.4085 -0.0827 -0.2057
 4704SOL    HW125574   1.699   2.593  16.348 -0.6637  0.1538 -0.5214
 4704SOL    HW225575   1.830   2.643  16.386 -0.5085 -0.2084  0.2640
 4705SOL     OW25576   3.576   0.526   8.193 -0.4284  0.1699  0.7037
 4705SOL    HW125577   3.535   0.516   8.107  1.6909 -0.0954 -0.2698
 4705SOL    HW225578   3.654   0.569   8.158 -0.7855  0.8059  0.6896
 4706SOL     OW25579   2.882   2.082   4.286 -0.2986  0.3985  0.2367
 4706SOL    HW125580   2.918   2.002   4.248 -1.6237 -0.1234  0.0865
 4706SOL    HW225581   2.803   2.089   4.233  0.6606 -1.6479 -1.4849
 4707SOL     OW25582   4.214   2.786  14.918 -0.7619  0.0122 -0.0066
 4707SOL    HW125583   4.151   2.768  14.849  1.3710 -3.7259 -0.9688
 4707SOL    HW225584   4.285   2.803  14.856  0.6421 -2.8754  0.7976
 4708SOL     OW25585   1.796   3.340   4.556 -0.5609  0.1962  0.3343
 4708SOL    HW125586   1.749   3.257   4.569 -0.2199  0.2232  1.6676
 4708SOL    HW225587   1.828   3.327   4.467 -0.7109  0.4199  0.2478
 4709SOL     OW25588   0.205   2.157   3.629 -0.2149  0.3370  0.3365
 4709SOL    HW125589   0.138   2.186   3.692 -0.1005  0.3908  0.4327
 4709SOL    HW225590   0.248   2.094   3.687 -1.1905 -1.0189 -0.4122
 4710SOL     OW25591   2.271   0.923   5.181 -0.1651  0.2435  0.2691
 4710SOL    HW125592   2.193   0.975   5.199 -0.9544  0.1353 -2.8989
 4710SOL    HW225593   2.331   0.971   5.238  0.6125  0.2221 -0.5422
 4711SOL     OW25594   1.939   3.061  10.572  0.8646 -0.0363 -0.4681
 4711SOL    HW125595   1.959   3.004  10.647 -2.1854 -1.6696 -0.9305
 4711SOL    HW225596   1.847   3.044  10.555  0.6598  0.4721  0.1123
 4712SOL     OW25597   1.553   4.075   6.869 -0.7834 -0.6256  0.1687
 4712SOL    HW125598   1.635   4.108   6.833 -1.6363  0.0379 -1.1596
 4712SOL    HW225599   1.549   4.124   6.952 -1.7298 -2.1490  1.0350
 4713SOL     OW25600   1.496   4.466  12.013  0.4360 -0.4937  0.5109
 4713SOL    HW125601   1.404   4.487  12.033  0.0837  1.1349 -2.6876
 4713SOL    HW225602   1.516   4.559  12.000  1.1575 -0.7218 -0.0200
 4714SOL     OW25603   0.577   0.592   9.551 -0.1405  0.2171 -0.2406
 4714SOL    HW125604   0.507   0.638   9.597  1.9102  1.9381  1.1662
 4714SOL    HW225605   0.594   0.664   9.489  2.6527 -1.0461 -0.9423
 4715SOL     OW25606   4.198   0.524  10.685  0.1936 -0.6867  0.9172
 4715SOL    HW125607   4.218   0.558  10.598 -2.3133 -1.8272 -0.1273
 4715SOL    HW225608   4.228   0.434  10.687 -4.1484 -2.2528 -2.3305
 4716SOL     OW25609   4.053   2.261   7.907 -0.0762  1.2692  0.2745
 4716SOL    HW125610   4.102   2.338   7.877  1.3108  1.2988  2.7138
 4716SOL    HW225611   4.118   2.195   7.885 -0.3264  0.8115  0.9066
 4717SOL     OW25612   1.797   1.891  13.077 -0.2450  0.1468  0.0045
 4717SOL    HW125613   1.878   1.861  13.034  1.3696  3.1245  1.0243
 4717SOL    HW225614   1.736   1.825  13.043 -1.3174  0.4843  1.3175
 4718SOL     OW25615   3.002   0.985   5.930  0.3582 -0.0060  0.2481
 4718SOL    HW125616   3.083   0.937   5.915  2.3318  3.0045  1.1850
 4718SOL    HW225617   2.935   0.918   5.913 -0.8199  0.8852  1.3206
 4719SOL     OW25618   3.388   3.940  14.082  0.0650  0.0786 -0.0164
 4719SOL    HW125619   3.317   3.984  14.036 -0.0583 -0.5333 -0.4152
 4719SOL    HW225620   3.452   3.930  14.011 -0.1614  2.4292 -0.5500
 4720SOL     OW25621   3.563   3.630   0.421  0.0764  0.4993  0.4246
 4720SOL    HW125622   3.524   3.609   0.336  0.4255 -1.4828  0.7389
 4720SOL    HW225623   3.534   3.549   0.463 -0.4907  0.9378  0.8718
 4721SOL     OW25624   3.375   1.347   4.598 -0.4090  0.6814 -0.0555
 4721SOL    HW125625   3.430   1.300   4.535 -1.4553 -0.1741 -0.3255
 4721SOL    HW225626   3.287   1.323   4.569 -0.0453 -1.8223  0.9046
 4722SOL     OW25627   0.266   2.796  11.432  0.1250  0.1711 -0.4863
 4722SOL    HW125628   0.239   2.709  11.403 -1.5032  0.5542 -0.1454
 4722SOL    HW225629   0.214   2.797  11.512 -0.3482  2.1115 -0.8043
 4723SOL     OW25630   1.984   4.707   9.103  0.2480  0.2350 -0.2799
 4723SOL    HW125631   2.000   4.703   9.198  0.8833 -0.4909 -0.4262
 4723SOL    HW225632   1.943   4.621   9.097 -1.8904  1.0928  1.9370
 4724SOL     OW25633   2.585   2.780   4.632 -0.2235  0.5518 -0.1083
 4724SOL    HW125634   2.582   2.748   4.722 -0.0057 -0.5708 -0.5054
 4724SOL    HW225635   2.506   2.832   4.619 -1.0037 -0.7685 -0.5570
 4725SOL     OW25636   4.307   0.725  13.142  0.3742  0.0076  0.1941
 4725SOL    HW125637   4.379   0.744  13.202 -0.2811  0.0328  0.9763
 4725SOL    HW225638   4.353   0.730  13.058  0.4709 -0.0019  0.2465
 4726SOL     OW25639   1.077   0.760  15.919  0.5126  0.4380  0.1572
 4726SOL    HW125640   1.027   0.794  15.845  1.2971 -1.2669 -1.1559
 4726SOL    HW225641   1.028   0.680  15.937 -0.8319  0.8957 -1.4793
 4727SOL     OW25642   4.670   3.339   1.045  0.2276  0.4520  0.3121
 4727SOL    HW125643   4.681   3.427   1.080  0.9384  1.0769 -1.4774
 4727SOL    HW225644   4.698   3.285   1.119 -0.0192  0.6795  0.5680
 4728SOL     OW25645   2.353   0.416   4.951  0.2808 -0.0219  0.0067
 4728SOL    HW125646   2.351   0.389   4.859  2.9116 -0.3251  0.0372
 4728SOL    HW225647   2.378   0.336   4.997  0.5254 -0.8694 -1.5997
 4729SOL     OW25648   3.785   0.830   9.068  0.1316  0.0497 -0.2658
 4729SOL    HW125649   3.781   0.925   9.080  2.1750  0.0953  0.0195
 4729SOL    HW225650   3.706   0.803   9.116  0.2005 -3.1624 -1.9441
 4730SOL     OW25651   1.337   4.652   1.598 -0.0508 -0.2760  0.0008
 4730SOL    HW125652   1.325   4.570   1.550 -1.8956 -0.6135  0.9972
 4730SOL    HW225653   1.392   4.632   1.674  0.9143  0.1282 -0.5942
 4731SOL     OW25654   0.187   0.065   4.391  0.8717  0.6604 -0.3587
 4731SOL    HW125655   0.142   0.076   4.307  0.7631 -0.7854 -0.4958
 4731SOL    HW225656   0.147   4.700   4.411  2.1002  0.1151 -0.2392
 4732SOL     OW25657   2.741   2.495   6.847  0.4155 -0.0908  0.2616
 4732SOL    HW125658   2.791   2.575   6.828  0.2110  0.2529  1.1891
 4732SOL    HW225659   2.733   2.465   6.757  0.2337 -2.3552  1.0339
 4733SOL     OW25660   2.062   0.148   3.462  0.2144  0.3261  0.3224
 4733SOL    HW125661   2.084   0.235   3.496 -4.0137  1.9896 -1.1576
 4733SOL    HW225662   1.969   0.154   3.439 -0.0626 -0.9096  1.1872
 4734SOL     OW25663   2.113   0.001   6.822 -0.0346 -0.5404 -0.3366
 4734SOL    HW125664   2.197   0.037   6.851  0.6759 -2.5721  0.1714
 4734SOL    HW225665   2.131   4.647   6.763 -0.1158 -1.2425  0.5094
 4735SOL     OW25666   0.722   2.620   8.137  0.6029  0.1005  0.3750
 4735SOL    HW125667   0.708   2.699   8.085 -1.1772  0.6629  1.6737
 4735SOL    HW225668   0.788   2.652   8.199  2.5961 -0.4827 -1.4880
 4736SOL     OW25669   3.121   1.622   9.667 -0.2159  0.0892  0.7729
 4736SOL    HW125670   3.043   1.616   9.723  0.6287 -1.3960  1.8017
 4736SOL    HW225671   3.194   1.618   9.728 -0.2738 -3.3432  0.5739
 4737SOL     OW25672   2.128   1.840   2.434 -0.0763  0.0789  0.0465
 4737SOL    HW125673   2.136   1.813   2.526 -0.6167 -2.4571 -0.6361
 4737SOL    HW225674   2.215   1.815   2.404  0.7034  1.3457  1.2873
 4738SOL     OW25675   4.574   4.119   9.499  0.1134 -0.3924 -0.0294
 4738SOL    HW125676   4.600   4.122   9.591  0.7619 -1.6714 -0.1799
 4738SOL    HW225677   4.537   4.034   9.477 -2.1249  1.0457 -1.8952
 4739SOL     OW25678   3.667   3.668  11.677 -0.1282  0.2397  0.3906
 4739SOL    HW125679   3.702   3.598  11.622 -0.1076 -1.0888  2.1180
 4739SOL    HW225680   3.574   3.670  11.654  0.6325  2.0118 -2.5450
 4740SOL     OW25681   1.388   0.297   4.656  0.1054  0.5055  0.1721
 4740SOL    HW125682   1.438   0.319   4.577 -1.7824  2.4825 -0.4654
 4740SOL    HW225683   1.361   0.381   4.694  0.0028  0.4003  0.3303
 4741SOL     OW25684   0.701   1.128   7.368 -0.2671 -0.2039  0.0731
 4741SOL    HW125685   0.735   1.072   7.438 -0.2141  1.0445  1.0532
 4741SOL    HW225686   0.650   1.198   7.410 -0.0821 -0.4071  0.6333
 4742SOL     OW25687   2.105   2.334   2.009 -0.5945 -0.0456 -0.1024
 4742SOL    HW125688   2.037   2.266   2.008  0.0480 -0.7140  1.5551
 4742SOL    HW225689   2.112   2.361   2.100  1.1626  0.1591 -0.3113
 4743SOL     OW25690   1.043   3.952   3.353 -0.4289 -0.3116  0.2218
 4743SOL    HW125691   0.974   3.975   3.291  0.5227  0.3452 -0.6033
 4743SOL    HW225692   1.116   3.949   3.291 -1.3689 -0.6033 -0.8813
 4744SOL     OW25693   0.272   1.886   7.627  0.3089  0.0982  0.2331
 4744SOL    HW125694   0.304   1.842   7.706 -0.8840  0.8513  1.1389
 4744SOL    HW225695   0.359   1.885   7.588  0.2762  2.2064  0.0925
 4745SOL     OW25696   4.070   3.956   0.622 -0.3004 -0.5715 -0.0445
 4745SOL    HW125697   3.979   3.934   0.606  0.0185 -1.8450 -0.0908
 4745SOL    HW225698   4.111   3.893   0.563  1.8550 -0.7046  1.5986
 4746SOL     OW25699   3.335   2.690  14.640  0.2289  0.3630  0.0238
 4746SOL    HW125700   3.311   2.756  14.706  0.1150  0.0089  0.3389
 4746SOL    HW225701   3.298   2.606  14.669  0.2245  0.1240 -0.6852
 4747SOL     OW25702   4.666   4.011   9.752 -0.5469 -0.2678 -0.1446
 4747SOL    HW125703   4.645   3.948   9.821 -1.7270 -0.0398 -0.3082
 4747SOL    HW225704   4.717   4.077   9.799 -0.9905  0.6060 -0.8965
 4748SOL     OW25705   4.097   3.179   3.150  0.2481  0.1861 -0.0526
 4748SOL    HW125706   4.070   3.102   3.101  1.8738 -0.2244 -0.3175
 4748SOL    HW225707   4.193   3.177   3.150  0.2194 -1.0425  3.1989
 4749SOL     OW25708   2.761   0.937   8.769  0.2747 -0.0274 -0.3150
 4749SOL    HW125709   2.683   0.885   8.748 -1.2185  1.9829  0.2904
 4749SOL    HW225710   2.831   0.878   8.796  1.1450  0.4397 -1.5629
 4750SOL     OW25711   4.327   2.024  11.161 -0.4414  0.5312 -0.4160
 4750SOL    HW125712   4.334   1.991  11.072  0.4688 -0.0856 -0.1120
 4750SOL    HW225713   4.408   2.074  11.162 -0.4989  0.6265 -0.4859
 4751SOL     OW25714   1.404   2.029   7.251 -0.0404  0.2832  0.1656
 4751SOL    HW125715   1.382   1.941   7.223  2.1938 -0.0728 -0.4600
 4751SOL    HW225716   1.336   2.082   7.210  0.0436  0.1458 -0.1461
 4752SOL     OW25717   1.142   3.553   9.446  0.4046 -0.7036 -0.3692
 4752SOL    HW125718   1.059   3.601   9.448  0.5689 -0.4388 -0.0143
 4752SOL    HW225719   1.183   3.568   9.531 -0.2553 -0.9608 -0.0060
 4753SOL     OW25720   0.133   2.904   5.829  0.3922  0.3246 -0.3256
 4753SOL    HW125721   0.077   2.861   5.764 -0.1662 -0.9123  0.9775
 4753SOL    HW225722   0.216   2.876   5.791  0.9552  0.5930  0.7233
 4754SOL     OW25723   4.071   2.596   4.584 -0.2472 -0.4066 -0.4326
 4754SOL    HW125724   4.088   2.638   4.669 -0.8980 -0.0972 -0.4620
 4754SOL    HW225725   4.104   2.506   4.594 -0.6802 -0.3786  1.2117
 4755SOL     OW25726   1.089   3.734   5.119 -0.1344 -0.1095  0.3506
 4755SOL    HW125727   1.002   3.737   5.158 -0.5999 -0.1470 -0.7027
 4755SOL    HW225728   1.136   3.805   5.162  0.1512  0.0276 -0.1814
 4756SOL     OW25729   1.806   1.028   4.333 -0.3177  0.0308 -0.6913
 4756SOL    HW125730   1.764   0.985   4.407  0.0937  1.3367  0.2855
 4756SOL    HW225731   1.732   1.050   4.277 -0.3092 -0.4882 -0.9117
 4757SOL     OW25732   0.710   0.480   1.487 -0.5849 -0.2741 -0.8733
 4757SOL    HW125733   0.735   0.448   1.401  1.1560 -1.8755  0.2070
 4757SOL    HW225734   0.662   0.560   1.470 -0.7085 -0.2890 -0.6050
 4758SOL     OW25735   4.347   0.397   9.641 -0.3500  0.0835 -0.1948
 4758SOL    HW125736   4.379   0.336   9.708  1.3303  1.9292  0.6741
 4758SOL    HW225737   4.294   0.462   9.687  1.3411  0.9361  0.5216
 4759SOL     OW25738   0.825   2.171   4.868 -0.4586 -0.0458 -0.1794
 4759SOL    HW125739   0.821   2.166   4.963  1.2894  3.5336  0.0729
 4759SOL    HW225740   0.852   2.082   4.847 -0.8937 -0.8633  2.8214
 4760SOL     OW25741   2.039   4.443  15.031  0.0762  0.1712  0.5348
 4760SOL    HW125742   1.978   4.484  14.970  1.4279  0.4304 -0.6363
 4760SOL    HW225743   1.978   4.433  15.104 -0.6719 -1.2662 -0.2980
 4761SOL     OW25744   0.925   3.011   1.458 -0.5736 -0.3947 -0.0960
 4761SOL    HW125745   0.898   2.949   1.525  3.0591 -1.8624  0.0364
 4761SOL    HW225746   0.996   3.062   1.497  0.2276 -2.3315  0.9833
 4762SOL     OW25747   3.261   4.546   5.300 -0.0059 -0.0804  0.4988
 4762SOL    HW125748   3.339   4.596   5.324  0.5517 -0.4547 -0.5251
 4762SOL    HW225749   3.204   4.622   5.286  1.8677  1.6055  2.0221
 4763SOL     OW25750   0.771   0.634   7.399  0.6164 -0.9199  0.6605
 4763SOL    HW125751   0.854   0.639   7.352 -0.7519  3.1923 -1.2779
 4763SOL    HW225752   0.724   0.705   7.356  0.2647 -1.5761 -0.0393
 4764SOL     OW25753   0.311   0.221   9.667 -0.3495  0.4621  0.5299
 4764SOL    HW125754   0.241   0.189   9.723 -0.3385 -1.5515 -0.6396
 4764SOL    HW225755   0.306   0.315   9.684  1.0499  1.0566 -2.1954
 4765SOL     OW25756   1.882   1.382   0.784 -0.2963 -0.2221  0.0086
 4765SOL    HW125757   1.855   1.473   0.772  1.2930  0.0227 -1.5688
 4765SOL    HW225758   1.973   1.393   0.809 -0.4788  0.7804  0.1992
 4766SOL     OW25759   4.118   0.045   8.937 -0.3278  0.0993  0.3073
 4766SOL    HW125760   4.186   0.112   8.929 -0.7360  0.6324  1.2758
 4766SOL    HW225761   4.142   4.714   8.860 -0.0577  0.2538  0.2922
 4767SOL     OW25762   2.350   4.129   4.839  0.3592 -0.2752 -0.0674
 4767SOL    HW125763   2.339   4.040   4.874  0.6014 -0.2255  0.1398
 4767SOL    HW225764   2.384   4.110   4.751  2.1394 -1.5660  0.8912
 4768SOL     OW25765   2.131   0.691   6.147 -0.3000  0.0549  0.0054
 4768SOL    HW125766   2.214   0.726   6.114 -1.3104  1.0650 -1.4467
 4768SOL    HW225767   2.074   0.739   6.088  0.5916  2.1846  0.8868
 4769SOL     OW25768   1.654   1.081   6.211  0.0294  0.0005 -0.2818
 4769SOL    HW125769   1.594   1.129   6.267  1.6564 -0.4474  1.8454
 4769SOL    HW225770   1.729   1.139   6.199 -0.7623  1.1862  0.5225
 4770SOL     OW25771   4.325   4.462  15.871  0.3231  0.5227 -0.3256
 4770SOL    HW125772   4.264   4.531  15.844  1.3790  1.2744 -0.7943
 4770SOL    HW225773   4.401   4.514  15.894 -0.0191  0.3728  1.1249
 4771SOL     OW25774   0.283   2.353   2.855 -0.7014 -0.2045  0.3256
 4771SOL    HW125775   0.354   2.327   2.796 -0.8914 -1.2256  0.5585
 4771SOL    HW225776   0.287   2.446   2.831 -0.7324 -0.5109 -0.8544
 4772SOL     OW25777   3.063   0.084   4.855 -0.1698  0.4442  0.2106
 4772SOL    HW125778   3.107   0.123   4.779 -0.8286  3.2889  1.3055
 4772SOL    HW225779   3.033   0.162   4.900 -1.0842  0.3143 -0.1685
 4773SOL     OW25780   3.379   0.374   1.844  0.3983 -0.3803 -0.1088
 4773SOL    HW125781   3.412   0.290   1.875  1.0747  0.0364  0.2971
 4773SOL    HW225782   3.287   0.376   1.869 -0.2545  0.7355 -2.5610
 4774SOL     OW25783   3.998   1.997   6.979 -0.4120 -0.4816  0.1278
 4774SOL    HW125784   3.903   1.991   6.984 -0.5300 -0.4211 -1.9028
 4774SOL    HW225785   3.995   2.089   7.004 -1.6112 -0.3143 -0.6231
 4775SOL     OW25786   3.498   0.170  10.195  0.2417  0.2509  0.4566
 4775SOL    HW125787   3.435   0.112  10.237  0.9532 -1.9707 -1.5099
 4775SOL    HW225788   3.438   0.240  10.170  1.2379  1.0021  0.1786
 4776SOL     OW25789   1.380   4.146   7.717 -0.1325  0.1000 -0.6158
 4776SOL    HW125790   1.341   4.231   7.738  2.3147  1.3040 -0.9762
 4776SOL    HW225791   1.300   4.093   7.713  0.1748 -0.1672 -3.3321
 4777SOL     OW25792   3.580   1.068   0.405  0.0378 -0.2043 -0.1779
 4777SOL    HW125793   3.531   1.041   0.483 -1.1465 -0.0430 -0.8626
 4777SOL    HW225794   3.529   1.148   0.389  0.4627  0.0352 -0.3293
 4778SOL     OW25795   0.750   2.239   3.202  0.0896 -0.1243 -0.2591
 4778SOL    HW125796   0.704   2.219   3.121 -0.7021  0.2201  0.1006
 4778SOL    HW225797   0.783   2.324   3.175  1.2865 -0.5788 -0.2436
 4779SOL     OW25798   0.272   0.433   6.770 -0.3564 -0.4219  0.2319
 4779SOL    HW125799   0.199   0.494   6.778 -0.4714 -0.2317 -2.4318
 4779SOL    HW225800   0.344   0.494   6.780  0.4028 -1.4261  0.8609
 4780SOL     OW25801   4.188   0.269   7.404 -0.0542 -0.9179  0.6078
 4780SOL    HW125802   4.174   0.354   7.361  1.3155  0.1240  2.2459
 4780SOL    HW225803   4.187   0.294   7.496  1.6239  0.4865  0.2574
 4781SOL     OW25804   1.633   0.612   9.440 -0.2597 -0.6320 -0.4523
 4781SOL    HW125805   1.694   0.556   9.393 -1.3596 -2.0966 -0.1360
 4781SOL    HW225806   1.551   0.590   9.395  0.0734 -0.5079 -1.1165
 4782SOL     OW25807   3.825   2.132  12.163  0.4773 -0.2449 -0.0757
 4782SOL    HW125808   3.870   2.048  12.173  2.1012  0.5034 -1.1593
 4782SOL    HW225809   3.893   2.196  12.180 -0.2462  0.7844 -1.0969
 4783SOL     OW25810   1.997   4.556  16.704 -0.1565 -0.0306  0.0739
 4783SOL    HW125811   2.007   4.494  16.632  2.1017  1.2354 -0.6860
 4783SOL    HW225812   2.070   4.535  16.762 -0.0622  1.4937  0.5098
 4784SOL     OW25813   0.327   3.760   3.700  0.0030 -0.4074 -0.1439
 4784SOL    HW125814   0.241   3.801   3.709 -0.9571 -2.6954  1.0711
 4784SOL    HW225815   0.312   3.694   3.633 -1.8447  1.1656 -1.2767
 4785SOL     OW25816   2.218   4.386   5.838  0.2526  0.3955  0.5745
 4785SOL    HW125817   2.269   4.449   5.888  0.1457  1.3845 -0.5671
 4785SOL    HW225818   2.228   4.431   5.754 -0.6449 -2.1518 -0.9266
 4786SOL     OW25819   0.606   3.244   1.583 -0.2584  1.1973 -0.1267
 4786SOL    HW125820   0.669   3.229   1.513  0.0442 -0.8040  0.5966
 4786SOL    HW225821   0.623   3.335   1.611 -0.1196  0.4199  2.3562
 4787SOL     OW25822   0.450   0.489   7.301 -0.8497 -0.1561 -0.3039
 4787SOL    HW125823   0.482   0.572   7.264 -0.4030 -0.7496 -1.2604
 4787SOL    HW225824   0.428   0.445   7.219 -0.1371 -0.7622 -0.1699
 4788SOL     OW25825   1.602   2.055  15.585 -0.1835  0.6806 -0.0210
 4788SOL    HW125826   1.633   2.002  15.511  0.9917  2.0169 -0.5033
 4788SOL    HW225827   1.637   2.004  15.658 -0.0981 -0.9666 -1.2299
 4789SOL     OW25828   0.651   3.661   7.430 -0.0849  0.2366  0.2683
 4789SOL    HW125829   0.570   3.631   7.391 -0.3277  0.9301  0.2356
 4789SOL    HW225830   0.637   3.755   7.416 -1.5779 -0.3771 -2.3732
 4790SOL     OW25831   1.855   0.730  15.647 -0.3353 -0.1934  0.0839
 4790SOL    HW125832   1.768   0.737  15.686 -0.3771 -1.5163  0.2449
 4790SOL    HW225833   1.881   0.656  15.703  0.0312  1.9218  2.6927
 4791SOL     OW25834   3.646   0.887   4.120 -0.6902 -0.5095 -0.1938
 4791SOL    HW125835   3.624   0.857   4.208 -0.4341 -2.5382 -0.8153
 4791SOL    HW225836   3.611   0.976   4.125  1.2272  0.3200 -1.4661
 4792SOL     OW25837   2.986   2.144   1.555 -0.0354 -0.6314 -0.1635
 4792SOL    HW125838   3.031   2.077   1.503  0.1480  1.5091 -2.7691
 4792SOL    HW225839   3.054   2.180   1.612 -1.8318  2.3270  0.0964
 4793SOL     OW25840   0.374   2.144  10.034  0.4516 -0.4730  0.4212
 4793SOL    HW125841   0.456   2.193  10.041 -0.7341  2.1609 -4.3539
 4793SOL    HW225842   0.404   2.057  10.061  2.2636 -0.3590 -1.2203
 4794SOL     OW25843   0.937   2.666   6.965 -0.4375  0.0788 -0.8562
 4794SOL    HW125844   0.875   2.726   6.925  0.0238  0.6344 -0.7369
 4794SOL    HW225845   1.017   2.714   6.945 -0.0910 -0.7101 -1.3277
 4795SOL     OW25846   4.151   0.202   5.768 -0.0765 -0.0081  0.1629
 4795SOL    HW125847   4.203   0.268   5.722  0.2426 -0.5014 -0.1873
 4795SOL    HW225848   4.122   0.142   5.699  0.1245  0.3363 -0.2238
 4796SOL     OW25849   3.181   0.249   2.490  0.1834  0.1188  0.4206
 4796SOL    HW125850   3.267   0.209   2.474 -0.2712 -0.4040 -0.7231
 4796SOL    HW225851   3.132   0.167   2.497  1.2629 -0.7078 -1.7560
 4797SOL     OW25852   2.829   4.382   7.276  0.0732  0.1854 -0.3355
 4797SOL    HW125853   2.763   4.314   7.261 -0.5658  0.1731  2.5764
 4797SOL    HW225854   2.860   4.361   7.364  1.9451  0.0434 -1.0136
 4798SOL     OW25855   4.117   2.576   8.083 -0.0256 -0.3960  0.7424
 4798SOL    HW125856   4.023   2.596   8.088  0.0649 -0.1189  1.4068
 4798SOL    HW225857   4.133   2.553   7.992  0.7840  0.9194  0.5612
 4799SOL     OW25858   3.592   0.199   3.889 -0.0936 -0.1573  0.1209
 4799SOL    HW125859   3.575   0.195   3.795 -1.2532  1.4310  0.2648
 4799SOL    HW225860   3.661   0.134   3.901 -1.5268 -1.3460  1.8081
 4800SOL     OW25861   4.187   3.482  16.834 -0.4468  0.1908 -0.4500
 4800SOL    HW125862   4.183   3.479  16.738  1.7616 -0.9127 -0.5039
 4800SOL    HW225863   4.243   3.558  16.847 -1.4362  0.3307  2.9664
 4801SOL     OW25864   2.221   0.429  15.027 -0.0696 -0.1986 -0.5473
 4801SOL    HW125865   2.225   0.370  15.102 -1.4008  0.1337 -0.1996
 4801SOL    HW225866   2.129   0.457  15.029 -0.5875 -1.8188 -1.4069
 4802SOL     OW25867   3.220   1.471   0.222 -0.1886 -0.0009 -0.0677
 4802SOL    HW125868   3.238   1.448   0.313 -2.4761 -1.5706 -0.0159
 4802SOL    HW225869   3.249   1.562   0.216  1.9333 -0.7488 -0.8576
 4803SOL     OW25870   2.055   4.630  17.094  0.7693  0.9649 -0.1166
 4803SOL    HW125871   2.079   4.583  17.014 -0.9505  0.8684 -0.5711
 4803SOL    HW225872   2.058   4.718  17.056  1.5608  0.6205 -0.8783
 4804SOL     OW25873   2.322   4.123   3.547  0.0746  0.1262 -0.2095
 4804SOL    HW125874   2.242   4.110   3.597 -0.5033  3.0998 -0.3711
 4804SOL    HW225875   2.333   4.218   3.546 -1.2377  0.2708 -0.8334
 4805SOL     OW25876   1.614   0.084   7.357  0.3364 -0.1795  0.3602
 4805SOL    HW125877   1.646   0.015   7.299 -2.0021 -1.2143  0.3435
 4805SOL    HW225878   1.700   0.110   7.390  1.2722 -1.3069 -1.1744
 4806SOL     OW25879   0.002   2.012   2.823 -0.0796  0.3560  0.1917
 4806SOL    HW125880   0.024   1.919   2.821  1.6193  0.7457  0.7833
 4806SOL    HW225881   0.079   2.060   2.794  0.5782 -0.8765 -0.1146
 4807SOL     OW25882   2.913   4.489   0.954  0.1195 -0.5107 -0.1482
 4807SOL    HW125883   2.827   4.449   0.950  1.4899 -3.7848  3.0990
 4807SOL    HW225884   2.909   4.538   1.036 -1.0292 -1.1304  0.1590
 4808SOL     OW25885   4.138   0.821   3.758  0.0978 -0.4241  0.7877
 4808SOL    HW125886   4.085   0.894   3.789  2.6527  1.1749  1.3954
 4808SOL    HW225887   4.113   0.829   3.666  0.9108 -0.9350  0.5251
 4809SOL     OW25888   1.967   1.534   9.625 -0.4253  0.2059  0.5879
 4809SOL    HW125889   1.944   1.570   9.539  1.4054 -0.0742 -0.0240
 4809SOL    HW225890   1.980   1.441   9.609  1.3941  0.0331  3.0140
 4810SOL     OW25891   3.848   4.220   7.238 -0.1630 -0.1669 -0.3424
 4810SOL    HW125892   3.909   4.236   7.310 -1.7062  1.0005  0.7248
 4810SOL    HW225893   3.776   4.177   7.285 -1.2465  2.6870  0.6392
 4811SOL     OW25894   2.493   4.349   2.406 -0.9094  0.1740  0.0731
 4811SOL    HW125895   2.430   4.383   2.343  1.0498  0.0828 -1.9152
 4811SOL    HW225896   2.439   4.328   2.482  0.6651 -2.7981  0.3788
 4812SOL     OW25897   1.262   2.898   7.790 -0.6486  0.0502 -0.0142
 4812SOL    HW125898   1.348   2.939   7.802  0.0752 -1.4042 -0.2700
 4812SOL    HW225899   1.206   2.975   7.805 -0.8324  0.2083 -1.4458
 4813SOL     OW25900   3.364   1.040  13.442 -0.1920  0.1177 -0.1269
 4813SOL    HW125901   3.298   0.992  13.391 -1.1311 -0.4428  1.6246
 4813SOL    HW225902   3.347   1.013  13.532  0.7140  1.5674  0.4695
 4814SOL     OW25903   3.170   4.606  11.209  0.0905 -0.2373  0.3817
 4814SOL    HW125904   3.261   4.587  11.231 -0.2862 -2.9870 -0.3886
 4814SOL    HW225905   3.125   4.591  11.292 -1.9765  0.6771 -0.5785
 4815SOL     OW25906   0.430   4.276  10.555 -0.7121  0.0185 -0.5710
 4815SOL    HW125907   0.395   4.334  10.623 -1.1087  1.7363 -2.2487
 4815SOL    HW225908   0.501   4.239  10.607  1.4004  2.1573 -1.9596
 4816SOL     OW25909   2.359   1.885   5.808  0.0676  0.2617  0.3657
 4816SOL    HW125910   2.357   1.804   5.859 -1.5052 -0.9468 -1.6656
 4816SOL    HW225911   2.449   1.880   5.775  0.5181  2.4496  1.2252
 4817SOL     OW25912   1.804   2.572   5.667  0.5936 -0.7237 -0.0748
 4817SOL    HW125913   1.832   2.506   5.604  0.8042  1.7044 -2.5466
 4817SOL    HW225914   1.715   2.584   5.632  0.9193 -0.0175 -0.6788
 4818SOL     OW25915   1.324   0.713  13.362 -0.5161  0.2015 -0.2138
 4818SOL    HW125916   1.256   0.748  13.305 -0.5061  1.4045  0.5103
 4818SOL    HW225917   1.404   0.731  13.314  0.1628  1.1766  1.2781
 4819SOL     OW25918   4.709   3.522   3.847 -0.2636  0.6903 -0.2666
 4819SOL    HW125919   0.042   3.587   3.893  1.6394 -0.1946 -1.1903
 4819SOL    HW225920   4.624   3.554   3.877  0.4518  2.6663 -0.3659
 4820SOL     OW25921   3.834   4.570  15.166 -0.5550 -0.5393  0.3350
 4820SOL    HW125922   3.828   4.648  15.220  0.0528  0.5083 -1.1125
 4820SOL    HW225923   3.927   4.547  15.168 -0.9068 -2.1851 -1.6809
 4821SOL     OW25924   0.373   3.628   9.909 -0.4900 -0.5137  0.1739
 4821SOL    HW125925   0.398   3.556   9.851 -1.3077 -2.4390  2.1797
 4821SOL    HW225926   0.289   3.665   9.880 -0.5011 -2.1099 -1.8895
 4822SOL     OW25927   3.089   2.663  13.204  0.7118  0.4390 -0.9253
 4822SOL    HW125928   3.162   2.609  13.235  0.7651  1.0113 -0.0600
 4822SOL    HW225929   3.101   2.733  13.268  0.1766 -0.5378  0.2607
 4823SOL     OW25930   0.633   4.206   6.164 -0.3960 -0.3741 -0.3694
 4823SOL    HW125931   0.706   4.243   6.213 -0.2430 -1.8406  0.5141
 4823SOL    HW225932   0.630   4.116   6.196  0.1558  0.2664  1.5184
 4824SOL     OW25933   2.792   2.755   1.680  0.5435  0.0447  0.0239
 4824SOL    HW125934   2.768   2.684   1.740 -0.3832 -0.7396 -1.2570
 4824SOL    HW225935   2.874   2.717   1.647  0.7360  0.5299 -0.0525
 4825SOL     OW25936   2.706   2.679  10.124 -0.2012  0.1720  0.6650
 4825SOL    HW125937   2.778   2.721  10.076 -0.2247  0.1308  0.5935
 4825SOL    HW225938   2.655   2.643  10.052  0.2858  0.4750  0.1691
 4826SOL     OW25939   0.963   4.298  13.480  0.1291 -0.5619  0.6863
 4826SOL    HW125940   0.869   4.314  13.490 -0.2435 -2.1832 -0.2642
 4826SOL    HW225941   0.972   4.347  13.398  0.4049 -2.0696 -0.1664
 4827SOL     OW25942   3.895   2.594   7.547  0.0475  0.0223 -0.7004
 4827SOL    HW125943   3.835   2.523   7.525 -0.1171  0.3419 -1.2837
 4827SOL    HW225944   3.877   2.608   7.640  0.2852 -0.9304 -0.5069
 4828SOL     OW25945   3.711   3.252   3.389 -0.6286  0.0694 -0.3455
 4828SOL    HW125946   3.710   3.156   3.388 -1.0047  0.0881 -1.6559
 4828SOL    HW225947   3.648   3.279   3.456 -0.0065 -0.9128  0.6379
 4829SOL     OW25948   4.705   1.880   0.252  0.2443  0.7575  0.0017
 4829SOL    HW125949   4.697   1.804   0.195 -0.4390  0.7749  0.0796
 4829SOL    HW225950   0.076   1.901   0.227  0.8409 -3.2596 -1.1836
 4830SOL     OW25951   3.543   0.886  11.452 -0.0062  0.1942 -0.1902
 4830SOL    HW125952   3.551   0.963  11.508  1.4863  0.0144 -0.1472
 4830SOL    HW225953   3.635   0.865  11.431  0.3704  1.8993 -0.2702
 4831SOL     OW25954   3.856   3.775   1.689  0.1684  0.2153 -0.1609
 4831SOL    HW125955   3.776   3.730   1.717 -0.5794  1.4486 -0.3005
 4831SOL    HW225956   3.813   3.855   1.658 -0.0763 -0.4316 -1.4779
 4832SOL     OW25957   0.130   3.608   2.582  0.1524 -0.6817  0.1331
 4832SOL    HW125958   0.118   3.676   2.649  0.8367 -1.0994  0.6854
 4832SOL    HW225959   0.065   3.631   2.517 -1.5506 -0.8114  1.7843
 4833SOL     OW25960   0.488   3.815   2.687 -0.0319  0.0075  0.0342
 4833SOL    HW125961   0.474   3.868   2.609 -0.2525  1.5059  1.0898
 4833SOL    HW225962   0.476   3.883   2.753 -1.9463  0.1298 -0.4320
 4834SOL     OW25963   3.567   2.007   3.212  0.4082  0.7050  0.5040
 4834SOL    HW125964   3.573   1.950   3.289  0.6643 -0.6655 -0.5314
 4834SOL    HW225965   3.527   2.078   3.263 -0.6687  0.2744  0.2588
 4835SOL     OW25966   0.610   0.949   2.145 -0.3103 -0.2335  0.0769
 4835SOL    HW125967   0.570   1.033   2.169 -1.5242 -0.6031 -0.6649
 4835SOL    HW225968   0.549   0.889   2.186  1.1211  0.0823  2.6657
 4836SOL     OW25969   4.081   3.000   3.838 -0.2380 -0.6988 -0.0413
 4836SOL    HW125970   4.085   3.008   3.743 -1.4721  0.4738  0.0034
 4836SOL    HW225971   4.157   3.050   3.869  0.2873 -1.8577  0.5272
 4837SOL     OW25972   0.537   1.797   7.600 -0.0214 -0.5276  0.0614
 4837SOL    HW125973   0.544   1.702   7.609  1.7092 -0.1608  2.3198
 4837SOL    HW225974   0.597   1.818   7.671 -0.2269  2.6292 -0.7226
 4838SOL     OW25975   2.939   1.855   9.756  0.3124  0.2356  0.2131
 4838SOL    HW125976   2.939   1.827   9.665  0.1919  1.7870 -0.2494
 4838SOL    HW225977   2.909   1.775   9.799  1.7351  0.2705  1.2796
 4839SOL     OW25978   4.608   1.013   8.513  0.1337  0.4157  0.4050
 4839SOL    HW125979   4.582   1.084   8.455 -1.8578  0.0822  0.9008
 4839SOL    HW225980   4.691   1.037   8.555 -0.6420  0.5524  1.8535
 4840SOL     OW25981   4.073   0.775   7.088 -0.0521  0.2846  0.2407
 4840SOL    HW125982   4.037   0.700   7.041  1.2801 -0.8947  1.1073
 4840SOL    HW225983   4.127   0.805   7.014  0.0262 -1.5725 -0.4518
 4841SOL     OW25984   3.287   0.209   3.848  0.1644  0.0803  0.6589
 4841SOL    HW125985   3.380   0.204   3.823 -0.3927 -1.5046 -1.0634
 4841SOL    HW225986   3.277   0.304   3.837 -0.6302 -0.3845 -2.5002
 4842SOL     OW25987   1.149   1.058  13.793  0.5212  0.4638  0.1077
 4842SOL    HW125988   1.181   1.085  13.879  0.5792 -1.8052  0.8076
 4842SOL    HW225989   1.083   1.125  13.773  0.5754  0.0010 -1.6762
 4843SOL     OW25990   1.477   2.666   3.022  0.2173 -0.4194 -0.1276
 4843SOL    HW125991   1.420   2.598   3.058 -0.9862 -0.0105 -1.2463
 4843SOL    HW225992   1.418   2.737   3.000  2.5721  1.5148 -0.2311
 4844SOL     OW25993   1.030   1.901   3.314 -0.1886  0.0512  0.3529
 4844SOL    HW125994   1.002   1.953   3.239  1.8692  0.6425  0.0150
 4844SOL    HW225995   0.948   1.904   3.363 -0.1468  1.4346  0.3441
 4845SOL     OW25996   0.570   4.506  10.474  0.2816 -0.1521 -0.4833
 4845SOL    HW125997   0.655   4.464  10.460  0.3578 -0.5071  1.0841
 4845SOL    HW225998   0.509   4.435  10.496  0.2826 -0.7807 -2.5083
 4846SOL     OW25999   2.845   4.619   2.290 -0.0840 -0.2330 -0.1491
 4846SOL    HW126000   2.805   4.552   2.346 -0.3530 -1.5962 -1.9693
 4846SOL    HW226001   2.763   4.650   2.253 -0.5412 -1.3726 -0.0978
 4847SOL     OW26002   4.309   3.049  16.411 -0.2949  0.4193  0.0238
 4847SOL    HW126003   4.226   3.004  16.391  0.4860  0.1269 -2.5192
 4847SOL    HW226004   4.352   3.044  16.326  1.1390  2.2805  0.6533
 4848SOL     OW26005   0.353   2.950  12.040  0.0792 -0.2650  0.7301
 4848SOL    HW126006   0.422   3.010  12.068  1.2576 -1.4231  0.3046
 4848SOL    HW226007   0.378   2.941  11.948  0.8587 -1.0448  1.0243
 4849SOL     OW26008   0.281   3.632   8.531 -0.0544 -0.2213  0.0802
 4849SOL    HW126009   0.227   3.554   8.520  2.0049 -1.1475 -3.5354
 4849SOL    HW226010   0.231   3.687   8.591  0.5970 -1.5931  1.8797
 4850SOL     OW26011   3.192   3.554  13.753 -0.3710  0.3284 -0.1064
 4850SOL    HW126012   3.215   3.643  13.781 -0.1208 -0.1333  1.1873
 4850SOL    HW226013   3.258   3.540  13.686 -0.0781 -1.0692  0.4610
 4851SOL     OW26014   3.146   2.237  10.525  0.1320 -0.2946  0.0296
 4851SOL    HW126015   3.207   2.235  10.599 -0.4157  1.7584  0.5441
 4851SOL    HW226016   3.138   2.142  10.529 -3.2772  0.0045  0.9281
 4852SOL     OW26017   1.044   3.557   9.776 -0.6944  0.1127  0.0055
 4852SOL    HW126018   0.956   3.538   9.743 -0.2958  1.8153 -1.9926
 4852SOL    HW226019   1.019   3.618   9.845 -0.4173  0.1883  0.0382
 4853SOL     OW26020   1.795   2.161   2.541 -0.5401  0.3234  0.0189
 4853SOL    HW126021   1.743   2.122   2.470  1.1450  0.4365 -1.2794
 4853SOL    HW226022   1.877   2.180   2.496 -0.8730  2.9517  0.5637
 4854SOL     OW26023   0.742   2.396   0.659  0.5062 -0.1773  0.2939
 4854SOL    HW126024   0.684   2.356   0.594  1.5107 -2.8245  1.0376
 4854SOL    HW226025   0.815   2.336   0.672  1.9822  1.6690  0.6527
 4855SOL     OW26026   0.348   0.949   3.664 -0.0253 -0.6380  0.1692
 4855SOL    HW126027   0.391   1.033   3.681 -0.7663 -0.7115  2.4208
 4855SOL    HW226028   0.415   0.895   3.622 -0.2510 -1.3193  0.6851
 4856SOL     OW26029   3.992   2.960   8.762 -0.6651 -0.4207 -0.3584
 4856SOL    HW126030   3.942   2.977   8.842  0.4755 -0.1916  0.2977
 4856SOL    HW226031   4.078   2.995   8.787 -0.5119 -0.8629 -0.2804
 4857SOL     OW26032   3.999   0.738   6.362  0.5788  0.0046 -0.4140
 4857SOL    HW126033   3.985   0.759   6.270 -0.6633 -0.4501 -0.3331
 4857SOL    HW226034   4.082   0.784   6.373  1.0222 -0.9967  0.5680
 4858SOL     OW26035   1.151   1.700  12.441  0.5333  0.3930 -0.0476
 4858SOL    HW126036   1.161   1.739  12.354  0.1487 -3.4455 -1.7828
 4858SOL    HW226037   1.232   1.734  12.479  0.2107  1.7288 -0.5233
 4859SOL     OW26038   4.026   2.273   7.056 -0.6387 -0.0499  0.0757
 4859SOL    HW126039   4.121   2.286   7.051 -0.2936 -1.5369  2.3619
 4859SOL    HW226040   4.019   2.255   7.150 -0.2157 -2.8082 -0.3974
 4860SOL     OW26041   3.975   2.708   4.142 -0.0858 -0.8238 -0.0612
 4860SOL    HW126042   4.053   2.681   4.191  0.5137 -2.0425 -1.6826
 4860SOL    HW226043   3.913   2.734   4.210 -0.7881 -0.0426 -0.9917
 4861SOL     OW26044   4.384   2.384  12.020 -0.4020 -0.0686  0.1814
 4861SOL    HW126045   4.431   2.390  11.937 -1.4929  1.6540 -0.3102
 4861SOL    HW226046   4.404   2.294  12.045  0.9856  0.0365 -0.5847
 4862SOL     OW26047   2.396   3.873   0.628  0.8663  0.1003  0.1914
 4862SOL    HW126048   2.398   3.808   0.557 -0.4580 -2.2110  2.2651
 4862SOL    HW226049   2.358   3.947   0.580 -1.3618 -1.1128  0.0613
 4863SOL     OW26050   1.739   1.141   0.840  0.0965 -0.3374 -0.0384
 4863SOL    HW126051   1.806   1.207   0.821  0.3395 -0.9753 -1.3877
 4863SOL    HW226052   1.677   1.182   0.900 -0.0346  0.6906 -0.8897
 4864SOL     OW26053   4.181   1.852   7.756 -0.1277  0.4240  0.5726
 4864SOL    HW126054   4.125   1.907   7.810 -1.0890  1.0777 -1.1039
 4864SOL    HW226055   4.245   1.819   7.819  1.3180 -0.1044 -1.1778
 4865SOL     OW26056   1.880   0.341   8.057 -0.3659 -0.4184 -0.2387
 4865SOL    HW126057   1.946   0.343   7.988  0.7851 -0.3850  0.8482
 4865SOL    HW226058   1.915   0.263   8.100 -0.7486 -0.2835  0.3205
 4866SOL     OW26059   1.265   0.957   5.438 -0.3313  0.0388  0.0985
 4866SOL    HW126060   1.317   0.930   5.363  0.6203  0.4620  0.6008
 4866SOL    HW226061   1.217   1.030   5.400 -0.0546 -1.0079 -2.2217
 4867SOL     OW26062   0.358   1.738  13.086 -0.1120  0.8016  0.0123
 4867SOL    HW126063   0.394   1.679  13.019 -1.3709 -1.4465  1.3320
 4867SOL    HW226064   0.310   1.676  13.141  0.3407 -0.4483 -0.9975
 4868SOL     OW26065   3.371   3.431   4.550  0.4852 -0.2108  0.1914
 4868SOL    HW126066   3.342   3.371   4.619 -2.5787 -0.2341 -1.1211
 4868SOL    HW226067   3.436   3.484   4.597 -1.4413  1.8845  0.4594
 4869SOL     OW26068   4.299   2.607   5.694 -0.2486 -0.6560  0.0887
 4869SOL    HW126069   4.369   2.575   5.751 -1.3431 -1.6117  0.8690
 4869SOL    HW226070   4.344   2.628   5.612 -2.2134 -1.6830 -1.2491
 4870SOL     OW26071   3.516   3.943   7.829 -0.0100 -0.0934 -0.1189
 4870SOL    HW126072   3.498   3.963   7.921  0.9423  2.8673 -0.6001
 4870SOL    HW226073   3.571   3.866   7.843 -1.1261 -0.6401  1.3623
 4871SOL     OW26074   3.578   3.779  14.531 -0.1003  0.4382  0.0906
 4871SOL    HW126075   3.585   3.870  14.501 -0.5662  0.0235 -1.2634
 4871SOL    HW226076   3.646   3.780  14.599  0.1725 -0.7855 -0.1609
 4872SOL     OW26077   0.648   3.670   8.213 -0.5092  0.1694  0.3758
 4872SOL    HW126078   0.568   3.704   8.173  0.5249  1.3011 -0.7262
 4872SOL    HW226079   0.608   3.631   8.291  1.3887 -1.2658  0.6369
 4873SOL     OW26080   1.103   2.948   5.827 -0.4678 -0.1109  0.0196
 4873SOL    HW126081   1.136   2.993   5.750 -2.0053  2.2974  0.7650
 4873SOL    HW226082   1.181   2.930   5.879  0.1048  0.2244 -0.7360
 4874SOL     OW26083   1.586   1.661   5.990 -0.4871  0.3997 -0.5243
 4874SOL    HW126084   1.580   1.606   6.068  2.2070  0.3065 -0.3695
 4874SOL    HW226085   1.653   1.726   6.011  0.1939 -0.6702  0.6573
 4875SOL     OW26086   0.103   0.537  11.130  0.2855 -0.6629 -0.3683
 4875SOL    HW126087   0.168   0.606  11.145 -1.9876  1.2300  0.7334
 4875SOL    HW226088   0.103   0.533  11.035 -0.9800  0.6075 -0.4224
 4876SOL     OW26089   1.687   0.200   5.470  0.3476  0.4739  0.1047
 4876SOL    HW126090   1.758   0.191   5.533 -0.3588 -1.9712  0.5702
 4876SOL    HW226091   1.636   0.271   5.508 -2.4443 -0.5867 -1.6369
 4877SOL     OW26092   4.179   1.693   5.989 -0.0034 -0.1609  0.1898
 4877SOL    HW126093   4.163   1.600   5.969  3.5993 -0.0322 -3.3922
 4877SOL    HW226094   4.163   1.728   5.901  1.0916 -1.0797 -0.3886
 4878SOL     OW26095   1.238   2.235   6.809  0.1760  0.1042 -0.2297
 4878SOL    HW126096   1.155   2.278   6.788 -0.2156 -0.1323  0.8355
 4878SOL    HW226097   1.274   2.219   6.721  3.0444 -0.1080  0.9741
 4879SOL     OW26098   0.414   3.315   0.740 -0.4893  0.2209  0.4399
 4879SOL    HW126099   0.374   3.391   0.781  0.2252  0.0622  1.4283
 4879SOL    HW226100   0.349   3.290   0.674 -1.1308  0.5769  0.9423
 4880SOL     OW26101   2.283   3.644   0.519 -0.8619 -0.7400 -0.1071
 4880SOL    HW126102   2.273   3.609   0.430 -0.7787  2.9957 -1.5594
 4880SOL    HW226103   2.198   3.639   0.563 -0.2220  0.7452  1.2459
 4881SOL     OW26104   2.890   3.267   4.309 -0.1693 -0.6642  0.4012
 4881SOL    HW126105   2.813   3.296   4.358  0.6280  2.2067 -0.0502
 4881SOL    HW226106   2.864   3.306   4.226 -1.9804 -1.2422  0.7041
 4882SOL     OW26107   2.017   3.490   5.091 -0.0927  0.3776 -0.1707
 4882SOL    HW126108   2.023   3.517   5.183 -0.7022  1.4956 -0.4598
 4882SOL    HW226109   1.942   3.540   5.059  1.3116  1.2285 -2.1430
 4883SOL     OW26110   3.658   2.107   7.973 -0.2541 -0.3145 -0.3203
 4883SOL    HW126111   3.602   2.031   7.954 -0.9506 -0.1353  0.9861
 4883SOL    HW226112   3.674   2.122   7.880 -3.1741 -1.1812 -0.9820
 4884SOL     OW26113   3.008   4.500   2.844 -0.1951  0.5124 -0.0573
 4884SOL    HW126114   2.996   4.595   2.846 -1.4988  0.3823 -1.8703
 4884SOL    HW226115   3.079   4.498   2.908 -0.5469  1.6733  0.3676
 4885SOL     OW26116   1.607   1.654  12.698  0.2473 -0.0518  0.2243
 4885SOL    HW126117   1.685   1.680  12.649  1.6887 -3.0444  0.9401
 4885SOL    HW226118   1.615   1.559  12.701 -1.0551 -0.1155  1.8100
 4886SOL     OW26119   3.831   1.095   3.209 -0.5599  0.5879  0.3023
 4886SOL    HW126120   3.849   1.094   3.303 -1.0836 -0.3515  0.3925
 4886SOL    HW226121   3.900   1.143   3.163  0.6908 -2.3247 -0.7949
 4887SOL     OW26122   4.476   0.534   1.818  0.2042 -0.1598 -0.6275
 4887SOL    HW126123   4.428   0.470   1.765  2.2561 -2.7025  0.5569
 4887SOL    HW226124   4.565   0.520   1.786  1.3375  2.2732  1.5196
 4888SOL     OW26125   1.347   4.641   4.075 -0.6624 -0.2522  0.0322
 4888SOL    HW126126   1.340   4.649   3.980 -1.5334 -0.1903  0.1027
 4888SOL    HW226127   1.264   4.680   4.102  1.0616  3.9448 -0.7386
 4889SOL     OW26128   0.914   0.507  12.822  0.0703 -0.7381 -0.3497
 4889SOL    HW126129   0.952   0.543  12.903  0.9651 -3.2051  0.2973
 4889SOL    HW226130   0.897   0.580  12.762 -1.1518  0.3867  1.3448
 4890SOL     OW26131   4.503   1.064   4.311 -0.1508  0.1837  0.0833
 4890SOL    HW126132   4.498   1.160   4.317 -1.4951 -0.0721  2.7005
 4890SOL    HW226133   4.439   1.064   4.239  1.3350  4.5590 -1.2593
 4891SOL     OW26134   1.600   4.090   7.185  0.4428 -0.1525 -0.1913
 4891SOL    HW126135   1.655   4.154   7.140  1.7684 -1.8340 -0.9464
 4891SOL    HW226136   1.517   4.130   7.158  1.2156  1.9039  0.4592
 4892SOL     OW26137   1.464   4.120  11.846 -0.0910 -0.6668 -0.0986
 4892SOL    HW126138   1.434   4.187  11.785 -0.4260  1.2856  2.1816
 4892SOL    HW226139   1.541   4.091  11.798  0.0215  1.0584 -0.9360
 4893SOL     OW26140   0.939   1.518   4.510 -0.0727 -0.5763 -0.2972
 4893SOL    HW126141   1.020   1.469   4.529  0.3572 -0.0678 -0.8009
 4893SOL    HW226142   0.884   1.478   4.577  0.0824  0.8990  0.7232
 4894SOL     OW26143   1.467   0.678   7.647  0.3271  0.4158  0.2042
 4894SOL    HW126144   1.373   0.679   7.666  0.7820  1.2742  2.4121
 4894SOL    HW226145   1.504   0.748   7.702  1.7576 -1.3590  1.5019
 4895SOL     OW26146   3.658   2.741   4.575  0.2097 -0.0542 -0.1277
 4895SOL    HW126147   3.743   2.737   4.533 -0.2631  0.2090 -1.1111
 4895SOL    HW226148   3.692   2.774   4.658  0.8627  1.0080 -0.8226
 4896SOL     OW26149   0.847   0.511   5.176  0.0402 -0.2135 -0.5250
 4896SOL    HW126150   0.881   0.588   5.221  1.6683 -2.2395  1.7109
 4896SOL    HW226151   0.785   0.558   5.121  0.0597  2.6053  1.8375
 4897SOL     OW26152   1.501   4.542   7.355 -0.3730  0.0413  0.0270
 4897SOL    HW126153   1.495   4.585   7.440 -0.2260  0.9397 -0.4250
 4897SOL    HW226154   1.546   4.459   7.374  0.9479  0.5352 -0.9500
 4898SOL     OW26155   1.537   2.529   5.619 -0.0285  0.6788  0.7197
 4898SOL    HW126156   1.503   2.441   5.608  1.4668  0.0685  0.9414
 4898SOL    HW226157   1.471   2.572   5.564  0.4651  0.5341  0.0143
 4899SOL     OW26158   2.340   3.605  13.227 -0.1594  0.3922 -0.3712
 4899SOL    HW126159   2.342   3.662  13.150 -0.7043  1.2601  0.2537
 4899SOL    HW226160   2.382   3.524  13.197 -2.0304 -0.4697 -0.6549
 4900SOL     OW26161   0.833   0.988   4.653 -0.1685 -0.1463  0.0453
 4900SOL    HW126162   0.862   0.972   4.563  1.0814  1.0904  0.2195
 4900SOL    HW226163   0.784   1.070   4.646  1.3557  0.9064  1.5997
 4901SOL     OW26164   3.533   1.147   2.122 -0.4169 -0.3062 -0.0102
 4901SOL    HW126165   3.591   1.134   2.197  0.2774  0.6924 -0.3651
 4901SOL    HW226166   3.481   1.225   2.140 -1.0601 -1.0684  1.4161
 4902SOL     OW26167   3.202   0.507  15.922 -0.3294  0.1122  0.2671
 4902SOL    HW126168   3.195   0.597  15.952 -1.6775 -0.8179  2.7244
 4902SOL    HW226169   3.247   0.476  16.001 -0.2225 -4.7993 -1.7402
 4903SOL     OW26170   1.698   0.264   1.065 -0.5443  0.3660  0.5110
 4903SOL    HW126171   1.719   0.349   1.025  1.8664 -1.0637 -1.2770
 4903SOL    HW226172   1.743   0.280   1.148  1.0723 -0.3343 -0.2259
 4904SOL     OW26173   0.027   2.590  10.553  0.4783 -0.1584 -0.4684
 4904SOL    HW126174   0.044   2.654  10.484  1.3084  1.8539  1.5975
 4904SOL    HW226175   0.094   2.524  10.535  0.4103 -0.0308 -1.1808
 4905SOL     OW26176   1.792   0.555   1.475  0.1714  0.2637  0.0638
 4905SOL    HW126177   1.809   0.520   1.387 -2.6862 -3.8031  1.1196
 4905SOL    HW226178   1.749   0.635   1.446  0.2618 -0.0285 -0.8789
 4906SOL     OW26179   3.283   1.137   6.364  0.5016 -0.5369  0.3430
 4906SOL    HW126180   3.335   1.062   6.335  2.3823  1.0653 -0.4278
 4906SOL    HW226181   3.190   1.114   6.369  0.3088 -0.1767 -1.4457
 4907SOL     OW26182   4.249   2.481   0.720  0.0672 -0.0584 -0.0586
 4907SOL    HW126183   4.333   2.514   0.688  0.7014 -1.5022  0.1146
 4907SOL    HW226184   4.209   2.559   0.758  1.1457  0.3015  0.3250
 4908SOL     OW26185   0.213   3.937   4.326 -0.2690 -0.2815  0.4008
 4908SOL    HW126186   0.282   3.925   4.391 -0.4140  1.6021  0.9120
 4908SOL    HW226187   0.172   4.018   4.355 -0.5809 -0.4163  0.3399
 4909SOL     OW26188   0.861   2.935   0.822 -0.1003 -0.2734 -0.3100
 4909SOL    HW126189   0.791   2.924   0.887 -0.8437 -0.2260 -1.0962
 4909SOL    HW226190   0.883   2.843   0.807 -0.2884 -0.3090 -0.3714
 4910SOL     OW26191   3.227   2.657  12.921 -0.0124 -0.3364 -0.1036
 4910SOL    HW126192   3.172   2.732  12.944  0.0059 -0.5768  0.7231
 4910SOL    HW226193   3.253   2.677  12.831  3.4293  0.2496  1.0217
 4911SOL     OW26194   4.333   2.771   7.390  0.5568  0.3118  0.0457
 4911SOL    HW126195   4.240   2.782   7.369  0.4114 -0.0572  0.5047
 4911SOL    HW226196   4.355   2.680   7.370  2.9531  1.0166 -0.5109
 4912SOL     OW26197   0.403   3.002   3.096  0.3728 -0.6664  0.2102
 4912SOL    HW126198   0.318   2.959   3.103 -0.7425  1.0503 -2.9159
 4912SOL    HW226199   0.433   2.979   3.008  5.0925  1.7048  1.1861
 4913SOL     OW26200   4.325   2.592  10.534  0.2366  0.1327 -0.2627
 4913SOL    HW126201   4.378   2.514  10.521  0.7382  0.5656 -0.8258
 4913SOL    HW226202   4.235   2.563  10.544 -0.0141  1.5955  1.9100
 4914SOL     OW26203   2.274   3.870   2.061  0.2413  0.2578  0.1262
 4914SOL    HW126204   2.314   3.933   2.121  0.5955  0.1053  0.0504
 4914SOL    HW226205   2.197   3.920   2.036  0.3329  1.7412  2.7732
 4915SOL     OW26206   4.127   1.864   4.837 -0.6071 -0.2593 -0.0642
 4915SOL    HW126207   4.096   1.798   4.775 -1.1073 -0.0303 -0.0604
 4915SOL    HW226208   4.219   1.840   4.848 -0.3368  0.4684 -0.7695
 4916SOL     OW26209   0.974   2.504   3.561  0.1495  0.1069 -0.0301
 4916SOL    HW126210   1.022   2.574   3.605  0.6498  0.5920 -1.3374
 4916SOL    HW226211   0.885   2.529   3.585 -0.2851 -1.7156  0.2291
 4917SOL     OW26212   2.119   1.689   6.839  0.0934  0.1664  0.2936
 4917SOL    HW126213   2.167   1.688   6.922 -0.7924 -2.1218  0.7584
 4917SOL    HW226214   2.046   1.628   6.849 -0.4413  0.3871 -2.1437
 4918SOL     OW26215   1.019   4.141   6.447 -0.0440 -0.0728  0.5197
 4918SOL    HW126216   1.017   4.195   6.368 -0.1719 -1.6098 -0.5399
 4918SOL    HW226217   1.099   4.168   6.493 -0.6149 -0.3323  1.6648
 4919SOL     OW26218   2.807   0.969   7.701 -0.3062  0.2920 -0.1556
 4919SOL    HW126219   2.747   0.976   7.627 -0.5674  1.0372  0.1228
 4919SOL    HW226220   2.887   0.946   7.653  0.0012  0.9494  0.0269
 4920SOL     OW26221   1.836   0.846   4.077 -0.1025  0.2083  0.2021
 4920SOL    HW126222   1.899   0.824   4.145 -0.0377  1.5049  0.5711
 4920SOL    HW226223   1.751   0.809   4.101  0.6464 -1.3473  0.4685
 4921SOL     OW26224   3.071   3.462   7.642 -0.0571 -0.0069  0.4045
 4921SOL    HW126225   3.066   3.439   7.549  0.6797 -0.0993  0.3829
 4921SOL    HW226226   3.153   3.511   7.636 -0.7260  1.1749  0.9989
 4922SOL     OW26227   4.091   2.805  10.299 -0.1387  0.0345 -0.8225
 4922SOL    HW126228   4.186   2.789  10.301  0.2196  2.3512  0.5284
 4922SOL    HW226229   4.071   2.763  10.216  0.8334 -0.7020 -0.6927
 4923SOL     OW26230   1.420   2.127  13.231 -0.0817  0.1262  0.1139
 4923SOL    HW126231   1.455   2.102  13.316 -2.2459  3.9290  2.1257
 4923SOL    HW226232   1.332   2.145  13.263  0.4790  0.1611  1.6206
 4924SOL     OW26233   4.283   3.213   7.316 -0.2624  0.2060 -0.1567
 4924SOL    HW126234   4.215   3.145   7.320 -2.1947  2.0431 -1.7895
 4924SOL    HW226235   4.234   3.293   7.335  0.5557  1.0607 -1.6614
 4925SOL     OW26236   4.287   0.782   6.308  0.1526 -0.1659  0.8435
 4925SOL    HW126237   4.363   0.758   6.361 -1.8353  1.5003  4.5312
 4925SOL    HW226238   4.310   0.761   6.218  0.0058 -2.0329  1.2308
 4926SOL     OW26239   1.092   3.627   6.270  0.2334 -0.5447  0.1189
 4926SOL    HW126240   1.066   3.713   6.302  0.8752  0.0392 -0.9468
 4926SOL    HW226241   1.125   3.649   6.183 -1.8288 -0.3038 -0.6005
 4927SOL     OW26242   0.865   0.818   3.599 -0.1444 -0.5333  0.2098
 4927SOL    HW126243   0.944   0.779   3.636  1.1051  2.1766  0.4469
 4927SOL    HW226244   0.895   0.889   3.542 -1.0737  0.2155  0.6501
 4928SOL     OW26245   2.267   3.766   7.677 -0.1204 -0.5714 -0.1616
 4928SOL    HW126246   2.194   3.793   7.733 -0.0459  1.6134 -1.1338
 4928SOL    HW226247   2.301   3.682   7.710  2.2703  0.5111  0.1028
 4929SOL     OW26248   0.801   0.048  16.116  0.1014  0.3332  0.0276
 4929SOL    HW126249   0.850   0.040  16.034  2.1468 -0.7925  1.3460
 4929SOL    HW226250   0.842   4.699  16.169 -0.5443  0.4252  0.6485
 4930SOL     OW26251   1.955   4.284  15.456  0.1104  0.2469 -0.3528
 4930SOL    HW126252   1.916   4.304  15.541  1.8512 -1.1610  0.7726
 4930SOL    HW226253   2.027   4.227  15.482 -1.3709 -0.5124  2.0767
 4931SOL     OW26254   2.435   2.781  10.394 -0.1238 -0.7675  0.1026
 4931SOL    HW126255   2.509   2.839  10.379  0.7013 -1.9512 -0.3871
 4931SOL    HW226256   2.431   2.745  10.305 -0.5851  0.4653 -0.3777
 4932SOL     OW26257   4.555   1.592  12.851 -0.0376 -0.1104 -0.2018
 4932SOL    HW126258   4.559   1.514  12.795  0.2422 -0.1488 -0.1312
 4932SOL    HW226259   4.473   1.624  12.813  0.6874 -1.5721 -3.0472
 4933SOL     OW26260   2.366   4.460  12.894  0.4324  0.3056 -0.4532
 4933SOL    HW126261   2.452   4.499  12.907  0.8840 -1.5241  1.9320
 4933SOL    HW226262   2.346   4.419  12.978  2.4549  0.6735  0.2056
 4934SOL     OW26263   1.050   2.216   8.749  0.1811 -0.2791  0.3398
 4934SOL    HW126264   1.091   2.174   8.824  2.6968  0.5342 -0.5918
 4934SOL    HW226265   0.984   2.268   8.795 -0.4412 -0.6987 -0.0799
 4935SOL     OW26266   1.006   3.163   2.354  1.0099 -0.6440  0.2844
 4935SOL    HW126267   0.979   3.076   2.381 -0.7728 -0.0634  0.3776
 4935SOL    HW226268   0.988   3.204   2.439 -0.1915 -1.6104  0.5094
 4936SOL     OW26269   3.870   0.535   3.244  0.5883 -0.2624  0.1694
 4936SOL    HW126270   3.948   0.505   3.291 -0.2651 -0.1511  1.6597
 4936SOL    HW226271   3.857   0.476   3.169  0.2669 -1.0735  0.8511
 4937SOL     OW26272   4.148   1.772  12.571 -0.1094 -0.2930 -0.2703
 4937SOL    HW126273   4.237   1.766  12.536  0.2548  0.0986  0.5771
 4937SOL    HW226274   4.123   1.864  12.559  0.7403 -0.4542 -3.3239
 4938SOL     OW26275   0.052   2.164   7.358 -0.0139  0.7727 -1.1791
 4938SOL    HW126276   0.058   2.069   7.349  0.9638  0.7188  0.1388
 4938SOL    HW226277   4.676   2.166   7.361  0.0527  2.1046  0.2057
 4939SOL     OW26278   1.889   1.808   8.567  0.5922 -0.2351  0.4279
 4939SOL    HW126279   1.963   1.842   8.617 -0.2328  0.3243  1.2828
 4939SOL    HW226280   1.825   1.806   8.639  1.1458 -1.9190  0.8793
 4940SOL     OW26281   3.474   1.329  14.825 -0.0575  0.4895 -0.0445
 4940SOL    HW126282   3.489   1.412  14.871 -0.7566 -0.0012  1.0734
 4940SOL    HW226283   3.491   1.368  14.739 -0.3027 -0.6745 -0.6195
 4941SOL     OW26284   3.505   1.299  13.647  0.7957 -0.4088  0.4869
 4941SOL    HW126285   3.447   1.341  13.710 -0.1206 -0.2218 -0.4781
 4941SOL    HW226286   3.466   1.211  13.653 -0.3833  0.1757  1.2849
 4942SOL     OW26287   4.191   3.569   7.481 -0.0327  0.3454 -0.2924
 4942SOL    HW126288   4.207   3.613   7.398 -1.6416 -0.5053 -1.0502
 4942SOL    HW226289   4.135   3.494   7.461  0.2515  0.1740 -0.4365
 4943SOL     OW26290   3.746   0.119   2.441 -0.0497  0.4660 -0.2644
 4943SOL    HW126291   3.827   0.164   2.417  1.8299  0.0979  5.2705
 4943SOL    HW226292   3.753   0.108   2.536 -1.9003  0.7326 -0.1034
 4944SOL     OW26293   4.266   3.177   5.881 -0.1216  0.7265 -0.5310
 4944SOL    HW126294   4.263   3.260   5.833 -1.8176  1.3750  0.7153
 4944SOL    HW226295   4.172   3.164   5.893  0.4556 -2.9234  0.0811
 4945SOL     OW26296   0.806   3.041  12.322 -0.3267 -0.5698  0.5613
 4945SOL    HW126297   0.772   3.063  12.235  1.2389  2.4317  0.6952
 4945SOL    HW226298   0.838   3.126  12.352  0.9284 -1.5064  1.8654
 4946SOL     OW26299   1.257   0.227   4.353  0.6755  0.0212 -0.0674
 4946SOL    HW126300   1.343   0.238   4.312  1.6022  0.6535  2.0127
 4946SOL    HW226301   1.195   0.244   4.282  2.3676 -0.3603 -1.6519
 4947SOL     OW26302   1.597   2.691  10.594 -0.0764 -0.5535 -0.4991
 4947SOL    HW126303   1.552   2.767  10.556 -1.1584 -1.1175 -0.3453
 4947SOL    HW226304   1.684   2.725  10.574 -0.1426  1.0620  2.0118
 4948SOL     OW26305   3.849   2.186  11.718 -0.2116 -0.4488 -0.4384
 4948SOL    HW126306   3.799   2.255  11.674  2.7575  0.1312 -2.9258
 4948SOL    HW226307   3.783   2.135  11.766 -0.7485 -1.7309 -2.5414
 4949SOL     OW26308   4.118   3.766   3.082  0.4366  0.1445 -0.0899
 4949SOL    HW126309   4.102   3.843   3.136  0.4137  2.0277 -2.7816
 4949SOL    HW226310   4.141   3.804   2.997  1.1933 -0.2871 -0.0847
 4950SOL     OW26311   1.975   0.301  16.722  0.4526 -0.0490  0.2792
 4950SOL    HW126312   1.995   0.335  16.635 -0.1564 -1.0674 -0.2653
 4950SOL    HW226313   2.061   0.264  16.743  0.2021 -0.4448  0.5968
 4951SOL     OW26314   2.364   1.016  12.927 -0.1731 -0.1619  0.1681
 4951SOL    HW126315   2.348   0.983  13.016 -0.6624  0.1781  0.2035
 4951SOL    HW226316   2.307   0.952  12.883 -1.0625 -0.9872  2.5011
 4952SOL     OW26317   1.910   3.720   3.359  0.5204 -0.1533 -0.3344
 4952SOL    HW126318   1.966   3.680   3.292 -0.5793  2.9487 -3.0377
 4952SOL    HW226319   1.929   3.668   3.438  0.8083  2.0219  1.0266
 4953SOL     OW26320   4.327   4.113   3.299  0.3131 -0.6080  0.0391
 4953SOL    HW126321   4.282   4.049   3.244 -0.3804  1.6242 -2.0026
 4953SOL    HW226322   4.269   4.134   3.372  0.4109 -0.5079  0.0880
 4954SOL     OW26323   2.720   3.385   6.764 -0.1011  0.0169  0.6064
 4954SOL    HW126324   2.627   3.391   6.740 -0.0800  0.2210  0.5786
 4954SOL    HW226325   2.726   3.297   6.801 -0.9362 -0.0749  0.5266
 4955SOL     OW26326   3.122   3.561  11.544  0.1950 -0.0579 -0.4419
 4955SOL    HW126327   3.112   3.651  11.514  0.3468  0.9456  2.5872
 4955SOL    HW226328   3.033   3.532  11.561 -0.4198  0.9918 -1.8941
 4956SOL     OW26329   1.988   0.351   2.252 -0.4014  0.0474 -0.2794
 4956SOL    HW126330   1.997   0.262   2.216 -1.8086 -0.1208 -0.2408
 4956SOL    HW226331   1.961   0.394   2.171 -0.7755 -0.8110 -0.6133
 4957SOL     OW26332   0.517   4.325   0.624 -0.7256 -0.4321  0.9227
 4957SOL    HW126333   0.603   4.340   0.663  1.1195 -0.6878 -3.0929
 4957SOL    HW226334   0.477   4.254   0.676 -2.0198 -0.0459  0.4643
 4958SOL     OW26335   1.972   1.523   7.994  0.1095  0.0827  0.6201
 4958SOL    HW126336   1.978   1.583   8.068 -1.1707 -1.1379  1.7185
 4958SOL    HW226337   2.063   1.532   7.965 -0.1792 -2.1428 -0.9377
 4959SOL     OW26338   3.731   2.528   3.950  0.1193 -0.6724  0.6569
 4959SOL    HW126339   3.770   2.616   3.947  0.4056 -0.7814  1.2319
 4959SOL    HW226340   3.807   2.480   3.983  0.2744 -0.6738  0.3003
 4960SOL     OW26341   4.648   3.102  16.219  0.4565 -0.2715  0.7670
 4960SOL    HW126342   4.579   3.055  16.173 -0.1782  2.7704 -1.3640
 4960SOL    HW226343   4.632   3.193  16.194  1.1052  0.9600  4.8404
 4961SOL     OW26344   1.086   0.689   5.844  0.0446 -0.2144  0.5651
 4961SOL    HW126345   1.099   0.698   5.750 -2.8259 -1.2305  0.0662
 4961SOL    HW226346   1.021   0.759   5.856 -0.6395 -0.7644  0.0404
 4962SOL     OW26347   3.979   2.286  12.696 -0.2134 -0.2873 -0.0506
 4962SOL    HW126348   4.055   2.238  12.729  1.2090  0.2781 -2.5248
 4962SOL    HW226349   3.931   2.304  12.777 -0.4510 -2.3089  0.2554
 4963SOL     OW26350   3.601   3.413  17.496  0.1144 -0.4979  0.4969
 4963SOL    HW126351   3.561   3.379  17.416 -0.5337 -0.0262  0.6189
 4963SOL    HW226352   3.688   3.435  17.462  0.4645  1.3804  2.6057
 4964SOL     OW26353   1.826   3.419   8.784  0.0972  0.0656  0.1624
 4964SOL    HW126354   1.834   3.451   8.874 -0.4169 -1.3935  0.7318
 4964SOL    HW226355   1.834   3.502   8.737  0.8341  1.5141  2.8153
 4965SOL     OW26356   3.324   4.328  10.194  0.3592  0.5603 -0.1744
 4965SOL    HW126357   3.344   4.288  10.278  2.4018 -0.4531 -1.1513
 4965SOL    HW226358   3.285   4.258  10.142 -0.3524 -0.2796  1.5038
 4966SOL     OW26359   4.490   1.153   4.663 -0.0361  0.5894 -0.6078
 4966SOL    HW126360   4.401   1.132   4.633  0.4332  0.5050 -1.9319
 4966SOL    HW226361   4.533   1.071   4.639  2.7652  1.9835 -0.3516
 4967SOL     OW26362   4.228   1.683   8.297  0.2447  0.2497 -0.3824
 4967SOL    HW126363   4.142   1.715   8.269 -0.3733 -0.9747  0.1357
 4967SOL    HW226364   4.287   1.756   8.280 -1.7284  1.3024 -2.8557
 4968SOL     OW26365   1.013   2.259  12.893 -0.2135 -0.7793  0.2667
 4968SOL    HW126366   0.926   2.231  12.921 -0.0276 -0.5572  1.0629
 4968SOL    HW226367   1.067   2.183  12.916  0.2453  0.1940  2.3630
 4969SOL     OW26368   4.175   4.400   5.720  0.1835 -0.7193  0.2057
 4969SOL    HW126369   4.121   4.407   5.799 -0.0761 -1.7467  0.1129
 4969SOL    HW226370   4.258   4.385   5.765  0.5477 -1.5442 -0.7203
 4970SOL     OW26371   1.690   0.352   3.499 -0.5065  0.5445  0.0209
 4970SOL    HW126372   1.766   0.406   3.520 -0.7833  1.5440 -1.5017
 4970SOL    HW226373   1.629   0.378   3.568 -0.3890 -0.9810  0.6877
 4971SOL     OW26374   1.316   2.098  16.258 -0.0820 -0.1121  0.4470
 4971SOL    HW126375   1.383   2.035  16.230 -0.1849  1.3092 -3.0618
 4971SOL    HW226376   1.242   2.053  16.217 -0.5040 -0.4728  1.6281
 4972SOL     OW26377   1.107   2.214  11.257 -0.5915 -0.0242  0.2702
 4972SOL    HW126378   1.044   2.238  11.189 -1.1989  0.6210  1.0692
 4972SOL    HW226379   1.123   2.293  11.308  1.5054 -0.2606 -0.0248
 4973SOL     OW26380   2.790   3.527  13.478  0.5220 -0.1954 -0.0852
 4973SOL    HW126381   2.700   3.496  13.483  1.3939 -3.2822 -3.2626
 4973SOL    HW226382   2.827   3.476  13.406  0.3511 -2.0953  1.1625
 4974SOL     OW26383   4.096   4.103  10.440  0.5427  0.3193  0.0586
 4974SOL    HW126384   4.028   4.131  10.378 -0.5030 -0.8934  0.6463
 4974SOL    HW226385   4.128   4.189  10.467 -2.3709  1.6202 -0.5815
 4975SOL     OW26386   0.103   4.164   7.174  0.0176  0.3742  0.0409
 4975SOL    HW126387   0.178   4.198   7.125 -0.0450 -0.2833 -0.5070
 4975SOL    HW226388   0.131   4.164   7.265 -0.5609  1.4497  0.2174
 4976SOL     OW26389   3.027   3.166   9.064  0.4109 -0.0238  0.0667
 4976SOL    HW126390   2.961   3.207   9.119 -0.0483  0.9933 -1.2505
 4976SOL    HW226391   3.044   3.231   8.996 -0.5398  2.3851  2.1283
 4977SOL     OW26392   0.524   2.902   0.591  0.4406  0.5589  0.0518
 4977SOL    HW126393   0.557   2.964   0.655  0.2130 -0.3039  0.9996
 4977SOL    HW226394   0.430   2.909   0.607  0.2397  0.9947 -1.3199
 4978SOL     OW26395   2.706   1.206   6.417  0.2078 -0.5563 -0.1488
 4978SOL    HW126396   2.683   1.167   6.332 -0.4123 -0.2548 -0.1204
 4978SOL    HW226397   2.770   1.265   6.375  0.7539 -1.1755 -0.1788
 4979SOL     OW26398   2.913   4.306   7.540  0.1915 -0.0530  0.0477
 4979SOL    HW126399   2.844   4.243   7.519 -0.4788  0.9948 -0.9066
 4979SOL    HW226400   2.927   4.290   7.633  1.9547 -0.0219 -0.1978
 4980SOL     OW26401   4.633   3.112   7.503  0.4092  0.4440 -0.6263
 4980SOL    HW126402   4.709   3.054   7.495 -1.8934 -2.4242 -1.2732
 4980SOL    HW226403   4.685   3.193   7.496 -2.0510  2.2810  2.3898
 4981SOL     OW26404   2.349   2.184   2.341  0.1398  0.1946  0.4746
 4981SOL    HW126405   2.344   2.099   2.297 -0.0131 -0.2570  1.3709
 4981SOL    HW226406   2.263   2.186   2.384 -1.0928 -1.0528 -1.8827
 4982SOL     OW26407   3.917   3.192  17.557  0.0684  0.3483  0.0064
 4982SOL    HW126408   3.982   3.243  17.510  1.3582  0.5518  2.0032
 4982SOL    HW226409   3.891   3.270  17.604 -2.0558 -0.0205 -0.5521
 4983SOL     OW26410   1.146   3.996   7.053 -0.0412  0.0382  0.7697
 4983SOL    HW126411   1.185   3.924   7.005  1.5725  1.5688 -0.1756
 4983SOL    HW226412   1.083   4.037   6.994  1.0935  3.1603  1.7324
 4984SOL     OW26413   2.369   1.559   3.293  0.2159  0.4612  0.3462
 4984SOL    HW126414   2.461   1.554   3.269 -0.5184  0.7011 -2.5337
 4984SOL    HW226415   2.327   1.570   3.208  0.0705  1.1480  0.5015
 4985SOL     OW26416   1.193   4.004  11.251 -0.4425 -0.2510 -0.1387
 4985SOL    HW126417   1.201   3.924  11.199  1.1075 -0.4004  0.3303
 4985SOL    HW226418   1.219   4.068  11.185 -3.0484  2.0896  1.1231
 4986SOL     OW26419   0.887   0.118   6.077  0.2722  0.2567 -0.0017
 4986SOL    HW126420   0.861   0.201   6.117  0.6060 -0.4814  1.7393
 4986SOL    HW226421   0.861   0.058   6.147  1.8302 -1.3009 -0.7565
 4987SOL     OW26422   4.254   4.670   0.588  0.2976  0.0293  0.1438
 4987SOL    HW126423   4.347   4.652   0.576  0.4206  0.3463  0.6426
 4987SOL    HW226424   4.270   4.705   0.675 -1.2327  1.5746 -0.2067
 4988SOL     OW26425   0.235   0.071   3.120  0.2568  0.2516 -0.0620
 4988SOL    HW126426   0.144   0.101   3.114 -0.0950 -0.6452  0.8030
 4988SOL    HW226427   0.232   0.031   3.033 -2.2538 -1.5670  0.8657
 4989SOL     OW26428   2.235   3.115   0.435  0.4090 -0.0081 -0.3534
 4989SOL    HW126429   2.221   3.198   0.480 -1.4397  0.5205 -1.9439
 4989SOL    HW226430   2.253   3.148   0.347  0.9303  0.1234 -0.1986
 4990SOL     OW26431   0.822   3.833   3.805 -0.2210  0.4899 -0.2470
 4990SOL    HW126432   0.891   3.773   3.775  2.4346  2.1347  2.6051
 4990SOL    HW226433   0.851   3.912   3.761  0.1940  0.5553  0.1463
 4991SOL     OW26434   2.623   4.499  12.424 -0.6871 -0.3317  0.0659
 4991SOL    HW126435   2.577   4.515  12.342 -0.2867  3.0120  0.4776
 4991SOL    HW226436   2.560   4.525  12.491 -2.5430  1.9621 -2.6191
 4992SOL     OW26437   3.642   2.957   1.522 -0.1490 -0.0004  0.2140
 4992SOL    HW126438   3.680   2.870   1.531 -0.5432 -0.4013 -2.0830
 4992SOL    HW226439   3.572   2.951   1.457  3.1439 -1.8867 -3.1564
 4993SOL     OW26440   4.382   2.037  14.424  0.3322 -0.5891 -0.3240
 4993SOL    HW126441   4.337   2.122  14.421  1.8145  0.3065  2.2831
 4993SOL    HW226442   4.378   2.018  14.330 -0.0362  0.4364 -0.5154
 4994SOL     OW26443   4.654   1.025   2.290 -0.1230 -0.6049  0.5052
 4994SOL    HW126444   4.628   0.963   2.222 -0.3034  0.6491 -0.5643
 4994SOL    HW226445   4.569   1.040   2.330 -1.2558 -1.6991 -1.4630
 4995SOL     OW26446   4.682   2.203  16.706  0.3853 -0.0350 -0.7538
 4995SOL    HW126447   4.678   2.230  16.615 -0.3890  1.1253 -0.3908
 4995SOL    HW226448   0.057   2.195  16.717  0.1754 -0.6958  0.6266
 4996SOL     OW26449   2.824   2.890   2.342 -0.2003 -0.3658  0.4214
 4996SOL    HW126450   2.779   2.864   2.262 -0.3646 -2.3178  1.1527
 4996SOL    HW226451   2.757   2.915   2.406  0.9331  0.6270  1.2329
 4997SOL     OW26452   3.857   1.492   9.038 -0.0202  0.2477 -0.1374
 4997SOL    HW126453   3.838   1.400   9.059  2.9755 -0.7228 -1.6286
 4997SOL    HW226454   3.952   1.492   9.023 -0.3664  0.4412 -2.2601
 4998SOL     OW26455   1.026   1.137   0.712 -0.2368  0.2961 -0.4864
 4998SOL    HW126456   0.958   1.075   0.688 -0.7709  0.3538  0.8831
 4998SOL    HW226457   1.097   1.124   0.649  1.3454 -0.0714  1.3615
 4999SOL     OW26458   4.306   1.339   0.334 -0.1546  0.5613  0.5677
 4999SOL    HW126459   4.341   1.326   0.246 -1.7471 -3.4550  0.5066
 4999SOL    HW226460   4.292   1.249   0.366  2.0418 -0.5994 -1.7658
 5000SOL     OW26461   1.507   3.600  12.590 -0.1717 -0.5987  0.0431
 5000SOL    HW126462   1.577   3.553  12.637 -0.7585  1.0174  2.4926
 5000SOL    HW226463   1.564   3.660  12.542  0.0195  0.6843  1.8806
 5001SOL     OW26464   1.861   4.247   4.557  0.0264  0.3080 -0.2660
 5001SOL    HW126465   1.925   4.228   4.489 -0.2979 -2.2175  0.1087
 5001SOL    HW226466   1.917   4.244   4.635 -2.2055  3.3464  1.4627
 5002SOL     OW26467   0.872   3.706  15.810 -0.5419  0.1101  0.6519
 5002SOL    HW126468   0.785   3.711  15.772 -0.5956 -0.3097  0.7148
 5002SOL    HW226469   0.854   3.677  15.900  0.0566  0.3519  0.8509
 5003SOL     OW26470   0.835   4.271   5.899  0.8298  0.6730 -0.7403
 5003SOL    HW126471   0.748   4.302   5.924 -0.6251 -2.4068 -1.9520
 5003SOL    HW226472   0.895   4.340   5.926  2.2148 -0.2663 -1.4463
 5004SOL     OW26473   0.661   3.671   4.048 -0.1527 -0.1909  0.7310
 5004SOL    HW126474   0.641   3.599   3.987 -0.5407 -0.6456  1.3980
 5004SOL    HW226475   0.594   3.736   4.025 -0.8616 -1.7456 -1.5738
 5005SOL     OW26476   2.686   2.706   3.168  0.1156 -0.3256  0.4127
 5005SOL    HW126477   2.686   2.651   3.246 -1.1826  0.8804  1.2551
 5005SOL    HW226478   2.763   2.761   3.182 -0.9671  0.8932  1.5753
 5006SOL     OW26479   4.703   4.010   7.870  0.1909  0.3343  0.2280
 5006SOL    HW126480   4.703   4.100   7.904  0.0772  0.0371  1.0045
 5006SOL    HW226481   0.078   3.997   7.862  0.1454 -0.6618  1.3533
 5007SOL     OW26482   1.715   4.498   6.670 -0.0275 -0.4394  0.4261
 5007SOL    HW126483   1.795   4.502   6.617 -0.7629  1.0911 -0.5366
 5007SOL    HW226484   1.681   4.410   6.653  3.2463 -1.7731  0.7389
 5008SOL     OW26485   3.288   2.906   2.826  0.0787  0.0079  0.0879
 5008SOL    HW126486   3.365   2.931   2.775 -1.1226  3.9786  0.2499
 5008SOL    HW226487   3.212   2.927   2.771 -0.0992  2.0841  1.1424
 5009SOL     OW26488   2.044   0.937   2.237  0.3339 -0.2075 -0.1780
 5009SOL    HW126489   2.063   1.009   2.177  1.3022 -0.0212  0.3528
 5009SOL    HW226490   1.959   0.912   2.199  0.8907  0.4235 -1.8684
 5010SOL     OW26491   2.377   2.506  16.623  0.0015 -0.8950 -0.4308
 5010SOL    HW126492   2.284   2.522  16.602 -0.3878  1.7640  3.2494
 5010SOL    HW226493   2.401   2.569  16.691  0.0928 -0.5621 -0.7752
 5011SOL     OW26494   1.688   1.502   8.184 -0.0455  0.3572 -0.1428
 5011SOL    HW126495   1.714   1.410   8.191  1.1519  0.7339  0.4513
 5011SOL    HW226496   1.753   1.550   8.236 -0.1708  1.3087 -0.8611
 5012SOL     OW26497   4.028   3.821   2.127 -0.2393 -0.0642 -0.2284
 5012SOL    HW126498   3.963   3.891   2.121 -1.3032 -0.7988  2.6773
 5012SOL    HW226499   4.055   3.831   2.218  2.2391  0.7072 -1.0590
 5013SOL     OW26500   2.429   3.421   3.412 -0.2831  0.0084  0.3509
 5013SOL    HW126501   2.407   3.507   3.376 -0.9764 -0.8531 -1.2803
 5013SOL    HW226502   2.490   3.384   3.348  2.1375  1.2741  1.8867
 5014SOL     OW26503   4.102   2.599   6.840  0.2089  0.4229 -0.8322
 5014SOL    HW126504   4.184   2.625   6.798  1.7665 -1.5952  1.0044
 5014SOL    HW226505   4.116   2.631   6.929 -0.2126  1.1652 -1.0333
 5015SOL     OW26506   0.296   2.982   1.777  0.0676  0.2391  0.1829
 5015SOL    HW126507   0.278   2.902   1.727  1.7825  0.1404 -0.2696
 5015SOL    HW226508   0.238   2.971   1.853  0.8739 -0.2415  0.7259
 5016SOL     OW26509   3.268   3.792  14.836  0.6655 -0.1097 -0.3846
 5016SOL    HW126510   3.348   3.743  14.856  1.0388  1.5341  2.0597
 5016SOL    HW226511   3.280   3.825  14.747 -2.3488 -3.5167 -2.0855
 5017SOL     OW26512   1.343   2.797   8.984 -0.3193  0.4813 -0.1901
 5017SOL    HW126513   1.304   2.879   9.015 -0.4851  0.1996  0.3525
 5017SOL    HW226514   1.265   2.744   8.966 -0.5591  1.0307 -0.7797
 5018SOL     OW26515   0.226   0.461  16.248  0.1525  0.4352  0.1013
 5018SOL    HW126516   0.303   0.436  16.299 -0.6542 -1.5589  0.3159
 5018SOL    HW226517   0.253   0.441  16.158  2.5905  2.4313  0.3829
 5019SOL     OW26518   3.130   1.322   3.718 -0.1421 -0.8359 -0.0206
 5019SOL    HW126519   3.204   1.354   3.667 -0.7843 -0.4580 -0.7076
 5019SOL    HW226520   3.169   1.313   3.805 -0.9588  0.2709  0.4613
 5020SOL     OW26521   2.769   2.299   8.310  0.2226 -0.5957 -0.0257
 5020SOL    HW126522   2.835   2.264   8.369  1.5485  0.2895 -0.9734
 5020SOL    HW226523   2.714   2.341   8.375  1.6307  1.2088 -0.0072
 5021SOL     OW26524   3.925   2.182   6.293  0.4679  0.4623  0.3580
 5021SOL    HW126525   4.020   2.169   6.296  0.0814 -2.4931 -0.8799
 5021SOL    HW226526   3.917   2.180   6.198 -1.1830  0.7351  0.4853
 5022SOL     OW26527   3.527   2.966   7.773  0.4273 -0.0880  0.0195
 5022SOL    HW126528   3.508   2.966   7.680  0.9964 -1.8672 -0.0987
 5022SOL    HW226529   3.561   3.053   7.791 -1.2718  0.7421 -0.8055
 5023SOL     OW26530   0.344   4.707   8.959  0.4863  0.1635  0.9828
 5023SOL    HW126531   0.373   0.051   9.024  0.8351  0.0162  0.9687
 5023SOL    HW226532   0.341   4.628   9.012  2.3515  0.2017  1.1291
 5024SOL     OW26533   3.435   4.178   0.599  0.1675  0.2193 -0.1462
 5024SOL    HW126534   3.363   4.133   0.555  1.0851 -2.5114  1.1453
 5024SOL    HW226535   3.486   4.102   0.623 -0.7908 -1.0663 -2.1555
 5025SOL     OW26536   0.041   0.069  12.825 -1.1526  0.7651  0.3378
 5025SOL    HW126537   0.132   0.095  12.840 -0.8500 -1.3994  2.3814
 5025SOL    HW226538   0.018   0.012  12.898 -0.2535 -1.8387 -1.3822
 5026SOL     OW26539   2.812   4.275   4.241 -0.1999  0.6511 -0.4137
 5026SOL    HW126540   2.907   4.276   4.231 -0.1153  1.7179  0.5431
 5026SOL    HW226541   2.796   4.214   4.169 -1.4700 -1.0853  1.3229
 5027SOL     OW26542   3.125   2.707  17.482  0.3152  0.3264  0.5366
 5027SOL    HW126543   3.098   2.798  17.493 -1.0414 -0.2336  1.7804
 5027SOL    HW226544   3.103   2.679  17.571 -0.2758  0.1938  0.3483
 5028SOL     OW26545   3.706   3.074   9.490  0.0633 -0.1895 -0.1480
 5028SOL    HW126546   3.714   3.169   9.485 -2.8629  0.2266  2.7685
 5028SOL    HW226547   3.615   3.047   9.481 -0.9192  3.0062  0.1448
 5029SOL     OW26548   4.165   3.610   2.562 -0.3929 -0.0830 -0.1397
 5029SOL    HW126549   4.092   3.567   2.519  0.5432 -1.5266 -0.2752
 5029SOL    HW226550   4.118   3.645   2.638  0.9665 -0.3657  0.8309
 5030SOL     OW26551   1.995   3.957   1.514 -0.2813 -0.0802  0.3368
 5030SOL    HW126552   2.033   4.002   1.438 -3.1049  2.3207  0.3832
 5030SOL    HW226553   2.027   3.867   1.506  0.9717  0.3493  0.5276
 5031SOL     OW26554   1.730   2.251  13.652  0.3801  0.2554  0.4784
 5031SOL    HW126555   1.770   2.172  13.689 -0.4929  0.4003  1.7483
 5031SOL    HW226556   1.645   2.220  13.622 -0.1802  0.8567  1.4261
 5032SOL     OW26557   0.618   4.614  14.388 -0.1816 -0.0519 -0.6665
 5032SOL    HW126558   0.680   4.541  14.395 -0.0278  0.1743  0.3005
 5032SOL    HW226559   0.667   4.685  14.430  2.2779 -1.4629 -1.1419
 5033SOL     OW26560   3.395   3.802   5.233 -0.1068 -0.5344 -0.0547
 5033SOL    HW126561   3.346   3.788   5.314 -3.1968 -2.4668 -2.2281
 5033SOL    HW226562   3.485   3.818   5.261 -0.5569 -0.7305  1.4875
 5034SOL     OW26563   2.701   2.828  13.006  0.0734 -0.0763 -0.7012
 5034SOL    HW126564   2.631   2.778  13.048  0.1603  1.4419  1.2586
 5034SOL    HW226565   2.766   2.758  12.998  1.5684  1.4287 -1.8296
 5035SOL     OW26566   0.406   0.028   7.165  0.3555 -0.1638 -0.1793
 5035SOL    HW126567   0.476   0.092   7.167  0.0767  0.0919  1.2556
 5035SOL    HW226568   0.363   0.059   7.086 -0.8155 -0.4090  0.3572
 5036SOL     OW26569   1.379   0.290   2.554  0.4375  0.6960  0.2679
 5036SOL    HW126570   1.411   0.375   2.585 -2.3851  2.7427 -2.4864
 5036SOL    HW226571   1.445   0.241   2.603 -3.6726 -4.6028  0.5457
 5037SOL     OW26572   4.505   0.058  11.922 -0.0162  0.0292  0.1123
 5037SOL    HW126573   4.416   0.034  11.896  0.4485 -0.7624 -0.7292
 5037SOL    HW226574   4.512   4.716  11.994  1.9313 -0.3689 -0.4222
 5038SOL     OW26575   4.009   2.790   6.259  0.4574  0.0061 -0.1890
 5038SOL    HW126576   3.965   2.873   6.247 -2.2325 -1.3928  0.1398
 5038SOL    HW226577   3.961   2.762   6.337 -0.5555  1.3286 -0.3486
 5039SOL     OW26578   4.217   2.070   6.461  0.0678 -0.3856 -0.4936
 5039SOL    HW126579   4.177   1.987   6.488  0.4083 -0.8331 -1.3657
 5039SOL    HW226580   4.228   2.114   6.546 -0.2908 -0.2118 -0.5359
 5040SOL     OW26581   0.000   2.680   1.911 -0.3541  0.2547 -0.1554
 5040SOL    HW126582   4.684   2.736   1.979 -1.1970 -0.3766 -0.0841
 5040SOL    HW226583   4.665   2.602   1.918 -0.0217  0.2368  2.2387
 5041SOL     OW26584   1.316   3.032  14.424 -0.0091 -0.4395  0.2308
 5041SOL    HW126585   1.267   3.105  14.460 -1.3089 -2.3095  2.2761
 5041SOL    HW226586   1.339   3.072  14.341 -2.9953  1.2435  0.2237
 5042SOL     OW26587   3.890   3.541   3.496  0.0535 -0.2723 -0.4131
 5042SOL    HW126588   3.800   3.570   3.480  0.3891  0.8610 -0.2627
 5042SOL    HW226589   3.899   3.481   3.422 -1.3233  1.6228 -2.1538
 5043SOL     OW26590   0.141   0.303   5.875 -0.7800 -0.1523 -0.3580
 5043SOL    HW126591   0.199   0.230   5.853  1.9974  2.1494 -0.5943
 5043SOL    HW226592   0.153   0.341   5.788 -2.1497  1.3648  0.1400
 5044SOL     OW26593   3.388   0.025  12.590  0.6190  0.2354 -0.1533
 5044SOL    HW126594   3.445   0.065  12.656  1.7734 -0.6888 -0.6023
 5044SOL    HW226595   3.319   0.010  12.655 -0.2055  2.4839 -0.5098
 5045SOL     OW26596   0.208   1.849   5.670 -0.4624 -0.2924  0.1627
 5045SOL    HW126597   0.284   1.798   5.643 -0.0061  0.4896 -0.0287
 5045SOL    HW226598   0.227   1.930   5.623 -0.0788 -0.8017 -0.5515
 5046SOL     OW26599   0.168   1.081  12.104  0.0441  0.8928  0.0954
 5046SOL    HW126600   0.099   1.018  12.122 -0.6016  1.6103  0.1457
 5046SOL    HW226601   0.130   1.117  12.023 -1.5841  1.9558  1.3470
 5047SOL     OW26602   2.305   0.382   7.458  0.0580 -0.2261 -0.4216
 5047SOL    HW126603   2.328   0.297   7.495  1.1682 -0.5720 -1.8778
 5047SOL    HW226604   2.353   0.368   7.376  2.9724 -0.4108  1.3294
 5048SOL     OW26605   2.664   3.863   0.064 -0.1059 -0.0925  0.4543
 5048SOL    HW126606   2.736   3.850   0.003 -0.0659  0.1581  0.4511
 5048SOL    HW226607   2.636   3.771   0.069  1.9357 -0.7943 -1.1954
 5049SOL     OW26608   0.260   2.964   0.740  0.2381 -0.1205 -0.2958
 5049SOL    HW126609   0.247   3.039   0.797 -2.5500  0.2225 -1.3989
 5049SOL    HW226610   0.232   2.891   0.795  0.4046  1.1681  1.4971
 5050SOL     OW26611   0.399   4.503   0.044  0.0376 -0.1915  0.2295
 5050SOL    HW126612   0.465   4.552   0.095 -0.5365  1.8941 -1.0348
 5050SOL    HW226613   0.412   4.547  17.641  0.5928 -0.7995 -0.0091
 5051SOL     OW26614   2.770   4.100   7.400  0.5220  0.4617  0.3270
 5051SOL    HW126615   2.844   4.066   7.350  0.5135  0.9337 -0.0087
 5051SOL    HW226616   2.740   4.017   7.438 -0.6174  0.5149 -0.4542
 5052SOL     OW26617   1.173   4.638   5.811  0.3619 -0.2305  0.4163
 5052SOL    HW126618   1.191   0.010   5.792 -2.6151  0.2194 -0.2107
 5052SOL    HW226619   1.159   4.609   5.721 -0.2224  0.7468  0.1972
 5053SOL     OW26620   4.553   2.854   6.329  0.2970 -0.0669  0.3336
 5053SOL    HW126621   4.610   2.795   6.280  0.2186 -1.0005  1.3626
 5053SOL    HW226622   4.484   2.869   6.265 -0.5917  0.5299  1.4293
 5054SOL     OW26623   3.140   2.679   8.584 -0.1218 -0.2174 -0.0735
 5054SOL    HW126624   3.225   2.647   8.552  1.1088 -0.9451  3.8154
 5054SOL    HW226625   3.144   2.668   8.679 -0.9237  2.5271  0.2598
 5055SOL     OW26626   1.082   1.923   5.762 -0.1328 -0.4632  0.5998
 5055SOL    HW126627   1.101   1.949   5.852  0.2124  1.2228  0.0428
 5055SOL    HW226628   1.063   1.829   5.769 -0.5364 -0.3529  0.9544
 5056SOL     OW26629   1.025   3.483   4.184 -0.5457  0.3737  0.1102
 5056SOL    HW126630   1.011   3.574   4.160  2.9293  1.5281  2.4832
 5056SOL    HW226631   1.113   3.463   4.150 -1.2181 -1.6006 -0.5138
 5057SOL     OW26632   3.765   0.054   4.344  0.1151 -0.3380 -0.3893
 5057SOL    HW126633   3.790   4.715   4.273 -0.2406  1.7233 -2.2055
 5057SOL    HW226634   3.695   0.105   4.304  0.4201 -0.4144 -1.0087
 5058SOL     OW26635   3.265   4.592   2.919  0.1586 -0.1401 -0.3634
 5058SOL    HW126636   3.355   4.559   2.916 -0.4004 -1.8668  1.4979
 5058SOL    HW226637   3.259   4.649   2.842 -2.7166  1.0096  0.6965
 5059SOL     OW26638   1.217   4.123   4.310 -0.1942  0.1165  0.1363
 5059SOL    HW126639   1.215   4.033   4.276 -0.0072 -0.3496  1.3451
 5059SOL    HW226640   1.242   4.176   4.234  0.6690  0.2417  0.5095
 5060SOL     OW26641   3.861   3.511   7.570 -0.0795  0.6279  0.3892
 5060SOL    HW126642   3.904   3.501   7.656  2.3018 -0.1459 -0.8995
 5060SOL    HW226643   3.860   3.606   7.561  0.4169  0.6237  0.3047
 5061SOL     OW26644   0.364   4.536   8.212 -0.3253  0.9621 -0.0162
 5061SOL    HW126645   0.387   4.495   8.128  2.9886  1.3313  0.7163
 5061SOL    HW226646   0.270   4.552   8.218 -0.3171 -0.3214  3.6360
 5062SOL     OW26647   2.154   1.263  15.125  0.7531  0.6671 -0.0527
 5062SOL    HW126648   2.208   1.279  15.202 -1.0691  0.3131  1.3230
 5062SOL    HW226649   2.215   1.211  15.073 -1.2038 -1.0443 -0.6504
 5063SOL     OW26650   1.303   0.816   2.745  0.2811 -0.4093  0.3439
 5063SOL    HW126651   1.261   0.782   2.666  1.0213  0.0050 -0.2280
 5063SOL    HW226652   1.344   0.899   2.720  0.2021 -1.1990 -2.3866
 5064SOL     OW26653   2.669   0.369   3.519  0.0118 -0.6396 -0.0947
 5064SOL    HW126654   2.695   0.292   3.570  1.0543  0.4209  0.9439
 5064SOL    HW226655   2.698   0.439   3.576  0.3194 -1.1047  0.3213
 5065SOL     OW26656   3.333   3.694   7.819  0.5689 -0.0334 -0.2290
 5065SOL    HW126657   3.340   3.789   7.825 -0.8781  0.0622  0.1450
 5065SOL    HW226658   3.330   3.668   7.911  0.9481 -1.0338 -0.5048
 5066SOL     OW26659   0.377   3.200  14.446  0.2129  0.4219 -0.0012
 5066SOL    HW126660   0.386   3.253  14.525  0.6958  1.0072 -0.4496
 5066SOL    HW226661   0.414   3.250  14.373 -0.7636 -0.8784 -1.3927
 5067SOL     OW26662   2.248   2.107   6.878  0.0726 -0.3924  0.0454
 5067SOL    HW126663   2.335   2.147   6.879 -0.7215  1.2905  2.7006
 5067SOL    HW226664   2.244   2.045   6.805  1.8898 -0.3426 -0.1046
 5068SOL     OW26665   1.535   2.753  10.866 -0.4163 -0.5752 -0.6359
 5068SOL    HW126666   1.533   2.745  10.771 -0.8749  2.9355 -0.9345
 5068SOL    HW226667   1.566   2.667  10.894  2.4637  0.6711 -0.0198
 5069SOL     OW26668   2.494   3.570  12.780 -0.2363  0.1693 -0.0603
 5069SOL    HW126669   2.469   3.480  12.757 -1.5900  0.7367 -0.8056
 5069SOL    HW226670   2.419   3.586  12.838 -0.4473 -0.9867 -0.0140
 5070SOL     OW26671   3.233   0.479  11.528 -0.0048  0.3082 -0.2018
 5070SOL    HW126672   3.237   0.546  11.596 -1.6644  0.6809 -0.4713
 5070SOL    HW226673   3.282   0.515  11.454 -1.6836 -1.7010 -2.2894
 5071SOL     OW26674   1.845   1.552   1.959 -0.0299  0.4527 -0.0426
 5071SOL    HW126675   1.923   1.605   1.942  0.3219 -0.5915 -1.7254
 5071SOL    HW226676   1.801   1.541   1.874  0.2689  1.0258 -0.2740
 5072SOL     OW26677   1.412   3.503  13.727  0.2025  0.0781  0.2044
 5072SOL    HW126678   1.479   3.501  13.796 -1.8062  0.2771  2.1377
 5072SOL    HW226679   1.388   3.411  13.729 -2.3352  0.7242 -1.0018
 5073SOL     OW26680   0.624   2.349   7.433 -0.0953  0.4540  0.7509
 5073SOL    HW126681   0.608   2.442   7.449  1.0090  0.6736  0.5825
 5073SOL    HW226682   0.595   2.325   7.521 -0.2973  0.6128  0.7268
 5074SOL     OW26683   2.258   4.007   5.479 -0.0134  0.1777 -0.1357
 5074SOL    HW126684   2.219   4.094   5.465 -1.6507 -0.9684 -2.7021
 5074SOL    HW226685   2.275   3.970   5.393 -1.9030 -1.9152  0.3952
 5075SOL     OW26686   0.091   0.409   5.174  0.3017  0.0110 -0.4578
 5075SOL    HW126687   0.104   0.500   5.151 -0.8371  0.2388 -0.2410
 5075SOL    HW226688   0.181   0.380   5.158 -0.6031 -2.9775 -0.2301
 5076SOL     OW26689   1.772   2.553   6.748 -0.1702  0.0003  0.0160
 5076SOL    HW126690   1.705   2.491   6.775 -0.2661  0.6495  1.2178
 5076SOL    HW226691   1.726   2.598   6.678  0.0111  0.0665 -0.0625
 5077SOL     OW26692   1.102   0.249   1.509  0.7024 -0.3608  0.0072
 5077SOL    HW126693   1.153   0.230   1.430  1.4541  0.3938  0.3023
 5077SOL    HW226694   1.063   0.333   1.483 -0.2285 -1.1812 -1.2563
 5078SOL     OW26695   1.384   1.051   8.162 -0.1426  0.0104  0.0526
 5078SOL    HW126696   1.374   1.026   8.070  4.8704 -0.2948 -0.4313
 5078SOL    HW226697   1.465   1.010   8.193  0.5875  1.6314  0.2773
 5079SOL     OW26698   1.219   1.864   6.339 -0.1777 -0.5832  0.2571
 5079SOL    HW126699   1.135   1.856   6.384  0.4751 -2.6444  1.0946
 5079SOL    HW226700   1.259   1.780   6.362 -2.0029 -1.8402 -1.1771
 5080SOL     OW26701   3.166   0.207   5.445  0.8590  0.3529  0.0986
 5080SOL    HW126702   3.223   0.278   5.474  0.2881  1.0518 -0.4702
 5080SOL    HW226703   3.083   0.244   5.476  0.6025  0.0147 -0.1871
 5081SOL     OW26704   4.642   0.959   4.515 -0.4153 -0.2476  0.2705
 5081SOL    HW126705   4.608   0.985   4.430 -0.7538  0.4360  0.6128
 5081SOL    HW226706   4.631   0.864   4.519 -1.1199 -0.1567  0.5208
 5082SOL     OW26707   2.030   4.291   3.035 -0.0892 -0.0139 -0.0115
 5082SOL    HW126708   1.984   4.372   3.058 -1.5648 -0.7811 -0.2670
 5082SOL    HW226709   2.113   4.301   3.081 -0.1953  0.1320  0.1521
 5083SOL     OW26710   0.657   1.683   3.251 -0.3442 -0.1481 -0.1522
 5083SOL    HW126711   0.581   1.654   3.200 -0.8012  2.1614 -0.7791
 5083SOL    HW226712   0.659   1.605   3.306 -0.4773  1.4588  2.0981
 5084SOL     OW26713   1.061   2.321  10.907 -0.4925 -0.4573 -0.5959
 5084SOL    HW126714   1.060   2.251  10.842 -0.8285  0.3844 -1.4829
 5084SOL    HW226715   0.984   2.307  10.963 -0.3807 -0.8750 -0.5454
 5085SOL     OW26716   2.408   0.471   8.752 -0.4551 -0.1693  0.2955
 5085SOL    HW126717   2.328   0.419   8.744 -0.3559 -0.5134  1.5224
 5085SOL    HW226718   2.404   0.475   8.848  1.2173 -3.0173  0.4945
 5086SOL     OW26719   0.590   3.523   1.683  0.2917 -0.3325  0.2127
 5086SOL    HW126720   0.582   3.569   1.767  0.7727  0.4147 -0.1503
 5086SOL    HW226721   0.516   3.560   1.636  1.3298  0.1470 -1.0543
 5087SOL     OW26722   3.708   1.516   8.324 -0.1126  0.4860  0.3444
 5087SOL    HW126723   3.723   1.536   8.231  1.7869 -1.9959  0.1338
 5087SOL    HW226724   3.654   1.438   8.313  0.3538 -0.4293  4.4891
 5088SOL     OW26725   2.710   3.187   2.334 -0.1921  0.4231 -0.3646
 5088SOL    HW126726   2.628   3.222   2.370 -1.3182 -0.5789 -2.0024
 5088SOL    HW226727   2.756   3.167   2.416 -0.6803  1.3306  0.1376
 5089SOL     OW26728   2.908   1.046   2.138 -0.1912 -0.2107 -0.3136
 5089SOL    HW126729   2.913   1.138   2.112 -0.1927 -0.9948 -3.0328
 5089SOL    HW226730   2.812   1.045   2.137 -0.2177 -0.4994  2.4378
 5090SOL     OW26731   1.802   3.679   5.002 -0.3123  0.3595 -0.7526
 5090SOL    HW126732   1.862   3.733   4.951  1.1181  0.1978  0.8015
 5090SOL    HW226733   1.732   3.668   4.937 -0.5732  0.4325 -0.4864
 5091SOL     OW26734   0.414   4.224   2.622  0.7776 -0.6968  0.1390
 5091SOL    HW126735   0.495   4.246   2.577  0.1495  0.0482 -0.6105
 5091SOL    HW226736   0.352   4.277   2.572  0.7188  0.2767  1.2390
 5092SOL     OW26737   1.706   2.289   8.813 -0.2213 -0.8556  0.2317
 5092SOL    HW126738   1.739   2.228   8.880  3.6947  0.7347 -0.2382
 5092SOL    HW226739   1.762   2.256   8.743 -1.6255  1.5157 -1.9775
 5093SOL     OW26740   1.922   1.505   6.871  0.4308  0.1008 -0.6358
 5093SOL    HW126741   1.942   1.451   6.795  4.0982 -0.3282  0.6329
 5093SOL    HW226742   1.834   1.474   6.890  0.5874 -0.6045 -1.0810
 5094SOL     OW26743   0.247   4.571   9.774  0.3508 -0.2017 -0.5820
 5094SOL    HW126744   0.175   4.612   9.823 -0.2239 -2.6876  0.6532
 5094SOL    HW226745   0.200   4.497   9.737 -0.4482 -1.1504  2.3376
 5095SOL     OW26746   0.304   1.025   5.789  0.3690  0.0821  0.1462
 5095SOL    HW126747   0.382   1.046   5.738  1.0906 -2.5738  0.1335
 5095SOL    HW226748   0.232   1.035   5.727 -0.1649 -1.5445  0.4961
 5096SOL     OW26749   2.775   4.128   8.287  0.3148 -0.4759  0.3592
 5096SOL    HW126750   2.744   4.217   8.307 -0.4359 -0.8636  0.9278
 5096SOL    HW226751   2.769   4.130   8.192 -2.4199 -0.2176  0.5372
 5097SOL     OW26752   3.843   2.620   2.233 -0.4161 -0.6217 -0.0869
 5097SOL    HW126753   3.920   2.595   2.284  0.3735 -0.5858 -1.2549
 5097SOL    HW226754   3.772   2.598   2.293 -0.6719 -0.3099 -0.2727
 5098SOL     OW26755   0.075   0.884  17.309 -0.0193 -0.2564 -0.3357
 5098SOL    HW126756   0.036   0.804  17.343  3.3958 -2.6313 -2.0288
 5098SOL    HW226757   0.104   0.924  17.391 -0.2043 -0.8955  0.0322
 5099SOL     OW26758   1.945   3.189  14.245 -0.6912 -0.3448 -0.0121
 5099SOL    HW126759   1.948   3.139  14.327 -0.7032  2.0446  1.4670
 5099SOL    HW226760   1.902   3.267  14.280  1.2958  0.7704 -0.0616
 5100SOL     OW26761   4.302   1.396  16.094  0.1614  0.1826 -0.1470
 5100SOL    HW126762   4.256   1.384  16.011 -0.1897  0.6781 -0.0206
 5100SOL    HW226763   4.270   1.477  16.133  1.5130 -0.9648  3.3412
 5101SOL     OW26764   2.215   4.675  12.758  0.3254  0.2440 -0.3530
 5101SOL    HW126765   2.125   4.653  12.733  0.6297 -0.4259 -0.8460
 5101SOL    HW226766   2.231   4.626  12.839 -1.4485 -0.5074 -0.4430
 5102SOL     OW26767   3.661   2.217   8.413  0.7843 -0.4577 -0.1516
 5102SOL    HW126768   3.588   2.279   8.409  1.4765  0.3684  0.0668
 5102SOL    HW226769   3.606   2.143   8.440 -0.1217  0.6613  1.0587
 5103SOL     OW26770   4.329   4.316   5.926 -0.1149  0.9128 -0.5702
 5103SOL    HW126771   4.344   4.224   5.904 -1.3422  0.3203  1.0817
 5103SOL    HW226772   4.306   4.301   6.018  0.0088  0.5871 -0.5932
 5104SOL     OW26773   3.284   0.610   3.967 -0.0515  0.1002 -0.7559
 5104SOL    HW126774   3.355   0.561   4.008  0.8810  1.3173 -0.9146
 5104SOL    HW226775   3.327   0.695   3.965 -0.4525  0.3460  0.6721
 5105SOL     OW26776   2.551   3.006   8.270  0.1945 -0.5313 -0.2098
 5105SOL    HW126777   2.592   3.046   8.193  0.0080  3.0186  1.5323
 5105SOL    HW226778   2.620   3.023   8.334  0.5672 -0.6713 -0.5679
 5106SOL     OW26779   1.963   4.594   2.925 -0.2634  0.1938 -0.0483
 5106SOL    HW126780   2.029   4.651   2.886 -0.3991 -0.0031 -0.5759
 5106SOL    HW226781   1.956   4.616   3.018  0.6340  1.6341 -0.3330
 5107SOL     OW26782   0.377   0.681   6.847 -0.3731 -0.2839  0.0155
 5107SOL    HW126783   0.464   0.711   6.872 -0.0111 -0.6824 -0.7431
 5107SOL    HW226784   0.336   0.670   6.932  1.4514 -0.4563  0.8730
 5108SOL     OW26785   4.333   2.788   8.959  0.1453 -0.6156 -0.5410
 5108SOL    HW126786   4.381   2.737   8.895 -0.9282  0.6126 -2.3223
 5108SOL    HW226787   4.394   2.790   9.033  0.0429 -0.8866 -0.4476
 5109SOL     OW26788   1.998   3.331   0.384  0.0485 -0.2917  0.0008
 5109SOL    HW126789   1.972   3.317   0.293 -3.0035  0.4805  0.7624
 5109SOL    HW226790   1.914   3.347   0.427 -0.7630 -1.4606 -1.1559
 5110SOL     OW26791   1.304   2.213  16.535  0.1110 -0.2877  0.2122
 5110SOL    HW126792   1.224   2.264  16.522  0.9033  0.2971 -2.2777
 5110SOL    HW226793   1.312   2.181  16.445 -0.7992 -0.6296  0.2488
 5111SOL     OW26794   4.201   0.401  13.991 -0.1049  0.0688  0.0753
 5111SOL    HW126795   4.282   0.383  14.039 -0.8323 -0.7426  0.9843
 5111SOL    HW226796   4.165   0.455  14.062 -2.2785 -0.5745 -0.5703
 5112SOL     OW26797   1.099   2.790  13.497  0.6174  0.0055  0.2622
 5112SOL    HW126798   1.057   2.825  13.576 -0.2327 -1.7513  0.5737
 5112SOL    HW226799   1.177   2.846  13.490 -0.1911  1.3342  1.7024
 5113SOL     OW26800   4.168   3.584  15.548 -0.3591  0.0554  0.1196
 5113SOL    HW126801   4.118   3.661  15.523 -1.5640 -0.6950  0.2247
 5113SOL    HW226802   4.112   3.548  15.616  1.1751 -1.8455  0.3809
 5114SOL     OW26803   2.591   0.660   4.543 -0.1408  0.1966  0.5971
 5114SOL    HW126804   2.652   0.729   4.570 -1.8441  1.4433  1.2487
 5114SOL    HW226805   2.506   0.700   4.562 -1.5153 -1.6812 -1.5530
 5115SOL     OW26806   1.612   2.220   6.383  0.5169 -0.1972  0.2563
 5115SOL    HW126807   1.690   2.254   6.426  0.4940  1.7048 -1.1916
 5115SOL    HW226808   1.546   2.234   6.451 -1.7722 -0.2558 -1.9507
 5116SOL     OW26809   1.005   2.095   2.545  0.0740 -0.1891  0.4010
 5116SOL    HW126810   1.019   2.027   2.612 -0.4822  1.1241  1.8418
 5116SOL    HW226811   1.063   2.160   2.584 -0.4673 -0.1152  1.0987
 5117SOL     OW26812   3.025   1.770   4.385 -0.3505 -0.4106 -0.2457
 5117SOL    HW126813   2.941   1.800   4.418 -0.2726 -0.5866  0.1135
 5117SOL    HW226814   3.009   1.777   4.291 -1.6275  0.1092  0.0139
 5118SOL     OW26815   4.656   2.459   5.214  0.3381  0.0386  0.4601
 5118SOL    HW126816   4.606   2.432   5.137  1.7735 -0.9279 -0.1338
 5118SOL    HW226817   4.712   2.525   5.172 -0.0334 -0.2654 -0.5176
 5119SOL     OW26818   0.296   2.644   4.130 -0.2436 -0.5957  0.3499
 5119SOL    HW126819   0.269   2.708   4.196  0.2759 -1.1759  1.1218
 5119SOL    HW226820   0.280   2.569   4.188 -2.1030  0.5030  1.2604
 5120SOL     OW26821   1.480   3.555   7.936  0.0433  0.2785 -0.1137
 5120SOL    HW126822   1.461   3.633   7.884 -0.4106  0.0341 -0.3098
 5120SOL    HW226823   1.550   3.592   7.991  0.4157  0.1825 -0.5216
 5121SOL     OW26824   4.246   1.241   8.597  0.6355 -0.3269 -0.1581
 5121SOL    HW126825   4.250   1.330   8.564  0.2393 -0.1463  0.2990
 5121SOL    HW226826   4.245   1.251   8.692  0.0152 -1.1138 -0.0797
 5122SOL     OW26827   1.149   0.487   4.795 -0.5007 -0.5351  0.3743
 5122SOL    HW126828   1.173   0.563   4.848 -0.6800  1.0368 -1.7733
 5122SOL    HW226829   1.097   0.433   4.854  1.6012 -1.3336  1.5000
 5123SOL     OW26830   0.125   4.624   7.041  0.1424  0.2342  0.0569
 5123SOL    HW126831   0.112   4.589   6.953  2.4415 -0.4973  0.0161
 5123SOL    HW226832   0.189   4.562   7.073 -1.2010 -0.9381  0.4841
 5124SOL     OW26833   4.176   1.806   6.947 -0.3557  0.1710 -0.3271
 5124SOL    HW126834   4.088   1.779   6.921 -0.3077 -2.2164  1.9829
 5124SOL    HW226835   4.162   1.898   6.966 -1.3050  0.0718 -0.5555
 5125SOL     OW26836   4.617   4.493  12.743 -0.0774 -0.0235  0.1846
 5125SOL    HW126837   4.595   4.577  12.783 -0.5772  0.1592 -0.4780
 5125SOL    HW226838   4.702   4.470  12.780 -0.2974 -0.3446  0.4814
 5126SOL     OW26839   3.651   4.221   7.427 -0.1416 -0.4029 -0.4756
 5126SOL    HW126840   3.581   4.217   7.492  0.3602  0.9158  0.1441
 5126SOL    HW226841   3.694   4.305   7.444 -1.3729  0.4539 -1.5476
 5127SOL     OW26842   2.781   4.263   6.040 -0.1394  0.1964  0.8031
 5127SOL    HW126843   2.718   4.255   5.969  0.3963  3.4671 -0.0517
 5127SOL    HW226844   2.854   4.205   6.019  0.2294  1.1842 -0.6012
 5128SOL     OW26845   2.404   0.394  10.635  0.0958  0.1349  0.0487
 5128SOL    HW126846   2.384   0.358  10.722  0.6413 -2.3135 -0.8225
 5128SOL    HW226847   2.486   0.351  10.610  0.0395  0.5517 -0.8163
 5129SOL     OW26848   3.151   3.603   0.114 -0.6274  0.3774  0.1484
 5129SOL    HW126849   3.130   3.647   0.196 -0.0428  0.3657  0.3050
 5129SOL    HW226850   3.093   3.646   0.050  0.3531 -1.3819 -1.9180
 5130SOL     OW26851   3.236   0.877   7.670 -0.0550 -0.2527 -0.7046
 5130SOL    HW126852   3.280   0.846   7.591  1.1701 -0.7148  0.1594
 5130SOL    HW226853   3.233   0.971   7.652 -1.0203  0.2402  1.9842
 5131SOL     OW26854   0.864   3.328   5.853  0.0647  0.2167 -0.2738
 5131SOL    HW126855   0.782   3.343   5.902 -0.2057  0.3838 -0.7755
 5131SOL    HW226856   0.917   3.399   5.890 -0.1475 -0.0967  0.6286
 5132SOL     OW26857   1.287   0.149  12.874 -0.3088  0.0123 -0.8267
 5132SOL    HW126858   1.369   0.187  12.843 -0.7114  2.3535  0.9845
 5132SOL    HW226859   1.284   0.059  12.842 -0.6199 -0.6381  0.9783
 5133SOL     OW26860   0.400   0.946   8.757 -0.3191  0.0111  0.3613
 5133SOL    HW126861   0.350   1.015   8.800  1.4602  0.6431  1.4405
 5133SOL    HW226862   0.478   0.995   8.728  0.2379 -0.6847  0.7030
 5134SOL     OW26863   3.732   0.676   3.535  0.2698  0.3171  0.6250
 5134SOL    HW126864   3.672   0.610   3.501 -1.6569  1.7254  1.3323
 5134SOL    HW226865   3.668   0.744   3.557 -1.1333 -1.7385  2.8571
 5135SOL     OW26866   2.797   3.967   6.055 -0.2060 -0.2500 -1.0267
 5135SOL    HW126867   2.720   3.952   6.001  0.1536  0.5126 -1.7406
 5135SOL    HW226868   2.762   4.029   6.120 -0.7625 -1.2481 -0.3559
 5136SOL     OW26869   1.320   3.889   3.189 -0.0740 -0.4400 -0.1107
 5136SOL    HW126870   1.384   3.896   3.261 -0.5613  2.6462  0.0332
 5136SOL    HW226871   1.329   3.978   3.157 -0.4126 -0.5220 -0.4244
 5137SOL     OW26872   2.389   2.605   3.757 -0.2825 -1.6805  0.1336
 5137SOL    HW126873   2.449   2.600   3.832  0.0561  0.0954 -0.0216
 5137SOL    HW226874   2.441   2.644   3.687 -1.4726 -1.9915 -0.9216
 5138SOL     OW26875   4.689   0.203   0.306 -0.2118 -0.0532 -0.8202
 5138SOL    HW126876   4.650   0.222   0.391 -2.9945  2.3279 -2.6426
 5138SOL    HW226877   4.610   0.172   0.261 -0.6534  0.1807 -0.2151
 5139SOL     OW26878   3.804   2.028   1.987 -0.0362  0.0395 -0.0778
 5139SOL    HW126879   3.877   2.026   2.048  0.4166  0.2499 -0.6084
 5139SOL    HW226880   3.831   2.096   1.925  0.9906 -0.6585 -0.4082
 5140SOL     OW26881   0.083   1.911   5.336  0.0238  0.9875 -0.1456
 5140SOL    HW126882   0.166   1.909   5.288  0.7671 -1.4351  1.2469
 5140SOL    HW226883   0.050   1.991   5.295 -1.9813  0.1469 -0.1524
 5141SOL     OW26884   4.436   0.774  13.423 -1.0954 -0.0775 -0.1277
 5141SOL    HW126885   4.449   0.680  13.420 -0.5375  0.0599 -2.2540
 5141SOL    HW226886   4.487   0.805  13.348 -0.2637 -1.0871  0.0274
 5142SOL     OW26887   0.266   1.263  13.250 -0.0203 -0.3338  0.2993
 5142SOL    HW126888   0.250   1.350  13.213  1.6051 -0.8028 -1.5349
 5142SOL    HW226889   0.330   1.278  13.320 -1.1410  1.9550  0.8080
 5143SOL     OW26890   1.025   3.121  17.623  0.0746  0.1730 -0.0234
 5143SOL    HW126891   0.961   3.159   0.003  0.2361 -0.5406  0.5847
 5143SOL    HW226892   0.992   3.158  17.541 -0.9382  0.3108  0.4459
 5144SOL     OW26893   2.415   1.759   4.232 -0.1189 -0.5169  0.2535
 5144SOL    HW126894   2.448   1.830   4.287 -0.7526  1.6546 -2.1846
 5144SOL    HW226895   2.336   1.748   4.285 -0.2808  1.1190  0.3354
 5145SOL     OW26896   1.109   4.557  13.082 -0.0851  0.0030  0.3231
 5145SOL    HW126897   1.189   4.507  13.098 -0.3208 -0.4955 -0.0943
 5145SOL    HW226898   1.052   4.530  13.155  0.2751  0.1710  0.6679
 5146SOL     OW26899   3.591   4.433   8.652 -0.6471  0.1596  0.2757
 5146SOL    HW126900   3.533   4.429   8.728  1.2367  0.7233  1.7511
 5146SOL    HW226901   3.590   4.527   8.634 -2.0944 -0.5716 -3.4714
 5147SOL     OW26902   4.033   2.982  10.737 -0.1040 -0.4351 -0.0190
 5147SOL    HW126903   4.050   3.073  10.713  0.6602 -0.6610 -0.3541
 5147SOL    HW226904   4.073   2.928  10.669 -1.0173  1.0081 -1.6944
 5148SOL     OW26905   1.482   3.070  11.836 -0.0374 -0.6799  0.1741
 5148SOL    HW126906   1.427   3.144  11.861  0.4191 -0.8270  1.6208
 5148SOL    HW226907   1.474   3.072  11.741 -1.2403 -0.2813  0.2857
 5149SOL     OW26908   3.249   1.405  11.087  0.2444  0.0905 -0.0404
 5149SOL    HW126909   3.292   1.386  11.171  0.2955  0.2346 -0.0345
 5149SOL    HW226910   3.185   1.334  11.078 -0.3148  0.3430  1.8150
 5150SOL     OW26911   0.524   3.126  12.095 -0.6446  0.1067 -0.8795
 5150SOL    HW126912   0.617   3.108  12.085 -0.6388 -1.4610  1.9382
 5150SOL    HW226913   0.515   3.215  12.061  2.5543  0.5659 -0.4914
 5151SOL     OW26914   2.313   4.713   1.371  0.6397  0.5180 -0.3918
 5151SOL    HW126915   2.379   4.681   1.433  1.1042  0.7120 -0.7861
 5151SOL    HW226916   2.273   4.632   1.338  1.4561  0.1263 -0.4331
 5152SOL     OW26917   4.324   3.633   8.685  0.3195 -0.2815  0.4632
 5152SOL    HW126918   4.234   3.611   8.707  0.6744 -0.9836  1.2238
 5152SOL    HW226919   4.332   3.723   8.715  3.8984 -1.0344  1.8837
 5153SOL     OW26920   3.438   1.630   0.479  0.0538 -0.4082 -0.1066
 5153SOL    HW126921   3.387   1.552   0.502  1.0199 -0.8808  0.4261
 5153SOL    HW226922   3.469   1.613   0.390  1.2006  0.1663  0.1827
 5154SOL     OW26923   2.365   1.004  15.465 -0.2098  0.1642  0.1417
 5154SOL    HW126924   2.295   1.065  15.486  0.0543  0.0775  1.2572
 5154SOL    HW226925   2.407   1.007  15.551  2.4049 -1.5780 -1.0748
 5155SOL     OW26926   3.723   1.362   8.702  0.8622  0.1292  0.2932
 5155SOL    HW126927   3.794   1.398   8.650 -1.4794  1.2379 -2.1151
 5155SOL    HW226928   3.686   1.305   8.635  0.4447  0.5844  0.1372
 5156SOL     OW26929   0.629   1.273   4.128 -0.1054 -0.3365 -0.1679
 5156SOL    HW126930   0.633   1.191   4.079 -1.9257  0.2699 -1.3232
 5156SOL    HW226931   0.701   1.315   4.080 -0.2692  0.2828  0.1296
 5157SOL     OW26932   1.176   2.084  13.003 -0.1646  0.6826  0.2403
 5157SOL    HW126933   1.259   2.120  13.033 -0.1028 -0.8871  1.9725
 5157SOL    HW226934   1.169   1.996  13.041  0.3913  0.3154 -0.4823
 5158SOL     OW26935   4.025   0.130   4.987 -0.4991 -0.0876 -0.2004
 5158SOL    HW126936   3.929   0.125   4.980 -0.4567 -1.3231  0.0783
 5158SOL    HW226937   4.042   0.204   4.928 -1.7217  1.0981  0.9009
 5159SOL     OW26938   2.423   1.736   5.151  0.5972 -0.1258 -0.6739
 5159SOL    HW126939   2.408   1.754   5.244  0.7455  2.5321 -1.1725
 5159SOL    HW226940   2.375   1.653   5.141  0.1669 -0.1936  1.8873
 5160SOL     OW26941   2.955   2.479   2.388  0.1236 -0.0227 -0.2188
 5160SOL    HW126942   2.949   2.568   2.420  2.1599  0.7837 -2.0567
 5160SOL    HW226943   3.047   2.460   2.405  0.8964  2.5514 -1.5379
 5161SOL     OW26944   4.275   4.228   3.603  0.7117 -0.1059  0.5664
 5161SOL    HW126945   4.184   4.256   3.607  0.5282 -0.5659 -0.4674
 5161SOL    HW226946   4.311   4.297   3.548 -0.2107  1.3820  1.8473
 5162SOL     OW26947   0.566   1.096   9.459  0.0451  0.0285  0.1891
 5162SOL    HW126948   0.565   1.180   9.504 -3.6550 -0.9977  1.9892
 5162SOL    HW226949   0.638   1.056   9.507  1.2149  0.5860 -1.1064
 5163SOL     OW26950   1.695   2.222   7.448  0.5390 -0.3433 -0.2699
 5163SOL    HW126951   1.659   2.280   7.380 -0.8617  1.0147  1.6354
 5163SOL    HW226952   1.625   2.161   7.471  0.1517 -0.0600 -0.6824
 5164SOL     OW26953   3.292   0.450   7.022  0.0247 -0.2732 -0.4006
 5164SOL    HW126954   3.217   0.474   6.966  0.4511  2.0388 -0.0091
 5164SOL    HW226955   3.330   0.537   7.030  1.2996 -1.0792  2.0635
 5165SOL     OW26956   1.699   2.260   6.132 -0.2154  0.5143  0.2172
 5165SOL    HW126957   1.616   2.290   6.095 -0.9258 -1.0209  0.5544
 5165SOL    HW226958   1.679   2.234   6.222  2.0636  0.3244  0.6671
 5166SOL     OW26959   2.634   3.263  13.517 -0.0321 -0.3684 -0.1670
 5166SOL    HW126960   2.711   3.223  13.556  0.2034  0.1729 -0.0822
 5166SOL    HW226961   2.588   3.313  13.584 -1.0746  0.9032 -1.8125
 5167SOL     OW26962   3.204   2.123   2.597 -0.2587  0.5210  0.5244
 5167SOL    HW126963   3.235   2.053   2.540 -3.1068 -0.2181 -0.0970
 5167SOL    HW226964   3.198   2.199   2.539  1.4610 -0.0827 -0.4651
 5168SOL     OW26965   2.695   3.520  10.916  0.1688 -0.2380 -0.4985
 5168SOL    HW126966   2.670   3.610  10.933 -1.6970 -0.3895 -2.3832
 5168SOL    HW226967   2.775   3.525  10.969 -1.1006 -0.0602  1.3675
 5169SOL     OW26968   1.611   2.168   4.636 -0.3039  0.0125 -0.0160
 5169SOL    HW126969   1.680   2.120   4.590  0.0660 -0.2947  0.8688
 5169SOL    HW226970   1.660   2.220   4.700  2.1427 -1.0504 -1.0204
 5170SOL     OW26971   1.590   3.750   8.529 -0.2008  0.3016 -0.6116
 5170SOL    HW126972   1.598   3.822   8.592  1.3241 -1.1403  0.8136
 5170SOL    HW226973   1.683   3.730   8.519 -0.7473 -2.6491  0.3964
 5171SOL     OW26974   1.614   3.567  14.358  0.1250  0.1388 -0.6609
 5171SOL    HW126975   1.624   3.572  14.453 -0.9492 -1.4251 -0.4685
 5171SOL    HW226976   1.529   3.523  14.356 -0.2402  0.8328 -0.2827
 5172SOL     OW26977   3.672   1.465   9.826 -0.2104  0.3866 -0.2466
 5172SOL    HW126978   3.757   1.428   9.851 -0.6935 -0.8382 -0.4101
 5172SOL    HW226979   3.621   1.488   9.904 -0.3457 -1.0966  0.0954
 5173SOL     OW26980   1.544   2.360   6.793 -0.0728 -0.4170 -0.2513
 5173SOL    HW126981   1.498   2.364   6.877 -0.1414  0.5351 -0.3315
 5173SOL    HW226982   1.477   2.336   6.729 -0.9387  0.4017  0.3386
 5174SOL     OW26983   4.189   1.822   6.595 -1.2485  0.1516 -0.1657
 5174SOL    HW126984   4.273   1.792   6.632  0.1013  3.1801 -0.7763
 5174SOL    HW226985   4.120   1.801   6.659 -0.9422  1.6416  0.6532
 5175SOL     OW26986   3.602   3.252  16.776  0.1120 -0.0221  0.1672
 5175SOL    HW126987   3.565   3.200  16.704 -2.6154  0.2837  1.3565
 5175SOL    HW226988   3.676   3.288  16.727  0.3192  0.8955  1.1648
 5176SOL     OW26989   3.405   0.991   5.494 -0.2148  0.5769  0.2383
 5176SOL    HW126990   3.386   0.937   5.417  0.4543  0.0945  0.4081
 5176SOL    HW226991   3.322   1.034   5.512 -0.9713 -1.5430  1.7517
 5177SOL     OW26992   3.044   2.874   5.472  0.5613  0.5639  0.1718
 5177SOL    HW126993   3.108   2.890   5.403 -0.4396  0.1439 -0.8501
 5177SOL    HW226994   3.092   2.904   5.549  1.0611  1.2294 -0.4026
 5178SOL     OW26995   3.241   1.941   9.898 -0.0037  0.3238 -0.6475
 5178SOL    HW126996   3.160   1.902   9.931 -1.5249  2.3497 -2.0292
 5178SOL    HW226997   3.303   1.890   9.951 -2.1517 -0.6386  0.9337
 5179SOL     OW26998   1.623   2.424  16.280  0.8090  0.3429  0.9093
 5179SOL    HW126999   1.679   2.348  16.266  0.8476  0.3421  1.0662
 5179SOL    HW227000   1.598   2.421  16.372  1.4007 -2.7686  0.9529
 5180SOL     OW27001   3.909   4.150   2.713 -1.0588  0.4545 -0.0406
 5180SOL    HW127002   3.932   4.061   2.689 -0.0422  0.5370  0.5812
 5180SOL    HW227003   3.974   4.195   2.659 -0.9117  1.1093  0.6769
 5181SOL     OW27004   1.246   3.474   5.600  0.1324 -0.4989 -0.1249
 5181SOL    HW127005   1.216   3.420   5.673 -2.4730 -1.3300 -1.8253
 5181SOL    HW227006   1.176   3.465   5.536 -1.4478 -0.9112  1.6667
 5182SOL     OW27007   0.566   4.444   5.903  0.0973 -0.1748 -0.2222
 5182SOL    HW127008   0.595   4.535   5.891 -1.0673 -0.2291 -3.4061
 5182SOL    HW227009   0.520   4.468   5.984  0.5280 -0.7022  0.1748
 5183SOL     OW27010   2.566   1.391   2.169 -0.0142 -0.4414  0.1814
 5183SOL    HW127011   2.547   1.299   2.155 -1.4882 -0.1809  0.5022
 5183SOL    HW227012   2.630   1.385   2.240  2.1112 -1.1226 -1.7785
 5184SOL     OW27013   0.006   3.645   1.738  0.7879 -0.3482  0.2261
 5184SOL    HW127014   4.634   3.635   1.762  1.5657 -1.6154  2.6910
 5184SOL    HW227015   0.053   3.571   1.778  2.0074 -0.4093 -1.3267
 5185SOL     OW27016   4.170   0.514   8.645  0.7859  0.6032 -0.3410
 5185SOL    HW127017   4.160   0.420   8.655  1.2824  0.6133  0.2500
 5185SOL    HW227018   4.264   0.513   8.623  0.4531 -1.1733 -1.6969
 5186SOL     OW27019   0.799   0.768  16.700 -0.4474  0.1635 -0.2298
 5186SOL    HW127020   0.757   0.689  16.665  0.8048 -1.0271  0.9395
 5186SOL    HW227021   0.798   0.822  16.621 -1.0121 -1.1887 -1.1364
 5187SOL     OW27022   4.522   3.512   2.062 -0.1405 -0.3903  0.3022
 5187SOL    HW127023   4.503   3.478   1.974  0.8008 -1.4993  0.5269
 5187SOL    HW227024   4.555   3.434   2.107 -0.2022 -0.4008  0.3284
 5188SOL     OW27025   2.453   3.271   2.042 -0.0585 -0.0470 -0.3061
 5188SOL    HW127026   2.437   3.193   1.990 -0.6338 -1.2827  1.7058
 5188SOL    HW227027   2.457   3.245   2.134  0.1699 -0.4800 -0.4394
 5189SOL     OW27028   4.229   0.810   6.844 -0.0704  0.0577  0.6933
 5189SOL    HW127029   4.303   0.849   6.799  0.2449 -0.3238  0.8772
 5189SOL    HW227030   4.203   0.733   6.793 -0.8282  0.0603  1.0599
 5190SOL     OW27031   4.422   3.400   8.581  0.8158 -0.1060 -0.2373
 5190SOL    HW127032   4.503   3.386   8.631  2.4818 -0.3010 -2.9419
 5190SOL    HW227033   4.383   3.480   8.614  0.2865  0.6773 -2.7538
 5191SOL     OW27034   1.690   2.611   2.456  0.2898  0.2698  0.2897
 5191SOL    HW127035   1.696   2.701   2.422  1.9604 -0.5352 -1.5840
 5191SOL    HW227036   1.641   2.627   2.536 -0.3218 -0.8795  0.1436
 5192SOL     OW27037   2.426   3.334  13.141  0.5766  1.0582 -0.1782
 5192SOL    HW127038   2.356   3.328  13.076 -0.6499  0.9769  1.1501
 5192SOL    HW227039   2.428   3.241  13.162  2.4870  0.7561 -1.8152
 5193SOL     OW27040   1.097   3.412  13.914  0.4046 -0.3969  0.3957
 5193SOL    HW127041   1.070   3.488  13.863  0.8289 -1.7465 -1.8265
 5193SOL    HW227042   1.024   3.405  13.977  2.1687 -0.1897  2.4612
 5194SOL     OW27043   2.982   0.225   6.468  0.3616 -0.9117  0.0366
 5194SOL    HW127044   3.041   0.175   6.411 -0.7804 -0.1405 -1.8137
 5194SOL    HW227045   3.038   0.260   6.537  1.5096 -0.8901 -0.9070
 5195SOL     OW27046   0.990   0.974   9.075  0.3825 -0.0643 -0.5014
 5195SOL    HW127047   0.897   0.982   9.097  0.1815 -0.7647 -1.1067
 5195SOL    HW227048   1.039   0.985   9.157 -4.1781 -1.5515  2.3860
 5196SOL     OW27049   3.204   3.999   2.619  0.3075 -0.1096 -0.4242
 5196SOL    HW127050   3.270   3.984   2.551  0.6188  1.6398 -0.5186
 5196SOL    HW227051   3.127   3.963   2.573 -0.3581 -0.4190  0.9463
 5197SOL     OW27052   0.808   1.384   6.094 -0.1333  0.0154 -0.5251
 5197SOL    HW127053   0.723   1.341   6.080  0.1846 -1.5296  2.3267
 5197SOL    HW227054   0.818   1.381   6.189 -0.8633 -0.1918 -0.4540
 5198SOL     OW27055   1.957   3.299  12.197  0.9345 -0.6218  0.0715
 5198SOL    HW127056   1.888   3.235  12.178  0.1981  0.6128 -1.3854
 5198SOL    HW227057   2.013   3.276  12.123  0.8131  2.3358 -0.9308
 5199SOL     OW27058   0.092   1.290  14.070  0.3851  0.0255  0.5130
 5199SOL    HW127059   0.172   1.243  14.095  0.2583  0.0816  1.0193
 5199SOL    HW227060   0.089   1.362  14.133  0.6676 -1.2170  1.9478
 5200SOL     OW27061   1.558   3.081   5.958  0.3983 -0.2544 -0.3384
 5200SOL    HW127062   1.521   3.081   6.046 -0.3027 -1.4649 -0.6222
 5200SOL    HW227063   1.645   3.045   5.977  0.3353 -0.7518 -0.9667
 5201SOL     OW27064   0.185   2.736   6.742 -0.1273 -0.1595  0.4631
 5201SOL    HW127065   0.155   2.826   6.728  0.0035 -0.3598 -1.1743
 5201SOL    HW227066   0.212   2.720   6.832  0.9121  4.4263  0.9327
 5202SOL     OW27067   3.653   1.055   1.869 -0.4745 -0.2690  0.1649
 5202SOL    HW127068   3.598   1.096   1.936 -1.3485 -2.6607  0.9327
 5202SOL    HW227069   3.734   1.102   1.886  1.2523 -3.0338 -0.3944
 5203SOL     OW27070   2.128   3.549  10.666  0.5665 -0.3100 -0.1208
 5203SOL    HW127071   2.138   3.458  10.638  1.6163 -0.9129  2.3071
 5203SOL    HW227072   2.138   3.595  10.582  0.6793  1.3760  0.8192
 5204SOL     OW27073   0.763   0.681   6.385  0.4263  0.9210  0.4539
 5204SOL    HW127074   0.842   0.631   6.403 -0.1931  0.7717  2.7708
 5204SOL    HW227075   0.744   0.715   6.473  0.0853 -1.4883  1.3149
 5205SOL     OW27076   3.551   1.576   3.686 -0.1741  0.0888  0.0006
 5205SOL    HW127077   3.500   1.526   3.622 -2.2049  1.2370  0.7404
 5205SOL    HW227078   3.491   1.579   3.760  1.9403 -2.6670  1.8532
 5206SOL     OW27079   2.251   1.084   1.805 -0.0399 -0.0970 -0.6551
 5206SOL    HW127080   2.296   1.044   1.730 -1.2034  0.3866 -1.6257
 5206SOL    HW227081   2.183   1.142   1.771 -0.4388  1.5456  2.9798
 5207SOL     OW27082   3.573   2.412  15.424 -0.0669 -0.3502 -0.2262
 5207SOL    HW127083   3.630   2.365  15.363 -1.9135 -0.5144 -1.8208
 5207SOL    HW227084   3.502   2.351  15.443 -0.3231 -0.3154 -1.1124
 5208SOL     OW27085   1.544   2.874   4.877 -0.1281  0.4503  0.0926
 5208SOL    HW127086   1.529   2.940   4.944  1.2867 -0.2792  1.1136
 5208SOL    HW227087   1.638   2.885   4.861  0.0007  1.8413  1.8471
 5209SOL     OW27088   1.111   4.426   0.872  0.0961 -0.2469  0.4343
 5209SOL    HW127089   1.205   4.445   0.883  0.4939 -0.7410 -2.2017
 5209SOL    HW227090   1.085   4.414   0.964 -1.6258  0.3645  0.0259
 5210SOL     OW27091   2.867   1.764   7.525  0.5834  0.5504  0.2073
 5210SOL    HW127092   2.886   1.703   7.596  0.1792  1.8068  1.3956
 5210SOL    HW227093   2.787   1.726   7.490  0.1564 -0.7380  2.5598
 5211SOL     OW27094   2.922   0.905  17.082  0.3278  0.1927  0.1858
 5211SOL    HW127095   2.996   0.930  17.137  0.9481 -0.0794 -0.5222
 5211SOL    HW227096   2.891   0.823  17.119  0.5903 -0.2090 -0.4729
 5212SOL     OW27097   3.954   1.374  14.650 -0.3538 -0.1965  0.2845
 5212SOL    HW127098   3.984   1.353  14.562 -0.3661 -2.4663  0.8325
 5212SOL    HW227099   4.039   1.376  14.696 -1.7978 -1.9521  3.0434
 5213SOL     OW27100   2.432   4.629  16.915 -0.3611 -0.4461  0.6338
 5213SOL    HW127101   2.415   4.566  16.845 -1.9597 -1.6147  2.0597
 5213SOL    HW227102   2.463   4.574  16.988  0.0448 -0.7362  0.2419
 5214SOL     OW27103   4.296   4.469  13.194 -0.1055  0.1443 -0.5459
 5214SOL    HW127104   4.317   4.383  13.158  0.9150  1.3300 -2.7576
 5214SOL    HW227105   4.231   4.444  13.260 -1.4967 -1.2396 -2.4579
 5215SOL     OW27106   0.422   0.732   1.655  0.3393  0.4785 -0.0482
 5215SOL    HW127107   0.426   0.759   1.747  1.4359 -1.9853  0.6462
 5215SOL    HW227108   0.511   0.741   1.620  0.0556 -1.7219 -1.3285
 5216SOL     OW27109   1.228   1.722  11.845  0.2852 -0.4083 -0.1998
 5216SOL    HW127110   1.262   1.648  11.795  0.3561 -0.1822 -0.4910
 5216SOL    HW227111   1.187   1.778  11.778 -1.0331 -1.7854 -0.5484
 5217SOL     OW27112   1.924   2.587   8.867  0.3561 -0.3405  0.4785
 5217SOL    HW127113   1.927   2.596   8.963 -1.0860  0.2288  0.4735
 5217SOL    HW227114   1.988   2.522   8.841 -0.1691 -0.0122 -1.6090
 5218SOL     OW27115   0.953   0.290  12.002  0.1686  0.0839 -0.1361
 5218SOL    HW127116   1.001   0.373  11.997 -0.4177  0.4131 -0.3217
 5218SOL    HW227117   1.011   0.220  12.033  0.8434  1.4512  1.6828
 5219SOL     OW27118   0.556   1.832  11.870  0.3441  0.2310 -0.0891
 5219SOL    HW127119   0.628   1.895  11.874  0.3817  0.1520  0.3793
 5219SOL    HW227120   0.593   1.756  11.825  1.9506 -0.2616  2.1265
 5220SOL     OW27121   1.819   3.152   8.521 -0.6081 -0.4417 -0.2769
 5220SOL    HW127122   1.894   3.094   8.510 -1.7180 -2.3110  1.9356
 5220SOL    HW227123   1.808   3.155   8.616 -1.9318  1.4035 -0.4948
 5221SOL     OW27124   1.988   3.772  17.410 -0.3305  0.6843  0.1000
 5221SOL    HW127125   2.010   3.859  17.442 -1.4948  1.6689 -1.7336
 5221SOL    HW227126   1.970   3.790  17.317  1.7361  0.0401 -0.4296
 5222SOL     OW27127   1.624   3.335  13.503 -0.3966 -0.3059  0.4117
 5222SOL    HW127128   1.590   3.415  13.463 -2.2657 -0.1584  2.2656
 5222SOL    HW227129   1.561   3.314  13.573  1.0339 -2.3209  1.0984
 5223SOL     OW27130   1.462   0.261   4.180  0.2311 -0.3210  0.1399
 5223SOL    HW127131   1.481   0.344   4.137  1.0491  1.1086  3.2529
 5223SOL    HW227132   1.388   0.234   4.126  0.0176 -0.0259  0.2866
 5224SOL     OW27133   0.805   0.534   9.336 -0.0194 -0.3581  0.0423
 5224SOL    HW127134   0.815   0.511   9.428 -2.0978 -1.9982 -0.1583
 5224SOL    HW227135   0.733   0.476   9.314 -0.4021  0.4062 -0.7489
 5225SOL     OW27136   0.971   4.336  15.362  0.2135  0.2179 -0.1906
 5225SOL    HW127137   1.030   4.319  15.435  1.7446 -0.6309 -1.6196
 5225SOL    HW227138   0.954   4.429  15.353 -3.4680 -0.3105  1.2425
 5226SOL     OW27139   3.556   2.617  11.079  0.0640  0.1420  0.2231
 5226SOL    HW127140   3.563   2.528  11.113  0.0341 -0.4921 -1.3960
 5226SOL    HW227141   3.645   2.649  11.066 -0.1886  1.3870  1.6136
 5227SOL     OW27142   0.476   3.872   7.339  0.3321 -0.4439 -0.0045
 5227SOL    HW127143   0.407   3.854   7.276 -0.9645  1.0741  0.9766
 5227SOL    HW227144   0.517   3.947   7.294  0.9934 -1.6055 -1.3210
 5228SOL     OW27145   1.605   0.598   3.070  0.0114  0.2226  0.3589
 5228SOL    HW127146   1.675   0.535   3.086  0.5777  0.7919  0.0993
 5228SOL    HW227147   1.644   0.657   3.006  1.2316 -0.5223  0.4217
 5229SOL     OW27148   0.671   2.179  16.684 -0.1476 -0.1926  0.7896
 5229SOL    HW127149   0.715   2.172  16.600 -1.5310 -0.1477  0.0495
 5229SOL    HW227150   0.670   2.085  16.703 -2.4326 -0.6752 -1.5690
 5230SOL     OW27151   3.683   0.671   8.005  0.8192  0.0498 -0.2292
 5230SOL    HW127152   3.648   0.760   8.002 -0.9456 -0.6311  0.4193
 5230SOL    HW227153   3.746   0.681   7.934 -0.6404  0.5972 -1.4465
 5231SOL     OW27154   0.330   2.415  14.244 -0.6986  0.8828  0.0777
 5231SOL    HW127155   0.424   2.402  14.231 -0.9840 -1.3031  0.1811
 5231SOL    HW227156   0.323   2.507  14.269 -1.2397  0.6834  0.6455
 5232SOL     OW27157   0.808   4.328   2.136  0.2723 -0.1533 -0.4958
 5232SOL    HW127158   0.855   4.270   2.196 -1.6443 -1.7113 -0.5213
 5232SOL    HW227159   0.879   4.352   2.077  0.0608  0.2701 -0.5785
 5233SOL     OW27160   0.242   4.392   4.224 -0.5064  0.0126 -0.2045
 5233SOL    HW127161   0.229   4.453   4.152  3.3768  1.2440  0.1345
 5233SOL    HW227162   0.316   4.342   4.188 -1.9230  0.2275 -3.4143
 5234SOL     OW27163   1.268   4.662   7.919 -0.1602 -0.8129 -0.0510
 5234SOL    HW127164   1.181   4.703   7.926  0.2922  0.1389  0.0251
 5234SOL    HW227165   1.314   4.714   7.853  1.5557 -0.0108  1.7732
 5235SOL     OW27166   3.214   3.798   5.463  0.1363 -0.3257 -0.0126
 5235SOL    HW127167   3.204   3.840   5.548  0.0096  1.5270 -0.9427
 5235SOL    HW227168   3.136   3.841   5.427 -0.6044 -1.1853  0.5707
 5236SOL     OW27169   4.503   0.931  16.024  0.1105 -0.2273  0.1703
 5236SOL    HW127170   4.506   1.026  16.032  1.3349 -0.3709  1.4386
 5236SOL    HW227171   4.453   0.909  16.103  0.8156  0.9220  0.9365
 5237SOL     OW27172   2.822   2.184   2.611 -0.8933  0.6618  0.2735
 5237SOL    HW127173   2.839   2.143   2.526 -0.4755  0.2983  0.5355
 5237SOL    HW227174   2.727   2.198   2.610 -0.4863  3.2692 -0.7301
 5238SOL     OW27175   2.812   3.115   4.620 -0.2446  0.5603 -0.0697
 5238SOL    HW127176   2.813   3.150   4.531 -0.3489 -1.6996 -0.9799
 5238SOL    HW227177   2.790   3.194   4.669 -0.4272  0.7525 -0.4630
 5239SOL     OW27178   4.643   1.467   6.800  0.1156  0.0501 -0.1259
 5239SOL    HW127179   4.641   1.507   6.714 -1.8316 -1.7883 -0.9290
 5239SOL    HW227180   4.652   1.542   6.859 -1.0389 -1.5345  2.0386
 5240SOL     OW27181   0.569   3.615   2.504  0.4773 -0.4212  0.7574
 5240SOL    HW127182   0.483   3.575   2.490 -0.3391  0.8271  2.1763
 5240SOL    HW227183   0.542   3.670   2.578 -1.5502 -1.2137  0.6153
 5241SOL     OW27184   3.913   0.743   2.612 -0.5093  0.6336  0.0483
 5241SOL    HW127185   3.965   0.775   2.685  1.3817 -0.0344 -1.0157
 5241SOL    HW227186   3.869   0.669   2.653 -0.7270  0.1215 -1.1275
 5242SOL     OW27187   4.567   0.886  11.239  0.1382 -0.4310 -0.5357
 5242SOL    HW127188   4.531   0.846  11.160 -0.3447 -3.5188  1.2291
 5242SOL    HW227189   4.528   0.972  11.253 -0.8706 -1.2613  1.7319
 5243SOL     OW27190   0.748   2.491   2.186 -0.8180 -0.0259 -0.3173
 5243SOL    HW127191   0.661   2.530   2.180  0.1557  1.8866 -2.2779
 5243SOL    HW227192   0.797   2.565   2.222 -0.4741 -1.2513  1.7263
 5244SOL     OW27193   0.232   1.400   4.647  0.1656  0.3703  0.1087
 5244SOL    HW127194   0.156   1.402   4.705  0.5698 -1.5256  0.7076
 5244SOL    HW227195   0.213   1.321   4.596  0.7990  0.5370 -0.3871
 5245SOL     OW27196   4.336   0.840  14.902  0.0362  0.2703 -0.1640
 5245SOL    HW127197   4.391   0.850  14.824  0.5583 -2.1463 -0.0989
 5245SOL    HW227198   4.293   0.925  14.910  0.3118  0.3710  0.2772
 5246SOL     OW27199   2.976   1.539   5.644 -0.1951 -0.7745 -0.3019
 5246SOL    HW127200   2.883   1.529   5.664 -0.0121  0.0098  0.9119
 5246SOL    HW227201   3.005   1.613   5.696  0.3888  0.4908 -2.4380
 5247SOL     OW27202   4.267   0.092   2.502  0.4251  0.3916  0.5623
 5247SOL    HW127203   4.335   0.034   2.535  0.7976  0.9548  0.7718
 5247SOL    HW227204   4.199   0.027   2.486 -0.0978  1.2697 -0.7907
 5248SOL     OW27205   1.155   0.481   6.940  0.0900  0.0642  0.1199
 5248SOL    HW127206   1.248   0.475   6.961  0.1313 -0.0847 -0.1065
 5248SOL    HW227207   1.124   0.459   7.028  1.1609  1.0397  0.7447
 5249SOL     OW27208   2.615   2.385   7.098  0.1181  0.8312  0.8110
 5249SOL    HW127209   2.527   2.372   7.062  0.4859 -1.4111  0.6714
 5249SOL    HW227210   2.663   2.414   7.020  0.0965  0.7496  0.7669
 5250SOL     OW27211   1.507   1.341  13.893 -0.3864  0.1384  0.5552
 5250SOL    HW127212   1.447   1.301  13.829 -1.4173  0.9975  0.9965
 5250SOL    HW227213   1.574   1.272  13.893 -1.7779 -1.2330 -1.5495
 5251SOL     OW27214   3.710   0.779   1.946  0.0918 -0.0001 -0.1951
 5251SOL    HW127215   3.700   0.873   1.931  0.6460  0.0502 -0.2333
 5251SOL    HW227216   3.630   0.741   1.909 -0.5350 -0.3829  1.5503
 5252SOL     OW27217   1.290   2.265   0.806 -0.2297 -0.7291  0.5476
 5252SOL    HW127218   1.316   2.333   0.868  0.2447  0.5361 -1.0348
 5252SOL    HW227219   1.277   2.184   0.856  0.5612  0.5114  2.7314
 5253SOL     OW27220   4.233   0.624  10.422 -0.4406 -0.6037 -0.6292
 5253SOL    HW127221   4.325   0.650  10.428 -1.1620  2.2047 -1.9162
 5253SOL    HW227222   4.223   0.598  10.330  3.0363  0.0880 -1.1868
 5254SOL     OW27223   2.387   2.093  12.196 -0.2895  0.4863 -0.3143
 5254SOL    HW127224   2.367   2.003  12.169 -1.0758  0.5338  0.1027
 5254SOL    HW227225   2.345   2.144  12.126 -1.0245 -0.3599 -0.5011
 5255SOL     OW27226   1.246   1.791   9.839  0.7380 -0.0495 -0.0614
 5255SOL    HW127227   1.237   1.816   9.747  0.0834 -2.6912 -0.7433
 5255SOL    HW227228   1.162   1.752   9.865  1.1239 -1.8582 -1.4823
 5256SOL     OW27229   1.558   0.889  10.490 -0.9959 -0.2430 -0.3632
 5256SOL    HW127230   1.629   0.888  10.425  1.1181  0.7026  1.9269
 5256SOL    HW227231   1.606   0.893  10.573 -1.6022 -0.2153 -0.0173
 5257SOL     OW27232   0.932   3.787  14.184  0.5897 -0.5833 -0.9809
 5257SOL    HW127233   0.976   3.865  14.216  0.9206 -0.5249 -1.5777
 5257SOL    HW227234   0.863   3.834  14.137 -0.4688 -1.0778  0.0879
 5258SOL     OW27235   4.058   3.616   7.111 -0.3253  0.4280 -0.3738
 5258SOL    HW127236   4.128   3.625   7.175  0.1857  1.7657 -1.1108
 5258SOL    HW227237   4.005   3.695   7.122 -0.4595  0.3845 -0.6930
 5259SOL     OW27238   3.802   3.255  13.387 -0.2277 -0.5284  0.4297
 5259SOL    HW127239   3.857   3.228  13.313 -2.1471  1.7444 -1.8082
 5259SOL    HW227240   3.758   3.171  13.402  0.3985 -1.3690 -2.4941
 5260SOL     OW27241   4.438   4.620   2.264 -0.8762 -0.5510  0.6596
 5260SOL    HW127242   4.467   4.640   2.175  0.4735 -1.0471  0.9833
 5260SOL    HW227243   4.502   4.667   2.317 -0.5017  0.6621 -0.8744
 5261SOL     OW27244   1.295   4.123   8.019 -0.3379 -0.1796  0.1162
 5261SOL    HW127245   1.364   4.135   8.083 -2.0242  4.0262  1.1715
 5261SOL    HW227246   1.348   4.113   7.940  0.8869 -0.2870  0.9670
 5262SOL     OW27247   1.640   1.238   2.358 -0.1312 -0.4686 -0.5352
 5262SOL    HW127248   1.735   1.250   2.354 -0.1322 -0.4315 -0.4410
 5262SOL    HW227249   1.594   1.317   2.330  0.2983 -0.6447 -1.7658
 5263SOL     OW27250   3.406   1.320  10.697  0.6651 -0.7405 -0.0020
 5263SOL    HW127251   3.372   1.294  10.611 -0.4609 -0.8750  0.4806
 5263SOL    HW227252   3.330   1.366  10.732 -0.2272 -2.3741  0.2319
 5264SOL     OW27253   2.173   4.183   1.384 -0.0162 -0.3111 -0.2400
 5264SOL    HW127254   2.200   4.120   1.318  1.2820  1.4600 -1.3896
 5264SOL    HW227255   2.264   4.200   1.407 -0.0134  0.2946 -0.7111
 5265SOL     OW27256   4.638   4.715   5.693  0.1390 -0.1116  0.3824
 5265SOL    HW127257   4.705   4.674   5.747  1.1780  1.5712  0.3565
 5265SOL    HW227258   4.564   4.709   5.753 -0.9468  0.9473 -0.8458
 5266SOL     OW27259   4.205   2.575   7.119 -0.3448 -0.2158 -0.1676
 5266SOL    HW127260   4.193   2.563   7.213  0.4417 -1.4594 -0.2245
 5266SOL    HW227261   4.221   2.488   7.083  0.2016  0.2436 -1.0590
 5267SOL     OW27262   2.823   1.570   9.571  0.1778 -0.1615 -0.5911
 5267SOL    HW127263   2.857   1.568   9.482  1.4846 -1.2412 -0.0677
 5267SOL    HW227264   2.805   1.664   9.576 -0.4143 -0.3881  1.5658
 5268SOL     OW27265   1.558   3.529   9.431  0.3541  0.2114  0.1204
 5268SOL    HW127266   1.549   3.488   9.345  0.5451  0.4392 -0.0058
 5268SOL    HW227267   1.531   3.619   9.416 -0.6573 -0.4039 -1.7729
 5269SOL     OW27268   1.756   3.109  11.893 -0.3288  0.0288  0.4085
 5269SOL    HW127269   1.666   3.076  11.897 -0.4477  0.3076  0.0555
 5269SOL    HW227270   1.774   3.130  11.984  0.7771 -0.0661  0.2120
 5270SOL     OW27271   1.995   2.744   5.635  0.1926  0.3891 -0.3316
 5270SOL    HW127272   1.991   2.741   5.540  0.6880  1.5627 -0.3885
 5270SOL    HW227273   1.926   2.679   5.651  0.6745  0.0618  0.4248
 5271SOL     OW27274   4.591   1.700   7.182 -0.2530  0.1337 -0.0913
 5271SOL    HW127275   4.623   1.647   7.256 -0.4264 -0.2141 -0.2683
 5271SOL    HW227276   4.536   1.760   7.232  0.8352  0.0825  1.1716
 5272SOL     OW27277   3.113   1.750  13.053  0.0442  0.1923 -0.2704
 5272SOL    HW127278   3.179   1.730  12.986  0.7333  2.7795 -0.3740
 5272SOL    HW227279   3.134   1.694  13.128 -1.5085 -1.0249 -0.7403
 5273SOL     OW27280   0.950   4.202   7.004 -0.2750 -0.3012 -0.5475
 5273SOL    HW127281   0.983   4.291   7.018 -0.6731 -0.0325 -1.2984
 5273SOL    HW227282   0.856   4.215   6.993 -0.3296  0.6711  1.1166
 5274SOL     OW27283   4.087   3.561   8.128  0.6827  0.1022  0.2325
 5274SOL    HW127284   4.078   3.476   8.170  1.6357  0.4866  1.2342
 5274SOL    HW227285   4.180   3.546   8.110  0.7546  1.5671 -0.6332
 5275SOL     OW27286   0.758   2.021   1.557 -0.3589 -0.1140 -0.2326
 5275SOL    HW127287   0.739   2.055   1.470 -0.7787 -0.2958 -0.2067
 5275SOL    HW227288   0.686   1.962   1.578 -0.9152  0.7595  0.3010
 5276SOL     OW27289   2.098   1.450   8.404 -0.1682  0.6532  0.2050
 5276SOL    HW127290   2.038   1.378   8.388  1.5576 -0.8219  0.4313
 5276SOL    HW227291   2.043   1.512   8.453  0.9188  0.5291  1.6002
 5277SOL     OW27292   2.576   4.449   8.051  0.0068  0.3461 -0.6958
 5277SOL    HW127293   2.554   4.542   8.060  0.3245  0.3354  0.1410
 5277SOL    HW227294   2.491   4.406   8.054  0.6689 -0.8482  0.5061
 5278SOL     OW27295   1.276   3.293   6.421 -0.5753 -0.6000 -0.1139
 5278SOL    HW127296   1.234   3.208   6.436 -0.6619 -0.2912  1.4414
 5278SOL    HW227297   1.265   3.300   6.326  2.3480 -1.9063 -0.5526
 5279SOL     OW27298   1.968   0.825   2.485 -0.0792  0.3767 -0.2615
 5279SOL    HW127299   1.994   0.734   2.471 -0.2004  0.4425 -0.9021
 5279SOL    HW227300   1.966   0.866   2.399  0.3041  0.5089 -0.2062
 5280SOL     OW27301   3.999   1.356  12.273 -0.2527  0.1407  0.0439
 5280SOL    HW127302   4.040   1.413  12.208  2.8148 -0.4373  1.4702
 5280SOL    HW227303   4.054   1.279  12.260  1.0918  0.6701  2.4757
 5281SOL     OW27304   0.369   2.670   7.299 -0.1580  0.1926  0.6085
 5281SOL    HW127305   0.318   2.679   7.218 -1.6886 -0.4730  1.5210
 5281SOL    HW227306   0.303   2.688   7.365 -2.1325  2.0817 -1.8563
 5282SOL     OW27307   4.285   3.991   6.496 -0.3519 -0.0924 -0.3353
 5282SOL    HW127308   4.242   3.973   6.413  2.7580  2.2870 -2.4242
 5282SOL    HW227309   4.343   3.916   6.488 -3.0727 -2.1331 -1.0052
 5283SOL     OW27310   0.530   1.839   7.342 -0.0255 -0.3499  0.4780
 5283SOL    HW127311   0.517   1.933   7.329  0.5437 -0.8405 -3.6769
 5283SOL    HW227312   0.548   1.832   7.436 -3.4424 -0.9018  1.1088
 5284SOL     OW27313   3.799   0.298   7.546 -0.2053  0.9635  0.0610
 5284SOL    HW127314   3.765   0.338   7.626 -0.6537 -0.4926  0.5963
 5284SOL    HW227315   3.877   0.246   7.565  0.3969  2.3724  1.4386
 5285SOL     OW27316   2.818   1.761   4.740 -0.4290  0.1119 -0.4823
 5285SOL    HW127317   2.736   1.714   4.722 -0.3353  0.9225 -3.0513
 5285SOL    HW227318   2.781   1.820   4.807  1.6657  0.3654  0.4534
 5286SOL     OW27319   1.072   4.533   8.257 -0.1837  0.0243  0.3567
 5286SOL    HW127320   1.001   4.470   8.266 -0.0011 -0.0143  1.4407
 5286SOL    HW227321   1.148   4.476   8.245 -1.2393 -1.4086  0.4601
 5287SOL     OW27322   2.241   3.735  15.352  0.2237 -0.4674  0.0465
 5287SOL    HW127323   2.267   3.651  15.316  1.8594  0.0220  0.0758
 5287SOL    HW227324   2.238   3.792  15.275  1.0975 -0.1363  0.2453
 5288SOL     OW27325   2.111   0.203   4.546 -0.1710 -0.2323 -0.3858
 5288SOL    HW127326   2.062   0.122   4.552 -1.1983  0.3817 -0.5057
 5288SOL    HW227327   2.141   0.208   4.637  0.0422  1.2947 -0.5326
 5289SOL     OW27328   0.753   2.151  12.698 -0.4415 -0.0454 -0.1116
 5289SOL    HW127329   0.770   2.243  12.677  1.0095  0.4154  3.0904
 5289SOL    HW227330   0.721   2.158  12.788 -0.7438 -1.3881 -0.1218
 5290SOL     OW27331   2.263   3.114   0.057  0.2167 -0.2383  0.3144
 5290SOL    HW127332   2.355   3.113   0.084  0.0733  0.8825  0.8116
 5290SOL    HW227333   2.265   3.195   0.007  0.4789  0.0182  0.7406
 5291SOL     OW27334   2.508   0.344  15.646  0.1413  0.5050 -0.6388
 5291SOL    HW127335   2.474   0.410  15.707 -0.1189  0.3766 -0.6454
 5291SOL    HW227336   2.556   0.284  15.704 -3.9013 -1.3639  0.7253
 5292SOL     OW27337   0.583   0.870   8.969 -0.4975 -0.5455  0.3748
 5292SOL    HW127338   0.556   0.782   8.994  0.6266 -1.0548 -0.2351
 5292SOL    HW227339   0.528   0.884   8.892  1.5091  1.2919 -0.7271
 5293SOL     OW27340   2.458   4.331  11.381 -0.6975 -0.5232 -0.3523
 5293SOL    HW127341   2.363   4.322  11.386 -0.6942 -0.3972 -0.0328
 5293SOL    HW227342   2.477   4.360  11.471 -0.5873  3.0298 -1.4929
 5294SOL     OW27343   0.826   2.074  16.901 -0.0844 -0.2491  0.2516
 5294SOL    HW127344   0.747   2.053  16.951  1.1473 -1.5594  1.6553
 5294SOL    HW227345   0.866   1.992  16.871  0.9254 -0.3186  1.7675
 5295SOL     OW27346   0.089   2.172   4.311  0.5527  0.0989  0.0530
 5295SOL    HW127347   0.022   2.145   4.248 -0.8027 -1.9350  2.3896
 5295SOL    HW227348   0.132   2.092   4.338 -2.8645 -0.9513  2.3191
 5296SOL     OW27349   3.619   3.573   3.919  0.2454  0.3195  0.4948
 5296SOL    HW127350   3.638   3.613   4.004 -0.2623  2.9577 -0.6111
 5296SOL    HW227351   3.677   3.497   3.915  2.5698  2.1048  0.2542
 5297SOL     OW27352   2.367   3.625   2.213 -0.5489  0.6196  0.1037
 5297SOL    HW127353   2.346   3.713   2.243 -1.6188  0.3411  0.1749
 5297SOL    HW227354   2.309   3.574   2.269 -0.2887  0.7217  0.4665
 5298SOL     OW27355   3.505   1.191   4.903  0.0282  0.1025  0.6294
 5298SOL    HW127356   3.520   1.096   4.899 -0.2741  0.1165 -0.7539
 5298SOL    HW227357   3.414   1.189   4.933 -0.5683  0.6100 -1.1671
 5299SOL     OW27358   3.213   4.053   4.035 -0.4002  0.6005  0.6274
 5299SOL    HW127359   3.297   4.007   4.039 -0.9142 -0.3199  0.8334
 5299SOL    HW227360   3.155   3.984   4.067 -0.3910  1.3815  2.3241
 5300SOL     OW27361   4.101   3.750   3.925 -1.2842 -0.4465 -0.5210
 5300SOL    HW127362   4.143   3.748   3.838 -0.1062  0.0483  0.0307
 5300SOL    HW227363   4.084   3.842   3.944  2.4653  0.5489 -1.9316
 5301SOL     OW27364   1.021   2.285   3.856 -0.2145 -0.2294 -0.1823
 5301SOL    HW127365   1.033   2.366   3.807 -1.2455  0.0575  0.0284
 5301SOL    HW227366   1.067   2.230   3.793  1.4934  1.2307 -0.1842
 5302SOL     OW27367   4.713   2.717   1.210 -0.5577 -0.4727 -0.4410
 5302SOL    HW127368   0.077   2.764   1.206 -0.1882 -1.0583  0.2776
 5302SOL    HW227369   0.012   2.649   1.275  0.8512 -0.1394 -0.4840
 5303SOL     OW27370   4.437   4.715  10.146 -0.0915  0.3839 -0.2372
 5303SOL    HW127371   4.346   0.018  10.165 -1.2321 -3.0605 -1.5343
 5303SOL    HW227372   4.468   0.081  10.116 -0.8691  0.9641  0.6284
 5304SOL     OW27373   0.725   3.039   3.132 -0.3794  0.3078  0.5885
 5304SOL    HW127374   0.635   3.066   3.150 -0.3196 -0.9158  2.6977
 5304SOL    HW227375   0.772   3.117   3.161  0.8477 -0.4315  0.5665
 5305SOL     OW27376   3.847   2.926   5.942  0.3676 -0.0090 -0.0063
 5305SOL    HW127377   3.805   2.922   6.028  0.8011  0.9471  0.2541
 5305SOL    HW227378   3.913   2.859   5.958 -1.6163 -1.7027  1.2322
 5306SOL     OW27379   1.274   2.595  16.538 -0.1784  0.1318  0.0463
 5306SOL    HW127380   1.223   2.514  16.527 -0.5789  0.6622 -1.9842
 5306SOL    HW227381   1.285   2.614  16.445 -1.4051  0.6670  0.0120
 5307SOL     OW27382   2.666   1.278   4.023  0.1209  0.6968 -0.3707
 5307SOL    HW127383   2.588   1.318   3.984 -1.3844 -2.3724 -0.5437
 5307SOL    HW227384   2.709   1.237   3.948  1.3645 -0.4602  0.9719
 5308SOL     OW27385   0.269   0.675   6.184  0.3299  0.4610 -0.3853
 5308SOL    HW127386   0.357   0.646   6.207  0.4447  0.7989 -0.4007
 5308SOL    HW227387   0.288   0.736   6.113  0.8764  1.3608  0.5402
 5309SOL     OW27388   0.631   3.735   6.554 -0.4053 -0.5814  0.2738
 5309SOL    HW127389   0.542   3.766   6.573 -0.2285  0.7527 -1.0813
 5309SOL    HW227390   0.662   3.700   6.637  1.4131  0.0298 -0.1460
 5310SOL     OW27391   0.742   3.390   2.431  0.1766  0.3022  0.2135
 5310SOL    HW127392   0.692   3.465   2.461 -1.2604 -0.8872  0.8009
 5310SOL    HW227393   0.687   3.369   2.355  1.2860  2.2702 -1.1337
 5311SOL     OW27394   2.517   3.337   7.513 -0.2152 -0.5386  0.4356
 5311SOL    HW127395   2.578   3.395   7.559 -0.8536 -0.3844  1.0936
 5311SOL    HW227396   2.491   3.390   7.437 -0.3310 -0.1399  0.7525
 5312SOL     OW27397   2.050   2.023   4.369  0.1295  0.0336 -0.1104
 5312SOL    HW127398   1.987   2.033   4.298  1.7152 -2.9002 -1.9726
 5312SOL    HW227399   2.132   2.032   4.320 -1.0435 -2.2157 -2.4677
 5313SOL     OW27400   3.907   1.862   9.705 -0.1292 -0.3500  0.6576
 5313SOL    HW127401   3.812   1.871   9.701  0.0449  0.7868 -0.9141
 5313SOL    HW227402   3.917   1.872   9.800  0.9132 -0.7555  0.5859
 5314SOL     OW27403   1.538   4.222   8.735 -0.1590  0.2129 -0.1746
 5314SOL    HW127404   1.510   4.156   8.798  0.5415  2.0793  2.0873
 5314SOL    HW227405   1.599   4.273   8.788  1.2576 -1.2263 -0.4177
 5315SOL     OW27406   2.619   1.540   6.116 -0.3184  0.7026  0.1938
 5315SOL    HW127407   2.628   1.576   6.204  1.8990 -0.8639  0.6212
 5315SOL    HW227408   2.705   1.543   6.076 -0.0488 -0.6274  0.6580
 5316SOL     OW27409   1.505   0.254  15.480  0.4449 -0.2328  0.2261
 5316SOL    HW127410   1.578   0.288  15.429 -0.8727  0.3942 -1.2469
 5316SOL    HW227411   1.497   0.160  15.465  0.1186 -0.4446  1.6628
 5317SOL     OW27412   3.188   2.411   6.386  0.0714  0.3453 -0.0818
 5317SOL    HW127413   3.147   2.345   6.331  1.9603 -1.5111  0.7340
 5317SOL    HW227414   3.252   2.440   6.321  1.6407 -1.0547  0.8338
 5318SOL     OW27415   1.529   0.849   8.445 -0.3188  0.4883 -0.7267
 5318SOL    HW127416   1.540   0.900   8.525 -2.0520  1.1002 -0.8796
 5318SOL    HW227417   1.555   0.764   8.480  0.4800 -0.2305 -3.0187
 5319SOL     OW27418   0.792   0.944   0.649 -0.1282  0.0847  0.2436
 5319SOL    HW127419   0.735   1.011   0.611 -0.5014 -0.0158  0.6399
 5319SOL    HW227420   0.801   0.875   0.583 -0.0678 -0.9658  1.3579
 5320SOL     OW27421   2.616   4.699   7.456 -0.4119 -0.6902 -0.0401
 5320SOL    HW127422   2.655   0.062   7.483  0.2927 -1.3575  0.9983
 5320SOL    HW227423   2.665   4.682   7.375 -1.0751 -1.7349 -0.2208
 5321SOL     OW27424   1.587   4.179   6.024 -0.3805 -0.4848 -0.3497
 5321SOL    HW127425   1.674   4.213   6.045 -0.7844  0.6487 -0.5526
 5321SOL    HW227426   1.585   4.094   6.070 -0.3730  0.4806  1.4423
 5322SOL     OW27427   1.698   0.286  16.744 -0.1030 -0.5642 -0.3999
 5322SOL    HW127428   1.793   0.278  16.750 -0.0705  0.0370 -0.1364
 5322SOL    HW227429   1.678   0.369  16.787 -0.8841 -1.5483  1.1515
 5323SOL     OW27430   0.143   2.183  14.139  0.1788  0.3595 -0.1535
 5323SOL    HW127431   0.213   2.225  14.189 -0.6371 -0.5987  1.7831
 5323SOL    HW227432   0.153   2.234  14.058 -0.4746  0.5052 -0.1483
 5324SOL     OW27433   0.878   4.565   9.192  0.3747  0.2961 -0.1022
 5324SOL    HW127434   0.835   4.561   9.107  1.0524  0.2651 -0.4416
 5324SOL    HW227435   0.943   4.633   9.176  0.5675  0.3234  0.7502
 5325SOL     OW27436   3.930   0.345   5.576 -0.6490 -0.1147  0.2893
 5325SOL    HW127437   3.880   0.269   5.546 -0.4392  0.7680 -2.3410
 5325SOL    HW227438   3.919   0.391   5.493  0.0697 -0.1887  0.1494
 5326SOL     OW27439   3.691   3.404   5.672  0.5448 -0.1301  0.2849
 5326SOL    HW127440   3.623   3.340   5.691  1.6936 -1.6466 -0.7267
 5326SOL    HW227441   3.661   3.478   5.725  2.6073  0.2619  0.9115
 5327SOL     OW27442   1.094   0.948   1.481 -0.3200  0.6890  0.0169
 5327SOL    HW127443   1.056   1.035   1.490  1.8157  1.6899 -0.6085
 5327SOL    HW227444   1.154   0.959   1.555  0.1802 -1.1231 -0.1228
 5328SOL     OW27445   2.276   2.541  10.258 -0.9045 -0.3825  0.8653
 5328SOL    HW127446   2.300   2.488  10.333 -1.6903 -0.1483  1.2860
 5328SOL    HW227447   2.301   2.481  10.188 -0.8012 -0.5590  1.0567
 5329SOL     OW27448   4.609   0.458  15.553 -0.2133  0.0389 -0.7617
 5329SOL    HW127449   4.674   0.401  15.596  0.1715  2.2527  1.5543
 5329SOL    HW227450   4.673   0.519  15.518  0.1361  0.5447  0.7380
 5330SOL     OW27451   0.920   2.266   6.419  0.0483 -0.3584  0.9434
 5330SOL    HW127452   0.945   2.178   6.448  0.5379 -0.9583 -1.3270
 5330SOL    HW227453   0.846   2.279   6.479 -1.8929  2.5316 -2.1222
 5331SOL     OW27454   4.299   1.427   4.397  0.2059 -0.0313 -0.5450
 5331SOL    HW127455   4.385   1.410   4.358  0.7728 -1.9231  1.5558
 5331SOL    HW227456   4.302   1.383   4.482 -2.6489 -0.8202 -0.8596
 5332SOL     OW27457   1.804   2.442   2.163  0.3625  0.8220  0.1971
 5332SOL    HW127458   1.839   2.527   2.188  0.6069  0.2333  1.9133
 5332SOL    HW227459   1.879   2.388   2.188  0.5967  1.3330  0.6030
 5333SOL     OW27460   1.322   1.856   6.887 -0.7357 -0.1536  0.2999
 5333SOL    HW127461   1.416   1.862   6.902 -0.7275 -1.2079  0.6392
 5333SOL    HW227462   1.320   1.901   6.802 -0.3161 -0.7404 -0.0262
 5334SOL     OW27463   4.332   1.736  12.822 -0.5517 -0.3840  1.0111
 5334SOL    HW127464   4.270   1.747  12.750 -0.3262 -2.0982  0.5565
 5334SOL    HW227465   4.403   1.797  12.801 -0.0535 -0.7810  1.5317
 5335SOL     OW27466   2.375   2.328   7.714  0.9590  0.7328 -0.8133
 5335SOL    HW127467   2.397   2.235   7.723 -0.5088  0.2264 -2.3190
 5335SOL    HW227468   2.289   2.313   7.675  0.9236 -1.8113  0.2646
 5336SOL     OW27469   3.793   3.147   7.870 -0.4321  0.4084 -0.2469
 5336SOL    HW127470   3.726   3.183   7.927 -0.2855 -0.5444  0.5331
 5336SOL    HW227471   3.819   3.071   7.922 -0.5657  1.0447  0.7375
 5337SOL     OW27472   2.013   2.866  10.772  0.7736 -0.2165 -0.3228
 5337SOL    HW127473   2.108   2.857  10.768  0.5818 -1.9535 -1.0557
 5337SOL    HW227474   1.992   2.841  10.862  3.4259 -0.1430  0.2923
 5338SOL     OW27475   2.878   3.502   2.297 -0.7728  0.0188  0.0444
 5338SOL    HW127476   2.951   3.462   2.344 -0.3711 -0.8072 -1.2622
 5338SOL    HW227477   2.822   3.425   2.302 -0.9607  0.1872  0.5281
 5339SOL     OW27478   4.711   1.647   0.116  0.6538  0.4462 -0.0862
 5339SOL    HW127479   4.691   1.555   0.130  0.4213  0.5005 -0.0579
 5339SOL    HW227480   0.087   1.637   0.118  0.6822  0.0324 -3.1007
 5340SOL     OW27481   1.171   0.627  11.183 -0.1825 -0.4253  0.5999
 5340SOL    HW127482   1.094   0.594  11.137 -0.4648  0.8481  0.1560
 5340SOL    HW227483   1.228   0.556  11.156  1.7059  2.2549 -2.4540
 5341SOL     OW27484   0.027   1.256   3.592 -0.4786  0.4364 -0.1514
 5341SOL    HW127485   0.011   1.196   3.519  1.1536  0.2223 -0.3204
 5341SOL    HW227486   4.702   1.336   3.564 -3.3980 -0.2098  2.6484
 5342SOL     OW27487   3.577   3.234   2.361 -0.0971 -0.4343  0.7610
 5342SOL    HW127488   3.510   3.226   2.429 -1.1282  1.3243 -0.0273
 5342SOL    HW227489   3.542   3.309   2.312 -0.7181 -0.1832  1.5938
 5343SOL     OW27490   2.733   0.393   4.992 -0.1813 -0.0647  0.4219
 5343SOL    HW127491   2.715   0.483   4.967  1.9465  0.2741  0.1586
 5343SOL    HW227492   2.786   0.354   4.923 -0.1994 -0.4298  0.6130
 5344SOL     OW27493   1.760   0.953   8.834  0.3518 -0.1580 -0.4387
 5344SOL    HW127494   1.704   0.993   8.900 -0.1341 -0.4319 -0.6891
 5344SOL    HW227495   1.777   1.030   8.779  1.9736  0.1405  0.4779
 5345SOL     OW27496   0.089   2.654   0.657  0.4161 -0.6078  0.0096
 5345SOL    HW127497   0.088   2.746   0.632 -2.1231 -0.1272  1.9297
 5345SOL    HW227498   0.095   2.606   0.574 -0.7514  0.1375 -0.4947
 5346SOL     OW27499   1.589   3.816   7.272 -0.2162  0.1000  0.0771
 5346SOL    HW127500   1.518   3.818   7.336 -1.1698 -0.1139 -0.9758
 5346SOL    HW227501   1.583   3.901   7.228 -1.1062 -0.1190 -0.2338
 5347SOL     OW27502   3.481   2.929   4.208 -0.1568  0.2689 -0.5878
 5347SOL    HW127503   3.468   3.019   4.179 -0.9761  0.4846  0.4676
 5347SOL    HW227504   3.520   2.937   4.295  2.8937 -1.1080 -1.8260
 5348SOL     OW27505   1.605   3.949  14.366  0.2663  0.2705  0.4245
 5348SOL    HW127506   1.611   4.036  14.328  0.0059 -0.5730 -1.5323
 5348SOL    HW227507   1.526   3.928  14.317 -0.0856 -0.6914  1.4218
 5349SOL     OW27508   2.119   2.274   3.573  0.3977 -0.1841  0.0535
 5349SOL    HW127509   2.187   2.338   3.554  3.2266 -2.0335  3.8472
 5349SOL    HW227510   2.172   2.197   3.596 -0.6064 -1.3354 -1.4534
 5350SOL     OW27511   3.703   1.102   0.170 -0.1007 -0.7842  0.2586
 5350SOL    HW127512   3.763   1.029   0.186 -0.5249 -1.0048  0.7914
 5350SOL    HW227513   3.646   1.103   0.246  1.1023 -0.2308  1.1368
 5351SOL     OW27514   1.127   2.942   7.476  0.1669 -0.0419  0.0182
 5351SOL    HW127515   1.218   2.940   7.446  0.5163 -2.0284  1.1851
 5351SOL    HW227516   1.132   2.991   7.559 -1.4220 -2.5305  1.5837
 5352SOL     OW27517   1.520   0.418   8.297  0.9003 -0.4016 -0.1564
 5352SOL    HW127518   1.572   0.342   8.326  1.2662 -0.9944 -2.3488
 5352SOL    HW227519   1.594   0.478   8.302  0.8882 -0.4263  0.3174
 5353SOL     OW27520   3.310   2.637  10.961  1.1087 -0.0188 -0.4304
 5353SOL    HW127521   3.379   2.686  11.005 -0.2477  1.9412 -0.5150
 5353SOL    HW227522   3.327   2.642  10.867  2.4777  2.4338 -0.0498
 5354SOL     OW27523   2.378   1.188   2.728 -0.0022 -0.2204 -0.0807
 5354SOL    HW127524   2.345   1.260   2.675  0.5397  0.5001  0.5591
 5354SOL    HW227525   2.462   1.211   2.767 -0.0917  1.0622 -0.6590
 5355SOL     OW27526   0.626   3.988   6.433  0.1578 -0.1687  0.6120
 5355SOL    HW127527   0.649   3.906   6.390 -0.0793  0.8590 -1.4743
 5355SOL    HW227528   0.686   3.993   6.508  0.7294 -1.3459  0.2371
 5356SOL     OW27529   4.433   3.895   4.917 -0.3731 -0.2687  0.1447
 5356SOL    HW127530   4.393   3.895   5.004  0.1458 -2.4274  0.3889
 5356SOL    HW227531   4.400   3.979   4.885  1.5169  0.8011  1.0493
 5357SOL     OW27532   1.904   3.946   4.300 -0.0434  0.6532 -0.2342
 5357SOL    HW127533   1.834   3.952   4.235 -1.8334 -0.3991  1.5935
 5357SOL    HW227534   1.920   4.039   4.318 -1.3349  1.3045 -2.4609
 5358SOL     OW27535   0.864   1.361   5.703  0.3560 -0.1077 -0.2691
 5358SOL    HW127536   0.800   1.406   5.758 -0.0895  0.2378 -1.0661
 5358SOL    HW227537   0.932   1.350   5.769 -0.6884  1.1645  1.0343
 5359SOL     OW27538   0.993   0.073  12.602 -0.2168 -0.2554  0.2531
 5359SOL    HW127539   0.903   0.058  12.630  0.0155  0.0896  1.1874
 5359SOL    HW227540   1.034   0.095  12.685 -0.8844 -0.8296  0.7297
 5360SOL     OW27541   2.043   1.549  11.195  0.6887 -0.5237 -0.1751
 5360SOL    HW127542   2.059   1.530  11.103 -0.2264 -0.9062 -0.2581
 5360SOL    HW227543   1.988   1.473  11.213  1.9005 -1.3144  0.2001
 5361SOL     OW27544   3.915   0.439   5.338 -0.7151  0.2681 -0.1592
 5361SOL    HW127545   3.991   0.495   5.352 -1.0778  0.2676  1.8688
 5361SOL    HW227546   3.878   0.475   5.258 -2.0841  0.6301  0.6296
 5362SOL     OW27547   4.270   0.558  16.874 -0.3869  0.2261 -0.0341
 5362SOL    HW127548   4.274   0.544  16.780 -0.6565 -1.2555  0.1724
 5362SOL    HW227549   4.356   0.596  16.889 -0.5164  1.3658 -2.2813
 5363SOL     OW27550   1.105   2.811  11.933  0.0151 -0.4719  1.0469
 5363SOL    HW127551   1.055   2.889  11.958  0.0863  0.1975 -0.8757
 5363SOL    HW227552   1.109   2.836  11.841  1.0090  2.0022  1.7590
 5364SOL     OW27553   1.911   2.045   7.066  0.6275 -0.2816 -0.1359
 5364SOL    HW127554   1.829   2.061   7.112  0.0549  1.0057 -1.5803
 5364SOL    HW227555   1.974   2.044   7.138 -3.0660 -0.2532  3.1104
 5365SOL     OW27556   0.011   0.522   2.032  0.2058 -0.0005 -0.6638
 5365SOL    HW127557   0.007   0.510   1.937 -1.4365 -0.0025 -0.5928
 5365SOL    HW227558   4.659   0.464   2.058  1.9680 -2.5356 -1.4234
 5366SOL     OW27559   4.380   1.205   7.480 -0.7557  0.4149  0.0329
 5366SOL    HW127560   4.347   1.291   7.505 -1.1622  0.1547  0.4132
 5366SOL    HW227561   4.423   1.179   7.562  0.8954  0.8767 -0.6970
 5367SOL     OW27562   4.659   2.792   8.997  0.3150  0.5431 -0.6903
 5367SOL    HW127563   4.661   2.703   8.960  2.3306  0.6771 -0.8813
 5367SOL    HW227564   4.668   2.837   8.913  0.8392  2.0720  0.2030
 5368SOL     OW27565   2.326   3.608   2.547  0.2075 -0.0124 -0.3051
 5368SOL    HW127566   2.416   3.619   2.516  0.3406  2.0611  0.7962
 5368SOL    HW227567   2.323   3.686   2.602 -2.4441 -1.8539  2.1782
 5369SOL     OW27568   1.174   3.015  13.787  0.2599 -0.0467  0.4273
 5369SOL    HW127569   1.116   2.942  13.808 -0.2362  0.4826  0.8905
 5369SOL    HW227570   1.152   3.021  13.695 -0.5274  0.8438  0.6773
 5370SOL     OW27571   4.716   3.117   3.136 -0.3879  0.5289  0.7630
 5370SOL    HW127572   4.692   3.026   3.118 -0.2078  0.3515  1.4116
 5370SOL    HW227573   0.024   3.117   3.228  0.4531  0.9682  0.5093
 5371SOL     OW27574   0.288   1.374   4.017 -0.0163  0.2077 -0.0148
 5371SOL    HW127575   0.292   1.278   4.010  2.1528  0.4151 -1.6278
 5371SOL    HW227576   0.290   1.400   3.925 -2.2344  0.5184  0.0152
 5372SOL     OW27577   1.554   4.634   0.230  0.2502 -0.0137  0.2271
 5372SOL    HW127578   1.610   4.701   0.268  0.4978  0.0280 -0.2063
 5372SOL    HW227579   1.562   4.662   0.139 -0.4325 -0.7198 -0.0459
 5373SOL     OW27580   1.252   3.822   2.660 -0.7108 -0.0875 -0.0741
 5373SOL    HW127581   1.235   3.785   2.573  0.5941 -0.8664  0.0071
 5373SOL    HW227582   1.335   3.780   2.679  0.3320  0.9005 -2.3808
 5374SOL     OW27583   0.367   3.345   7.779 -0.2738  0.6146 -0.2894
 5374SOL    HW127584   0.295   3.375   7.834  0.2877  0.0388  0.7837
 5374SOL    HW227585   0.328   3.281   7.721 -1.4317  1.8608 -0.8805
 5375SOL     OW27586   2.285   3.629   0.062  0.0441 -0.1229  0.2058
 5375SOL    HW127587   2.250   3.570   0.129 -1.6299  1.1012  0.4255
 5375SOL    HW227588   2.207   3.633   0.006 -0.6311 -1.2071  1.0690
 5376SOL     OW27589   3.946   0.346   7.132 -0.2171  0.1262  0.1089
 5376SOL    HW127590   3.889   0.284   7.178  1.2051 -0.0867  1.5561
 5376SOL    HW227591   4.020   0.294   7.101  2.0011  3.0189  0.5362
 5377SOL     OW27592   2.007   1.759   8.187 -0.3389 -0.0189 -0.3984
 5377SOL    HW127593   1.986   1.847   8.156 -1.3019  0.4990  1.7320
 5377SOL    HW227594   2.098   1.773   8.211 -0.0649 -1.8025 -0.3649
 5378SOL     OW27595   3.135   0.716   4.195  0.3286  0.0654 -0.1428
 5378SOL    HW127596   3.181   0.660   4.132 -0.7421  0.3869 -1.2112
 5378SOL    HW227597   3.194   0.697   4.268 -1.1854 -1.9473  0.5435
 5379SOL     OW27598   2.380   2.160   0.137 -0.1054  0.2984 -0.6959
 5379SOL    HW127599   2.381   2.231   0.073  0.3325 -0.0276 -1.0522
 5379SOL    HW227600   2.393   2.210   0.218 -0.3660 -1.2885  0.3088
 5380SOL     OW27601   1.075   0.991   5.908  0.3280 -0.4823 -0.4518
 5380SOL    HW127602   0.989   1.030   5.927 -0.0454 -0.6915 -1.7191
 5380SOL    HW227603   1.122   1.053   5.964 -1.0682 -0.2782  0.5204
 5381SOL     OW27604   2.777   1.691  15.653 -0.9791  0.2411  0.4620
 5381SOL    HW127605   2.812   1.605  15.674  0.0471  0.4239 -0.5028
 5381SOL    HW227606   2.705   1.702  15.715 -2.1866 -0.1134 -0.8995
 5382SOL     OW27607   1.262   0.823   8.335  0.4893 -0.3296  0.1559
 5382SOL    HW127608   1.352   0.852   8.351  0.3889  0.1001 -0.0702
 5382SOL    HW227609   1.244   0.843   8.243 -1.7787 -0.6636  0.5310
 5383SOL     OW27610   2.220   1.119   7.424 -0.2504  0.8214 -0.4318
 5383SOL    HW127611   2.239   1.149   7.513 -0.9040 -1.1393  0.3616
 5383SOL    HW227612   2.292   1.161   7.377  3.4543 -3.0440  1.7505
 5384SOL     OW27613   2.933   3.750   9.365  0.3535 -0.3095  0.1225
 5384SOL    HW127614   3.008   3.772   9.420  1.2457  1.0877 -1.6236
 5384SOL    HW227615   2.968   3.778   9.280 -1.7840 -0.6534 -0.8694
 5385SOL     OW27616   3.224   2.140   9.705 -0.4394  0.2891  0.0625
 5385SOL    HW127617   3.204   2.091   9.785  0.3150 -0.0484  0.0514
 5385SOL    HW227618   3.320   2.143   9.709 -0.5176  1.4842  0.9083
 5386SOL     OW27619   2.107   4.240   8.325 -0.0799  0.2254 -0.2917
 5386SOL    HW127620   2.087   4.291   8.403 -0.0010 -0.5539  0.2392
 5386SOL    HW227621   2.202   4.236   8.329 -0.0081 -0.4635 -2.2213
 5387SOL     OW27622   3.871   3.771   5.196 -0.4100  0.1617  0.0831
 5387SOL    HW127623   3.940   3.835   5.178 -1.9891  1.0861 -2.6146
 5387SOL    HW227624   3.914   3.705   5.251 -2.1819 -0.5223  0.6501
 5388SOL     OW27625   3.738   3.438   2.250  0.4892 -0.5706  0.3056
 5388SOL    HW127626   3.693   3.511   2.293  0.6682 -0.3013  0.0344
 5388SOL    HW227627   3.713   3.369   2.311 -0.5328  0.5850  1.2135
 5389SOL     OW27628   1.167   0.108   2.625 -0.3003  0.1574 -0.2075
 5389SOL    HW127629   1.137   0.162   2.697  0.9679  0.7148 -0.0997
 5389SOL    HW227630   1.238   0.166   2.598  1.4512 -1.8837 -0.0045
 5390SOL     OW27631   2.926   3.198   2.959 -0.2412  0.2580 -0.0463
 5390SOL    HW127632   2.923   3.256   3.035 -0.3010  0.6106 -0.3170
 5390SOL    HW227633   2.986   3.247   2.903 -0.5725  1.8028  0.9561
 5391SOL     OW27634   3.236   0.410  16.243 -0.4705 -0.1875  0.0568
 5391SOL    HW127635   3.296   0.383  16.312 -0.6322  1.3292  0.7864
 5391SOL    HW227636   3.217   0.500  16.270  1.2143  0.6555 -1.5366
 5392SOL     OW27637   4.190   3.390  17.084 -0.3201 -0.1826  0.1372
 5392SOL    HW127638   4.177   3.427  16.997  0.8972  2.6682  1.1528
 5392SOL    HW227639   4.236   3.313  17.049 -0.2844  0.5501 -1.4231
 5393SOL     OW27640   4.204   1.572  14.942  0.5621  0.0566 -0.1615
 5393SOL    HW127641   4.193   1.526  14.859 -1.1345  0.4507 -0.1464
 5393SOL    HW227642   4.119   1.591  14.980  2.4234  0.2485  3.9233
 5394SOL     OW27643   3.540   4.520   2.869  0.6824 -0.3052 -0.0386
 5394SOL    HW127644   3.591   4.439   2.864 -0.0926 -0.9279  1.9548
 5394SOL    HW227645   3.517   4.523   2.776  0.6360  0.6771  0.0027
 5395SOL     OW27646   3.056   2.009  11.867  0.5573 -0.1872  0.6290
 5395SOL    HW127647   3.068   2.004  11.772 -1.0821 -2.3914  0.5168
 5395SOL    HW227648   2.976   1.956  11.866 -0.1717  0.9142 -0.4575
 5396SOL     OW27649   0.596   3.653   7.712 -0.0019  0.2290 -0.0121
 5396SOL    HW127650   0.616   3.745   7.732 -0.0269  0.1820  0.2244
 5396SOL    HW227651   0.631   3.641   7.623  0.0634  1.3302 -0.1435
 5397SOL     OW27652   4.256   2.907   5.952 -0.3884 -0.1195 -0.3387
 5397SOL    HW127653   4.242   3.002   5.957  1.4031  0.0723  1.2762
 5397SOL    HW227654   4.201   2.884   5.878 -0.0084  1.4051 -1.1055
 5398SOL     OW27655   1.056   3.605   1.715 -0.1727 -0.4863  0.0897
 5398SOL    HW127656   1.042   3.699   1.700 -0.2310 -0.2971  1.2819
 5398SOL    HW227657   1.070   3.611   1.810  0.4317  1.1622 -0.1002
 5399SOL     OW27658   3.649   3.862   5.336  0.0472 -0.4461  0.6169
 5399SOL    HW127659   3.662   3.956   5.324  1.7444 -0.8021 -0.3347
 5399SOL    HW227660   3.721   3.816   5.292  0.8311  3.0589 -1.7017
 5400SOL     OW27661   1.567   0.030   1.428  0.4842 -0.5013 -0.5711
 5400SOL    HW127662   1.647   4.706   1.458  1.0960  1.6422  0.9360
 5400SOL    HW227663   1.498   0.001   1.487  0.7289 -0.7995 -0.4288
 5401SOL     OW27664   3.467   3.502   1.958  0.4457  0.3051 -0.3534
 5401SOL    HW127665   3.499   3.412   1.971  2.8070  1.3901  1.1884
 5401SOL    HW227666   3.376   3.477   1.944  0.1332  1.9080 -1.1632
 5402SOL     OW27667   0.594   4.151  11.436  0.0211  0.1080 -0.5482
 5402SOL    HW127668   0.520   4.207  11.458  0.1405 -1.2070  3.3264
 5402SOL    HW227669   0.559   4.063  11.433  0.7097 -0.1180 -1.7017
 5403SOL     OW27670   2.521   2.208   4.374  0.5664 -0.2014 -0.2982
 5403SOL    HW127671   2.573   2.268   4.426 -0.7332 -0.1887  0.9699
 5403SOL    HW227672   2.433   2.231   4.402 -0.8485 -3.7122 -1.7506
 5404SOL     OW27673   1.805   0.129   3.339 -0.5955  0.2325  0.0276
 5404SOL    HW127674   1.761   0.168   3.414  0.9093  0.0372  1.0253
 5404SOL    HW227675   1.774   0.038   3.340  0.3619 -0.0878  1.2680
 5405SOL     OW27676   1.874   2.091   8.965  0.0788  0.5871 -0.0764
 5405SOL    HW127677   1.898   2.018   8.907  2.4302 -0.0984  1.7421
 5405SOL    HW227678   1.958   2.127   8.995  0.1646  0.1510  0.2003
 5406SOL     OW27679   0.682   3.680   7.102  0.7841  0.5584  0.3667
 5406SOL    HW127680   0.714   3.643   7.020  1.6183  1.3048  0.3519
 5406SOL    HW227681   0.764   3.675   7.151  0.7378 -2.6096  0.1241
 5407SOL     OW27682   2.277   3.932   4.464  0.0549 -0.4556 -0.0563
 5407SOL    HW127683   2.345   3.956   4.527  0.1721 -2.5643  0.6093
 5407SOL    HW227684   2.291   4.004   4.402  2.0666  0.2102  1.1784
 5408SOL     OW27685   0.103   1.832   3.060 -0.4731  0.0530  0.6194
 5408SOL    HW127686   0.123   1.925   3.045  0.6922 -0.3954 -0.6527
 5408SOL    HW227687   0.092   1.806   2.968  0.5841 -0.4948  0.6491
 5409SOL     OW27688   3.937   1.609  15.079  0.0720  0.2426  0.0737
 5409SOL    HW127689   3.956   1.576  15.166  3.3441 -2.0651 -1.5006
 5409SOL    HW227690   3.879   1.546  15.036  1.5832  0.8070 -2.8315
 5410SOL     OW27691   4.345   2.735   9.716 -0.3944  0.2853  0.1495
 5410SOL    HW127692   4.354   2.665   9.652 -2.9027 -0.9386  1.1645
 5410SOL    HW227693   4.428   2.742   9.763  0.0722  2.7744 -1.0065
 5411SOL     OW27694   1.914   0.093   2.643 -0.6413 -0.1559  0.3917
 5411SOL    HW127695   1.931   0.012   2.596  0.1831  0.7264 -0.8123
 5411SOL    HW227696   1.983   0.086   2.708  1.0787  2.1151 -1.1891
 5412SOL     OW27697   4.666   4.223   9.959  0.4422 -0.1142  0.3279
 5412SOL    HW127698   4.591   4.249   9.905  1.1842 -1.6407 -1.4662
 5412SOL    HW227699   4.682   4.304  10.007  2.4769 -0.2645 -0.0644
 5413SOL     OW27700   3.527   3.225   6.625 -1.2535 -0.1462 -0.2493
 5413SOL    HW127701   3.500   3.247   6.535 -0.7950 -1.2101 -0.6554
 5413SOL    HW227702   3.604   3.277   6.644  0.0564 -2.6073  1.1824
 5414SOL     OW27703   0.077   2.302   8.544  0.5934 -0.1529  0.1754
 5414SOL    HW127704   0.070   2.208   8.530 -2.0990 -0.0694  0.9485
 5414SOL    HW227705   0.162   2.322   8.505 -0.8145 -0.2207 -2.8928
 5415SOL     OW27706   4.616   3.748  14.077  0.0268  0.1930 -0.1316
 5415SOL    HW127707   4.606   3.769  13.984  1.5010  1.9591  0.1155
 5415SOL    HW227708   4.552   3.678  14.089  0.1039 -0.1490 -1.7110
 5416SOL     OW27709   1.332   1.512  11.704  0.1870  0.3474 -0.0772
 5416SOL    HW127710   1.303   1.431  11.660 -0.4476 -0.6942  2.2904
 5416SOL    HW227711   1.390   1.551  11.638  0.4490  2.8133  1.6249
 5417SOL     OW27712   3.853   4.668  13.391  0.4575 -0.4386  0.4954
 5417SOL    HW127713   3.859   4.665  13.295  1.0801 -0.6870  0.5415
 5417SOL    HW227714   3.799   0.026  13.404  3.6373  1.8262 -0.1676
 5418SOL     OW27715   3.945   2.019   2.662 -0.3232  0.4059  0.3385
 5418SOL    HW127716   3.959   1.953   2.730 -2.5172 -1.2795 -0.8454
 5418SOL    HW227717   3.863   1.989   2.621 -1.7665  1.4097  2.4871
 5419SOL     OW27718   1.639   1.616  15.374  0.6214 -0.2595 -0.4794
 5419SOL    HW127719   1.634   1.620  15.470 -1.4121  2.6139 -0.6926
 5419SOL    HW227720   1.648   1.521  15.369  2.8389 -0.1692  1.2962
 5420SOL     OW27721   0.495   1.418   4.731  0.2406  0.7081  0.1488
 5420SOL    HW127722   0.410   1.426   4.688  0.5227 -2.5531 -1.0537
 5420SOL    HW227723   0.475   1.421   4.825 -0.7377 -2.1276  0.0438
 5421SOL     OW27724   3.975   2.586   0.842  0.1403 -0.1377  0.4123
 5421SOL    HW127725   4.002   2.597   0.933  2.7713 -1.9562 -0.1530
 5421SOL    HW227726   3.934   2.670   0.819  0.4770  1.1201  4.4779
 5422SOL     OW27727   1.641   1.034   7.570 -0.7562 -0.5722  0.4673
 5422SOL    HW127728   1.674   1.117   7.607 -2.3658  0.1685  0.2173
 5422SOL    HW227729   1.706   1.010   7.504 -0.4508 -2.3648  1.4023
 5423SOL     OW27730   3.003   3.492   1.219  0.2136 -0.2185 -0.2600
 5423SOL    HW127731   2.951   3.414   1.196  0.7873 -0.7584  0.2802
 5423SOL    HW227732   3.085   3.476   1.174 -2.3183 -3.1696 -3.8760
 5424SOL     OW27733   2.136   1.528   3.641 -0.0443 -0.2356  0.1927
 5424SOL    HW127734   2.141   1.538   3.737  0.5872 -1.2981  0.2712
 5424SOL    HW227735   2.225   1.537   3.608 -0.8913  1.3576 -1.6274
 5425SOL     OW27736   3.915   4.596   5.349 -0.0116 -0.2303  0.0251
 5425SOL    HW127737   3.836   4.597   5.404 -0.6982 -4.5508 -0.9112
 5425SOL    HW227738   3.922   4.689   5.329 -0.8549 -1.2096 -4.7584
 5426SOL     OW27739   3.706   4.527   6.309 -0.1023 -0.2834  0.7486
 5426SOL    HW127740   3.719   4.609   6.356 -1.2085  0.8978 -1.0426
 5426SOL    HW227741   3.707   4.556   6.218 -0.8014  1.5578  1.3295
 5427SOL     OW27742   1.577   1.273  11.703  0.1146  0.6543 -0.0021
 5427SOL    HW127743   1.587   1.274  11.798 -0.4249 -0.7151  0.0631
 5427SOL    HW227744   1.598   1.180  11.696 -2.1732 -0.1236  3.0818
 5428SOL     OW27745   1.335   1.889   5.071  0.6246 -0.1442 -0.2271
 5428SOL    HW127746   1.324   1.984   5.076  0.9964 -0.0348 -1.4715
 5428SOL    HW227747   1.353   1.867   5.162  0.9318 -1.0801 -0.5088
 5429SOL     OW27748   1.321   1.259  13.720 -0.0911 -0.0090  0.4196
 5429SOL    HW127749   1.240   1.216  13.749 -0.5555  0.7679  0.2745
 5429SOL    HW227750   1.348   1.196  13.654 -0.7017  0.6273 -0.4285
 5430SOL     OW27751   4.676   2.038  11.371 -0.3975 -0.3022  0.2182
 5430SOL    HW127752   4.621   2.081  11.305  0.8063  1.6636  0.4970
 5430SOL    HW227753   0.028   1.998  11.321  1.1165  0.3273  1.9060
 5431SOL     OW27754   2.441   0.916   0.821 -0.0979 -0.2055  1.0774
 5431SOL    HW127755   2.431   0.928   0.727  1.4563  2.8213  1.2966
 5431SOL    HW227756   2.535   0.935   0.826 -0.0459  0.0823 -1.0128
 5432SOL     OW27757   0.997   3.948   5.478 -0.5965  0.0634  0.4524
 5432SOL    HW127758   0.961   4.017   5.533  0.5145 -0.8936  2.3496
 5432SOL    HW227759   0.918   3.896   5.460  0.9571 -1.7249 -1.2086
 5433SOL     OW27760   0.904   0.829   5.163 -0.2067 -0.2983 -0.4584
 5433SOL    HW127761   0.899   0.859   5.254 -0.9104 -1.4914 -0.1102
 5433SOL    HW227762   0.998   0.838   5.147  0.2300 -1.0220  1.6777
 5434SOL     OW27763   3.802   0.985   2.560  0.3421  0.4714  0.0351
 5434SOL    HW127764   3.826   0.900   2.596 -1.2582  0.2419  0.5540
 5434SOL    HW227765   3.884   1.032   2.546  1.2061 -0.6064  1.4706
 5435SOL     OW27766   0.709   1.726  14.527  0.5402 -0.3817 -0.1413
 5435SOL    HW127767   0.622   1.703  14.559  0.4863  0.8577  0.5849
 5435SOL    HW227768   0.710   1.820  14.510 -1.7523 -0.6235 -1.5745
 5436SOL     OW27769   0.656   3.403   4.752  0.5571 -0.7568 -0.2219
 5436SOL    HW127770   0.667   3.444   4.838 -0.2457 -0.3072 -0.3306
 5436SOL    HW227771   0.729   3.442   4.705  0.0907 -1.8375 -1.8378
 5437SOL     OW27772   2.754   3.483   7.577  0.3035 -0.5408 -0.2058
 5437SOL    HW127773   2.765   3.574   7.603 -0.0301 -0.4310 -0.4358
 5437SOL    HW227774   2.823   3.435   7.622  0.6509  2.1718  2.1302
 5438SOL     OW27775   3.089   1.256   4.553 -0.0717  0.1146  0.3452
 5438SOL    HW127776   3.013   1.302   4.516  0.1618  0.2146 -0.0082
 5438SOL    HW227777   3.093   1.170   4.512 -1.4212 -0.8709  2.2491
 5439SOL     OW27778   3.294   3.703   2.109 -0.5556 -0.0645 -0.9391
 5439SOL    HW127779   3.275   3.612   2.130 -1.4900 -0.2237 -2.4041
 5439SOL    HW227780   3.219   3.734   2.057 -0.1142 -0.1660 -1.6384
 5440SOL     OW27781   4.415   1.967   6.301  0.1164 -0.1219 -0.3424
 5440SOL    HW127782   4.462   1.919   6.368 -0.2516  1.1488  0.8337
 5440SOL    HW227783   4.335   1.985   6.351  1.6073 -1.5977  2.5481
 5441SOL     OW27784   4.592   4.055   1.864  0.2970 -0.4671 -0.4191
 5441SOL    HW127785   4.512   4.009   1.891  0.4887 -0.5870 -0.0514
 5441SOL    HW227786   4.550   4.125   1.815 -1.5672 -2.1609 -1.1874
 5442SOL     OW27787   0.735   2.805  12.023 -0.3875  0.9014 -0.2547
 5442SOL    HW127788   0.689   2.794  11.939 -1.1875 -1.9299  0.5709
 5442SOL    HW227789   0.721   2.898  12.040 -2.1157  0.4207  0.9441
 5443SOL     OW27790   1.064   2.014  11.945 -0.1297  0.2222 -1.2799
 5443SOL    HW127791   1.048   2.109  11.943 -1.4684  0.0016 -1.1659
 5443SOL    HW227792   1.042   1.974  11.861  0.8425 -1.4968 -0.6999
 5444SOL     OW27793   0.782   3.544  10.426 -0.0331  0.3476  0.2862
 5444SOL    HW127794   0.808   3.587  10.344  0.2333 -1.7493 -0.7200
 5444SOL    HW227795   0.848   3.476  10.422  0.0503  0.3165  2.3454
 5445SOL     OW27796   4.705   0.007   1.371  0.1043  0.0167 -0.1954
 5445SOL    HW127797   4.684   4.639   1.404  1.1286 -0.7065 -1.4562
 5445SOL    HW227798   0.036   0.042   1.445  2.4354  0.1628 -1.8845
 5446SOL     OW27799   2.544   0.042   8.462  0.2741 -0.0527 -0.8145
 5446SOL    HW127800   2.493   0.103   8.408  2.7592  1.9388 -0.9163
 5446SOL    HW227801   2.536   0.092   8.543 -1.1743  3.0942 -2.8820
 5447SOL     OW27802   0.386   4.653   3.295  0.8422  0.1435  0.2526
 5447SOL    HW127803   0.339   4.707   3.232  1.8406 -0.5256 -1.0552
 5447SOL    HW227804   0.338   4.672   3.376  2.6918  0.1608  1.3499
 5448SOL     OW27805   4.156   0.763   9.211 -0.0619 -0.0863 -0.3457
 5448SOL    HW127806   4.139   0.853   9.241  0.7320 -0.2356  0.5661
 5448SOL    HW227807   4.222   0.751   9.280  0.0025 -0.3239 -0.4483
 5449SOL     OW27808   1.722   3.647   5.507 -0.4611 -0.1226 -0.1804
 5449SOL    HW127809   1.661   3.720   5.511 -1.8406 -1.3701  1.5095
 5449SOL    HW227810   1.675   3.568   5.534  2.0525 -0.6560  2.6018
 5450SOL     OW27811   2.765   0.616  10.561 -0.3708 -0.5618 -0.2251
 5450SOL    HW127812   2.682   0.636  10.604 -1.5698 -2.3810 -1.6917
 5450SOL    HW227813   2.817   0.679  10.612 -1.1121 -0.2828  0.1942
 5451SOL     OW27814   1.045   2.390   6.705  0.4559  0.1504 -0.3632
 5451SOL    HW127815   1.040   2.424   6.616 -1.2480 -0.9475 -0.6848
 5451SOL    HW227816   0.968   2.426   6.749  1.0923 -0.1325  1.0137
 5452SOL     OW27817   3.061   0.744   2.838 -0.4496 -0.7025  0.1773
 5452SOL    HW127818   3.025   0.667   2.794 -1.7209 -0.3557  0.6064
 5452SOL    HW227819   3.016   0.729   2.921  0.0067 -1.2311  0.3276
 5453SOL     OW27820   0.341   1.891   6.642 -0.2578 -0.3857  0.0376
 5453SOL    HW127821   0.397   1.829   6.688  1.2875 -0.3453 -1.7837
 5453SOL    HW227822   0.367   1.975   6.681 -1.5707  1.1559 -2.4154
 5454SOL     OW27823   2.694   2.529   3.374  0.4743 -0.1941 -1.0046
 5454SOL    HW127824   2.642   2.452   3.396  3.2340 -1.1306  2.1245
 5454SOL    HW227825   2.784   2.496   3.374  0.8135  0.7185 -0.7498
 5455SOL     OW27826   3.836   2.562   6.521  0.1761 -0.0134  0.5348
 5455SOL    HW127827   3.844   2.656   6.506 -1.6062 -0.2187 -1.7671
 5455SOL    HW227828   3.778   2.556   6.597 -0.7143  0.2527 -0.1215
 5456SOL     OW27829   3.646   3.329   7.589 -0.1133 -0.3012  0.4132
 5456SOL    HW127830   3.685   3.375   7.515 -1.3832 -1.7207 -1.1552
 5456SOL    HW227831   3.700   3.250   7.592 -3.5339 -2.6405  1.1913
 5457SOL     OW27832   1.268   2.502  10.929  0.1666 -0.4174 -0.5697
 5457SOL    HW127833   1.275   2.492  11.024 -0.9622 -0.2466 -0.4680
 5457SOL    HW227834   1.218   2.422  10.912 -2.5888  1.3463 -0.7622
 5458SOL     OW27835   0.864   1.938   6.213  0.0480  0.5771  0.0001
 5458SOL    HW127836   0.797   1.998   6.247  0.9827  0.1622  2.6037
 5458SOL    HW227837   0.944   1.981   6.243  0.6276 -0.7199  0.3009
 5459SOL     OW27838   1.561   2.351  11.883 -0.3742  1.0317 -0.2965
 5459SOL    HW127839   1.549   2.346  11.978  0.7385  1.1827 -0.1420
 5459SOL    HW227840   1.500   2.420  11.857 -0.8136  0.5447 -0.5626
 5460SOL     OW27841   1.662   0.179  10.123 -0.0254  0.2467  0.8058
 5460SOL    HW127842   1.593   0.199  10.059  0.4109  1.1931  0.6329
 5460SOL    HW227843   1.736   0.134  10.083  1.0597  1.1952  1.7620
 5461SOL     OW27844   4.649   0.201   5.466 -0.4300  0.0718 -0.8578
 5461SOL    HW127845   4.666   0.136   5.534 -1.3663  0.9146  0.1860
 5461SOL    HW227846   0.018   0.236   5.461 -0.5236  0.5192  0.7327
 5462SOL     OW27847   3.073   4.263  10.033 -0.0787  0.0051  0.2817
 5462SOL    HW127848   3.084   4.201  10.105 -0.6107  0.1576  0.4927
 5462SOL    HW227849   3.143   4.235   9.974 -1.4515 -0.1251 -1.2824
 5463SOL     OW27850   0.849   3.757  12.984  0.2779  0.4772  0.4686
 5463SOL    HW127851   0.849   3.680  12.926 -1.5910  2.6838 -2.4267
 5463SOL    HW227852   0.944   3.759  12.992  0.3405 -1.0089  0.1168
 5464SOL     OW27853   4.586   4.067  10.997  0.3123  0.0590  0.2752
 5464SOL    HW127854   4.573   3.977  11.027  0.2526  0.5468  1.6745
 5464SOL    HW227855   4.610   4.122  11.071  0.0636  0.2762  0.1948
 5465SOL     OW27856   1.166   2.446  16.150 -0.6824  0.6122 -0.0038
 5465SOL    HW127857   1.246   2.394  16.149 -1.4211 -0.4979 -2.0096
 5465SOL    HW227858   1.207   2.521  16.193  0.4881  0.2915 -0.5464
 5466SOL     OW27859   2.287   1.120   6.648 -0.3617 -0.3772 -0.0294
 5466SOL    HW127860   2.208   1.174   6.642  0.4030  0.8587  1.1560
 5466SOL    HW227861   2.270   1.055   6.579 -3.2126  2.0560 -1.6378
 5467SOL     OW27862   0.875   2.952   4.536  0.2532  0.3146  0.2178
 5467SOL    HW127863   0.781   2.943   4.547  0.2378  0.0687 -0.1095
 5467SOL    HW227864   0.898   2.863   4.510 -0.0072  0.7083 -1.3976
 5468SOL     OW27865   3.763   2.921   9.997 -0.0356  0.0435  0.0113
 5468SOL    HW127866   3.837   2.864  10.017  1.6352  2.3780  0.4742
 5468SOL    HW227867   3.695   2.856  10.014  2.8280 -3.0064 -0.2284
 5469SOL     OW27868   2.435   4.272   1.406 -0.2219 -0.1896  0.0263
 5469SOL    HW127869   2.506   4.212   1.430 -0.9282 -1.6626 -1.5275
 5469SOL    HW227870   2.409   4.319   1.485  1.8639 -0.9492  1.1550
 5470SOL     OW27871   4.337   1.228  14.782 -0.6500 -0.7432 -0.3458
 5470SOL    HW127872   4.286   1.191  14.854 -0.8719 -0.4490 -0.3477
 5470SOL    HW227873   4.400   1.157  14.769  0.9963  1.1905 -3.1081
 5471SOL     OW27874   2.218   1.982   5.288 -0.2282  0.1334 -0.6721
 5471SOL    HW127875   2.176   1.918   5.231 -1.7093  1.1196 -0.7131
 5471SOL    HW227876   2.223   2.058   5.230  0.2821  0.5281 -0.1097
 5472SOL     OW27877   2.045   0.662   2.867  0.6074  0.0840 -0.1785
 5472SOL    HW127878   2.019   0.573   2.843 -0.1570  0.1392  0.4210
 5472SOL    HW227879   2.137   0.638   2.877 -0.2373 -2.6149  1.2678
 5473SOL     OW27880   0.623   3.674   3.722  0.3596  0.1014  0.0893
 5473SOL    HW127881   0.682   3.741   3.756  0.5409  0.5341 -1.0727
 5473SOL    HW227882   0.547   3.726   3.697  0.6117  0.1212 -0.6637
 5474SOL     OW27883   2.693   0.854   3.753 -0.4203 -0.0913  0.3317
 5474SOL    HW127884   2.601   0.871   3.733 -0.3913 -0.1664  0.1367
 5474SOL    HW227885   2.705   0.899   3.836  0.0043  0.5111 -0.0517
 5475SOL     OW27886   4.179   2.726   1.841 -0.1550  0.1238  0.3607
 5475SOL    HW127887   4.113   2.730   1.910  0.5349 -1.4552  1.1350
 5475SOL    HW227888   4.243   2.671   1.886 -0.1125 -0.1711 -0.0571
 5476SOL     OW27889   3.843   3.380   3.722  0.4235  0.0426  0.5415
 5476SOL    HW127890   3.865   3.396   3.630  2.9607  2.1928  1.5169
 5476SOL    HW227891   3.896   3.444   3.770 -1.0508  0.7430  1.2429
 5477SOL     OW27892   3.706   3.162   2.826  0.0420 -0.1670  0.1454
 5477SOL    HW127893   3.721   3.162   2.921  1.6617  0.5405 -0.1109
 5477SOL    HW227894   3.766   3.099   2.786 -2.5751 -1.4339 -1.7321
 5478SOL     OW27895   0.337   3.566   6.865  0.0185  0.2324  0.3441
 5478SOL    HW127896   0.312   3.482   6.903 -2.2831  0.0583 -1.5118
 5478SOL    HW227897   0.273   3.574   6.794  0.2792  0.4932  0.1332
 5479SOL     OW27898   2.848   3.610   2.654  0.1554 -0.1477  0.1918
 5479SOL    HW127899   2.829   3.645   2.741 -0.3878  1.7936 -0.7010
 5479SOL    HW227900   2.798   3.529   2.666 -1.8747  1.0620  0.0747
 5480SOL     OW27901   4.250   2.329   2.738 -0.3303  0.7008  0.6743
 5480SOL    HW127902   4.309   2.258   2.718 -1.8956 -0.4878  0.2676
 5480SOL    HW227903   4.172   2.311   2.686  0.9975 -1.1581 -0.6325
 5481SOL     OW27904   0.481   1.913   1.537 -0.3487 -0.5002 -0.6975
 5481SOL    HW127905   0.393   1.880   1.553 -1.1746  1.9076 -0.2022
 5481SOL    HW227906   0.449   1.996   1.503 -0.6580 -0.7503 -1.0155
 5482SOL     OW27907   1.992   0.073   6.045  0.3627 -0.1696  0.0254
 5482SOL    HW127908   1.966   0.013   5.975  1.4140  1.1097 -1.4662
 5482SOL    HW227909   2.081   0.041   6.061 -0.3418 -3.0426 -1.9494
 5483SOL     OW27910   4.643   4.485   8.883 -0.3163  0.1169 -0.4702
 5483SOL    HW127911   4.653   4.439   8.966 -0.9159  0.6484 -0.1051
 5483SOL    HW227912   0.000   4.542   8.875 -1.2302  1.1024 -2.2318
 5484SOL     OW27913   2.568   4.413   1.202 -0.2490 -0.2119 -0.6195
 5484SOL    HW127914   2.509   4.392   1.274  1.8352 -2.2442  0.4834
 5484SOL    HW227915   2.541   4.343   1.143 -0.9774 -0.6148  0.1941
 5485SOL     OW27916   2.844   3.468   0.912  0.1967 -0.1300 -0.3002
 5485SOL    HW127917   2.857   3.373   0.913 -0.2135 -0.1670  1.2057
 5485SOL    HW227918   2.773   3.483   0.974 -0.5612  0.3142 -1.2803
 5486SOL     OW27919   2.884   2.500   6.315 -1.0515  0.0859 -0.6302
 5486SOL    HW127920   2.965   2.485   6.363 -0.7014  0.7256 -1.0317
 5486SOL    HW227921   2.879   2.424   6.257 -1.1633  0.5614 -1.2490
 5487SOL     OW27922   0.998   4.288  16.239  0.1291  0.0032 -0.7336
 5487SOL    HW127923   1.077   4.305  16.187  1.4644 -0.6464  1.0922
 5487SOL    HW227924   0.956   4.373  16.251 -0.7870 -0.1926 -2.5505
 5488SOL     OW27925   4.260   0.866   4.797  0.0221 -0.6422 -0.0270
 5488SOL    HW127926   4.317   0.933   4.834 -0.6204 -0.2470  0.2369
 5488SOL    HW227927   4.256   0.889   4.705  0.2759  1.4827  0.5126
 5489SOL     OW27928   3.232   0.454  10.546 -0.0774  0.1365 -0.0747
 5489SOL    HW127929   3.299   0.388  10.562  1.2837  1.2402 -1.2724
 5489SOL    HW227930   3.208   0.419  10.460  1.0894 -1.8782  0.4182
 5490SOL     OW27931   1.165   0.455   3.325 -0.6566  0.9012 -0.4390
 5490SOL    HW127932   1.214   0.450   3.242 -0.0166  0.0498 -0.0166
 5490SOL    HW227933   1.214   0.518   3.377  0.4679 -0.8168  0.5804
 5491SOL     OW27934   0.762   0.238   2.926 -0.2051 -0.1046 -0.0538
 5491SOL    HW127935   0.671   0.233   2.896 -0.2793 -1.1796  0.3278
 5491SOL    HW227936   0.761   0.324   2.967  0.0159 -1.0107  1.8543
 5492SOL     OW27937   4.401   3.006  16.133  0.6556  0.4239  0.1203
 5492SOL    HW127938   4.329   2.949  16.106 -0.2560  0.8719  1.6254
 5492SOL    HW227939   4.372   3.084  16.085  0.3576  0.9732  1.1811
 5493SOL     OW27940   1.992   4.364   8.010 -0.0322 -0.1527  0.0369
 5493SOL    HW127941   1.928   4.354   7.939  0.0770  0.9247 -0.2092
 5493SOL    HW227942   2.018   4.273   8.022  0.7772  0.3142  1.6658
 5494SOL     OW27943   2.293   1.068   4.050  0.2396  0.0018 -0.2571
 5494SOL    HW127944   2.204   1.053   4.080 -0.0978  1.2340 -0.6652
 5494SOL    HW227945   2.312   0.975   4.037 -1.3207 -0.4154  0.5312
 5495SOL     OW27946   1.767   2.288   9.705  0.0194  0.3889 -0.2682
 5495SOL    HW127947   1.840   2.296   9.766 -0.3037  0.6634  0.0877
 5495SOL    HW227948   1.688   2.322   9.747  2.4910  1.0592  3.8424
 5496SOL     OW27949   2.347   1.183  14.953 -0.1608  0.1229  0.3727
 5496SOL    HW127950   2.440   1.169  14.974 -0.1369 -0.6497 -0.2552
 5496SOL    HW227951   2.357   1.274  14.924  2.0272 -0.5544 -0.9986
 5497SOL     OW27952   2.559   2.492   1.596  0.4421 -0.3031 -0.1394
 5497SOL    HW127953   2.605   2.543   1.529  0.9531 -0.7126 -0.0980
 5497SOL    HW227954   2.620   2.418   1.590  1.6379  0.8530 -2.4800
 5498SOL     OW27955   1.297   3.462   4.486  0.2647  0.3467 -0.0968
 5498SOL    HW127956   1.270   3.552   4.468 -0.6292  0.6114  2.5991
 5498SOL    HW227957   1.380   3.471   4.534  0.0127 -0.0692  0.4058
 5499SOL     OW27958   0.982   4.449   2.742  0.5176  0.0885 -0.0876
 5499SOL    HW127959   1.056   4.502   2.773 -1.1068  2.7999 -0.8189
 5499SOL    HW227960   1.004   4.434   2.651 -2.8202 -1.7356 -0.5742
 5500SOL     OW27961   4.693   1.613  14.670 -0.4789 -0.2953 -0.0721
 5500SOL    HW127962   0.067   1.606  14.648  0.0300  0.4214  1.9442
 5500SOL    HW227963   4.698   1.574  14.757  1.0306  0.9893  0.4174
 5501SOL     OW27964   3.716   2.684   1.642  0.5641  1.0084 -0.2259
 5501SOL    HW127965   3.763   2.663   1.723  0.6640  1.1058 -0.2592
 5501SOL    HW227966   3.759   2.619   1.587 -0.5318 -1.3168  1.6593
 5502SOL     OW27967   2.231   3.130  13.858 -0.7398  0.2960  0.4448
 5502SOL    HW127968   2.210   3.223  13.853  3.9384  1.3325  0.0705
 5502SOL    HW227969   2.156   3.090  13.814 -0.6962  1.6357 -0.8436
 5503SOL     OW27970   0.686   2.133   2.057 -0.6008 -0.0858 -0.2453
 5503SOL    HW127971   0.612   2.182   2.023  0.3152  0.9343 -0.7783
 5503SOL    HW227972   0.654   2.045   2.035 -0.1748  0.4096 -2.8867
 5504SOL     OW27973   0.964   3.095   8.202  0.0894 -0.4896 -0.0493
 5504SOL    HW127974   0.925   3.024   8.151 -1.3072 -0.1663  0.5719
 5504SOL    HW227975   1.021   3.041   8.256  2.1658  1.0642 -0.6872
 5505SOL     OW27976   3.990   3.664   2.765  0.4533 -0.0268  0.0001
 5505SOL    HW127977   3.905   3.620   2.773  0.8645 -0.8153  0.0234
 5505SOL    HW227978   4.038   3.628   2.840 -0.5923 -2.3952 -0.4585
 5506SOL     OW27979   3.541   4.509   2.585 -0.5141 -0.5985 -0.3683
 5506SOL    HW127980   3.464   4.521   2.530  0.4120 -1.5681 -1.8838
 5506SOL    HW227981   3.600   4.470   2.520 -2.0452 -1.8732 -1.0103
 5507SOL     OW27982   0.254   0.085   8.524  0.2689  0.3373  0.7152
 5507SOL    HW127983   0.293   0.054   8.605  0.1350  0.5590  0.8650
 5507SOL    HW227984   0.325   0.063   8.464 -1.5683 -2.2422 -0.5311
 5508SOL     OW27985   1.463   3.565   6.247  0.0732  0.7980  0.6860
 5508SOL    HW127986   1.456   3.659   6.262 -2.3845  0.7901 -0.4100
 5508SOL    HW227987   1.533   3.563   6.181  0.5591  0.2815  1.2105
 5509SOL     OW27988   3.160   0.316   3.327 -0.5789 -0.1029 -0.1625
 5509SOL    HW127989   3.099   0.302   3.399 -2.2077 -1.6155 -1.8278
 5509SOL    HW227990   3.152   0.237   3.272 -0.1220  2.5653 -4.0519
 5510SOL     OW27991   1.598   3.908   6.058 -0.0313 -0.4636 -0.1144
 5510SOL    HW127992   1.661   3.836   6.063 -0.7866 -1.0130  1.4961
 5510SOL    HW227993   1.548   3.883   5.979  0.5289  1.5714 -1.1078
 5511SOL     OW27994   4.084   2.740  15.618 -0.6193  0.1379 -0.5318
 5511SOL    HW127995   4.153   2.752  15.553  1.8515 -2.3582  1.5748
 5511SOL    HW227996   4.089   2.645  15.633 -0.1168  0.3740  0.8374
 5512SOL     OW27997   3.908   4.421   7.979  0.0142  0.8042 -0.4142
 5512SOL    HW127998   3.978   4.366   8.014 -1.8372 -1.1057  0.3148
 5512SOL    HW227999   3.841   4.410   8.047  0.0154  1.1245 -0.3622
 5513SOL     OW28000   1.508   4.255   7.434  0.4725  0.0022 -0.2811
 5513SOL    HW128001   1.498   4.168   7.394 -1.0338 -0.1393  0.4207
 5513SOL    HW228002   1.454   4.247   7.512  1.2241 -2.5256 -0.0022
 5514SOL     OW28003   3.437   2.378   2.251 -0.4328 -0.4303  0.4024
 5514SOL    HW128004   3.456   2.319   2.179 -0.3449 -1.9692  1.6879
 5514SOL    HW228005   3.406   2.448   2.193  1.4556 -1.4920 -1.8459
 5515SOL     OW28006   3.403   4.112  13.199 -0.9123 -0.0434 -0.2966
 5515SOL    HW128007   3.318   4.145  13.227 -1.7826 -0.8050 -2.0481
 5515SOL    HW228008   3.413   4.145  13.110  1.6624 -2.1070 -0.7761
 5516SOL     OW28009   4.014   3.185  16.613  0.5620  0.2615 -0.3135
 5516SOL    HW128010   4.108   3.166  16.620  1.1387  3.2403  0.3187
 5516SOL    HW228011   3.976   3.154  16.695  0.4081 -1.8709 -1.2033
 5517SOL     OW28012   3.599   0.005   0.603  0.2382 -0.3920 -0.0080
 5517SOL    HW128013   3.539   4.677   0.660  0.3766  0.8206  1.1600
 5517SOL    HW228014   3.664   0.049   0.658  0.0390 -0.6295  0.4182
 5518SOL     OW28015   3.143   0.863  13.546 -0.8539 -0.3956 -0.3113
 5518SOL    HW128016   3.146   0.794  13.479  0.0294 -1.5007  0.8865
 5518SOL    HW228017   3.051   0.888  13.531 -0.7269  0.4984  0.4231
 5519SOL     OW28018   4.389   3.247   3.888 -0.3010 -0.2033  0.4514
 5519SOL    HW128019   4.413   3.226   3.798 -1.1006  0.5532  0.0628
 5519SOL    HW228020   4.317   3.310   3.878 -0.5180 -0.5645 -0.2203
 5520SOL     OW28021   3.695   3.796  12.994 -0.7451 -0.8057 -0.0030
 5520SOL    HW128022   3.771   3.789  12.935 -0.4128 -0.9697  0.4475
 5520SOL    HW228023   3.719   3.731  13.059 -0.6812  0.3434  1.1166
 5521SOL     OW28024   2.589   3.161  11.300  0.2531 -0.6935  0.4566
 5521SOL    HW128025   2.530   3.140  11.228  0.3213  0.3968  0.0948
 5521SOL    HW228026   2.532   3.194  11.370  0.5200 -1.1045  0.8664
 5522SOL     OW28027   0.334   0.257  12.386 -0.0869 -0.0639 -0.0349
 5522SOL    HW128028   0.249   0.216  12.370  0.8905 -2.5271  1.1605
 5522SOL    HW228029   0.339   0.247  12.481 -1.1704 -2.1688 -0.1971
 5523SOL     OW28030   3.244   3.390  13.961  0.0635 -0.2290  0.5062
 5523SOL    HW128031   3.195   3.438  13.893 -1.9723 -1.9467  0.7667
 5523SOL    HW228032   3.185   3.322  13.994 -0.6834  2.0210  3.8199
 5524SOL     OW28033   3.109   4.247   7.335 -0.1092 -0.0310 -0.4072
 5524SOL    HW128034   3.047   4.289   7.394  0.1067  1.3656 -1.1760
 5524SOL    HW228035   3.096   4.152   7.341  1.6782 -0.1652  1.5826
 5525SOL     OW28036   0.074   2.034   8.495  0.0867 -0.1519 -0.6113
 5525SOL    HW128037   0.148   1.977   8.472  0.0774  0.1037 -1.2688
 5525SOL    HW228038   0.027   2.033   8.411 -0.3314  1.9008 -0.4100
 5526SOL     OW28039   3.379   2.153   9.082  0.2383 -0.2023 -0.0819
 5526SOL    HW128040   3.386   2.181   8.991 -1.8760 -0.5064 -0.3440
 5526SOL    HW228041   3.424   2.068   9.077  1.0558  0.1885  0.5033
 5527SOL     OW28042   4.138   0.807  17.300  0.6720  0.5535  0.5350
 5527SOL    HW128043   4.124   0.786  17.208  1.9298 -0.0725  0.4906
 5527SOL    HW228044   4.172   0.895  17.287  2.6936 -0.3863 -0.4187
 5528SOL     OW28045   3.996   0.006  10.797  0.1060  0.4121  0.5196
 5528SOL    HW128046   3.962   0.052  10.874 -0.9022 -0.7511  0.7566
 5528SOL    HW228047   4.077   0.057  10.785 -0.3589  0.8716 -0.6331
 5529SOL     OW28048   2.097   3.208   4.593 -0.0711 -0.5889  0.5246
 5529SOL    HW128049   2.070   3.298   4.609  0.7275  0.0916 -1.9342
 5529SOL    HW228050   2.095   3.200   4.497  0.9793 -0.4967  0.4998
 5530SOL     OW28051   0.460   3.696   9.554 -0.2341 -0.3288  0.5176
 5530SOL    HW128052   0.397   3.662   9.491 -1.1797  1.1717  0.6574
 5530SOL    HW228053   0.496   3.616   9.591  0.0053  0.1519  1.3217
 5531SOL     OW28054   3.584   1.910   5.234 -0.0697 -0.3030  0.0498
 5531SOL    HW128055   3.553   1.838   5.289 -0.7876 -0.9628 -1.2238
 5531SOL    HW228056   3.678   1.908   5.248 -0.1242 -2.1472  0.1036
 5532SOL     OW28057   2.771   3.734   8.538 -0.4669  0.4114 -0.1264
 5532SOL    HW128058   2.802   3.707   8.451 -0.9388  1.4387 -0.6166
 5532SOL    HW228059   2.735   3.819   8.514  0.2363  1.3662  2.2923
 5533SOL     OW28060   0.152   3.305   8.009 -0.4447  0.6423 -0.0254
 5533SOL    HW128061   0.091   3.277   7.941 -1.6115  0.7826  0.9590
 5533SOL    HW228062   0.204   3.225   8.015 -0.3044  0.5556 -2.2596
 5534SOL     OW28063   1.714   3.156  13.257  0.1693 -0.2339  0.1219
 5534SOL    HW128064   1.751   3.193  13.177  1.1333 -0.6911  0.3667
 5534SOL    HW228065   1.686   3.241  13.291 -0.4757 -0.7829  0.9682
 5535SOL     OW28066   3.428   0.512  12.831 -0.4805  0.3292 -0.1225
 5535SOL    HW128067   3.410   0.462  12.751  2.8599  1.8368 -1.8129
 5535SOL    HW228068   3.348   0.496  12.881 -0.3961  1.0222  0.2333
 5536SOL     OW28069   3.330   1.127   9.169  0.6426 -0.3512 -0.4949
 5536SOL    HW128070   3.424   1.115   9.176  0.5250 -0.0832  1.3754
 5536SOL    HW228071   3.302   1.093   9.254 -2.9433  1.1836 -1.0623
 5537SOL     OW28072   2.629   1.646   2.233 -0.2346  0.2185 -0.0105
 5537SOL    HW128073   2.561   1.579   2.231 -0.2229  0.1530  2.0812
 5537SOL    HW228074   2.692   1.608   2.171  0.0833 -1.4047  1.3058
 5538SOL     OW28075   2.434   2.179  10.668  0.0086 -0.1963  0.1447
 5538SOL    HW128076   2.492   2.110  10.635 -0.3588 -0.3439 -0.1917
 5538SOL    HW228077   2.490   2.221  10.733  1.6872 -1.8424 -0.2133
 5539SOL     OW28078   3.033   1.199   9.576 -0.4665 -0.0293 -0.2177
 5539SOL    HW128079   3.080   1.278   9.549  0.1721 -0.1181  0.6497
 5539SOL    HW228080   3.050   1.202   9.670  0.2438  0.2151 -0.3534
 5540SOL     OW28081   0.791   3.392   4.326  0.9233  0.2983 -0.1353
 5540SOL    HW128082   0.756   3.342   4.252  1.2155  2.5310 -1.7936
 5540SOL    HW228083   0.881   3.411   4.297  1.4096  0.2456  1.3586
 5541SOL     OW28084   0.754   3.081   6.197  0.1916 -0.3036  0.0788
 5541SOL    HW128085   0.839   3.064   6.158  0.9763  1.6336  0.9657
 5541SOL    HW228086   0.736   3.162   6.149 -1.9249 -1.3320 -0.8589
 5542SOL     OW28087   3.142   4.414  14.533  0.0037  0.0248  0.1486
 5542SOL    HW128088   3.097   4.379  14.611  0.2617 -0.6462  0.0005
 5542SOL    HW228089   3.153   4.338  14.476  1.2353  2.2225 -2.5239
 5543SOL     OW28090   3.811   3.684   6.007  0.4444 -0.8090  0.2181
 5543SOL    HW128091   3.727   3.730   6.005  1.3531  0.9083  2.3860
 5543SOL    HW228092   3.829   3.684   6.100 -2.3499  0.4190  0.7554
 5544SOL     OW28093   3.164   3.268   6.863 -0.5697 -0.9504  0.4113
 5544SOL    HW128094   3.225   3.195   6.863  1.4305  0.7442  1.1712
 5544SOL    HW228095   3.101   3.235   6.799 -0.4656 -0.1104 -0.1241
 5545SOL     OW28096   1.061   3.731   6.593  0.6453  0.2380 -0.3927
 5545SOL    HW128097   1.135   3.676   6.571  0.1103  0.2364 -2.1977
 5545SOL    HW228098   1.031   3.773   6.512  0.1632  0.1379 -0.2690
 5546SOL     OW28099   0.947   1.012   7.747 -0.5265 -0.0750 -0.4645
 5546SOL    HW128100   0.948   1.092   7.799 -3.6273  0.4546 -1.2410
 5546SOL    HW228101   0.949   0.952   7.822  0.7334 -1.3415 -1.5011
 5547SOL     OW28102   1.214   3.471   5.178 -0.5866 -0.5648  0.2293
 5547SOL    HW128103   1.181   3.540   5.120  1.7695 -1.3636 -2.0522
 5547SOL    HW228104   1.242   3.525   5.251  0.7658  1.1789 -1.5599
 5548SOL     OW28105   3.626   3.428   0.097  0.4203 -0.3302 -0.5408
 5548SOL    HW128106   3.607   3.426   0.003 -1.2511 -0.6662 -0.2020
 5548SOL    HW228107   3.537   3.453   0.122  0.7120  0.7194 -0.5321
 5549SOL     OW28108   3.256   3.822  13.802  0.3632  0.8136 -0.0491
 5549SOL    HW128109   3.333   3.850  13.753 -0.6170 -1.7833 -3.0527
 5549SOL    HW228110   3.231   3.909  13.834 -2.1145  0.3825 -0.8325
 5550SOL     OW28111   4.034   3.825   4.690  0.5025 -0.2789  0.2356
 5550SOL    HW128112   4.018   3.851   4.781 -0.4871 -0.3421  0.0728
 5550SOL    HW228113   4.087   3.900   4.662 -1.5626  0.5694 -1.3298
 5551SOL     OW28114   3.433   1.554  10.525 -0.0995 -0.3688  0.0090
 5551SOL    HW128115   3.456   1.571  10.616  2.2432  1.2866 -0.8844
 5551SOL    HW228116   3.511   1.519  10.482  0.9123  1.7363  0.1366
 5552SOL     OW28117   1.084   2.731   7.923 -0.4297  0.2028 -0.1359
 5552SOL    HW128118   1.156   2.750   7.863 -0.4796 -1.1323 -0.6285
 5552SOL    HW228119   1.121   2.695   8.004 -1.6742  0.3053  0.4807
 5553SOL     OW28120   3.180   2.579  17.264 -0.0859  0.1069  0.2408
 5553SOL    HW128121   3.208   2.489  17.283 -1.9675 -0.2214  1.5169
 5553SOL    HW228122   3.143   2.605  17.349 -0.3423  2.3545 -0.5638
 5554SOL     OW28123   0.460   1.314   5.252  0.3347  0.1273  0.0536
 5554SOL    HW128124   0.555   1.296   5.252 -0.0402 -1.8779  0.0096
 5554SOL    HW228125   0.453   1.298   5.346  1.5920  2.0530  0.4764
 5555SOL     OW28126   4.420   4.019  15.791 -0.0319  0.0515 -0.1309
 5555SOL    HW128127   4.423   4.029  15.887  1.1984 -0.3239 -0.1300
 5555SOL    HW228128   4.479   4.087  15.758  0.6838 -1.0762 -1.1450
 5556SOL     OW28129   4.225   4.425  16.369 -0.7414  0.1930 -0.5155
 5556SOL    HW128130   4.292   4.392  16.309 -1.2929 -1.6498 -0.1134
 5556SOL    HW228131   4.154   4.361  16.368 -1.5090  1.0539 -0.9462
 5557SOL     OW28132   4.541   1.976   1.070  0.8084  0.3077 -1.2061
 5557SOL    HW128133   4.635   1.976   1.090  0.1251 -0.3176  2.0232
 5557SOL    HW228134   4.512   2.066   1.087 -0.8812  0.1223 -3.1678
 5558SOL     OW28135   2.081   3.076   2.122 -0.5263  0.1589 -0.0675
 5558SOL    HW128136   2.028   2.996   2.121 -1.9193  1.0731  0.9774
 5558SOL    HW228137   2.164   3.045   2.159 -0.3635  0.9270  0.2137
 5559SOL     OW28138   4.262   4.298   7.870 -0.1467 -0.1611 -0.6022
 5559SOL    HW128139   4.193   4.320   7.932 -0.1236 -0.6959 -0.3873
 5559SOL    HW228140   4.292   4.382   7.837  3.0707 -1.4316 -0.9279
 5560SOL     OW28141   3.979   2.136   5.462 -0.0051  0.2887  0.1692
 5560SOL    HW128142   4.009   2.055   5.420 -1.1906 -0.3413  0.5538
 5560SOL    HW228143   4.050   2.193   5.431 -0.1922  0.8226  0.7195
 5561SOL     OW28144   0.206   0.943   5.046 -0.2764 -0.3034  0.3345
 5561SOL    HW128145   0.239   1.016   4.993 -0.9818 -0.5178 -0.4021
 5561SOL    HW228146   0.162   0.881   4.987  1.3639 -0.3670 -0.8353
 5562SOL     OW28147   0.766   0.721   1.280 -0.1635  0.4754  0.2505
 5562SOL    HW128148   0.809   0.796   1.238 -1.7883 -0.2789 -2.7874
 5562SOL    HW228149   0.820   0.647   1.255  2.2784  2.1499  0.5228
 5563SOL     OW28150   1.161   3.223   4.493  0.7742  0.0169  0.1350
 5563SOL    HW128151   1.193   3.313   4.495  3.8948 -1.0686 -1.2364
 5563SOL    HW228152   1.071   3.230   4.525  1.2876  1.5553  1.2409
 5564SOL     OW28153   1.533   2.175  15.333  0.3052  0.1307 -0.1082
 5564SOL    HW128154   1.562   2.122  15.407 -0.8076  0.2695  0.4315
 5564SOL    HW228155   1.447   2.202  15.365  1.3213  1.2927  1.6359
 5565SOL     OW28156   2.870   1.785  12.078  0.8997  0.1328  0.5284
 5565SOL    HW128157   2.867   1.770  11.983  0.3048  1.2560  0.3683
 5565SOL    HW228158   2.961   1.790  12.106  0.8698 -0.9008  0.7957
 5566SOL     OW28159   0.472   2.556   8.315 -0.1255  0.3991  0.2627
 5566SOL    HW128160   0.397   2.589   8.264 -1.4978 -2.1444  0.6569
 5566SOL    HW228161   0.535   2.587   8.250  1.2213  1.3281  2.0042
 5567SOL     OW28162   2.468   1.576   1.978 -0.2519  0.4749 -0.2874
 5567SOL    HW128163   2.493   1.500   2.030 -0.7532 -0.1671 -0.9693
 5567SOL    HW228164   2.549   1.593   1.929  1.3585 -0.9484  1.9103
 5568SOL     OW28165   3.986   1.867   6.092 -0.1619 -0.5922 -0.2547
 5568SOL    HW128166   4.069   1.911   6.074 -0.8708 -0.0847 -2.2872
 5568SOL    HW228167   4.012   1.778   6.115 -2.7746 -1.3539 -0.2760
 5569SOL     OW28168   1.229   4.657   9.753  0.3345 -0.4985 -0.2381
 5569SOL    HW128169   1.278   4.714   9.695 -0.2254 -0.2994 -0.5138
 5569SOL    HW228170   1.248   4.574   9.709  0.9094 -1.4256  1.7277
 5570SOL     OW28171   1.984   4.396   4.173  0.0636 -0.0844 -0.1564
 5570SOL    HW128172   2.050   4.359   4.231  1.4963  1.9875 -0.4893
 5570SOL    HW228173   1.997   4.487   4.198 -1.0855  0.3386 -1.0858
 5571SOL     OW28174   2.430   3.373   8.750 -0.1333  0.4023  0.5024
 5571SOL    HW128175   2.451   3.321   8.828 -0.4250 -4.1368 -2.4365
 5571SOL    HW228176   2.380   3.309   8.699 -0.7133 -0.4290  2.0963
 5572SOL     OW28177   3.942   0.575   8.780 -0.3152 -0.2421  0.1344
 5572SOL    HW128178   3.927   0.495   8.832  1.1982 -0.7684 -0.2339
 5572SOL    HW228179   4.029   0.562   8.744 -0.1186 -0.9744  0.8810
 5573SOL     OW28180   3.243   4.675   3.230  0.1769 -0.1609  0.4230
 5573SOL    HW128181   3.308   0.024   3.215 -0.9059  0.7815 -0.0500
 5573SOL    HW228182   3.179   4.716   3.171 -0.4623 -1.1670  0.4079
 5574SOL     OW28183   3.723   2.341   4.673  0.6268 -0.1224 -0.4755
 5574SOL    HW128184   3.798   2.302   4.719 -1.0673 -0.3354  2.1217
 5574SOL    HW228185   3.769   2.397   4.611 -0.6024  1.3354 -0.0687
 5575SOL     OW28186   0.228   3.450  12.863  0.4326 -0.3806 -0.0999
 5575SOL    HW128187   0.244   3.475  12.955 -0.2871  0.0718 -0.0959
 5575SOL    HW228188   0.245   3.535  12.821 -1.1535 -0.8945 -1.7353
 5576SOL     OW28189   1.599   1.556   5.407  0.2642  0.4915  0.8286
 5576SOL    HW128190   1.570   1.639   5.444  1.5355  1.5588 -0.5262
 5576SOL    HW228191   1.614   1.591   5.319  0.5047 -1.0193  0.2641
 5577SOL     OW28192   1.541   1.162   1.994  0.5458  0.0204  0.3628
 5577SOL    HW128193   1.553   1.153   1.899  0.0197  1.4327  0.1582
 5577SOL    HW228194   1.497   1.081   2.019 -0.0621 -0.5803 -2.6348
 5578SOL     OW28195   0.666   3.881   9.216  0.0743  0.2353  0.0576
 5578SOL    HW128196   0.575   3.905   9.230 -1.0853 -3.6326 -0.8684
 5578SOL    HW228197   0.711   3.940   9.276  0.2004 -0.7564  0.9311
 5579SOL     OW28198   4.484   2.738   5.502 -0.4391  0.3702 -0.1733
 5579SOL    HW128199   4.531   2.704   5.426 -1.2354 -0.8913 -0.1091
 5579SOL    HW228200   4.473   2.829   5.475  2.5262  0.5836 -0.6389
 5580SOL     OW28201   2.773   0.937   4.297 -0.6169  0.9509  0.5186
 5580SOL    HW128202   2.764   0.999   4.370 -1.2473  0.9778  0.4165
 5580SOL    HW228203   2.693   0.948   4.245 -0.9796 -2.2724  0.4432
 5581SOL     OW28204   4.498   3.575   7.480  0.1140 -0.0273  0.1542
 5581SOL    HW128205   4.568   3.511   7.465 -1.7011 -2.0990  0.3879
 5581SOL    HW228206   4.506   3.604   7.571  0.2384 -1.0890  0.4913
 5582SOL     OW28207   3.460   3.519  15.934 -0.2864  0.0038 -0.1250
 5582SOL    HW128208   3.439   3.442  15.987  0.5106  0.0160  0.2046
 5582SOL    HW228209   3.541   3.492  15.891 -1.2707 -0.4134 -1.7100
 5583SOL     OW28210   4.716   0.888  14.594  0.1758 -0.6692 -0.7975
 5583SOL    HW128211   0.022   0.891  14.502  0.2971 -0.8678 -0.7694
 5583SOL    HW228212   0.081   0.876  14.636 -0.2918  1.9175  0.8997
 5584SOL     OW28213   2.425   0.297   3.229  0.0502 -0.2431 -0.5543
 5584SOL    HW128214   2.379   0.237   3.170 -0.0387  1.0427 -1.7832
 5584SOL    HW228215   2.418   0.384   3.191 -0.5787 -0.0701 -0.0453
 5585SOL     OW28216   0.483   3.929   5.290 -0.1855  0.2513  0.0838
 5585SOL    HW128217   0.444   4.008   5.254  1.3861  2.5073  3.2940
 5585SOL    HW228218   0.574   3.956   5.303  0.2098 -3.1453  4.2259
 5586SOL     OW28219   1.912   4.304   1.383 -0.2525 -0.0764 -0.0474
 5586SOL    HW128220   1.926   4.363   1.457 -0.0759  1.0080 -0.9389
 5586SOL    HW228221   2.001   4.278   1.360 -0.5645 -0.4544 -0.8567
 5587SOL     OW28222   3.816   4.568   8.443  0.6567  0.8310  0.0435
 5587SOL    HW128223   3.729   4.534   8.421  1.9098 -2.7155  0.6435
 5587SOL    HW228224   3.885   4.529   8.388  0.9908 -0.1596  1.1816
 5588SOL     OW28225   1.714   4.548   8.178  0.3382 -0.3835  0.0790
 5588SOL    HW128226   1.770   4.474   8.200 -0.5079 -0.3690  2.2728
 5588SOL    HW228227   1.668   4.570   8.258 -0.4593  1.3156 -0.8395
 5589SOL     OW28228   4.563   1.577   8.300  0.0471  0.1877 -0.0878
 5589SOL    HW128229   4.478   1.549   8.267 -0.0631  3.8082 -2.8580
 5589SOL    HW228230   4.617   1.502   8.277  0.3918  1.0203 -1.9768
 5590SOL     OW28231   3.798   1.549   9.615 -0.8466 -0.0918 -0.6210
 5590SOL    HW128232   3.838   1.627   9.652 -0.7230 -0.9464  1.0456
 5590SOL    HW228233   3.750   1.519   9.692 -1.3682  0.7307 -0.6273
 5591SOL     OW28234   3.139   1.487  12.079  0.5735  0.4790 -0.0885
 5591SOL    HW128235   3.185   1.408  12.109  0.7942  0.6295 -0.0286
 5591SOL    HW228236   3.050   1.454  12.065  0.4654  0.8788 -0.3466
 5592SOL     OW28237   4.708   2.947  12.389  0.0352 -0.0834 -0.0587
 5592SOL    HW128238   4.713   2.908  12.302  3.2268 -1.7203  0.8567
 5592SOL    HW228239   0.074   2.989  12.393 -0.1832  0.0586  3.9716
 5593SOL     OW28240   4.333   3.289   6.418  0.2409  0.4343 -0.5442
 5593SOL    HW128241   4.328   3.215   6.357 -0.3012  1.3885 -1.6474
 5593SOL    HW228242   4.257   3.341   6.391  0.2323  1.3027  1.1838
 5594SOL     OW28243   3.243   4.032   0.466 -0.0143  0.2593  0.2554
 5594SOL    HW128244   3.293   4.054   0.387  1.4196  1.5277  1.5128
 5594SOL    HW228245   3.169   3.985   0.428 -0.8521  0.2051  1.9771
 5595SOL     OW28246   0.327   2.417   5.490 -0.0541 -0.5434  0.0920
 5595SOL    HW128247   0.296   2.376   5.571  0.3593 -0.7969  0.1209
 5595SOL    HW228248   0.250   2.406   5.434 -0.3223  0.0377  0.3389
 5596SOL     OW28249   3.901   2.078   5.709 -0.0916  0.3467 -0.1594
 5596SOL    HW128250   3.928   2.066   5.618 -0.5908  2.0553 -0.5423
 5596SOL    HW228251   3.985   2.114   5.738  0.1509 -1.4804  1.3749
 5597SOL     OW28252   4.591   2.737   9.808  0.1329  0.0678  0.4456
 5597SOL    HW128253   4.617   2.823   9.841 -0.1655  0.4871 -0.4237
 5597SOL    HW228254   4.659   2.726   9.742  0.3664  1.4342  0.4530
 5598SOL     OW28255   1.593   0.316   9.656  0.4155 -0.2956  0.0590
 5598SOL    HW128256   1.535   0.391   9.667  0.5524 -0.0970 -0.5836
 5598SOL    HW228257   1.628   0.331   9.568  1.0619  1.4700  0.6193
 5599SOL     OW28258   2.706   0.817  16.305  0.1052  0.7683  0.2153
 5599SOL    HW128259   2.655   0.826  16.224  2.6163  1.6496 -1.2646
 5599SOL    HW228260   2.793   0.782  16.285 -0.9310 -1.2207 -0.8509
 5600SOL     OW28261   2.951   1.860   4.140 -0.0191  0.1759  0.8328
 5600SOL    HW128262   2.892   1.855   4.065  1.8661 -0.5275 -0.6275
 5600SOL    HW228263   3.033   1.887   4.097 -0.8744  0.3041 -0.7246
 5601SOL     OW28264   0.827   3.905   5.932 -0.0837 -0.5681  0.1490
 5601SOL    HW128265   0.913   3.941   5.954  0.1782 -0.8752 -0.3712
 5601SOL    HW228266   0.823   3.909   5.836  2.3624  3.3567  0.2399
 5602SOL     OW28267   3.806   3.671   4.807  0.1979  0.0954 -0.5385
 5602SOL    HW128268   3.902   3.666   4.809  0.2413  0.6407 -1.3533
 5602SOL    HW228269   3.793   3.743   4.869  0.3938  1.4909 -2.1319
 5603SOL     OW28270   0.960   1.085   2.739 -0.2168  0.6154 -0.4455
 5603SOL    HW128271   0.961   1.178   2.760 -0.8707 -0.1748  3.1140
 5603SOL    HW228272   1.021   1.076   2.666  0.4702  0.8038  0.0949
 5604SOL     OW28273   2.576   1.132  16.255  0.2631  0.2030  0.3859
 5604SOL    HW128274   2.507   1.098  16.198 -1.4879 -0.4373  2.9045
 5604SOL    HW228275   2.654   1.107  16.206  0.4920  0.5153  0.5968
 5605SOL     OW28276   3.305   4.370  17.605 -0.1607  0.0233 -0.1557
 5605SOL    HW128277   3.213   4.394  17.617 -0.0246 -0.1082  1.1198
 5605SOL    HW228278   3.350   4.454  17.593 -1.5219  0.4960 -2.0407
 5606SOL     OW28279   2.993   1.180   2.847 -0.1154  0.5554  0.1364
 5606SOL    HW128280   3.035   1.233   2.915  0.7004 -0.3185  0.3212
 5606SOL    HW228281   3.055   1.111   2.823  2.2792  1.8821  2.3774
 5607SOL     OW28282   1.649   0.652   6.437 -0.0743  0.1565 -0.0076
 5607SOL    HW128283   1.580   0.586   6.424  0.9149 -0.4400 -2.2366
 5607SOL    HW228284   1.659   0.682   6.347  0.9643  0.0365  0.0698
 5608SOL     OW28285   3.832   3.876  17.290  0.1441 -0.3066  0.2795
 5608SOL    HW128286   3.823   3.970  17.275  0.2300 -0.2885  0.3399
 5608SOL    HW228287   3.927   3.876  17.275 -0.0003  0.8115 -0.5809
 5609SOL     OW28288   1.788   0.217  14.290 -0.1749  0.1908  0.1036
 5609SOL    HW128289   1.755   0.306  14.285 -0.7101  0.0967  2.0210
 5609SOL    HW228290   1.812   0.216  14.383  1.7738 -1.5353 -0.4181
 5610SOL     OW28291   4.042   1.101   2.558 -0.2860  0.4798  0.3507
 5610SOL    HW128292   4.114   1.064   2.609 -1.0769 -0.2360  0.9572
 5610SOL    HW228293   4.036   1.184   2.605 -1.8691  0.4899  0.1465
 5611SOL     OW28294   4.315   0.517   6.453 -0.4143 -0.5562  0.5769
 5611SOL    HW128295   4.338   0.438   6.502  0.4709 -1.3179 -1.0466
 5611SOL    HW228296   4.399   0.516   6.406  0.2805  1.5897  1.7249
 5612SOL     OW28297   1.475   1.043   7.773 -0.2447  0.4476  0.7956
 5612SOL    HW128298   1.507   1.022   7.685  0.2139  0.8838  0.8576
 5612SOL    HW228299   1.543   1.003   7.828  0.5326  2.1165  1.0373
 5613SOL     OW28300   4.454   1.226   6.426  0.5426 -0.2670 -0.0664
 5613SOL    HW128301   4.387   1.232   6.495  0.9735  2.5695  0.1310
 5613SOL    HW228302   4.441   1.311   6.384 -3.5051 -1.9167 -2.1391
 5614SOL     OW28303   0.979   4.274   0.705  0.4129 -0.2056  0.3550
 5614SOL    HW128304   1.033   4.338   0.750  1.0299 -1.1297  0.9396
 5614SOL    HW228305   1.041   4.211   0.669  0.6720  0.6720 -0.7036
 5615SOL     OW28306   4.662   1.734  11.822 -0.0700  0.4010 -0.5575
 5615SOL    HW128307   4.606   1.740  11.744 -1.2727  1.7175  0.4061
 5615SOL    HW228308   0.022   1.692  11.789 -0.3193  0.1456 -0.8457
 5616SOL     OW28309   4.586   0.980  13.744  0.1153  0.2681 -0.1946
 5616SOL    HW128310   4.660   1.028  13.780  1.4260  1.0005 -3.9314
 5616SOL    HW228311   4.616   0.890  13.760  2.3269  0.9975 -0.3408
 5617SOL     OW28312   0.371   1.140   7.640 -0.2348 -0.3288 -0.1958
 5617SOL    HW128313   0.346   1.166   7.728  2.1770 -0.7791  0.6216
 5617SOL    HW228314   0.324   1.059   7.620  0.0885 -0.9340  1.5007
 5618SOL     OW28315   2.508   3.028  12.565 -0.5250 -0.3371 -0.0972
 5618SOL    HW128316   2.574   3.032  12.634 -0.0372 -0.9388 -0.5271
 5618SOL    HW228317   2.451   2.956  12.591 -0.2494 -0.2955  0.6167
 5619SOL     OW28318   1.186   3.026   8.994  0.5649  0.3311  0.3137
 5619SOL    HW128319   1.270   3.062   9.020  0.2001  1.3481  0.0762
 5619SOL    HW228320   1.141   3.105   8.964 -0.0861 -0.3572 -0.5760
 5620SOL     OW28321   0.692   3.316   8.455  0.3685 -0.0126 -0.1876
 5620SOL    HW128322   0.661   3.292   8.367  0.6972 -2.5698  0.4258
 5620SOL    HW228323   0.783   3.334   8.432  0.5637  1.1497  1.4919
 5621SOL     OW28324   1.183   1.356   5.399  0.2184  0.1746  0.3647
 5621SOL    HW128325   1.226   1.423   5.346 -0.2973  0.1769 -0.0547
 5621SOL    HW228326   1.223   1.371   5.485 -1.8342 -1.2758  1.5740
 5622SOL     OW28327   2.025   4.710   9.789 -0.3137  0.6279  0.4488
 5622SOL    HW128328   2.078   4.678   9.862 -1.1869  3.2648  2.1953
 5622SOL    HW228329   2.098   0.018   9.732 -0.7893 -0.5634 -0.7397
 5623SOL     OW28330   1.204   2.807   4.979  0.2979 -0.2790 -0.3216
 5623SOL    HW128331   1.236   2.874   4.919  1.0239 -0.1404  0.2165
 5623SOL    HW228332   1.279   2.747   4.975  0.5312 -0.0465  0.5077
 5624SOL     OW28333   1.345   1.405   6.624 -0.0695 -1.0815 -0.3949
 5624SOL    HW128334   1.332   1.319   6.663  0.1350 -0.9726 -0.0775
 5624SOL    HW228335   1.275   1.456   6.665  0.7556 -0.5622  0.3927
 5625SOL     OW28336   0.756   2.278   5.950 -0.0874 -0.4949  0.6036
 5625SOL    HW128337   0.719   2.232   5.875  1.0555  0.8173 -0.7764
 5625SOL    HW228338   0.684   2.269   6.013  1.0825 -2.0753  1.7166
 5626SOL     OW28339   0.252   0.047   1.595  0.8505 -0.0733 -0.2288
 5626SOL    HW128340   0.330   0.092   1.627  0.3947 -1.2700  2.5993
 5626SOL    HW228341   0.200   0.023   1.672  1.6051  1.6377  0.8296
 5627SOL     OW28342   4.419   1.459   3.479  0.2810 -0.1626 -0.9589
 5627SOL    HW128343   4.421   1.525   3.410 -2.2654  1.2685  0.3551
 5627SOL    HW228344   4.470   1.392   3.432 -1.2210 -0.2793 -2.4303
 5628SOL     OW28345   3.444   0.314  15.704 -0.5565  0.4470  0.3517
 5628SOL    HW128346   3.461   0.314  15.799 -0.1964 -0.7609  0.2853
 5628SOL    HW228347   3.364   0.366  15.705  0.1302  1.5059 -0.2052
 5629SOL     OW28348   2.379   1.285   4.182  0.8344  0.1893  0.6595
 5629SOL    HW128349   2.337   1.205   4.150  1.1290 -0.1652  1.1549
 5629SOL    HW228350   2.391   1.332   4.100  0.2012  1.9749  1.5901
 5630SOL     OW28351   1.939   2.258   3.338 -0.2453  0.1935 -0.1059
 5630SOL    HW128352   1.870   2.294   3.394 -0.1066  1.3729 -0.7100
 5630SOL    HW228353   2.014   2.249   3.396 -1.1574 -1.1500  0.8544
 5631SOL     OW28354   1.629   1.673   5.142  0.0347  0.1507  0.5570
 5631SOL    HW128355   1.624   1.767   5.161 -0.5106  0.0669  0.8171
 5631SOL    HW228356   1.711   1.662   5.094 -0.5249 -1.8383  0.0757
 5632SOL     OW28357   4.531   2.544   5.829 -0.5684  0.3147  0.4599
 5632SOL    HW128358   4.577   2.498   5.899  1.4618  0.9470 -0.4541
 5632SOL    HW228359   4.590   2.615   5.805  1.9065 -1.4330  1.3199
 5633SOL     OW28360   1.217   3.994  11.497 -0.0546  0.2029  0.1110
 5633SOL    HW128361   1.198   4.085  11.476 -2.9926 -0.2149  0.9245
 5633SOL    HW228362   1.212   3.963  11.406  0.9486  0.4986 -0.0392
 5634SOL     OW28363   1.422   0.450   8.540 -0.3441 -0.1612 -0.3364
 5634SOL    HW128364   1.342   0.404   8.567  0.8821 -2.0841  0.0096
 5634SOL    HW228365   1.444   0.413   8.454 -0.1866  2.4240 -1.3853
 5635SOL     OW28366   2.047   3.242   6.273  0.0007  0.0480  0.4197
 5635SOL    HW128367   1.954   3.253   6.250 -0.3226  0.8763  2.0765
 5635SOL    HW228368   2.069   3.200   6.190  0.2812  0.1280  0.4548
 5636SOL     OW28369   3.212   2.489   3.198 -0.4928 -0.0985  0.2828
 5636SOL    HW128370   3.210   2.393   3.202  0.4418 -0.2092 -1.6907
 5636SOL    HW228371   3.168   2.513   3.117  2.6551 -0.5498 -1.5807
 5637SOL     OW28372   0.590   0.284   5.777 -0.7598 -0.0070  0.5544
 5637SOL    HW128373   0.569   0.368   5.818 -0.7618  0.5878 -0.6717
 5637SOL    HW228374   0.566   0.228   5.851 -1.9610  1.2067  1.1009
 5638SOL     OW28375   1.845   0.525   7.601 -0.4606 -0.4050 -0.1308
 5638SOL    HW128376   1.898   0.488   7.530  0.5718 -0.7702  0.8327
 5638SOL    HW228377   1.759   0.506   7.564 -1.1907  0.1367  1.2569
 5639SOL     OW28378   0.197   3.640   4.002 -0.6747  0.1169 -0.0612
 5639SOL    HW128379   0.197   3.735   4.014  1.6087  0.2587 -1.1522
 5639SOL    HW228380   0.225   3.627   4.093  0.2958  0.0925 -0.3605
 5640SOL     OW28381   1.881   0.455   3.983  0.1094 -0.4534  0.5629
 5640SOL    HW128382   1.815   0.462   4.051  2.1692 -0.3354  2.5439
 5640SOL    HW228383   1.832   0.410   3.914  2.2736 -0.1265 -1.1730
 5641SOL     OW28384   2.803   0.496   2.381  0.1888 -0.0083  0.1795
 5641SOL    HW128385   2.854   0.416   2.364 -0.9513 -0.6819 -0.0931
 5641SOL    HW228386   2.717   0.469   2.349  1.6294 -0.1073 -3.6450
 5642SOL     OW28387   1.724   1.592   6.658  0.3344 -0.0258 -0.3356
 5642SOL    HW128388   1.706   1.581   6.752 -0.4715  2.6073 -0.1817
 5642SOL    HW228389   1.658   1.658   6.636  0.6112  0.0463 -0.9544
 5643SOL     OW28390   0.391   0.950  15.516 -0.6396 -0.1066  0.1404
 5643SOL    HW128391   0.366   1.033  15.475 -0.4020  0.5685  1.3468
 5643SOL    HW228392   0.363   0.881  15.456 -2.2529  0.7899 -0.1267
 5644SOL     OW28393   3.992   3.299   9.779  0.0498 -1.2831 -0.0999
 5644SOL    HW128394   4.017   3.295   9.687  1.2547  0.6142  0.1338
 5644SOL    HW228395   3.955   3.387   9.772 -0.5584 -1.7044 -2.1582
 5645SOL     OW28396   2.982   2.672   6.026  0.3155 -0.6215 -0.0396
 5645SOL    HW128397   3.054   2.659   6.088 -0.6689  0.8090  1.3947
 5645SOL    HW228398   3.025   2.665   5.941  1.1301 -3.1345  0.5690
 5646SOL     OW28399   3.360   1.762   9.429  0.0185  0.4392 -0.3782
 5646SOL    HW128400   3.392   1.721   9.509  1.3066  3.7959  0.8338
 5646SOL    HW228401   3.271   1.779   9.459  0.6529  1.1235  1.1193
 5647SOL     OW28402   0.451   3.499   5.836 -0.2569 -0.8373 -0.3960
 5647SOL    HW128403   0.503   3.579   5.834 -0.8270 -0.4193  1.0444
 5647SOL    HW228404   0.407   3.501   5.751 -1.4287  2.5030  0.3030
 5648SOL     OW28405   3.096   1.534   8.144  0.2657 -0.0619 -0.4803
 5648SOL    HW128406   3.060   1.558   8.230  1.4221  1.6554 -0.4729
 5648SOL    HW228407   3.085   1.615   8.094 -2.7272  1.1094  2.0220
 5649SOL     OW28408   4.273   3.132   5.067  0.0027 -0.1616  0.2924
 5649SOL    HW128409   4.185   3.168   5.075  0.7743  1.7905  0.0810
 5649SOL    HW228410   4.318   3.189   5.004 -0.7489 -1.3289 -1.3250
 5650SOL     OW28411   3.899   2.181   9.924 -0.1031 -0.3191 -0.4161
 5650SOL    HW128412   3.875   2.090   9.942  0.8510 -0.3476  0.7351
 5650SOL    HW228413   3.869   2.191   9.834  1.1218 -0.8226 -0.8917
 5651SOL     OW28414   0.590   2.328   4.918 -0.0413  0.3377  0.0203
 5651SOL    HW128415   0.564   2.238   4.899 -1.4611  0.6897  0.2692
 5651SOL    HW228416   0.636   2.308   4.999  1.4138 -0.1581 -0.9230
 5652SOL     OW28417   3.836   2.486   4.476 -0.4475 -0.0017 -0.5904
 5652SOL    HW128418   3.839   2.464   4.383  0.4904  0.2893 -0.6293
 5652SOL    HW228419   3.925   2.520   4.485  0.2134 -1.9844  0.2030
 5653SOL     OW28420   1.335   4.192   1.057 -0.3893 -0.1813 -0.0026
 5653SOL    HW128421   1.338   4.287   1.056  3.7495 -0.3285 -0.5940
 5653SOL    HW228422   1.303   4.179   1.146 -0.4683  0.0531  0.0031
 5654SOL     OW28423   2.190   4.345  11.386  0.2077 -0.2209  0.2491
 5654SOL    HW128424   2.204   4.418  11.325 -0.8307 -1.7377 -1.7925
 5654SOL    HW228425   2.176   4.279  11.318  0.6305 -2.0551  1.9266
 5655SOL     OW28426   4.649   3.198   7.829 -0.0712 -0.7387  0.0855
 5655SOL    HW128427   4.562   3.163   7.809 -0.0306 -0.8088  0.0303
 5655SOL    HW228428   4.686   3.232   7.747  1.2554 -1.2522  0.4719
 5656SOL     OW28429   3.269   0.847   8.540 -0.2134 -0.1511  0.2548
 5656SOL    HW128430   3.328   0.881   8.472 -0.5353  0.5021  0.2999
 5656SOL    HW228431   3.229   0.781   8.484 -0.1558 -1.2403  1.5041
 5657SOL     OW28432   1.054   0.255  10.390 -0.4145  0.0704 -0.5205
 5657SOL    HW128433   1.081   0.184  10.449  1.1417  0.2345 -1.0198
 5657SOL    HW228434   0.963   0.270  10.412 -0.3907 -1.5625  0.7172
 5658SOL     OW28435   1.227   2.439   8.620  0.3790  0.2806  0.2997
 5658SOL    HW128436   1.298   2.433   8.684 -0.0237  0.8165  0.8063
 5658SOL    HW228437   1.171   2.370   8.655 -1.1040  1.2382 -0.1603
 5659SOL     OW28438   0.174   2.225  10.828 -0.1120  0.6738 -0.4928
 5659SOL    HW128439   0.237   2.154  10.821  0.6625  1.2868  0.3048
 5659SOL    HW228440   0.199   2.284  10.757 -4.2727  1.4107 -1.3862
 5660SOL     OW28441   1.620   4.056   7.778  0.2973  0.0106  0.2672
 5660SOL    HW128442   1.666   4.052   7.694  0.1021  1.1500  0.0987
 5660SOL    HW228443   1.543   4.101   7.742  0.6139  0.9159  0.7204
 5661SOL     OW28444   2.100   4.320  13.353  0.3090  0.2173 -0.2366
 5661SOL    HW128445   2.177   4.264  13.342 -0.7758 -0.4667 -4.3704
 5661SOL    HW228446   2.136   4.400  13.392  0.7838 -0.3541  0.5068
 5662SOL     OW28447   0.441   0.691   4.758  0.7700 -0.4662  0.6562
 5662SOL    HW128448   0.480   0.776   4.780 -1.6622  0.5143  1.1087
 5662SOL    HW228449   0.499   0.623   4.792  1.5997  0.2337  0.6267
 5663SOL     OW28450   2.736   2.890   2.623  0.6916  0.3213  0.2394
 5663SOL    HW128451   2.695   2.888   2.710 -1.0709  1.9866 -0.5597
 5663SOL    HW228452   2.717   2.803   2.588  1.6012 -0.8301  2.5833
 5664SOL     OW28453   3.533   4.049   1.195 -0.6770 -0.0481  0.6456
 5664SOL    HW128454   3.542   4.102   1.274  2.4598  1.5589 -0.8075
 5664SOL    HW228455   3.467   4.094   1.143  0.2636  1.9600  1.2087
 5665SOL     OW28456   1.563   3.539   3.780  0.0972 -0.4388  0.4494
 5665SOL    HW128457   1.628   3.528   3.710 -0.1110  1.5904 -0.0629
 5665SOL    HW228458   1.531   3.450   3.768 -1.0153 -0.0926  0.8578
 5666SOL     OW28459   3.109   2.462   6.652 -0.3491  0.6478 -0.2591
 5666SOL    HW128460   3.133   2.550   6.623 -0.2060  0.7909  0.2837
 5666SOL    HW228461   3.103   2.416   6.569 -0.2368 -1.9536  1.1786
 5667SOL     OW28462   2.748   2.777  12.251  0.6045 -0.2302  0.1908
 5667SOL    HW128463   2.802   2.816  12.182  0.4374 -1.4918 -0.6580
 5667SOL    HW228464   2.690   2.851  12.271 -0.0318 -1.0059  1.1638
 5668SOL     OW28465   0.722   0.199   3.297 -0.3108  0.1499  0.4436
 5668SOL    HW128466   0.654   0.212   3.231  1.5385  3.7526 -0.7533
 5668SOL    HW228467   0.750   0.288   3.318  2.6412 -0.8945  0.8753
 5669SOL     OW28468   3.308   0.644   4.394 -0.5225  0.3694 -0.2024
 5669SOL    HW128469   3.356   0.562   4.378 -1.4878 -0.3459  0.5632
 5669SOL    HW228470   3.365   0.672   4.465 -1.8409 -0.8642  1.3371
 5670SOL     OW28471   3.555   4.237  13.359 -0.1280 -0.1044  0.5722
 5670SOL    HW128472   3.502   4.182  13.301 -1.9409 -0.5203  2.6202
 5670SOL    HW228473   3.501   4.255  13.436 -0.9304 -1.2938  0.2898
 5671SOL     OW28474   2.453   2.576   1.829 -0.6277  0.0429  0.3197
 5671SOL    HW128475   2.480   2.539   1.745  2.1306 -0.8476  1.6008
 5671SOL    HW228476   2.421   2.659   1.793  1.3627  1.3152  1.4771
 5672SOL     OW28477   0.726   2.389  10.817  0.2034  0.4786  0.1034
 5672SOL    HW128478   0.767   2.317  10.770 -2.3517 -0.3966 -0.7953
 5672SOL    HW228479   0.782   2.461  10.787  0.5149  0.2373  0.1089
 5673SOL     OW28480   0.166   2.803   3.517 -0.0926 -0.1662 -0.6365
 5673SOL    HW128481   0.236   2.765   3.569  0.4252 -0.2542 -1.4030
 5673SOL    HW228482   0.146   2.887   3.559 -0.1146 -0.7672  0.5357
 5674SOL     OW28483   3.565   2.780   5.580  0.4513 -0.3186  0.3984
 5674SOL    HW128484   3.594   2.765   5.670 -1.9619 -0.7987  1.0833
 5674SOL    HW228485   3.584   2.696   5.538 -0.6519  0.3404 -1.4136
 5675SOL     OW28486   4.538   0.159   6.347 -0.4218 -0.2857 -0.2590
 5675SOL    HW128487   4.455   0.142   6.301 -0.1245  0.7425 -1.1577
 5675SOL    HW228488   4.597   0.092   6.313 -3.1233 -2.0583 -1.5132
 5676SOL     OW28489   2.771   4.594   3.783 -0.4764 -0.0143  0.2878
 5676SOL    HW128490   2.787   4.564   3.693  1.2865  0.2036  0.5387
 5676SOL    HW228491   2.686   4.551   3.792  0.1737 -1.2193  0.5970
 5677SOL     OW28492   0.736   3.109   1.827  0.6316  0.1004  0.2230
 5677SOL    HW128493   0.713   3.170   1.757  0.3219  0.6087  0.7638
 5677SOL    HW228494   0.651   3.087   1.864  0.1163  2.5047  0.4941
 5678SOL     OW28495   0.311   2.950   6.159 -0.1737 -0.3343 -0.2300
 5678SOL    HW128496   0.233   2.901   6.134  1.1028 -2.1361 -0.7014
 5678SOL    HW228497   0.377   2.886   6.132  0.2038 -0.0959  0.1408
 5679SOL     OW28498   2.782   0.309  16.154 -0.0153 -0.0891  0.7999
 5679SOL    HW128499   2.855   0.274  16.207 -0.0342 -0.6771  0.4387
 5679SOL    HW228500   2.752   0.230  16.109  1.4329  0.1558 -0.5693
 5680SOL     OW28501   2.239   3.933  12.915  0.3317  0.5950  0.4931
 5680SOL    HW128502   2.175   3.995  12.878  0.3201  0.6147  0.5459
 5680SOL    HW228503   2.310   3.981  12.873  0.0276 -1.5225 -2.4478
 5681SOL     OW28504   2.778   0.667   4.898 -0.6750 -0.1949 -0.1191
 5681SOL    HW128505   2.791   0.629   4.811 -1.2374  1.9069 -1.1283
 5681SOL    HW228506   2.683   0.682   4.896 -0.5116  0.8551  0.2304
 5682SOL     OW28507   3.779   3.950  13.793  0.0606 -0.9550  0.0122
 5682SOL    HW128508   3.705   3.901  13.829  2.4666 -3.1638  2.0651
 5682SOL    HW228509   3.740   4.037  13.792 -0.2043 -1.0804 -0.2810
 5683SOL     OW28510   3.354   2.264   8.381 -0.5336  0.2814  0.8087
 5683SOL    HW128511   3.355   2.215   8.298  0.4336  3.9601 -1.3629
 5683SOL    HW228512   3.261   2.284   8.389 -1.0198 -1.0444 -1.2449
 5684SOL     OW28513   2.489   3.097   4.407  0.4053  0.3867  0.1321
 5684SOL    HW128514   2.571   3.050   4.392 -0.4766 -0.5206 -1.8694
 5684SOL    HW228515   2.499   3.190   4.383 -0.5029  1.0273  2.2783
 5685SOL     OW28516   4.497   0.481  16.419  0.0537  0.4750  0.1358
 5685SOL    HW128517   4.456   0.407  16.373 -0.2593 -0.3503  1.7344
 5685SOL    HW228518   4.542   0.514  16.342  1.3149 -2.7957 -0.5135
 5686SOL     OW28519   4.584   3.770   8.695  0.0929  0.2209 -0.3124
 5686SOL    HW128520   4.557   3.686   8.659 -2.1148 -0.5566  3.2578
 5686SOL    HW228521   4.538   3.779   8.778 -1.6441 -1.6434 -1.0756
 5687SOL     OW28522   2.676   1.935   8.991  0.0583  0.2979 -0.0447
 5687SOL    HW128523   2.746   1.891   9.039  0.9546  2.3736  0.5186
 5687SOL    HW228524   2.661   2.008   9.051 -0.7033  0.1212 -0.0137
 5688SOL     OW28525   0.681   3.954   3.445  0.0241  0.0646 -0.1922
 5688SOL    HW128526   0.699   4.043   3.413 -1.1795  0.2074 -0.4640
 5688SOL    HW228527   0.746   3.953   3.515 -0.0557 -1.0632 -0.1439
 5689SOL     OW28528   0.845   1.089   5.658  0.1140  0.4587  0.4338
 5689SOL    HW128529   0.865   1.182   5.673  1.1135  0.4280 -0.6644
 5689SOL    HW228530   0.763   1.098   5.611 -0.2054  0.8258  1.0598
 5690SOL     OW28531   0.532   4.052   6.745  0.0804 -0.7102 -0.3950
 5690SOL    HW128532   0.582   4.025   6.823  1.0763 -0.0567 -0.8081
 5690SOL    HW228533   0.601   4.076   6.683 -0.4414  1.8651  0.0262
 5691SOL     OW28534   3.074   0.950   3.739  0.1098  1.1434  0.2629
 5691SOL    HW128535   3.048   0.871   3.691  2.5127 -0.7039  2.0054
 5691SOL    HW228536   3.041   0.920   3.823 -1.1850  0.1796 -0.5956
 5692SOL     OW28537   4.159   4.067   4.606 -0.2494 -0.3547  0.4280
 5692SOL    HW128538   4.223   4.095   4.542 -0.8125  0.7228  0.3361
 5692SOL    HW228539   4.093   4.137   4.601  0.1825  0.0618  0.5649
 5693SOL     OW28540   4.515   2.221   5.381 -0.5174  0.4924  0.2234
 5693SOL    HW128541   4.530   2.290   5.446  2.5104 -0.0364  0.1024
 5693SOL    HW228542   4.599   2.204   5.338 -1.0091  0.8745 -0.8944
 5694SOL     OW28543   0.758   4.482   5.672 -0.2724 -0.1750 -0.4149
 5694SOL    HW128544   0.784   4.573   5.671 -2.0531  0.3665  1.3044
 5694SOL    HW228545   0.716   4.472   5.758  1.2399 -0.5870  0.2798
 5695SOL     OW28546   2.370   0.609   5.393 -0.3104  0.5508  0.1875
 5695SOL    HW128547   2.322   0.684   5.357  0.7344  1.0422 -0.1945
 5695SOL    HW228548   2.328   0.550   5.330  3.2692 -0.7066 -1.0125
 5696SOL     OW28549   2.701   4.308  12.112  0.2356 -0.1963  0.3572
 5696SOL    HW128550   2.786   4.335  12.077 -0.6690  2.2603  0.0816
 5696SOL    HW228551   2.677   4.236  12.054  1.8261 -0.1075 -0.3985
 5697SOL     OW28552   1.926   1.054   7.757  0.0586  0.2066  0.4938
 5697SOL    HW128553   1.960   1.004   7.831  0.4010 -0.6000 -0.2010
 5697SOL    HW228554   1.902   0.982   7.699  0.1427  1.4088 -1.0286
 5698SOL     OW28555   4.526   0.651  16.868 -0.2503  0.1206  0.2710
 5698SOL    HW128556   4.601   0.623  16.920 -0.5363  2.5323  1.9839
 5698SOL    HW228557   4.549   0.622  16.780  0.9522 -1.2564  1.0439
 5699SOL     OW28558   0.435   1.728   1.142  0.6895  0.7635  0.6526
 5699SOL    HW128559   0.408   1.815   1.173 -2.2497 -0.6869  2.1733
 5699SOL    HW228560   0.351   1.685   1.132  1.4235 -0.2305 -1.1331
 5700SOL     OW28561   3.954   3.304   2.885 -0.1529  0.0651  0.2283
 5700SOL    HW128562   4.048   3.291   2.897 -0.2645 -1.4751 -0.5269
 5700SOL    HW228563   3.917   3.328   2.970 -2.3190 -0.7734 -0.4828
 5701SOL     OW28564   2.857   1.147  16.152 -0.4694 -0.2326 -0.0498
 5701SOL    HW128565   2.891   1.235  16.139  2.3741 -1.5966 -1.8289
 5701SOL    HW228566   2.877   1.126  16.243  1.4826 -1.3379 -0.7310
 5702SOL     OW28567   4.478   0.174   7.043 -0.0972 -0.4343 -0.3441
 5702SOL    HW128568   4.447   0.105   6.985 -0.0495 -0.8038  0.0688
 5702SOL    HW228569   4.570   0.162   7.021 -0.5507 -1.5824 -1.6207
 5703SOL     OW28570   0.912   3.559   7.452  0.0750  0.0591 -0.1500
 5703SOL    HW128571   0.831   3.610   7.445 -0.2757 -0.1601  2.5622
 5703SOL    HW228572   0.874   3.486   7.502  1.6641 -1.8934 -1.7788
 5704SOL     OW28573   1.277   3.732   5.704  0.1956 -0.4891 -0.1625
 5704SOL    HW128574   1.263   3.653   5.652  1.1010 -1.2517  0.7369
 5704SOL    HW228575   1.210   3.790   5.668  2.1135  0.5660 -2.0446
 5705SOL     OW28576   3.877   2.358   1.803  0.0233 -0.5869  0.0620
 5705SOL    HW128577   3.902   2.267   1.788  0.0357 -0.2386 -2.0091
 5705SOL    HW228578   3.947   2.385   1.863 -0.8154 -1.2813  1.3594
 5706SOL     OW28579   2.933   4.079   0.085 -0.0633  0.3070  0.1227
 5706SOL    HW128580   2.893   4.165   0.070  3.3656  2.4243  3.1357
 5706SOL    HW228581   2.973   4.065  17.680 -1.0111  1.4424 -0.5041
 5707SOL     OW28582   0.397   2.488   7.880 -0.5530  0.0267 -0.0036
 5707SOL    HW128583   0.486   2.488   7.844 -1.1224 -0.1681 -1.4218
 5707SOL    HW228584   0.389   2.578   7.912 -1.7992  0.5508 -1.7655
 5708SOL     OW28585   1.909   1.290   5.651  0.5289  0.0965  0.7854
 5708SOL    HW128586   1.838   1.267   5.591 -0.1530 -2.6460  2.6249
 5708SOL    HW228587   1.868   1.354   5.709 -0.0519  0.2785  0.1665
 5709SOL     OW28588   4.469   0.004  14.175  0.0402 -0.0073 -0.2130
 5709SOL    HW128589   4.533   4.654  14.162  1.7699  1.2821  1.4044
 5709SOL    HW228590   4.395   4.678  14.215  0.8095  0.2458  1.4853
 5710SOL     OW28591   2.235   3.279  10.631 -0.0797 -0.4134 -0.2512
 5710SOL    HW128592   2.289   3.242  10.562 -0.2965 -0.8130 -0.2119
 5710SOL    HW228593   2.273   3.240  10.710  0.0666 -2.7446 -1.4801
 5711SOL     OW28594   1.916   1.837  10.152  0.2445 -0.1949 -0.1073
 5711SOL    HW128595   1.971   1.769  10.192 -0.0783  0.2172  1.0471
 5711SOL    HW228596   1.971   1.894  10.099  2.3569 -1.4388  0.7760
 5712SOL     OW28597   0.948   2.346   0.945  0.3863  0.6703  0.4706
 5712SOL    HW128598   1.041   2.367   0.934 -0.2490  1.9671 -2.3976
 5712SOL    HW228599   0.922   2.434   0.972  2.4335  1.0946  1.0900
 5713SOL     OW28600   3.971   1.781   8.865 -0.0339  0.0778 -0.2278
 5713SOL    HW128601   3.888   1.746   8.896  0.0246 -1.0850 -1.4028
 5713SOL    HW228602   4.011   1.704   8.823  0.5893  0.0208  0.4521
 5714SOL     OW28603   1.062   1.774   1.958 -0.3199  0.0983 -0.1535
 5714SOL    HW128604   0.985   1.757   1.903 -0.4219 -0.7996  0.2724
 5714SOL    HW228605   1.122   1.701   1.945  0.4328  0.5726  0.6454
 5715SOL     OW28606   3.706   3.413  11.831 -0.3164  0.2436  0.0127
 5715SOL    HW128607   3.759   3.414  11.751  1.0828 -1.2709  0.9006
 5715SOL    HW228608   3.732   3.494  11.877 -0.5023 -0.7994  1.9754
 5716SOL     OW28609   0.552   4.489   7.764  0.4280  0.4303  0.6751
 5716SOL    HW128610   0.580   4.408   7.806 -2.8940 -0.2137  1.6433
 5716SOL    HW228611   0.507   4.450   7.689 -0.7301  2.2754  0.3930
 5717SOL     OW28612   2.296   2.686  11.071  0.3553  0.7600  0.1439
 5717SOL    HW128613   2.214   2.643  11.050  0.8293  0.2694 -0.7040
 5717SOL    HW228614   2.286   2.760  11.012 -0.6673  1.0315  0.6582
 5718SOL     OW28615   3.162   2.106   4.746  0.3564 -0.6654  0.0340
 5718SOL    HW128616   3.221   2.112   4.671  0.5011  0.2164  0.2159
 5718SOL    HW228617   3.146   2.012   4.754  0.4135 -0.5379  1.6193
 5719SOL     OW28618   0.409   0.088  14.399 -0.6902 -0.2992  0.5565
 5719SOL    HW128619   0.476   0.021  14.381 -3.6029 -3.1469  0.2885
 5719SOL    HW228620   0.416   0.132  14.315  1.0039  0.6218  1.1969
 5720SOL     OW28621   1.799   0.113  16.540 -0.2567  0.4175 -0.5818
 5720SOL    HW128622   1.735   0.173  16.577 -0.2939  0.7352 -1.1654
 5720SOL    HW228623   1.882   0.155  16.561  0.5741 -1.2551 -0.4734
 5721SOL     OW28624   0.878   1.795  13.041 -0.5960  0.3750 -0.3445
 5721SOL    HW128625   0.821   1.760  13.110  0.1865 -1.2525 -0.5161
 5721SOL    HW228626   0.879   1.885  13.071  1.8300 -1.3832  4.8637
 5722SOL     OW28627   1.647   1.243   5.033  0.2541 -0.4170  0.4027
 5722SOL    HW128628   1.695   1.305   4.978 -1.8732  0.6016 -0.2918
 5722SOL    HW228629   1.561   1.236   4.992  1.1967 -1.7740 -1.3482
 5723SOL     OW28630   1.515   3.718  13.925  0.4967  0.6289 -0.6478
 5723SOL    HW128631   1.488   3.630  13.953  0.8071  0.3230 -1.2956
 5723SOL    HW228632   1.500   3.777  13.999  2.9729  0.2904  0.1314
 5724SOL     OW28633   0.910   1.842  12.416 -0.8471  0.2626 -0.0066
 5724SOL    HW128634   0.849   1.839  12.490 -1.6082  1.5856 -0.5713
 5724SOL    HW228635   0.974   1.774  12.435 -0.3880  0.9366  0.8394
 5725SOL     OW28636   3.572   1.572   2.963  0.1590 -0.6082  0.5827
 5725SOL    HW128637   3.503   1.524   2.916  0.4164 -3.1832  2.8612
 5725SOL    HW228638   3.602   1.501   3.020 -0.9711  0.7017  2.7515
 5726SOL     OW28639   3.504   1.949   4.962 -0.2122 -0.2281 -0.1619
 5726SOL    HW128640   3.438   1.880   4.958  0.3026 -0.6444 -1.3184
 5726SOL    HW228641   3.533   1.938   5.053 -1.4919  0.7393  0.3686
 5727SOL     OW28642   4.441   1.506  14.611 -0.3469  0.1308  0.5507
 5727SOL    HW128643   4.446   1.562  14.533  1.3279 -2.4871 -1.1976
 5727SOL    HW228644   4.509   1.552  14.661  0.1129  0.6386 -0.5313
 5728SOL     OW28645   2.984   2.837   7.528  0.4937 -0.6148  0.1780
 5728SOL    HW128646   3.002   2.930   7.511  0.0802 -0.3319  1.3126
 5728SOL    HW228647   2.938   2.815   7.447  1.4590 -0.7497 -0.3367
 5729SOL     OW28648   0.645   2.054  13.348 -0.1986 -0.6205  0.3472
 5729SOL    HW128649   0.576   1.987  13.345  0.4518 -1.1180 -3.3168
 5729SOL    HW228650   0.608   2.126  13.298 -0.1707  1.1883  2.9235
 5730SOL     OW28651   0.391   4.302  11.536  0.4200  0.3325 -0.6183
 5730SOL    HW128652   0.431   4.279  11.620  0.1225 -0.0412 -0.5759
 5730SOL    HW228653   0.298   4.285  11.549  0.4524  1.9877  1.6476
 5731SOL     OW28654   4.001   1.258   7.184  0.0462 -0.2058  0.6066
 5731SOL    HW128655   4.031   1.230   7.271 -1.2904  0.7142  1.3819
 5731SOL    HW228656   3.911   1.228   7.201 -0.0016 -0.8769 -0.8967
 5732SOL     OW28657   2.155   1.418   5.636 -0.0985  0.1381  0.2274
 5732SOL    HW128658   2.062   1.396   5.645  0.1140  0.1368  2.3560
 5732SOL    HW228659   2.187   1.329   5.655  0.9266  0.3394 -0.5185
 5733SOL     OW28660   0.973   2.732   7.492 -0.3376 -0.2524 -0.2496
 5733SOL    HW128661   1.017   2.817   7.500  0.5857 -0.7556  0.0300
 5733SOL    HW228662   1.051   2.684   7.464  0.4105  0.6316  0.3530
 5734SOL     OW28663   4.671   2.462  12.262  0.1973  0.5347 -0.1990
 5734SOL    HW128664   4.669   2.530  12.330 -0.9725  0.5127 -0.2096
 5734SOL    HW228665   4.642   2.387  12.314 -2.0159  1.2283 -0.4290
 5735SOL     OW28666   1.199   0.563   5.400  0.2750  0.1604 -0.2039
 5735SOL    HW128667   1.252   0.562   5.320  1.2254 -2.9534  0.4824
 5735SOL    HW228668   1.247   0.491   5.442  0.8126  1.1629  0.9112
 5736SOL     OW28669   3.514   3.348  14.038 -0.3893 -0.3057 -0.3535
 5736SOL    HW128670   3.500   3.289  14.112  0.5299 -0.2128 -0.1074
 5736SOL    HW228671   3.424   3.373  14.016 -0.3906 -0.8312 -0.9508
 5737SOL     OW28672   4.673   2.317   2.054  0.0893  0.1630 -0.2319
 5737SOL    HW128673   4.620   2.310   2.133  0.1886  2.0031  0.0041
 5737SOL    HW228674   4.629   2.383   2.001  0.1588  0.5731  0.2209
 5738SOL     OW28675   0.606   4.674   2.094  0.0656 -0.3375 -0.2113
 5738SOL    HW128676   0.643   0.042   2.107 -0.7001  0.1077 -1.0084
 5738SOL    HW228677   0.646   4.628   2.168  0.1247 -0.3912 -0.2760
 5739SOL     OW28678   4.446   3.319   6.950  0.0048  0.6142  0.0035
 5739SOL    HW128679   4.352   3.304   6.949  0.5494 -2.8266  0.0172
 5739SOL    HW228680   4.444   3.414   6.940  0.1161  0.6303  0.1280
 5740SOL     OW28681   2.495   4.336   2.084  0.2877 -0.0015  0.7196
 5740SOL    HW128682   2.539   4.403   2.033  1.3039 -2.2153 -1.3268
 5740SOL    HW228683   2.425   4.306   2.026  2.0209 -2.4668 -0.1164
 5741SOL     OW28684   0.828   3.960   2.879 -0.1611 -0.2472  0.1325
 5741SOL    HW128685   0.836   4.043   2.832  0.1758 -0.5351 -0.3230
 5741SOL    HW228686   0.843   3.896   2.810 -0.0351  0.2932 -0.3363
 5742SOL     OW28687   0.279   4.451   7.193  0.3839 -0.0424 -0.0981
 5742SOL    HW128688   0.353   4.505   7.221 -0.1298  0.8228 -0.4141
 5742SOL    HW228689   0.320   4.375   7.151 -0.5707 -0.6428  0.0538
 5743SOL     OW28690   4.094   2.741   4.807 -0.0496  0.1715 -0.7473
 5743SOL    HW128691   4.041   2.769   4.881 -0.4542 -1.0563 -0.5716
 5743SOL    HW228692   4.128   2.827   4.784 -0.0511  1.0080  2.5149
 5744SOL     OW28693   4.298   4.206   6.186 -0.1111  0.1803 -0.1281
 5744SOL    HW128694   4.389   4.184   6.204  0.1831  0.3373 -1.4456
 5744SOL    HW228695   4.261   4.118   6.181  2.0071 -0.7612  0.7827
 5745SOL     OW28696   2.531   0.383   5.703  0.1195 -0.2347  0.1877
 5745SOL    HW128697   2.563   0.404   5.615 -0.4735  1.4907  0.3891
 5745SOL    HW228698   2.598   0.427   5.754  2.9247  0.7768 -4.3567
 5746SOL     OW28699   2.953   3.465  10.483  0.0587 -0.3821  0.1331
 5746SOL    HW128700   2.877   3.429  10.529 -0.1517  1.2435  1.0596
 5746SOL    HW228701   3.012   3.390  10.471  0.6485 -0.0251  0.8246
 5747SOL     OW28702   2.515   0.098   5.754 -0.5467 -0.1033 -0.5488
 5747SOL    HW128703   2.505   0.191   5.773 -1.7469 -0.6505  1.4885
 5747SOL    HW228704   2.607   0.074   5.763 -0.5002  0.5394  0.6095
 5748SOL     OW28705   1.938   0.879  11.617  0.0051 -0.0851 -0.3095
 5748SOL    HW128706   1.951   0.895  11.710 -0.1567  1.4930 -0.5600
 5748SOL    HW228707   2.029   0.897  11.594 -0.7263  1.9882 -1.5729
 5749SOL     OW28708   4.718   0.235   2.254 -0.0936 -0.0009 -0.7407
 5749SOL    HW128709   0.026   0.325   2.273  0.9075 -0.4837  0.0721
 5749SOL    HW228710   4.637   0.255   2.207 -0.4582  0.8331  0.2272
 5750SOL     OW28711   4.002   3.911   2.655 -0.1724  0.4625  0.5422
 5750SOL    HW128712   4.083   3.888   2.699  0.3706  0.0108 -0.6778
 5750SOL    HW228713   3.947   3.834   2.673  0.1362 -0.2354 -1.4219
 5751SOL     OW28714   4.225   4.122   7.663  0.4333 -0.3359  0.2465
 5751SOL    HW128715   4.131   4.114   7.683  0.2228  0.4889 -0.4008
 5751SOL    HW228716   4.254   4.170   7.740 -2.4951  0.6897  0.7174
 5752SOL     OW28717   2.431   1.852   8.213 -0.0049  0.6336  0.5687
 5752SOL    HW128718   2.394   1.824   8.129  0.1593  2.6595 -0.1594
 5752SOL    HW228719   2.499   1.785   8.222 -1.6858 -1.3462 -1.2501
 5753SOL     OW28720   2.801   3.892  10.206 -0.0678  0.5695 -0.1356
 5753SOL    HW128721   2.824   3.882  10.299 -1.5233 -1.9612 -0.0550
 5753SOL    HW228722   2.726   3.950  10.218  0.5250  1.0549  1.2935
 5754SOL     OW28723   3.446   1.321   8.994  0.2608 -0.3473  0.7128
 5754SOL    HW128724   3.405   1.335   8.909 -0.0643 -2.7446  0.4716
 5754SOL    HW228725   3.382   1.260   9.032 -1.4245  0.9030 -0.1631
 5755SOL     OW28726   3.338   4.386   3.587  0.5443 -0.0831  0.5744
 5755SOL    HW128727   3.314   4.438   3.663  1.1981  0.7225  0.2242
 5755SOL    HW228728   3.259   4.390   3.533  0.9754  0.5410 -0.0053
 5756SOL     OW28729   4.215   1.403   1.835  0.0986  0.4152 -0.8607
 5756SOL    HW128730   4.264   1.329   1.799 -0.2512 -1.4413  2.5151
 5756SOL    HW228731   4.130   1.381   1.797 -0.6781 -0.4854  1.3986
 5757SOL     OW28732   4.348   0.451   2.810  0.3048  0.2793  0.4866
 5757SOL    HW128733   4.387   0.366   2.829  0.9151  0.3960 -0.2237
 5757SOL    HW228734   4.265   0.416   2.777  1.0087 -1.1348  0.2164
 5758SOL     OW28735   2.554   0.796  16.019  0.4975 -0.3212  0.3064
 5758SOL    HW128736   2.588   0.713  15.984  3.2859  0.5011  1.0451
 5758SOL    HW228737   2.621   0.855  15.985  1.0023 -1.0237  0.0791
 5759SOL     OW28738   3.110   3.499   9.270  0.0182  0.3803  0.4474
 5759SOL    HW128739   3.028   3.537   9.300  1.3233  0.1774  4.2783
 5759SOL    HW228740   3.103   3.425   9.330 -2.7748 -0.6893 -1.1975
 5760SOL     OW28741   3.039   3.034   1.491 -0.1044  0.5248 -0.4379
 5760SOL    HW128742   3.059   2.966   1.556  1.5657  0.2315 -1.2660
 5760SOL    HW228743   3.007   2.977   1.421  0.3574 -0.3052  0.0291
 5761SOL     OW28744   4.299   3.199   0.607 -0.2550 -1.0687 -0.4392
 5761SOL    HW128745   4.325   3.270   0.548 -1.7272 -0.5765 -0.5010
 5761SOL    HW228746   4.238   3.150   0.552  0.0194 -0.6940 -1.0787
 5762SOL     OW28747   3.128   2.271  11.041  0.2425 -0.2446 -0.1931
 5762SOL    HW128748   3.165   2.185  11.021  0.5951 -0.2752  0.5834
 5762SOL    HW228749   3.128   2.316  10.957  0.0254 -0.6090 -0.3888
 5763SOL     OW28750   4.054   2.418  15.442  0.3968  0.2981 -0.6636
 5763SOL    HW128751   4.133   2.470  15.453 -0.1249  0.7626  0.8162
 5763SOL    HW228752   3.998   2.492  15.418  1.3033  0.3308 -2.6861
 5764SOL     OW28753   3.360   2.943   4.672 -0.1068  0.0442  0.4372
 5764SOL    HW128754   3.407   2.862   4.695  3.0279  1.5732 -0.5526
 5764SOL    HW228755   3.279   2.904   4.640 -0.9700  0.1485  2.5136
 5765SOL     OW28756   1.944   3.354   0.128 -0.1586 -0.4562 -0.1019
 5765SOL    HW128757   1.963   3.290   0.059 -3.1117 -1.1397 -0.2512
 5765SOL    HW228758   1.963   3.434   0.080 -0.7279 -0.0602  0.3376
 5766SOL     OW28759   1.169   1.830  13.197 -0.2350 -0.2325  0.1916
 5766SOL    HW128760   1.137   1.866  13.280 -0.1436  5.0187 -2.0355
 5766SOL    HW228761   1.197   1.744  13.226  3.4921  0.8986 -0.0177
 5767SOL     OW28762   1.448   3.830   5.862 -0.2130  0.2392  0.7826
 5767SOL    HW128763   1.514   3.768   5.830 -0.7227 -0.4831  1.1246
 5767SOL    HW228764   1.370   3.798   5.817  1.7175 -0.0310 -2.4240
 5768SOL     OW28765   0.331   2.538  15.928  0.1106 -0.0555  0.6771
 5768SOL    HW128766   0.390   2.464  15.937 -0.5026 -0.5754  0.3968
 5768SOL    HW228767   0.293   2.511  15.844  1.0800  0.5723  0.0389
 5769SOL     OW28768   3.341   1.790   7.003  0.1156 -0.1396  0.1989
 5769SOL    HW128769   3.361   1.883   7.003  1.8459 -0.5132 -0.3037
 5769SOL    HW228770   3.251   1.785   6.971  0.4750 -1.3635 -0.6235
 5770SOL     OW28771   2.198   2.399   6.339 -0.2817  0.2670 -0.4180
 5770SOL    HW128772   2.210   2.405   6.434  1.4535  2.5576 -0.7839
 5770SOL    HW228773   2.102   2.404   6.335 -0.4249 -1.1827  1.0044
 5771SOL     OW28774   1.249   3.008   4.774  0.3258  0.2223 -0.3163
 5771SOL    HW128775   1.161   2.980   4.751  0.2766  1.2494 -1.3867
 5771SOL    HW228776   1.235   3.095   4.812 -1.4596 -1.1316  2.1091
 5772SOL     OW28777   0.426   3.651  14.348  0.6226 -0.0730 -0.9130
 5772SOL    HW128778   0.494   3.643  14.415  0.1741  1.1789 -0.2980
 5772SOL    HW228779   0.415   3.559  14.325 -2.3998  0.3857 -1.2917
 5773SOL     OW28780   4.367   0.372   9.043 -0.2516  0.0416  0.6117
 5773SOL    HW128781   4.363   0.276   9.050 -1.3269 -0.0619 -1.2667
 5773SOL    HW228782   4.281   0.401   9.075  0.4989  1.8895  0.9288
 5774SOL     OW28783   1.835   0.007  10.018  0.2458 -0.0730  0.1664
 5774SOL    HW128784   1.922   4.707  10.051 -0.0418 -2.0929 -0.2862
 5774SOL    HW228785   1.813   4.654   9.960 -2.4365  0.0010  1.0704
 5775SOL     OW28786   4.016   3.548   2.067  0.3613 -0.4079  0.1793
 5775SOL    HW128787   3.997   3.642   2.071  1.2759 -0.1407 -1.3828
 5775SOL    HW228788   4.103   3.546   2.108  1.1979 -0.2832 -1.5547
 5776SOL     OW28789   2.737   1.508   7.188 -0.0703  0.1816 -0.1980
 5776SOL    HW128790   2.796   1.530   7.116 -0.3500 -0.2428 -0.5581
 5776SOL    HW228791   2.749   1.419   7.219 -2.6691 -0.2511 -0.3672
 5777SOL     OW28792   0.152   1.609   6.901 -0.4687  0.3107  0.1341
 5777SOL    HW128793   0.160   1.573   6.813 -0.1577 -1.3507  0.8512
 5777SOL    HW228794   0.233   1.572   6.938 -0.4393  0.2170 -0.0226
 5778SOL     OW28795   1.749   3.440   7.095 -0.0205  0.0189  0.0653
 5778SOL    HW128796   1.814   3.425   7.026  0.8950 -1.3540  1.2294
 5778SOL    HW228797   1.674   3.402   7.050  0.6849 -1.7287  0.3656
 5779SOL     OW28798   4.411   4.189   4.132  0.2490  0.0538 -0.0730
 5779SOL    HW128799   4.317   4.172   4.136  0.0121  0.9702 -1.9042
 5779SOL    HW228800   4.417   4.284   4.123  2.5513  0.1373  2.2044
 5780SOL     OW28801   0.422   1.650   3.059 -0.0427 -0.2167  0.4303
 5780SOL    HW128802   0.411   1.677   2.968  0.6279  0.1391  0.4577
 5780SOL    HW228803   0.350   1.587   3.063  1.1173 -1.5252  0.6980
 5781SOL     OW28804   3.750   3.662  11.974 -0.1897  0.0208 -0.3866
 5781SOL    HW128805   3.695   3.740  11.979  0.9713  0.6034  3.1794
 5781SOL    HW228806   3.779   3.662  12.065  0.5219  0.7362 -0.6227
 5782SOL     OW28807   1.472   0.946   8.713 -0.2500 -0.0154  0.0273
 5782SOL    HW128808   1.389   0.981   8.681 -0.7858 -0.6079  0.7746
 5782SOL    HW228809   1.502   1.024   8.759 -1.4020 -0.1603  1.0176
 5783SOL     OW28810   1.611   0.904  16.924  0.0205 -0.0609  0.0394
 5783SOL    HW128811   1.608   0.809  16.913 -2.8455  0.0096  0.2631
 5783SOL    HW228812   1.612   0.914  17.019 -0.5952  0.5907 -0.0181
 5784SOL     OW28813   1.219   0.854   0.749  0.2443  0.1447  0.1829
 5784SOL    HW128814   1.156   0.788   0.720  0.5293  0.0346 -0.1852
 5784SOL    HW228815   1.193   0.930   0.696  1.0691 -0.1937 -0.7060
 5785SOL     OW28816   2.227   0.464   5.654 -0.0578  0.2735  0.6547
 5785SOL    HW128817   2.253   0.539   5.601 -2.3016  1.0674  0.7252
 5785SOL    HW228818   2.308   0.414   5.665  0.5095  1.2101  0.7634
 5786SOL     OW28819   2.038   3.858   5.044  0.0186 -0.4518 -0.4583
 5786SOL    HW128820   2.001   3.888   5.127  1.9164 -0.0350  0.2362
 5786SOL    HW228821   2.015   3.927   4.982 -0.6996 -0.4903 -0.2361
 5787SOL     OW28822   0.843   4.562   8.602  0.0393 -0.7499  0.2778
 5787SOL    HW128823   0.787   4.545   8.527  0.7360  0.1325 -0.4405
 5787SOL    HW228824   0.797   4.623   8.660 -3.7946 -2.2231 -1.2149
 5788SOL     OW28825   4.364   3.738   2.399  0.0981 -0.0230 -0.2745
 5788SOL    HW128826   4.292   3.715   2.458 -0.6388  1.0487 -0.7581
 5788SOL    HW228827   4.363   3.833   2.406  0.4018  0.0161 -0.7847
 5789SOL     OW28828   1.943   0.215  15.808 -0.6996  0.6100 -0.0698
 5789SOL    HW128829   1.960   0.178  15.894  0.4813  1.9564  0.2844
 5789SOL    HW228830   1.850   0.204  15.789 -0.7910  1.0572  0.1228
 5790SOL     OW28831   3.629   1.773   8.420 -0.1628 -0.9612 -0.0239
 5790SOL    HW128832   3.659   1.683   8.404  2.8353  0.1562 -0.6799
 5790SOL    HW228833   3.707   1.812   8.457 -0.3792 -1.1186  0.5963
 5791SOL     OW28834   4.275   3.915   4.285 -0.0890  0.3944 -0.1645
 5791SOL    HW128835   4.360   3.895   4.245 -0.5496 -0.5318 -0.6659
 5791SOL    HW228836   4.311   3.938   4.371  0.8397 -2.4965  0.2376
 5792SOL     OW28837   2.705   0.252   7.573 -1.3308  0.6299 -0.2744
 5792SOL    HW128838   2.700   0.272   7.666  2.5988  0.9278 -0.1256
 5792SOL    HW228839   2.683   0.340   7.541 -1.5162  0.8413  0.4435
 5793SOL     OW28840   2.696   3.410  10.616 -0.5488  0.3619 -0.3041
 5793SOL    HW128841   2.627   3.472  10.593  0.4417  1.3794 -0.5503
 5793SOL    HW228842   2.712   3.428  10.708  2.2363  1.3430 -0.9702
 5794SOL     OW28843   2.066   0.179  14.165  0.5578  0.0367  0.0407
 5794SOL    HW128844   1.983   0.197  14.209  0.5918 -0.1850  0.1950
 5794SOL    HW228845   2.052   0.200  14.072 -0.6137  1.1423  0.4549
 5795SOL     OW28846   3.991   4.641  10.534  0.6213 -0.0588 -0.2069
 5795SOL    HW128847   3.987   4.681  10.621 -1.9422  0.6210 -0.6469
 5795SOL    HW228848   3.903   4.611  10.512  1.9170 -2.9370 -1.4282
 5796SOL     OW28849   2.443   4.661   5.551 -0.5088 -0.4926  0.3744
 5796SOL    HW128850   2.514   4.692   5.494  0.3981 -1.6040  0.9157
 5796SOL    HW228851   2.454   4.717   5.628 -0.8259  0.2562 -0.1181
 5797SOL     OW28852   1.404   0.831   9.079  0.4541 -0.0850  0.1495
 5797SOL    HW128853   1.403   0.926   9.096 -0.0070 -0.1348  0.4019
 5797SOL    HW228854   1.359   0.836   8.995 -0.6996 -0.0915  0.7581
 5798SOL     OW28855   2.607   3.837   2.255  0.3896  0.1117  0.1540
 5798SOL    HW128856   2.599   3.932   2.264 -1.9751 -0.4489  3.9389
 5798SOL    HW228857   2.557   3.798   2.326 -1.0401  1.8589  0.1106
 5799SOL     OW28858   1.107   2.477   7.101 -0.5106  0.3516  0.3329
 5799SOL    HW128859   1.050   2.532   7.046  0.1380 -1.3318 -2.0213
 5799SOL    HW228860   1.065   2.487   7.186  0.3331  0.5091  0.7242
 5800SOL     OW28861   0.015   2.152   5.212 -0.0332 -0.5851 -0.5564
 5800SOL    HW128862   0.079   2.223   5.218  0.1841 -0.7836 -0.5316
 5800SOL    HW228863   4.690   2.171   5.130 -2.8584 -0.1665  1.0686
 5801SOL     OW28864   4.716   3.044   1.911 -0.3003  0.4066 -0.3447
 5801SOL    HW128865   4.633   3.001   1.932 -0.8153  1.5671 -0.0099
 5801SOL    HW228866   4.692   3.119   1.858  0.6529  1.0891  0.1897
 5802SOL     OW28867   2.508   3.170   7.979 -0.1544 -0.2813 -0.4814
 5802SOL    HW128868   2.506   3.261   8.009 -1.6636 -0.0375 -1.3285
 5802SOL    HW228869   2.600   3.161   7.957  0.0721  0.8031  0.0105
 5803SOL     OW28870   4.229   1.898  13.945 -0.1443 -0.0263 -0.2059
 5803SOL    HW128871   4.251   1.920  14.036 -1.0655 -2.8088  0.7114
 5803SOL    HW228872   4.162   1.964  13.929 -1.1128 -1.2256 -1.1275
 5804SOL     OW28873   0.941   3.442   6.458  0.0892  0.8964 -0.2755
 5804SOL    HW128874   1.013   3.432   6.521  0.3681  0.0349 -0.7314
 5804SOL    HW228875   0.991   3.464   6.380  2.0213  2.0657  1.2817
 5805SOL     OW28876   2.909   3.598  14.138  0.1149 -0.2539 -0.0820
 5805SOL    HW128877   2.909   3.573  14.231  0.9425 -0.1408 -0.0474
 5805SOL    HW228878   2.842   3.540  14.102  0.7624 -1.7689  1.1107
 5806SOL     OW28879   1.993   4.552   2.487 -0.0734  0.0089 -0.1139
 5806SOL    HW128880   2.015   4.538   2.579 -1.6318 -0.2086  0.2216
 5806SOL    HW228881   1.949   4.469   2.470  1.7774 -1.3647  1.8152
 5807SOL     OW28882   4.430   3.249   2.989 -0.1226  0.0364  0.0473
 5807SOL    HW128883   4.477   3.171   2.959 -1.1068  0.6143 -2.9692
 5807SOL    HW228884   4.344   3.248   2.946 -1.3123 -2.7356  2.4460
 5808SOL     OW28885   1.260   0.523   7.224  0.0295  0.5501 -0.0413
 5808SOL    HW128886   1.203   0.519   7.301 -0.6238  0.1384 -0.5530
 5808SOL    HW228887   1.305   0.604   7.250 -0.8415  1.0651 -0.1404
 5809SOL     OW28888   2.445   0.711  13.606 -0.5831 -0.1173 -0.0776
 5809SOL    HW128889   2.449   0.615  13.603  0.0410 -0.0989  0.1766
 5809SOL    HW228890   2.389   0.739  13.678 -0.9944 -1.6825  0.2074
 5810SOL     OW28891   1.019   4.460   7.061 -0.1477  0.0624  0.3102
 5810SOL    HW128892   0.939   4.428   7.103  0.2469  0.5564  1.4301
 5810SOL    HW228893   1.039   4.533   7.119 -2.3861 -0.0050  1.1759
 5811SOL     OW28894   2.075   4.602   8.126  0.0462 -0.1851 -0.3728
 5811SOL    HW128895   2.101   4.567   8.211 -0.2677 -1.5818 -0.8666
 5811SOL    HW228896   2.054   4.518   8.086 -0.8984 -0.6433  1.1092
 5812SOL     OW28897   4.605   3.268   9.402 -0.0951 -0.0899  0.0255
 5812SOL    HW128898   4.607   3.329   9.475 -0.9114 -0.5128  0.4066
 5812SOL    HW228899   4.572   3.195   9.455  0.6371 -0.3630  0.1066
 5813SOL     OW28900   2.514   3.312   0.573  0.3800 -0.5502 -0.4391
 5813SOL    HW128901   2.583   3.378   0.583 -0.2990  0.0655  0.2042
 5813SOL    HW228902   2.562   3.242   0.618  0.5045 -0.9166 -1.1348
 5814SOL     OW28903   2.058   3.666   5.304 -0.0110 -0.2985  0.0109
 5814SOL    HW128904   2.068   3.644   5.396  0.3931  0.3805  0.1240
 5814SOL    HW228905   2.019   3.753   5.310  2.0540  0.6571 -0.3738
 5815SOL     OW28906   2.468   4.119   7.986 -0.7121 -0.1302  0.1567
 5815SOL    HW128907   2.559   4.089   7.984 -1.2248 -1.6133 -1.0601
 5815SOL    HW228908   2.444   4.102   7.894 -0.3697  0.1853  0.0129
 5816SOL     OW28909   0.771   0.990   3.281  0.1112  0.2981 -0.0574
 5816SOL    HW128910   0.707   1.058   3.299  0.2633  0.7227 -1.1450
 5816SOL    HW228911   0.849   1.030   3.320 -1.6163  3.0091  0.5601
 5817SOL     OW28912   3.170   0.771   5.929  0.3531 -0.6036 -0.9142
 5817SOL    HW128913   3.264   0.765   5.945  0.2798 -0.4726 -0.4362
 5817SOL    HW228914   3.129   0.756   6.014  1.3433 -0.1640 -0.3600
 5818SOL     OW28915   2.496   2.112   8.595 -0.4976  0.3473  0.9432
 5818SOL    HW128916   2.476   2.115   8.501  1.1547 -1.3037  0.5442
 5818SOL    HW228917   2.542   2.030   8.611  1.3069  0.7646 -2.0020
 5819SOL     OW28918   4.327   2.259   8.638  0.0481 -0.8694  0.2673
 5819SOL    HW128919   4.357   2.236   8.550  2.6492  0.3698  0.8213
 5819SOL    HW228920   4.407   2.296   8.676 -0.2190  0.0943 -0.1064
 5820SOL     OW28921   3.593   2.309   3.833  0.3620 -0.2207  0.1535
 5820SOL    HW128922   3.642   2.384   3.866  0.3140 -0.4236  0.6812
 5820SOL    HW228923   3.595   2.327   3.739 -0.0957  1.0817  0.3927
 5821SOL     OW28924   1.863   0.037   1.444 -0.1659 -0.0603  0.2921
 5821SOL    HW128925   1.894   0.085   1.521  1.5719  0.0129 -0.4502
 5821SOL    HW228926   1.837   0.110   1.388  0.5980  0.0855  0.1262
 5822SOL     OW28927   0.995   4.696  11.470  0.6644 -0.4301  0.0445
 5822SOL    HW128928   1.002   4.702  11.375  0.4909 -2.1934 -0.0809
 5822SOL    HW228929   1.037   0.058  11.497  0.9906 -0.9881  1.2094
 5823SOL     OW28930   2.270   1.431   6.414  0.3661  0.3459  0.3799
 5823SOL    HW128931   2.273   1.492   6.487  0.8691  0.4119  0.3062
 5823SOL    HW228932   2.336   1.375   6.453  0.5093  1.0850  1.2058
 5824SOL     OW28933   3.076   1.217  11.111  0.1896 -0.4492  0.6258
 5824SOL    HW128934   3.090   1.130  11.148  2.0154 -0.7029 -0.6816
 5824SOL    HW228935   2.986   1.241  11.134  0.3590 -0.6093  1.4578
 5825SOL     OW28936   1.897   4.300   2.444 -0.3559  0.1699  0.2546
 5825SOL    HW128937   1.818   4.332   2.401  0.9496  1.9824 -0.7977
 5825SOL    HW228938   1.927   4.249   2.369  0.3406  0.6178  0.2218
 5826SOL     OW28939   1.783   2.815   7.816  0.0057  0.2619 -0.7067
 5826SOL    HW128940   1.785   2.901   7.774  0.2873  1.2911  1.3902
 5826SOL    HW228941   1.850   2.823   7.884 -0.4188  0.0574 -0.2666
 5827SOL     OW28942   4.476   2.138  12.111 -0.0497 -0.3575  0.5911
 5827SOL    HW128943   4.559   2.092  12.121 -1.4972 -2.6635  2.0773
 5827SOL    HW228944   4.444   2.090  12.034 -1.3515 -0.2153  1.0336
 5828SOL     OW28945   3.560   2.602   7.819  0.1200  0.0365  0.2866
 5828SOL    HW128946   3.541   2.552   7.739  0.9005  0.4824 -0.1766
 5828SOL    HW228947   3.486   2.663   7.820 -1.5963 -2.0875  2.2671
 5829SOL     OW28948   1.366   3.108  15.459  0.2572 -0.4821 -0.4299
 5829SOL    HW128949   1.391   3.188  15.505 -0.0698 -1.6124  1.7141
 5829SOL    HW228950   1.290   3.073  15.505  0.3563  2.0713  1.6654
 5830SOL     OW28951   4.322   4.531   3.612 -0.1945 -0.0375 -0.7908
 5830SOL    HW128952   4.256   4.593   3.582 -0.5044 -1.2226 -2.5487
 5830SOL    HW228953   4.361   4.503   3.530  0.6835 -4.9084  1.2776
 5831SOL     OW28954   0.764   0.699   3.928  0.3160  0.1835 -0.5544
 5831SOL    HW128955   0.744   0.608   3.948 -0.4553  0.4796  0.0078
 5831SOL    HW228956   0.717   0.711   3.845  1.1425  0.0059 -1.0552
 5832SOL     OW28957   4.269   1.539   8.544  0.3033 -0.0459  0.5128
 5832SOL    HW128958   4.321   1.595   8.602 -0.5323  0.1089  1.1280
 5832SOL    HW228959   4.256   1.595   8.467  0.7417 -1.1125 -0.3313
 5833SOL     OW28960   0.561   3.920   2.051  0.4029 -0.8763 -0.3393
 5833SOL    HW128961   0.578   4.014   2.054  1.0146 -1.0267  1.2912
 5833SOL    HW228962   0.597   3.895   2.137  2.1353  1.2986 -0.4436
 5834SOL     OW28963   2.060   0.235   6.422 -0.4174  0.6473 -0.0366
 5834SOL    HW128964   1.987   0.222   6.481  0.5421  1.0032  1.2309
 5834SOL    HW228965   2.086   0.144   6.410 -0.3321  0.2104  3.5314
 5835SOL     OW28966   3.450   1.960  15.612  0.3434  0.1502 -0.4905
 5835SOL    HW128967   3.542   1.946  15.593  0.5190  1.8038 -0.8668
 5835SOL    HW228968   3.414   1.956  15.523  0.2010 -0.6151 -0.3971
 5836SOL     OW28969   4.403   0.281  14.134 -0.3332  1.2962  0.1175
 5836SOL    HW128970   4.407   0.186  14.149  0.2921  1.2969 -0.0108
 5836SOL    HW228971   4.457   0.273  14.056 -2.1132 -1.7940 -0.8051
 5837SOL     OW28972   2.378   2.292   4.676 -0.3005  0.4825 -0.0115
 5837SOL    HW128973   2.384   2.381   4.640  3.0459  0.4829  0.5965
 5837SOL    HW228974   2.445   2.296   4.744  1.4683 -0.7546 -1.6965
 5838SOL     OW28975   0.403   2.608  12.758 -0.0023 -0.1513 -0.3984
 5838SOL    HW128976   0.446   2.538  12.709  0.4320  0.1127 -0.3982
 5838SOL    HW228977   0.477   2.663  12.784  1.2834 -2.1595  0.2195
 5839SOL     OW28978   3.428   4.421   6.226  0.8049 -0.7251  0.4971
 5839SOL    HW128979   3.498   4.464   6.273  1.2430 -0.7953 -0.0882
 5839SOL    HW228980   3.461   4.333   6.208 -0.0969 -1.0255  0.2635
 5840SOL     OW28981   2.093   1.116  15.813 -0.4417  0.8556 -0.1432
 5840SOL    HW128982   2.050   1.096  15.729  1.4464 -0.8955 -0.6781
 5840SOL    HW228983   2.138   1.036  15.836 -0.5944  1.4077  2.0918
 5841SOL     OW28984   0.095   3.297  13.086  0.1461 -0.1524 -0.0374
 5841SOL    HW128985   0.018   3.325  13.136  1.6293  1.4829  1.3539
 5841SOL    HW228986   0.162   3.355  13.122  1.9738 -0.9353 -2.1862
 5842SOL     OW28987   4.296   1.631   1.139 -0.8476  0.2649  0.3621
 5842SOL    HW128988   4.251   1.611   1.222  1.3155 -1.4653  1.1153
 5842SOL    HW228989   4.250   1.565   1.087  0.0766 -0.4173  0.4139
 5843SOL     OW28990   2.563   0.445   8.255  0.4103  0.4324  0.0658
 5843SOL    HW128991   2.604   0.531   8.239  0.3026  0.4471 -0.1282
 5843SOL    HW228992   2.532   0.453   8.345  1.3348 -1.6654  0.5557
 5844SOL     OW28993   1.550   3.302   8.524  0.5767  0.1240 -0.1520
 5844SOL    HW128994   1.492   3.336   8.591  1.6545  2.4755 -0.3976
 5844SOL    HW228995   1.620   3.368   8.520 -0.6131  1.4262  0.8132
 5845SOL     OW28996   2.786   2.573   2.955 -0.3638 -0.3088  0.4082
 5845SOL    HW128997   2.754   2.597   3.042  1.1681  0.4853  0.7516
 5845SOL    HW228998   2.757   2.485   2.933 -0.3471  0.0437 -1.0624
 5846SOL     OW28999   3.078   3.926   4.468 -0.3254  0.6290  0.3409
 5846SOL    HW129000   3.025   3.943   4.390  0.5342  0.8216 -0.1957
 5846SOL    HW229001   3.018   3.956   4.537 -0.3709  3.2639 -0.8240
 5847SOL     OW29002   0.892   4.497   3.948 -0.0589  0.6314  0.2017
 5847SOL    HW129003   0.860   4.568   4.003 -2.9155 -0.0719 -0.5900
 5847SOL    HW229004   0.817   4.480   3.892 -1.7036  2.1405  1.9536
 5848SOL     OW29005   2.153   3.158   2.631  0.2441  0.0500  0.5069
 5848SOL    HW129006   2.110   3.087   2.584  1.1834 -0.3741  0.2883
 5848SOL    HW229007   2.192   3.202   2.555 -0.3294 -2.6788 -1.3654
 5849SOL     OW29008   1.448   3.939   0.892  0.2712  0.0872 -0.5640
 5849SOL    HW129009   1.397   3.859   0.883 -3.8122  2.8382 -1.8175
 5849SOL    HW229010   1.391   3.999   0.941  2.1070  1.1809  0.2567
 5850SOL     OW29011   3.647   2.005  14.402 -0.2148 -0.0008  0.1133
 5850SOL    HW129012   3.566   2.032  14.360  1.3413  0.9733 -2.2828
 5850SOL    HW229013   3.692   1.950  14.337 -0.1249  0.5327 -0.2736
 5851SOL     OW29014   2.847   3.686   7.388  0.2331  0.0928 -0.0724
 5851SOL    HW129015   2.808   3.621   7.330 -0.2572 -0.7016  1.1461
 5851SOL    HW229016   2.941   3.671   7.386  0.3625  0.6716  1.4135
 5852SOL     OW29017   1.185   0.008   3.269  0.7667 -0.7829  0.3904
 5852SOL    HW129018   1.258   0.070   3.274 -1.6608  1.9640  1.5622
 5852SOL    HW229019   1.109   0.052   3.231  0.5399 -0.0630  1.7038
 5853SOL     OW29020   1.675   0.209   6.003  0.0539  0.3257 -0.2251
 5853SOL    HW129021   1.735   0.172   6.068 -0.1554  1.2961  0.5189
 5853SOL    HW229022   1.677   0.143   5.934 -2.8505 -1.3952  1.3158
 5854SOL     OW29023   0.538   0.669   6.228 -0.1957  0.4511 -0.1161
 5854SOL    HW129024   0.574   0.715   6.152  0.5148  1.0793  0.6040
 5854SOL    HW229025   0.603   0.688   6.295 -1.0137  0.0408  0.8066
 5855SOL     OW29026   0.652   0.079   4.531  0.6789 -0.1824  0.5335
 5855SOL    HW129027   0.587   0.089   4.601  0.7153  0.3860  0.4828
 5855SOL    HW229028   0.698   0.163   4.529  1.1388 -0.4132  1.6422
 5856SOL     OW29029   4.328   3.172  11.275  0.6463 -0.3059  0.5627
 5856SOL    HW129030   4.253   3.161  11.332  0.7903 -3.3296  0.1764
 5856SOL    HW229031   4.330   3.087  11.232  1.8357 -0.2508  0.4873
 5857SOL     OW29032   1.512   3.005   4.212 -0.1667 -0.2307 -0.2683
 5857SOL    HW129033   1.560   3.022   4.131  0.9811 -1.2904  0.1953
 5857SOL    HW229034   1.444   3.072   4.200 -1.7937 -1.4758  1.9114
 5858SOL     OW29035   3.471   0.021   9.160 -0.7117  0.0574  0.0767
 5858SOL    HW129036   3.437   4.669   9.107 -1.0846  1.4072 -1.5386
 5858SOL    HW229037   3.555   4.705   9.189 -0.8964 -0.7323 -0.3834
 5859SOL     OW29038   1.797   0.865   0.017  0.3515  0.4175 -0.6907
 5859SOL    HW129039   1.773   0.778  17.667  0.0376  0.0147  0.6605
 5859SOL    HW229040   1.865   0.865   0.084  0.9868 -3.2800 -1.3367
 5860SOL     OW29041   0.916   3.727   4.119  0.2766  0.1771  0.2353
 5860SOL    HW129042   0.894   3.819   4.102  2.1308  0.9479  1.9190
 5860SOL    HW229043   0.826   3.700   4.105  0.5481 -0.2000 -0.7442
 5861SOL     OW29044   0.155   3.096   4.887  0.5557 -0.0627  0.5708
 5861SOL    HW129045   0.141   3.021   4.946  0.9886 -0.6792 -0.1055
 5861SOL    HW229046   0.067   3.128   4.865  0.5045 -1.0447 -0.7041
 5862SOL     OW29047   3.340   2.329   3.909  0.0462 -0.1961 -0.2892
 5862SOL    HW129048   3.381   2.320   3.995 -0.8241 -2.1826 -0.0768
 5862SOL    HW229049   3.348   2.243   3.867  1.3309 -0.5821  0.7697
 5863SOL     OW29050   0.110   2.606   8.656 -0.2806  0.0230  0.0265
 5863SOL    HW129051   0.083   2.516   8.638 -0.2038 -0.0805  0.4291
 5863SOL    HW229052   0.205   2.596   8.651 -0.0461  1.4517  1.4029
 5864SOL     OW29053   3.602   0.150  16.197 -0.6651 -0.2284  0.7290
 5864SOL    HW129054   3.592   0.245  16.192  0.0015 -0.2176 -0.5376
 5864SOL    HW229055   3.675   0.150  16.259 -2.0887 -0.6901  2.3997
 5865SOL     OW29056   4.342   2.026  16.368  0.0605 -0.3456 -0.1990
 5865SOL    HW129057   4.432   1.999  16.387  0.6097 -0.2980 -2.6843
 5865SOL    HW229058   4.339   2.098  16.305  1.9823 -0.3059 -0.2284
 5866SOL     OW29059   3.441   4.656  10.580  0.6791  0.2277  0.2827
 5866SOL    HW129060   3.418   4.572  10.620 -2.4015  1.7148  1.6060
 5866SOL    HW229061   3.474   4.704  10.656 -1.5375 -1.6021  2.4110
 5867SOL     OW29062   3.387   0.089   8.161  0.9512 -0.1162  0.2160
 5867SOL    HW129063   3.406   0.163   8.219 -2.2869 -0.5604  1.8256
 5867SOL    HW229064   3.348   0.127   8.082  3.7186 -0.2086 -1.2008
 5868SOL     OW29065   0.572   4.474   5.125  0.1460 -0.4392  0.2437
 5868SOL    HW129066   0.586   4.536   5.054 -1.5629  2.4193  2.4255
 5868SOL    HW229067   0.641   4.497   5.187 -0.3394 -2.8771  1.6961
 5869SOL     OW29068   2.310   1.343   4.691  0.0855  0.2681  0.0044
 5869SOL    HW129069   2.297   1.336   4.597  1.2337 -0.4592 -0.1125
 5869SOL    HW229070   2.406   1.346   4.693  0.0578  1.4714 -0.9994
 5870SOL     OW29071   3.344   0.381   3.560 -0.1473  0.1701  0.3288
 5870SOL    HW129072   3.314   0.404   3.472  1.7234 -1.7306 -0.8074
 5870SOL    HW229073   3.267   0.403   3.611 -0.2915  0.1284  0.1302
 5871SOL     OW29074   2.767   0.311   6.303  0.3245  0.3033 -0.4767
 5871SOL    HW129075   2.833   0.289   6.369 -0.0397 -1.3193 -0.6683
 5871SOL    HW229076   2.748   0.219   6.284  1.4941 -0.1150  0.3308
 5872SOL     OW29077   1.680   2.311  13.335 -0.1124 -0.1311  0.7806
 5872SOL    HW129078   1.717   2.246  13.275  0.3650 -1.1941  2.2142
 5872SOL    HW229079   1.636   2.243  13.387  1.3596 -1.1747  0.6646
 5873SOL     OW29080   1.726   4.209   6.533 -0.3991  0.2305 -0.6101
 5873SOL    HW129081   1.681   4.269   6.473 -2.1939  0.1892  0.7146
 5873SOL    HW229082   1.658   4.143   6.522  1.6797 -1.9972 -0.1014
 5874SOL     OW29083   1.214   3.601   7.122 -0.6784 -0.2165 -0.0187
 5874SOL    HW129084   1.295   3.568   7.161 -0.5964  0.2772  0.2313
 5874SOL    HW229085   1.227   3.687   7.080 -0.1343 -1.0623 -1.5811
 5875SOL     OW29086   4.112   0.245   8.652  0.0256 -0.4834  0.4813
 5875SOL    HW129087   4.036   0.187   8.652 -1.2690  1.1772 -1.4119
 5875SOL    HW229088   4.156   0.211   8.574 -3.0600 -1.4237 -0.8566
 5876SOL     OW29089   1.807   0.630  12.630  0.0063  0.4036  0.0295
 5876SOL    HW129090   1.756   0.709  12.614 -0.3044  0.2217  0.1082
 5876SOL    HW229091   1.893   0.667  12.610  0.0500  0.8652  1.0394
 5877SOL     OW29092   0.742   1.714   2.199 -0.2850 -0.2222  0.2292
 5877SOL    HW129093   0.744   1.634   2.146  0.0916  0.2909 -0.5380
 5877SOL    HW229094   0.707   1.682   2.282  0.3880 -1.1784  0.1406
 5878SOL     OW29095   3.348   3.643   9.285  0.4660  0.0829  0.4804
 5878SOL    HW129096   3.379   3.576   9.224 -0.2113  0.4130 -0.2224
 5878SOL    HW229097   3.266   3.596   9.301  0.2626  0.5430  0.7748
 5879SOL     OW29098   3.803   3.681  15.756 -0.2931  0.1720  0.0415
 5879SOL    HW129099   3.850   3.764  15.745 -1.2694  0.7051 -0.0998
 5879SOL    HW229100   3.868   3.628  15.803 -1.6399 -1.6142 -0.1322
 5880SOL     OW29101   1.699   1.654   7.874  0.2642  0.2818  0.0150
 5880SOL    HW129102   1.718   1.588   7.940 -0.4375  0.1228  0.0594
 5880SOL    HW229103   1.772   1.647   7.813 -0.4146  0.6200 -0.8431
 5881SOL     OW29104   3.981   1.979   7.893 -0.3242  0.2364 -0.0546
 5881SOL    HW129105   3.972   2.073   7.883  0.3690  0.1276 -1.7399
 5881SOL    HW229106   3.975   1.966   7.988 -0.9355  2.3001  0.1794
 5882SOL     OW29107   1.640   4.597  16.501 -0.2644 -0.2393  0.2236
 5882SOL    HW129108   1.573   4.636  16.556 -2.3569 -0.4209 -2.1481
 5882SOL    HW229109   1.716   4.650  16.525 -0.3165  0.3087 -0.8031
 5883SOL     OW29110   3.923   0.291   6.584  0.0783 -0.1143  0.0464
 5883SOL    HW129111   3.877   0.257   6.661 -0.7322 -0.5056 -0.6067
 5883SOL    HW229112   3.955   0.374   6.621 -1.2084 -1.2975  3.9027
 5884SOL     OW29113   4.082   0.052   0.199 -0.1614 -0.0833 -0.4405
 5884SOL    HW129114   4.056   0.123   0.141  0.6071  0.7163  0.1967
 5884SOL    HW229115   4.139   0.097   0.261  1.1988  0.1210 -1.8382
 5885SOL     OW29116   1.923   1.675   7.721 -0.2152 -0.3888 -0.2670
 5885SOL    HW129117   2.001   1.622   7.737  0.0292  0.1549  0.3513
 5885SOL    HW229118   1.888   1.621   7.650 -0.3773  0.7706 -1.0677
 5886SOL     OW29119   4.319   0.345   5.077  0.1324  0.1119 -0.5208
 5886SOL    HW129120   4.298   0.255   5.098  0.0791  0.3715  0.5257
 5886SOL    HW229121   4.374   0.358   5.154 -1.3369  0.8843  0.3836
 5887SOL     OW29122   1.775   2.322  10.226  0.7390 -0.0980 -0.2470
 5887SOL    HW129123   1.741   2.379  10.295  0.4348  0.4175 -0.8245
 5887SOL    HW229124   1.812   2.248  10.274  0.4489 -1.5231 -2.2306
 5888SOL     OW29125   0.489   4.464   8.679 -0.3515 -0.4936  0.0277
 5888SOL    HW129126   0.486   4.560   8.672  0.8838 -0.3319  1.7618
 5888SOL    HW229127   0.573   4.444   8.639 -1.9326 -1.1619 -2.9304
 5889SOL     OW29128   3.149   4.510   4.268 -0.6392  0.1209 -0.0572
 5889SOL    HW129129   3.196   4.497   4.185  1.3082  0.5188  0.9778
 5889SOL    HW229130   3.160   4.421   4.301 -0.5914  0.0393 -0.2859
 5890SOL     OW29131   3.459   2.824   8.522  0.1141 -0.4422  0.6285
 5890SOL    HW129132   3.519   2.751   8.540  1.9131  0.7754 -0.4308
 5890SOL    HW229133   3.469   2.882   8.598 -0.6967  2.4113 -1.4665
 5891SOL     OW29134   4.411   1.715   8.667  0.0171 -0.4178 -0.5916
 5891SOL    HW129135   4.385   1.802   8.636  0.3907  0.2761  1.0416
 5891SOL    HW229136   4.386   1.705   8.759 -1.4092 -1.1779 -1.0457
 5892SOL     OW29137   1.778   1.941  16.740 -0.5069  0.0691 -0.2730
 5892SOL    HW129138   1.737   1.995  16.808  0.6986 -1.3328  1.5853
 5892SOL    HW229139   1.756   1.861  16.787  0.8490 -0.8405 -1.2158
 5893SOL     OW29140   2.846   2.220   7.469 -0.4833 -0.1296  0.7212
 5893SOL    HW129141   2.881   2.132   7.456 -1.8025 -0.5094 -0.2122
 5893SOL    HW229142   2.805   2.204   7.554 -1.0416 -0.0647  0.4622
 5894SOL     OW29143   1.606   1.760   9.634 -0.4668  0.1726  0.5536
 5894SOL    HW129144   1.552   1.835   9.607  0.2858  0.0491 -1.3589
 5894SOL    HW229145   1.542   1.705   9.679 -0.5410  0.0190  0.2599
 5895SOL     OW29146   2.024   4.344  12.908 -0.1638  0.4962  0.3848
 5895SOL    HW129147   1.968   4.292  12.967 -1.6209  0.3541 -1.1392
 5895SOL    HW229148   2.097   4.361  12.968 -0.8303  1.2433  0.9882
 5896SOL     OW29149   1.396   0.242   3.678  0.0348 -0.7569  0.3583
 5896SOL    HW129150   1.452   0.186   3.623  0.4894  2.0462 -2.0320
 5896SOL    HW229151   1.444   0.325   3.681 -0.2580 -0.6250  1.2934
 5897SOL     OW29152   0.476   1.348   3.647 -0.6176 -0.2475  0.1641
 5897SOL    HW129153   0.518   1.422   3.690 -4.2561  0.9240  1.7559
 5897SOL    HW229154   0.386   1.373   3.669 -2.3575 -5.3097 -1.3763
 5898SOL     OW29155   4.142   4.105  12.640 -0.0622  0.6456 -0.1130
 5898SOL    HW129156   4.164   4.018  12.608 -2.1628  0.0036  0.1546
 5898SOL    HW229157   4.074   4.086  12.704  0.0455 -0.9498 -0.4914
 5899SOL     OW29158   2.036   4.539  12.042 -0.7829 -0.4942 -0.2809
 5899SOL    HW129159   1.980   4.579  12.109  1.0855  0.7581  0.5564
 5899SOL    HW229160   1.985   4.528  11.962 -0.3612 -0.8980 -0.4926
 5900SOL     OW29161   0.896   4.565   0.473  0.1196 -0.4782 -0.5642
 5900SOL    HW129162   0.866   4.652   0.449 -0.9467 -0.8295 -0.5258
 5900SOL    HW229163   0.956   4.591   0.543 -1.1837  1.7201 -0.2759
 5901SOL     OW29164   3.982   1.474  15.308 -0.2119  0.2403  0.0868
 5901SOL    HW129165   3.942   1.422  15.377  2.7157  0.0951  1.6972
 5901SOL    HW229166   4.068   1.433  15.296  0.3464  1.9283 -1.8357
 5902SOL     OW29167   2.644   3.271   3.574  0.5518  0.1188  0.1485
 5902SOL    HW129168   2.589   3.198   3.602 -0.7265  1.3608  0.8773
 5902SOL    HW229169   2.595   3.317   3.506  2.1070 -1.6442 -2.1483
 5903SOL     OW29170   3.143   2.849   4.550 -0.2008 -0.6704  0.1698
 5903SOL    HW129171   3.097   2.924   4.511  1.7852 -0.8451 -2.5541
 5903SOL    HW229172   3.164   2.795   4.474 -0.2304  2.4965 -2.1191
 5904SOL     OW29173   2.334   1.640  10.255  0.8955 -0.0777 -0.1235
 5904SOL    HW129174   2.386   1.608  10.182  2.1675 -0.0750  0.7821
 5904SOL    HW229175   2.350   1.574  10.322 -0.2823  1.9200  2.1380
 5905SOL     OW29176   2.334   2.733   5.137  0.0526 -0.9122  0.5527
 5905SOL    HW129177   2.353   2.706   5.047  0.0165  1.1698 -0.0779
 5905SOL    HW229178   2.406   2.700   5.190  2.1122  0.4736 -1.3868
 5906SOL     OW29179   0.423   4.277   2.890  0.1651 -0.2962  0.3490
 5906SOL    HW129180   0.452   4.307   2.803 -0.2103  1.5284  0.8595
 5906SOL    HW229181   0.502   4.302   2.938  0.6141 -0.9259 -0.0631
 5907SOL     OW29182   3.792   0.026   3.492 -0.5334  0.2346  0.2067
 5907SOL    HW129183   3.833   0.101   3.535 -1.2139 -0.0197  1.2800
 5907SOL    HW229184   3.702   0.035   3.523 -0.0453  0.3649  1.5675
 5908SOL     OW29185   2.079   3.189   7.336  0.4603  0.1351 -0.9346
 5908SOL    HW129186   2.147   3.134   7.299 -0.1828  0.5387 -2.7107
 5908SOL    HW229187   2.067   3.260   7.273 -1.3517  2.2884  1.8003
 5909SOL     OW29188   1.630   4.524  10.109 -0.1877  0.0419 -0.5934
 5909SOL    HW129189   1.651   4.474  10.030 -0.0451 -1.1674  0.2083
 5909SOL    HW229190   1.565   4.583  10.071 -0.8472 -0.0748  0.3583
 5910SOL     OW29191   4.219   3.857   2.810  0.2898  0.0066  0.5377
 5910SOL    HW129192   4.255   3.946   2.816  0.0784  0.0422  1.2592
 5910SOL    HW229193   4.299   3.807   2.794  1.3813  1.5018  1.3141
 5911SOL     OW29194   1.944   0.311   9.165  0.4065 -0.6470  0.4792
 5911SOL    HW129195   1.956   0.227   9.120  0.7344 -0.7395  0.7370
 5911SOL    HW229196   1.878   0.338   9.102  0.9291  1.1838  0.7035
 5912SOL     OW29197   1.258   2.289  17.046 -0.2913  0.2831 -0.1316
 5912SOL    HW129198   1.317   2.218  17.021 -0.5457 -0.1267  0.4142
 5912SOL    HW229199   1.181   2.237  17.071  0.7273 -0.5804  1.1865
 5913SOL     OW29200   4.645   3.954   4.709  0.1760 -0.1753 -0.0318
 5913SOL    HW129201   0.016   3.934   4.684  1.4533  1.9195  2.9582
 5913SOL    HW229202   4.657   3.991   4.796  0.9401 -0.2580 -0.0984
 5914SOL     OW29203   1.873   1.889   6.284 -0.3985 -0.6755 -0.0120
 5914SOL    HW129204   1.934   1.951   6.244 -1.1673 -0.6467 -1.1404
 5914SOL    HW229205   1.848   1.824   6.218  1.2886 -0.4088 -0.9089
 5915SOL     OW29206   2.748   0.970   3.988 -0.1717  0.4742 -0.4163
 5915SOL    HW129207   2.788   1.050   4.023 -0.2796 -0.4114  1.7581
 5915SOL    HW229208   2.823   0.913   4.005  0.0358  1.0520  0.6630
 5916SOL     OW29209   3.654   2.598   6.104 -0.6628  0.3802  0.0661
 5916SOL    HW129210   3.685   2.520   6.151 -1.3837  0.4853  0.7028
 5916SOL    HW229211   3.737   2.637   6.075 -0.4903  1.8298  2.5755
 5917SOL     OW29212   3.201   1.172   4.207  0.4407 -0.4328  0.6901
 5917SOL    HW129213   3.148   1.210   4.137  2.0954 -0.8181 -0.7935
 5917SOL    HW229214   3.162   1.219   4.280 -1.0680 -2.1737  1.0098
 5918SOL     OW29215   3.613   4.509   5.695 -0.2768  0.1756  0.6690
 5918SOL    HW129216   3.594   4.556   5.776  0.8239  0.7622  0.5839
 5918SOL    HW229217   3.708   4.511   5.692 -0.3423  1.0608 -0.8643
 5919SOL     OW29218   1.383   2.608  11.539  0.1588  0.3427  0.4504
 5919SOL    HW129219   1.446   2.595  11.468 -0.5982  0.3020 -0.2088
 5919SOL    HW229220   1.370   2.702  11.524 -1.0435  0.1250  0.1872
 5920SOL     OW29221   3.953   0.043   8.233 -0.5225 -0.0865 -0.3597
 5920SOL    HW129222   3.993   0.026   8.147  0.4450 -1.8686  0.4516
 5920SOL    HW229223   3.994   4.696   8.287  1.6114  1.7679  0.3214
 5921SOL     OW29224   0.173   1.044  17.529 -0.0903  0.6004 -0.0744
 5921SOL    HW129225   0.269   1.042  17.534 -0.1459 -2.1481  0.2573
 5921SOL    HW229226   0.144   1.115  17.586 -0.4764  0.6894 -0.3772
 5922SOL     OW29227   2.406   0.212   8.302 -0.4541  0.1111 -0.5865
 5922SOL    HW129228   2.453   0.284   8.260  0.9085 -1.9623 -2.6043
 5922SOL    HW229229   2.320   0.205   8.260 -0.3807  0.1621 -0.7466
 5923SOL     OW29230   3.432   4.420  10.709  0.4402 -0.7009  0.0454
 5923SOL    HW129231   3.400   4.472  10.784  0.7497 -0.5102  0.0485
 5923SOL    HW229232   3.462   4.343  10.757  0.0705  0.4878  2.1970
 5924SOL     OW29233   0.032   3.878  13.304 -0.0329 -0.4451 -0.2456
 5924SOL    HW129234   0.112   3.839  13.268 -0.5651 -0.3253 -1.5497
 5924SOL    HW229235   0.053   3.906  13.393  0.3333 -3.1356  0.4899
 5925SOL     OW29236   3.410   4.507  11.288  0.2724 -0.1044  0.4553
 5925SOL    HW129237   3.478   4.489  11.353  0.7251  0.2082  0.0641
 5925SOL    HW229238   3.438   4.455  11.213 -1.6003 -1.1925  0.4929
 5926SOL     OW29239   1.476   3.141   6.219  0.3462  0.0416 -0.0581
 5926SOL    HW129240   1.386   3.157   6.190 -0.1079 -0.5523  1.0053
 5926SOL    HW229241   1.480   3.199   6.295 -2.4412  1.5804 -1.0568
 5927SOL     OW29242   0.532   4.458   4.429 -0.3498  0.4455  0.2476
 5927SOL    HW129243   0.511   4.536   4.379 -0.9785  0.0588 -0.0859
 5927SOL    HW229244   0.475   4.480   4.503  0.3150  1.2220  0.5341
 5928SOL     OW29245   2.205   1.231  11.167 -0.2636 -0.4574 -0.0813
 5928SOL    HW129246   2.246   1.145  11.160 -0.2220 -0.3809 -0.7201
 5928SOL    HW229247   2.116   1.201  11.187  0.7009 -0.5534  4.0886
 5929SOL     OW29248   2.400   0.261  16.212 -0.3430 -0.1227  0.4688
 5929SOL    HW129249   2.480   0.269  16.265  0.4186  0.1572 -0.7214
 5929SOL    HW229250   2.362   0.348  16.230  0.2970  0.1325  0.5966
 5930SOL     OW29251   3.762   0.040   6.441  0.1595 -0.4859 -0.3143
 5930SOL    HW129252   3.804   0.118   6.477  0.3926 -0.0613 -1.5044
 5930SOL    HW229253   3.839   4.703   6.452 -0.6081 -1.3799  0.4627
 5931SOL     OW29254   2.581   1.673   4.686  0.2638  0.0143 -0.1238
 5931SOL    HW129255   2.512   1.724   4.643  0.3274  1.6235  1.6855
 5931SOL    HW229256   2.553   1.655   4.775  2.1808 -0.8116  0.3056
 5932SOL     OW29257   3.443   4.338   3.910 -0.3556 -0.2180  0.4408
 5932SOL    HW129258   3.501   4.269   3.944  0.2078  0.1691  0.2770
 5932SOL    HW229259   3.503   4.396   3.862  1.5613 -2.1398  0.4824
 5933SOL     OW29260   3.567   3.436  15.146 -0.0619  0.3601  0.3319
 5933SOL    HW129261   3.504   3.367  15.127  1.1267 -0.3848 -0.9269
 5933SOL    HW229262   3.628   3.408  15.078 -1.6677  2.9583 -2.1436
 5934SOL     OW29263   2.071   1.534   1.065 -0.0427  0.0189 -0.1324
 5934SOL    HW129264   2.080   1.629   1.061 -1.3993  0.2541  2.5716
 5934SOL    HW229265   2.067   1.514   1.158  0.2817 -0.4847 -0.2234
 5935SOL     OW29266   0.190   0.883   8.536  0.2364 -0.0898  0.0184
 5935SOL    HW129267   0.121   0.913   8.595 -0.3954 -0.2573 -0.6256
 5935SOL    HW229268   0.257   0.874   8.603 -1.1106 -0.3982  1.3449
 5936SOL     OW29269   3.578   0.903   4.873 -0.1741 -0.3951  0.7015
 5936SOL    HW129270   3.661   0.856   4.876  0.0038 -0.3300 -3.2004
 5936SOL    HW229271   3.526   0.855   4.937  0.8510 -1.9105  0.3886
 5937SOL     OW29272   2.800   4.487   5.857 -0.0358 -0.0152  0.2364
 5937SOL    HW129273   2.879   4.445   5.824 -1.5025 -1.0735 -1.9907
 5937SOL    HW229274   2.815   4.478   5.951 -0.6483  0.6043  0.3900
 5938SOL     OW29275   0.732   1.418   3.087 -0.4368  0.0264 -0.1063
 5938SOL    HW129276   0.777   1.476   3.026  0.3059 -0.7227 -0.2669
 5938SOL    HW229277   0.643   1.401   3.057  0.3221 -1.5444 -1.4348
 5939SOL     OW29278   1.561   2.631   0.010  0.1048  0.1752  0.3856
 5939SOL    HW129279   1.645   2.654   0.049 -0.2518  0.9072  0.7083
 5939SOL    HW229280   1.578   2.539  17.668  1.0239 -0.3713  3.1989
 5940SOL     OW29281   0.098   2.306   3.851  0.0699 -0.0008  0.5931
 5940SOL    HW129282   0.016   2.321   3.804 -0.1024  0.3595  1.0016
 5940SOL    HW229283   0.107   2.396   3.885 -0.0726  0.0738  0.4307
 5941SOL     OW29284   0.137   3.229   2.169  0.2580 -0.0310  0.1410
 5941SOL    HW129285   0.043   3.235   2.188  0.0967 -0.2303 -0.5918
 5941SOL    HW229286   0.127   3.196   2.079  0.9765  0.0687  0.0252
 5942SOL     OW29287   2.958   1.579   8.359  0.0925  0.4682 -0.1600
 5942SOL    HW129288   2.887   1.556   8.299  0.4816  3.3060 -1.7253
 5942SOL    HW229289   2.924   1.528   8.432  1.1207 -0.5339 -0.3778
 5943SOL     OW29290   2.683   3.254   0.286 -0.0696 -0.3253  0.5405
 5943SOL    HW129291   2.684   3.184   0.351 -1.3432 -0.9702 -0.1345
 5943SOL    HW229292   2.767   3.300   0.290  0.5182 -1.2166 -1.2291
 5944SOL     OW29293   0.623   0.866  12.122 -0.0916 -0.0015 -0.2369
 5944SOL    HW129294   0.591   0.790  12.073  1.0883 -0.3455 -0.4783
 5944SOL    HW229295   0.539   0.887  12.161 -0.6047 -1.1939 -0.6886
 5945SOL     OW29296   4.390   3.133   6.648  0.1471 -0.1624 -0.0499
 5945SOL    HW129297   4.382   3.047   6.606 -2.5209  0.5201 -0.9498
 5945SOL    HW229298   4.387   3.191   6.571 -0.0404 -1.3981 -0.9727
 5946SOL     OW29299   0.987   3.436   7.040 -0.5037  0.6217 -0.2999
 5946SOL    HW129300   0.995   3.514   7.094 -0.2058 -1.0554  2.0994
 5946SOL    HW229301   0.926   3.468   6.974  1.3723  0.3949 -2.1303
 5947SOL     OW29302   3.051   2.585   5.237  0.0127  0.6980 -0.0457
 5947SOL    HW129303   3.109   2.661   5.223  1.2836 -0.3463 -0.4122
 5947SOL    HW229304   3.106   2.517   5.200 -2.6137 -0.5959 -1.5545
 5948SOL     OW29305   4.591   4.451   6.405 -0.3238 -0.0892 -0.4392
 5948SOL    HW129306   4.566   4.460   6.497  1.9965  0.9372  0.1025
 5948SOL    HW229307   4.657   4.519   6.395  0.5276 -1.0563 -1.4038
 5949SOL     OW29308   1.089   3.095   7.701  0.2152 -0.3491 -0.1795
 5949SOL    HW129309   1.004   3.116   7.663  0.3150  1.1450  0.4281
 5949SOL    HW229310   1.118   3.186   7.701 -0.4749 -0.1368 -0.6606
 5950SOL     OW29311   2.835   3.247  13.937 -0.2012  0.6676  0.2786
 5950SOL    HW129312   2.811   3.165  13.981  0.3717 -0.4008 -1.4140
 5950SOL    HW229313   2.926   3.241  13.967  0.2546  0.8622 -1.0581
 5951SOL     OW29314   2.299   0.125   1.114 -0.0856  0.5404  0.2115
 5951SOL    HW129315   2.304   0.102   1.207  1.2777  0.2692  0.0700
 5951SOL    HW229316   2.386   0.160   1.095 -0.9520  1.0325 -2.8228
 5952SOL     OW29317   2.999   4.310  15.808 -0.9462 -0.1502 -0.0457
 5952SOL    HW129318   3.027   4.256  15.882  0.7263 -0.7114 -1.0821
 5952SOL    HW229319   2.934   4.361  15.856  0.6991  1.0452  0.9364
 5953SOL     OW29320   1.061   4.518   1.859 -0.3027 -0.2090 -0.1271
 5953SOL    HW129321   1.121   4.500   1.930 -0.5165  1.8089  0.5418
 5953SOL    HW229322   1.091   4.603   1.828  0.2501  0.3292  1.8837
 5954SOL     OW29323   1.569   1.395  15.563 -0.4990 -0.0869  0.3800
 5954SOL    HW129324   1.590   1.309  15.599  0.6232  0.1082  0.1928
 5954SOL    HW229325   1.493   1.419  15.617 -0.3715 -0.0387  0.5349
 5955SOL     OW29326   0.844   2.483  15.140 -0.4394 -0.3191 -0.0424
 5955SOL    HW129327   0.817   2.402  15.182 -3.1223  0.1263 -0.9263
 5955SOL    HW229328   0.921   2.459  15.088  1.0367  1.7388  1.1879
 5956SOL     OW29329   0.183   2.604   4.541  0.6672 -0.4088  0.0652
 5956SOL    HW129330   0.251   2.560   4.591 -0.7731 -1.5939  0.9727
 5956SOL    HW229331   0.226   2.688   4.526 -0.6057  0.1748 -0.3734
 5957SOL     OW29332   0.992   2.869  12.243  0.1005 -0.2279 -0.3817
 5957SOL    HW129333   0.971   2.908  12.158  1.8944  0.3222 -0.5896
 5957SOL    HW229334   0.943   2.927  12.301  1.3897  1.7213 -1.1998
 5958SOL     OW29335   2.007   4.020   8.512 -0.0920 -0.1842 -0.0728
 5958SOL    HW129336   2.088   4.032   8.563 -0.8330 -0.3536  1.1504
 5958SOL    HW229337   2.010   4.080   8.437 -0.0064 -2.3925 -1.8040
 5959SOL     OW29338   2.809   3.144   2.591  0.1299  1.0588 -0.4146
 5959SOL    HW129339   2.816   3.182   2.678 -1.0871 -0.8414  0.5016
 5959SOL    HW229340   2.775   3.057   2.610 -1.4876  1.6760 -0.4375
 5960SOL     OW29341   0.230   2.603  16.690  0.2395  0.0923 -0.6912
 5960SOL    HW129342   0.290   2.532  16.715  1.4188  0.9914 -0.9868
 5960SOL    HW229343   0.278   2.654  16.625  2.1911  0.2162  0.8150
 5961SOL     OW29344   0.373   1.793   7.855 -0.1699  0.7317 -0.5858
 5961SOL    HW129345   0.462   1.778   7.889 -0.5133 -0.2052 -0.1150
 5961SOL    HW229346   0.328   1.808   7.938  0.2066 -0.7391 -0.1153
 5962SOL     OW29347   3.040   1.371   6.587  0.0612  0.3304  0.8193
 5962SOL    HW129348   3.005   1.284   6.608 -0.9170  0.5446  0.0325
 5962SOL    HW229349   3.115   1.344   6.534 -0.0015 -0.7425  1.2762
 5963SOL     OW29350   2.753   3.266   8.602 -0.1261  0.4671 -0.3629
 5963SOL    HW129351   2.754   3.237   8.694  2.6458  2.2948  0.1750
 5963SOL    HW229352   2.756   3.180   8.560  0.7370  0.5040 -0.3734
 5964SOL     OW29353   3.652   1.059  15.301  0.1684  0.2604  0.3958
 5964SOL    HW129354   3.626   1.081  15.391  2.6976  2.2756  0.5984
 5964SOL    HW229355   3.696   0.976  15.322 -2.9537 -1.1838  1.3660
 5965SOL     OW29356   4.495   2.001   4.619 -0.3891  0.0291 -0.1246
 5965SOL    HW129357   4.498   2.018   4.524  3.0546  1.0223  0.1347
 5965SOL    HW229358   4.589   1.981   4.627  0.2954  3.7282  0.9297
 5966SOL     OW29359   4.313   2.257   3.976 -0.0061 -0.3602  0.9070
 5966SOL    HW129360   4.276   2.247   3.888  2.6308 -0.1594 -0.2081
 5966SOL    HW229361   4.232   2.245   4.025 -0.1125  0.3460  0.9057
 5967SOL     OW29362   0.161   2.547   0.887 -0.4046  0.4234 -1.3279
 5967SOL    HW129363   0.103   2.563   0.812 -1.2408  0.6471 -0.6339
 5967SOL    HW229364   0.127   2.461   0.912  3.6996 -1.0158 -0.6273
 5968SOL     OW29365   3.373   2.214   5.153 -0.1300 -0.0507 -0.5802
 5968SOL    HW129366   3.467   2.203   5.169 -0.0456 -0.7004 -1.4873
 5968SOL    HW229367   3.376   2.208   5.057 -3.6005 -0.0044 -0.6972
 5969SOL     OW29368   1.138   2.810   6.210  0.3890 -0.6218  0.4479
 5969SOL    HW129369   1.126   2.719   6.185 -0.1122 -0.1333 -1.1051
 5969SOL    HW229370   1.111   2.804   6.301  1.0439 -0.1001  0.6814
 5970SOL     OW29371   0.327   2.205   7.572 -0.4880  0.6903  0.0480
 5970SOL    HW129372   0.291   2.292   7.592 -1.8597  0.2334 -0.4457
 5970SOL    HW229373   0.258   2.146   7.603 -0.9567  1.1809 -0.0458
 5971SOL     OW29374   2.582   2.002   6.938 -0.6281  0.5335  0.6632
 5971SOL    HW129375   2.540   2.085   6.917 -0.5853  0.6461  1.0260
 5971SOL    HW229376   2.621   2.004   7.025 -0.6856  1.9171  0.6533
 5972SOL     OW29377   3.399   4.282  10.470  0.7100 -0.2798  0.1275
 5972SOL    HW129378   3.452   4.209  10.503 -0.3367 -0.1897  1.9849
 5972SOL    HW229379   3.390   4.342  10.543 -3.7640  0.1197 -0.7375
 5973SOL     OW29380   2.183   3.543  11.525  0.5476  0.2097 -0.2154
 5973SOL    HW129381   2.144   3.617  11.572 -0.1780 -0.6266  0.5107
 5973SOL    HW229382   2.113   3.479  11.515  0.8649 -0.2314  0.4027
 5974SOL     OW29383   4.493   4.473  14.473  0.0044 -0.0490  0.1200
 5974SOL    HW129384   4.443   4.404  14.518  0.5629  0.5366  1.6413
 5974SOL    HW229385   4.486   4.450  14.380  0.9355  1.3468 -0.3023
 5975SOL     OW29386   1.242   0.671   9.217  0.2643 -0.2925  0.1012
 5975SOL    HW129387   1.291   0.734   9.165  1.9311 -0.6588  1.2270
 5975SOL    HW229388   1.306   0.614   9.260  2.0316  0.3892 -1.6634
 5976SOL     OW29389   2.800   0.929  16.001 -0.3025  0.1293  0.1079
 5976SOL    HW129390   2.829   0.999  16.060 -1.5362  0.4051  0.3905
 5976SOL    HW229391   2.848   0.860  16.048  1.0987  0.1586 -1.2741
 5977SOL     OW29392   1.575   0.277   4.422  0.8871 -0.0718  0.4916
 5977SOL    HW129393   1.539   0.250   4.338  2.4005 -0.9038  0.1067
 5977SOL    HW229394   1.621   0.199   4.452  0.4646 -0.3278  0.4808
 5978SOL     OW29395   0.500   0.825   1.924 -0.1953  0.2797  0.2257
 5978SOL    HW129396   0.555   0.761   1.969 -0.0150  1.4065  1.6026
 5978SOL    HW229397   0.534   0.903   1.967  0.6177 -0.0445  0.1739
 5979SOL     OW29398   1.847   1.665   4.973  0.0318  0.4000  0.8495
 5979SOL    HW129399   1.871   1.657   4.881  0.7321  0.2273  1.0448
 5979SOL    HW229400   1.932   1.679   5.013 -0.6599  0.8664  2.1567
 5980SOL     OW29401   2.722   2.045   1.368 -0.3876 -0.3047 -0.4000
 5980SOL    HW129402   2.673   2.027   1.287 -1.8646 -0.6709  0.5825
 5980SOL    HW229403   2.806   2.003   1.352  1.0449  1.1738  3.5169
 5981SOL     OW29404   0.753   1.456   1.560  0.0183 -0.1710 -0.3848
 5981SOL    HW129405   0.751   1.460   1.656  1.9377  0.6395 -0.3767
 5981SOL    HW229406   0.735   1.547   1.538  1.1156  0.3782  0.9420
 5982SOL     OW29407   4.541   0.638   4.461  0.2091  0.1629  0.2802
 5982SOL    HW129408   4.530   0.609   4.551  1.8230  1.3751  0.8500
 5982SOL    HW229409   4.599   0.572   4.421  0.4159 -0.3239  1.3849
 5983SOL     OW29410   0.160   0.272   8.838 -0.5633 -0.6360 -0.4509
 5983SOL    HW129411   0.223   0.303   8.774  1.3444 -2.8016  0.3744
 5983SOL    HW229412   0.227   0.267   8.906 -0.6515  2.5266 -0.1446
 5984SOL     OW29413   2.514   2.317   3.121  0.4994  0.1372 -0.2207
 5984SOL    HW129414   2.530   2.301   3.214  2.2119 -1.1974 -0.7411
 5984SOL    HW229415   2.465   2.398   3.136 -1.2262 -1.5299  2.9256
 5985SOL     OW29416   3.186   2.212   1.719 -0.4929 -0.1658  0.0969
 5985SOL    HW129417   3.239   2.290   1.737  0.7256 -1.2405  1.1587
 5985SOL    HW229418   3.166   2.176   1.805  0.4488  0.6892  0.6806
 5986SOL     OW29419   2.217   3.178  10.883 -0.1607  0.1117 -0.3422
 5986SOL    HW129420   2.199   3.225  10.965 -1.0729  1.6616 -1.4442
 5986SOL    HW229421   2.125   3.164  10.862 -0.1638  0.7514 -0.7680
 5987SOL     OW29422   0.305   2.409   5.016  0.4479 -0.0822  0.1992
 5987SOL    HW129423   0.307   2.487   5.071  0.1348  0.4039 -0.4690
 5987SOL    HW229424   0.395   2.413   4.983 -0.7462 -0.3293 -3.0965
 5988SOL     OW29425   1.109   0.068   8.276  0.0279  0.9462 -0.5679
 5988SOL    HW129426   1.203   0.082   8.281  0.1157  1.0592 -2.2739
 5988SOL    HW229427   1.099   4.697   8.247 -1.0603  0.1807  2.2701
 5989SOL     OW29428   0.692   0.399   1.189  0.0406  0.4493 -0.4121
 5989SOL    HW129429   0.658   0.469   1.133 -1.2178  1.3817  1.5424
 5989SOL    HW229430   0.727   0.340   1.121 -1.4714 -0.0364 -0.7599
 5990SOL     OW29431   2.335   2.712   8.670  0.1982 -0.1652  0.3947
 5990SOL    HW129432   2.296   2.680   8.588  2.8427 -0.9712 -0.5252
 5990SOL    HW229433   2.424   2.714   8.637  0.2582 -1.6324  0.4956
 5991SOL     OW29434   1.033   3.598   8.645  0.9743  0.2956  0.8625
 5991SOL    HW129435   1.075   3.513   8.631  1.0300  0.0397  2.5890
 5991SOL    HW229436   0.941   3.574   8.632  0.9292  0.2019  1.3650
 5992SOL     OW29437   0.463   2.848   1.479  0.7295 -0.0339  0.8476
 5992SOL    HW129438   0.545   2.847   1.430  0.6122  2.5772  0.6231
 5992SOL    HW229439   0.504   2.844   1.565  0.3455  1.5619  1.1067
 5993SOL     OW29440   1.114   2.384  16.431  0.1357 -0.4687  0.3193
 5993SOL    HW129441   1.084   2.360  16.344  1.3484 -3.1249  0.6261
 5993SOL    HW229442   1.039   2.423  16.477  0.2016 -1.5978  1.3913
 5994SOL     OW29443   1.116   0.877   4.327  0.8230  0.0116 -0.2837
 5994SOL    HW129444   1.038   0.886   4.273  1.6011 -1.7164 -1.6747
 5994SOL    HW229445   1.128   0.959   4.376  0.2607  0.9715 -1.7621
 5995SOL     OW29446   0.574   2.491   0.896  0.2457 -0.1865 -0.1128
 5995SOL    HW129447   0.506   2.437   0.936 -0.7976  1.0596 -0.2010
 5995SOL    HW229448   0.596   2.433   0.823  0.5765  0.4316 -0.5046
 5996SOL     OW29449   2.915   0.813   7.405 -0.3051 -0.0158  0.4420
 5996SOL    HW129450   2.868   0.746   7.356 -0.0508  0.7849 -0.9048
 5996SOL    HW229451   2.917   0.766   7.488  0.2247  1.3324  1.2057
 5997SOL     OW29452   0.172   1.535   5.822  0.0642 -0.1025  0.5021
 5997SOL    HW129453   0.126   1.528   5.738 -1.1028  0.6836  1.0802
 5997SOL    HW229454   0.107   1.516   5.890 -0.1020  0.3884  0.4838
 5998SOL     OW29455   1.946   3.273   7.933  0.1700 -0.1037  0.5163
 5998SOL    HW129456   2.030   3.229   7.925 -1.3838 -2.8935 -0.4014
 5998SOL    HW229457   1.959   3.298   8.025 -3.8433 -0.3785  1.1500
 5999SOL     OW29458   2.700   4.002   8.533 -0.1139 -0.1848  0.3408
 5999SOL    HW129459   2.751   4.054   8.471  1.5182 -0.9674  1.0084
 5999SOL    HW229460   2.641   4.071   8.563  1.1206 -0.4379  3.3570
 6000SOL     OW29461   1.590   2.625   7.750 -0.3035 -0.3908 -0.2469
 6000SOL    HW129462   1.671   2.673   7.733 -0.1386 -1.0282 -1.2605
 6000SOL    HW229463   1.600   2.552   7.688  2.9827 -0.4889  0.4160
 6001SOL     OW29464   0.637   3.590   6.805  0.2902  0.0922 -0.9598
 6001SOL    HW129465   0.630   3.500   6.836 -1.0821  0.8859  1.0269
 6001SOL    HW229466   0.544   3.613   6.810  0.5541  0.9289  0.0561
 6002SOL     OW29467   2.177   0.822   5.559  0.0317 -0.1440 -0.1418
 6002SOL    HW129468   2.084   0.838   5.572  0.3665  0.7725  1.0825
 6002SOL    HW229469   2.207   0.904   5.598 -0.4420 -0.2060  0.3698
 6003SOL     OW29470   3.123   1.590   2.274  0.2424  0.3018 -0.3796
 6003SOL    HW129471   3.216   1.608   2.287  0.2222  0.6474 -0.6987
 6003SOL    HW229472   3.126   1.499   2.244 -1.5749 -0.0433  0.5186
 6004SOL     OW29473   1.381   2.117   7.963  0.8486 -0.2292 -0.0310
 6004SOL    HW129474   1.372   2.213   7.962  1.3934 -0.1256  3.7920
 6004SOL    HW229475   1.371   2.097   8.056  0.1879  0.8160  0.1237
 6005SOL     OW29476   4.027   4.180   6.623 -0.0182  0.0082 -0.3820
 6005SOL    HW129477   4.088   4.132   6.678 -1.0612 -1.8276 -0.8485
 6005SOL    HW229478   4.082   4.182   6.545  0.8910 -2.2221  0.2068
 6006SOL     OW29479   3.638   4.147   6.783 -1.1781  0.3707 -0.2786
 6006SOL    HW129480   3.606   4.068   6.828 -1.2797 -0.5423 -1.9207
 6006SOL    HW229481   3.716   4.158   6.837  0.4417 -0.7980 -2.4045
 6007SOL     OW29482   0.914   3.361   8.324  0.0118 -0.3731  0.2490
 6007SOL    HW129483   0.928   3.277   8.280  1.3363  0.1789 -0.3609
 6007SOL    HW229484   1.006   3.372   8.347 -0.1569  1.1825  0.1375
 6008SOL     OW29485   3.525   3.969   3.127  0.0162 -0.2112  0.7283
 6008SOL    HW129486   3.433   3.952   3.105 -0.0868 -0.3014  1.2195
 6008SOL    HW229487   3.562   3.882   3.141 -0.7073 -0.4077  1.4289
 6009SOL     OW29488   3.848   0.720   4.044 -0.4497  0.0919  0.1174
 6009SOL    HW129489   3.762   0.758   4.062 -0.7437 -0.7910  0.5802
 6009SOL    HW229490   3.861   0.742   3.952 -1.1875  1.0016  0.2316
 6010SOL     OW29491   0.879   2.008   4.249 -0.3115  0.0895  0.0410
 6010SOL    HW129492   0.943   1.945   4.216  2.1880  1.9019  1.4691
 6010SOL    HW229493   0.874   2.068   4.174  0.1088 -0.0240 -0.0794
 6011SOL     OW29494   1.072   2.120   7.403 -0.5231  0.4238 -0.3495
 6011SOL    HW129495   1.068   2.170   7.321  1.0243 -1.0181 -1.3284
 6011SOL    HW229496   1.042   2.031   7.382 -0.9620  0.2637  0.9627
 6012SOL     OW29497   4.428   2.099  12.848  0.3274 -0.0158  0.5577
 6012SOL    HW129498   4.444   2.165  12.916  0.5663  0.8700 -0.3573
 6012SOL    HW229499   4.479   2.021  12.870 -1.1882 -1.5157 -1.3081
 6013SOL     OW29500   0.970   4.255   8.443  0.3712  0.7313  0.4865
 6013SOL    HW129501   0.903   4.279   8.379  1.4885 -3.9851 -2.4779
 6013SOL    HW229502   1.030   4.198   8.394 -0.2292  0.8943 -0.4425
 6014SOL     OW29503   3.041   4.112  13.679 -0.3230  1.0010 -0.1967
 6014SOL    HW129504   2.957   4.157  13.681 -1.0732 -0.4496  0.4901
 6014SOL    HW229505   3.045   4.080  13.588  0.2380  1.5653 -0.3716
 6015SOL     OW29506   4.328   3.146  17.021 -0.0487  0.0724  0.0119
 6015SOL    HW129507   4.372   3.069  17.055  0.2415 -0.9893 -2.8317
 6015SOL    HW229508   4.406   3.202  17.019  0.0714  0.0118  3.1562
 6016SOL     OW29509   3.045   2.973   8.560 -0.0965  0.2796 -0.9825
 6016SOL    HW129510   3.106   2.899   8.556 -0.6102 -0.3011  2.0646
 6016SOL    HW229511   3.053   2.996   8.652 -0.2766 -0.4228 -0.7935
 6017SOL     OW29512   4.667   3.379   5.278 -0.1524 -0.0896  0.6684
 6017SOL    HW129513   4.627   3.371   5.365 -1.8107 -0.2253 -0.1022
 6017SOL    HW229514   4.607   3.438   5.232  0.3461  0.1149  0.2752
 6018SOL     OW29515   0.285   4.121  17.505 -0.1496  0.0023  0.3268
 6018SOL    HW129516   0.326   4.181  17.443  2.2843  1.0429  2.9398
 6018SOL    HW229517   0.281   4.181  17.579  0.8678  0.1982  0.2282
 6019SOL     OW29518   0.442   0.027   8.338 -0.2918  0.0524  0.2479
 6019SOL    HW129519   0.437   0.082   8.259 -0.3512 -0.7645 -0.3149
 6019SOL    HW229520   0.404   4.664   8.308  0.2183  0.1590 -0.7050
 6020SOL     OW29521   1.897   2.412   5.456  0.2758 -0.4652 -0.8080
 6020SOL    HW129522   1.918   2.452   5.371  2.6149 -0.6911 -0.3256
 6020SOL    HW229523   1.860   2.326   5.441  0.6063 -0.4317 -1.8201
 6021SOL     OW29524   1.585   1.826   2.009 -0.3252  0.2385 -0.3435
 6021SOL    HW129525   1.557   1.735   2.021 -0.8156  0.6473  1.5178
 6021SOL    HW229526   1.501   1.869   1.997  0.6400  2.0497 -0.6321
 6022SOL     OW29527   1.596   3.977  16.181  0.0491 -0.0185 -0.1686
 6022SOL    HW129528   1.515   3.963  16.133  1.0350 -1.5118 -1.4002
 6022SOL    HW229529   1.601   3.903  16.241  1.5585 -0.1446 -0.4602
 6023SOL     OW29530   4.160   0.558   1.158  0.1190 -0.0328  0.0486
 6023SOL    HW129531   4.218   0.598   1.223 -0.0030 -0.7220  0.5813
 6023SOL    HW229532   4.083   0.614   1.176  0.3316  0.4245 -0.4416
 6024SOL     OW29533   1.270   3.183   4.191  0.1305  0.2021 -0.0606
 6024SOL    HW129534   1.209   3.171   4.264 -0.6656  0.7887 -0.6416
 6024SOL    HW229535   1.285   3.276   4.205  1.4773  0.2650 -1.9674
 6025SOL     OW29536   4.320   3.081   9.126  0.1836  0.4867 -0.0918
 6025SOL    HW129537   4.360   2.998   9.100  2.0271  2.0933 -2.3450
 6025SOL    HW229538   4.232   3.054   9.152 -2.2092  3.8765 -4.8068
 6026SOL     OW29539   3.021   0.613  10.453 -0.1972 -0.4926 -0.0243
 6026SOL    HW129540   3.078   0.564  10.512 -1.8263 -1.2064  0.9640
 6026SOL    HW229541   2.938   0.622  10.501 -0.2124  2.0522 -0.5696
 6027SOL     OW29542   3.159   1.621  10.601 -0.2419  0.8279  0.2974
 6027SOL    HW129543   3.252   1.609  10.581 -0.5065 -1.1040  0.2463
 6027SOL    HW229544   3.160   1.607  10.696  2.0132  0.3384  0.2086
 6028SOL     OW29545   4.089   2.879   7.850  0.1529  0.6201  0.1348
 6028SOL    HW129546   4.088   2.784   7.835  0.4503  0.7131 -0.4567
 6028SOL    HW229547   4.009   2.899   7.898 -0.4099  0.6963 -0.8430
 6029SOL     OW29548   2.427   2.694   2.706 -0.7555 -0.2105 -0.4498
 6029SOL    HW129549   2.435   2.787   2.726 -0.4677 -0.6814  1.5631
 6029SOL    HW229550   2.504   2.689   2.649  0.9803  0.0802  1.8702
 6030SOL     OW29551   4.115   3.353  13.039  0.2031  0.4845 -0.4941
 6030SOL    HW129552   4.149   3.285  13.097 -3.0176 -2.3438 -1.9642
 6030SOL    HW229553   4.119   3.431  13.095 -1.5238  0.9210 -0.9888
 6031SOL     OW29554   0.666   4.160   9.870 -0.0321  0.6258  0.1851
 6031SOL    HW129555   0.682   4.254   9.873  1.9088  0.2446  1.4701
 6031SOL    HW229556   0.594   4.167   9.807 -0.1011  0.2697  0.2229
 6032SOL     OW29557   1.736   1.606  10.300  0.4018 -0.3246 -0.0258
 6032SOL    HW129558   1.695   1.658  10.369 -1.5733  2.0144 -2.9664
 6032SOL    HW229559   1.660   1.565  10.259 -0.4395  0.1266  1.0691
 6033SOL     OW29560   1.955   3.886  14.127  0.3777 -0.0525 -0.4030
 6033SOL    HW129561   2.005   3.962  14.155 -0.3406 -0.1561  1.1341
 6033SOL    HW229562   1.941   3.836  14.207  1.1327  0.3135 -0.0364
 6034SOL     OW29563   1.926   0.679  12.314 -0.5069  0.0054 -0.1399
 6034SOL    HW129564   1.968   0.687  12.399  0.1782  0.4627 -0.5177
 6034SOL    HW229565   2.003   0.690  12.258 -0.0925  0.2041  0.4683
 6035SOL     OW29566   1.231   3.023  14.884 -0.1185  0.7087 -1.1740
 6035SOL    HW129567   1.265   3.082  14.817  2.7523  0.1207 -0.2502
 6035SOL    HW229568   1.283   3.043  14.962 -0.8103  0.5956 -0.6893
 6036SOL     OW29569   2.731   4.381   1.476 -0.4698  0.1920  0.0122
 6036SOL    HW129570   2.763   4.301   1.435 -0.6108  0.4721 -0.6403
 6036SOL    HW229571   2.809   4.437   1.484 -0.4153  0.3217 -1.3464
 6037SOL     OW29572   0.597   4.185   2.095  0.6029 -0.2959  0.9084
 6037SOL    HW129573   0.534   4.226   2.155  1.4143 -0.1621  1.6732
 6037SOL    HW229574   0.669   4.246   2.111 -1.0474  1.0870  3.1449
 6038SOL     OW29575   3.880   1.775   8.522 -0.0690  0.4395  0.1928
 6038SOL    HW129576   3.884   1.868   8.540 -2.0291  0.4773  0.4230
 6038SOL    HW229577   3.908   1.739   8.606  3.1061 -1.3221 -1.6139
 6039SOL     OW29578   2.256   3.968   5.773 -0.6523  0.7416  0.3361
 6039SOL    HW129579   2.348   3.993   5.765  0.5151 -2.6183  3.1438
 6039SOL    HW229580   2.226   3.980   5.683  0.3239 -1.3173 -0.2606
 6040SOL     OW29581   3.578   2.863   5.119 -0.5769  0.3036 -0.1487
 6040SOL    HW129582   3.578   2.769   5.138 -1.4803  0.1642 -0.8401
 6040SOL    HW229583   3.543   2.858   5.030 -1.1978  3.6330 -0.0830
 6041SOL     OW29584   1.707   4.629   7.892 -0.7367 -0.4466 -0.0568
 6041SOL    HW129585   1.733   4.576   7.967 -1.9407  1.2141  1.5606
 6041SOL    HW229586   1.639   4.681   7.935  0.5380  0.6476  0.6272
 6042SOL     OW29587   3.145   0.606   8.460  0.0144  0.2287  0.3379
 6042SOL    HW129588   3.206   0.536   8.436  1.6324  1.0403  2.0630
 6042SOL    HW229589   3.060   0.566   8.441 -0.5214 -0.0081  3.2998
 6043SOL     OW29590   3.253   2.231   4.202  0.3052 -0.3274  0.4060
 6043SOL    HW129591   3.271   2.325   4.191  3.3600 -0.6292  2.7790
 6043SOL    HW229592   3.197   2.236   4.279 -0.4157 -1.4176 -0.0461
 6044SOL     OW29593   4.112   4.666  16.345 -0.2933 -0.2914  0.2586
 6044SOL    HW129594   4.179   4.597  16.354 -2.1299 -1.9904  0.9701
 6044SOL    HW229595   4.138   0.013  16.408 -2.3589 -0.5049  1.3379
 6045SOL     OW29596   2.853   1.623   5.981 -0.1612 -0.6022 -0.0532
 6045SOL    HW129597   2.883   1.667   6.061  0.4961 -1.4786  0.1849
 6045SOL    HW229598   2.787   1.682   5.945  0.9305  0.1935 -0.7790
 6046SOL     OW29599   3.846   0.796   9.793  0.7618  0.5905  0.6571
 6046SOL    HW129600   3.836   0.887   9.766 -2.0726 -0.6729 -2.5928
 6046SOL    HW229601   3.905   0.757   9.728  1.0573  0.0540  1.2459
 6047SOL     OW29602   0.895   1.552  14.613  0.1660  0.3062  0.2357
 6047SOL    HW129603   0.829   1.618  14.591 -0.6280 -0.8538 -0.8381
 6047SOL    HW229604   0.898   1.557  14.709 -0.9667 -1.0893  0.3386
 6048SOL     OW29605   3.212   4.457   3.962 -0.0386  0.5395 -0.0525
 6048SOL    HW129606   3.291   4.410   3.933 -0.3710  0.0985 -0.2439
 6048SOL    HW229607   3.183   4.514   3.891  3.4312 -1.3345 -2.9890
 6049SOL     OW29608   1.051   1.833   4.985 -0.3648  0.7313  0.0193
 6049SOL    HW129609   1.115   1.890   5.027  1.3956  0.2775 -2.0377
 6049SOL    HW229610   1.001   1.797   5.058  0.8010 -1.4294 -0.2491
 6050SOL     OW29611   3.666   1.718   5.816  0.2352  0.5157 -0.2310
 6050SOL    HW129612   3.686   1.812   5.815 -1.5809  0.8577 -2.8690
 6050SOL    HW229613   3.742   1.692   5.764  0.9156 -2.3413  2.1967
 6051SOL     OW29614   1.278   4.281   9.346  0.2293 -0.1537  0.1344
 6051SOL    HW129615   1.203   4.277   9.287  0.9589  0.0521 -0.8077
 6051SOL    HW229616   1.255   4.341   9.417 -2.2324 -0.8268 -0.0779
 6052SOL     OW29617   4.623   2.405   3.654 -0.3140 -0.4147 -0.5376
 6052SOL    HW129618   4.618   2.366   3.567 -3.0584  2.4299 -1.7024
 6052SOL    HW229619   4.609   2.496   3.626  0.4252 -0.4055 -0.8835
 6053SOL     OW29620   0.964   3.311  16.826 -0.5898 -0.6463 -0.3408
 6053SOL    HW129621   1.027   3.262  16.879 -0.2892 -0.3084 -0.3866
 6053SOL    HW229622   0.879   3.270  16.842 -0.6921 -0.6675 -0.9582
 6054SOL     OW29623   0.974   4.145   5.689 -0.0092 -0.1016 -0.3544
 6054SOL    HW129624   0.958   4.195   5.769  0.4197  1.7545 -1.4296
 6054SOL    HW229625   1.016   4.211   5.634 -2.5417  1.2389 -0.7161
 6055SOL     OW29626   3.640   1.002   3.809 -0.2022  0.3335  0.3361
 6055SOL    HW129627   3.733   0.987   3.795 -0.2332 -0.3145  0.8297
 6055SOL    HW229628   3.641   1.095   3.831 -1.0881  1.0075 -2.5501
 6056SOL     OW29629   4.461   4.502  16.470 -0.4714  0.1527  0.2736
 6056SOL    HW129630   4.376   4.478  16.434  0.5645  0.7283 -2.5838
 6056SOL    HW229631   4.501   4.530  16.387  0.0485  4.1199  1.8500
 6057SOL     OW29632   1.314   2.080  13.892  0.0125  0.1022  0.1958
 6057SOL    HW129633   1.363   2.009  13.932 -0.5887  0.0585  0.8553
 6057SOL    HW229634   1.336   2.147  13.957  0.0783  0.5489 -0.2857
 6058SOL     OW29635   3.086   2.204   6.224  0.8405 -0.6649  0.5456
 6058SOL    HW129636   2.996   2.206   6.192  0.7866  0.2931  0.7769
 6058SOL    HW229637   3.125   2.142   6.162  0.7899 -0.2068  0.0568
 6059SOL     OW29638   2.234   2.004   7.125 -0.4551 -0.1850  0.7063
 6059SOL    HW129639   2.266   2.059   7.196  0.1259 -0.2914  0.5246
 6059SOL    HW229640   2.242   2.058   7.047  0.2170 -2.9594 -1.1640
 6060SOL     OW29641   3.035   0.844  17.639 -0.0580  0.5320 -0.0223
 6060SOL    HW129642   3.042   0.756  17.676  0.0839  1.2248  1.5867
 6060SOL    HW229643   3.063   0.895   0.033  1.3393 -0.7004  0.2841
 6061SOL     OW29644   2.186   3.500   0.316 -0.5207 -0.0345 -0.3749
 6061SOL    HW129645   2.120   3.462   0.374  0.9416 -0.3231  1.1064
 6061SOL    HW229646   2.251   3.431   0.307  0.1559  0.8235 -1.9400
 6062SOL     OW29647   2.821   3.076   8.420 -0.1832 -0.6075 -0.2324
 6062SOL    HW129648   2.866   3.045   8.341 -0.1885  1.7096 -1.1482
 6062SOL    HW229649   2.869   3.023   8.484 -0.8394 -0.0079  0.7353
 6063SOL     OW29650   1.851   3.070   2.913  0.8272 -0.0508  0.0269
 6063SOL    HW129651   1.799   2.992   2.934 -0.5111  0.9101  0.2279
 6063SOL    HW229652   1.794   3.104   2.844  1.4318  0.4813 -0.2111
 6064SOL     OW29653   0.798   4.481   0.991  0.5546  0.3473 -0.8027
 6064SOL    HW129654   0.801   4.459   0.897  0.7187  2.2014 -1.2349
 6064SOL    HW229655   0.742   4.558   0.988 -0.5684 -0.3806  1.9851
 6065SOL     OW29656   3.201   2.095  17.131  0.4065  0.5513 -0.2328
 6065SOL    HW129657   3.265   2.108  17.061 -0.0507  1.8683 -0.4095
 6065SOL    HW229658   3.237   2.129  17.213  0.6665 -1.2562  0.3974
 6066SOL     OW29659   0.242   3.790  13.153  0.3135 -0.7800 -0.5806
 6066SOL    HW129660   0.294   3.714  13.127  1.3176  0.0415 -0.9321
 6066SOL    HW229661   0.307   3.850  13.189 -0.2449  0.2527 -1.2788
 6067SOL     OW29662   2.052   3.595   2.561  0.4615  0.0434  0.3122
 6067SOL    HW129663   2.040   3.607   2.467  0.4657  1.3372  0.4720
 6067SOL    HW229664   2.148   3.597   2.568  0.5843  0.5150 -1.3993
 6068SOL     OW29665   3.816   3.189   0.542 -0.2672 -0.3161 -0.6999
 6068SOL    HW129666   3.729   3.173   0.578 -0.7178 -0.0766 -1.7075
 6068SOL    HW229667   3.779   3.236   0.468  1.6666  0.7569 -0.9990
 6069SOL     OW29668   0.320   4.143   4.612  0.1568  0.0805 -0.1433
 6069SOL    HW129669   0.261   4.141   4.687  1.4370 -2.2284  0.8005
 6069SOL    HW229670   0.380   4.211   4.642 -0.4010 -0.1693  1.5349
 6070SOL     OW29671   1.900   1.029   8.460  0.5629 -0.2442 -0.5441
 6070SOL    HW129672   1.976   1.081   8.436  0.2891  1.2817  1.8844
 6070SOL    HW229673   1.872   1.068   8.543  1.1999  1.3971 -1.1037
 6071SOL     OW29674   3.314   2.354  17.308  0.2255 -0.4241  0.2485
 6071SOL    HW129675   3.330   2.294  17.381  2.1229 -1.1050 -0.7284
 6071SOL    HW229676   3.386   2.418  17.313 -0.6693  0.7141 -1.4168
 6072SOL     OW29677   1.888   4.579   2.017 -0.6097 -0.1129 -0.0666
 6072SOL    HW129678   1.800   4.545   2.002 -0.2644 -0.6602 -0.8777
 6072SOL    HW229679   1.885   4.668   1.982 -1.2646  0.2201  0.8416
 6073SOL     OW29680   4.304   4.093   9.399  0.1950 -0.5310 -0.2633
 6073SOL    HW129681   4.271   4.135   9.319  1.3294  2.1631  0.6880
 6073SOL    HW229682   4.293   4.156   9.469  1.1641 -1.9467  1.1636
 6074SOL     OW29683   3.650   3.583   0.681  0.5968  0.3283  0.5637
 6074SOL    HW129684   3.567   3.567   0.725 -0.4250  1.0029 -1.1486
 6074SOL    HW229685   3.624   3.620   0.596  0.3923 -0.3430  0.3388
 6075SOL     OW29686   0.465   3.646   4.552  0.2416  0.2039 -0.5748
 6075SOL    HW129687   0.508   3.601   4.479  0.9817 -2.6478  1.6218
 6075SOL    HW229688   0.439   3.731   4.517  4.7419  1.8370  0.0251
 6076SOL     OW29689   0.374   2.570   8.625  0.4198 -0.0629  0.5331
 6076SOL    HW129690   0.404   2.589   8.537  0.5475  3.8524  1.4180
 6076SOL    HW229691   0.442   2.520   8.670  1.3329  0.0696 -0.7318
 6077SOL     OW29692   3.152   4.589   7.901 -0.2742 -0.2684  0.0930
 6077SOL    HW129693   3.127   4.501   7.874  2.2990 -1.5023  1.8085
 6077SOL    HW229694   3.076   4.635   7.864  0.8597  0.3256 -1.5010
 6078SOL     OW29695   1.870   4.138  14.977  0.4795  0.4303 -0.5432
 6078SOL    HW129696   1.831   4.219  15.008  2.3820  2.1435 -2.6353
 6078SOL    HW229697   1.937   4.127  15.045  0.2836  0.3922 -0.3558
 6079SOL     OW29698   3.199   4.463   9.265 -0.2498  0.4954  0.3213
 6079SOL    HW129699   3.221   4.374   9.293 -0.0484  0.3880 -0.1842
 6079SOL    HW229700   3.208   4.520   9.341 -0.6785 -0.9047  1.4311
 6080SOL     OW29701   1.861   2.124   4.140 -0.0971  0.0289 -0.1511
 6080SOL    HW129702   1.802   2.199   4.154  1.4032  0.8655  1.7706
 6080SOL    HW229703   1.929   2.167   4.089  1.5440 -0.6541  1.4761
 6081SOL     OW29704   2.530   4.217   5.240 -0.2100  0.0704 -0.0823
 6081SOL    HW129705   2.564   4.228   5.329 -2.1988  1.1875  0.5469
 6081SOL    HW229706   2.528   4.310   5.217 -0.1429  0.6174  2.1682
 6082SOL     OW29707   3.200   1.434   5.527  0.0203  0.0218 -0.1587
 6082SOL    HW129708   3.197   1.496   5.454 -1.1551 -0.1168 -0.2201
 6082SOL    HW229709   3.124   1.471   5.573  1.5220  0.6838  1.8176
 6083SOL     OW29710   0.623   4.551   3.210  0.3736 -0.0392  0.2788
 6083SOL    HW129711   0.610   4.465   3.251 -1.6268  0.8456  1.4819
 6083SOL    HW229712   0.548   4.600   3.244 -0.3285 -0.4238 -0.6846
 6084SOL     OW29713   0.750   0.531   2.943  0.0062 -0.1029  0.0733
 6084SOL    HW129714   0.757   0.527   2.847  0.7480  4.0666 -0.0302
 6084SOL    HW229715   0.840   0.561   2.955  0.1060 -0.1358 -0.5730
 6085SOL     OW29716   2.415   3.228  16.631  0.4753 -0.0027  0.3845
 6085SOL    HW129717   2.373   3.280  16.562  0.6754 -1.3334 -0.7519
 6085SOL    HW229718   2.508   3.247  16.615 -0.5159  3.0062 -1.8433
 6086SOL     OW29719   1.434   2.715  17.115  0.1532 -0.1968  0.1021
 6086SOL    HW129720   1.495   2.655  17.074 -0.1732 -0.5237  0.0918
 6086SOL    HW229721   1.357   2.667  17.084 -0.1617  0.0723  0.4666
 6087SOL     OW29722   4.149   4.215   2.599  0.4636  0.2134  0.1550
 6087SOL    HW129723   4.206   4.161   2.653  0.2871  1.0844  1.2110
 6087SOL    HW229724   4.208   4.288   2.580  0.6074  0.3536  1.1480
 6088SOL     OW29725   0.847   2.344   7.277  0.3137  0.3050  0.0636
 6088SOL    HW129726   0.767   2.332   7.327  1.2287 -0.7284  1.2824
 6088SOL    HW229727   0.910   2.363   7.346  0.6184 -1.9872  0.4352
 6089SOL     OW29728   4.067   0.661   7.611  0.4164  0.3015 -0.3106
 6089SOL    HW129729   4.099   0.572   7.628  2.2567  0.5175 -2.5901
 6089SOL    HW229730   4.009   0.640   7.537  2.3728  0.7259 -1.9670
 6090SOL     OW29731   1.694   0.899   7.825 -0.1982 -0.1721 -0.1005
 6090SOL    HW129732   1.739   0.951   7.758  1.0108 -0.2398  0.6617
 6090SOL    HW229733   1.749   0.821   7.829 -0.9121 -0.7406 -1.5567
 6091SOL     OW29734   2.842   3.622   6.725 -0.3066 -0.3307 -0.3676
 6091SOL    HW129735   2.801   3.536   6.739  2.0241 -0.9185  2.9270
 6091SOL    HW229736   2.778   3.651   6.660 -0.5058  0.2750  0.0996
 6092SOL     OW29737   4.124   3.764   0.453 -0.0196  0.1212 -0.5357
 6092SOL    HW129738   4.092   3.674   0.457 -0.8563  0.4217 -0.6287
 6092SOL    HW229739   4.128   3.784   0.360  1.9402  1.4731 -0.1611
 6093SOL     OW29740   0.530   1.291   7.500  0.0488 -0.3394 -0.0425
 6093SOL    HW129741   0.555   1.361   7.560 -1.1562 -0.3568  0.4928
 6093SOL    HW229742   0.470   1.235   7.550  1.0393 -0.9101  0.5065
 6094SOL     OW29743   0.485   0.086   3.729 -0.1269 -0.3455  0.2575
 6094SOL    HW129744   0.521   0.174   3.724 -0.2833 -0.4026 -2.2388
 6094SOL    HW229745   0.496   0.067   3.636  2.9480  1.6807  0.2357
 6095SOL     OW29746   3.702   0.955   5.803 -0.0174  0.2691 -0.1704
 6095SOL    HW129747   3.786   0.954   5.849  0.0489 -0.6931 -0.3151
 6095SOL    HW229748   3.654   0.983   5.880  1.3147  0.0757  0.7348
 6096SOL     OW29749   3.552   1.822   4.675 -0.6223 -0.8555 -0.2670
 6096SOL    HW129750   3.513   1.797   4.759 -0.0174 -0.1851  0.2159
 6096SOL    HW229751   3.513   1.756   4.618  2.1449 -3.2211  0.5473
 6097SOL     OW29752   2.689   0.412   3.244 -0.0798  0.2897  0.4385
 6097SOL    HW129753   2.602   0.377   3.225  0.1271 -0.8862  1.6840
 6097SOL    HW229754   2.694   0.403   3.339  1.9058  2.6709  0.5681
 6098SOL     OW29755   2.410   0.868  12.116  0.0090  0.3010  0.5799
 6098SOL    HW129756   2.474   0.859  12.187  0.2587 -0.7691  0.2231
 6098SOL    HW229757   2.417   0.962  12.100 -0.7258  0.3089  0.3272
 6099SOL     OW29758   0.728   2.837   6.878  0.0343  0.0638 -0.2658
 6099SOL    HW129759   0.749   2.915   6.827 -0.1689 -0.1887 -0.7350
 6099SOL    HW229760   0.692   2.783   6.808 -0.0383 -1.1661  0.7195
 6100SOL     OW29761   0.140   4.320   0.835  0.2251  0.7218  0.0097
 6100SOL    HW129762   0.078   4.292   0.902  1.5462 -1.8751  0.1571
 6100SOL    HW229763   0.118   4.411   0.817 -2.3613 -0.3427 -2.2081
 6101SOL     OW29764   0.145   3.792   8.345 -0.6639  0.1585 -0.4466
 6101SOL    HW129765   0.204   3.721   8.372 -2.4615 -1.2891 -0.3454
 6101SOL    HW229766   0.118   3.827   8.430 -1.3692 -0.3306 -0.4672
 6102SOL     OW29767   3.585   4.369   8.028  0.1330  0.7257  0.2946
 6102SOL    HW129768   3.519   4.422   8.073 -0.7100 -1.1336  1.2292
 6102SOL    HW229769   3.569   4.384   7.935  1.3512 -1.9449 -0.3454
 6103SOL     OW29770   3.933   3.563   3.053 -0.4759  0.7305  0.3131
 6103SOL    HW129771   3.934   3.505   3.129  0.7539 -0.5398 -0.6648
 6103SOL    HW229772   4.013   3.613   3.068  0.3281 -0.2948 -0.5800
 6104SOL     OW29773   0.768   2.565   6.122 -0.8910  0.0639 -0.0576
 6104SOL    HW129774   0.713   2.625   6.172  0.8849 -0.4483  2.5378
 6104SOL    HW229775   0.803   2.620   6.052 -0.2711  0.4772  0.5779
 6105SOL     OW29776   1.439   3.846   6.298 -0.0492 -0.8892  0.0819
 6105SOL    HW129777   1.346   3.867   6.290 -0.5579 -2.4847  1.7833
 6105SOL    HW229778   1.473   3.878   6.215  1.2314 -2.5878 -0.0662
 6106SOL     OW29779   1.230   4.176   4.578  0.1770  0.0009 -0.5348
 6106SOL    HW129780   1.176   4.250   4.607 -0.5405 -1.2385  1.3164
 6106SOL    HW229781   1.210   4.161   4.486  0.3864 -0.7343 -0.4533
 6107SOL     OW29782   3.689   4.151   3.656 -0.3639  0.3047  0.4041
 6107SOL    HW129783   3.650   4.142   3.743 -1.0044 -1.6215 -0.0691
 6107SOL    HW229784   3.693   4.059   3.628  0.2131  1.0309 -1.9045
 6108SOL     OW29785   2.176   0.085  12.006  0.0480 -0.3920 -0.2002
 6108SOL    HW129786   2.117   0.018  11.971 -0.8927  1.3389 -1.8903
 6108SOL    HW229787   2.197   0.054  12.095  1.9839  0.0493 -0.5063
 6109SOL     OW29788   2.956   0.812   5.077  0.5545  0.2333  0.1431
 6109SOL    HW129789   2.890   0.827   5.144  0.7500  0.3927  0.3008
 6109SOL    HW229790   2.905   0.762   5.013  0.4440  1.5844 -0.8086
 6110SOL     OW29791   0.836   4.355  10.469  0.7313  0.0908 -0.0545
 6110SOL    HW129792   0.788   4.319  10.395 -0.7491 -0.2376  1.0469
 6110SOL    HW229793   0.877   4.282  10.515 -0.7584  0.6977  2.2638
 6111SOL     OW29794   2.712   2.334   4.554  0.0932 -0.0331  0.0260
 6111SOL    HW129795   2.803   2.359   4.535  0.2536 -0.6564 -0.0292
 6111SOL    HW229796   2.746   2.254   4.595 -0.9452 -0.4982 -0.0294
 6112SOL     OW29797   2.113   3.611   7.952 -0.0982 -0.3251  0.2591
 6112SOL    HW129798   2.143   3.702   7.943  0.1181 -0.5404 -1.2409
 6112SOL    HW229799   2.043   3.606   7.887 -1.2504  0.0457  1.4641
 6113SOL     OW29800   2.686   2.984  12.763 -0.7566 -0.4182 -0.3791
 6113SOL    HW129801   2.652   2.939  12.841  1.2980 -1.7347 -0.2544
 6113SOL    HW229802   2.697   2.908  12.706  0.9160 -1.6207  1.5852
 6114SOL     OW29803   4.528   1.208   5.094  0.4733 -0.1804  0.0544
 6114SOL    HW129804   4.496   1.277   5.152  1.2210  0.9912 -0.9321
 6114SOL    HW229805   4.615   1.195   5.130  0.3394  1.7616  1.1163
 6115SOL     OW29806   0.948   0.622   8.056  0.2896 -0.2211 -1.2348
 6115SOL    HW129807   0.938   0.527   8.052 -1.1655 -0.1249  0.0281
 6115SOL    HW229808   0.902   0.636   8.138  0.3506 -1.1838 -1.0298
 6116SOL     OW29809   3.641   3.544   5.395  0.6835 -0.1696 -0.0899
 6116SOL    HW129810   3.588   3.623   5.411 -2.2908 -2.2690  0.4153
 6116SOL    HW229811   3.715   3.572   5.449  0.3899 -0.3223  0.3907
 6117SOL     OW29812   4.487   0.146  14.424  0.2088 -0.1821 -0.0427
 6117SOL    HW129813   4.552   0.211  14.449  1.5355 -0.7258 -2.1508
 6117SOL    HW229814   4.485   0.158  14.329  0.1473  3.4453  0.4336
 6118SOL     OW29815   4.080   2.336   0.524 -0.0294 -0.1444 -0.3511
 6118SOL    HW129816   4.144   2.283   0.476  4.1564  2.3448  2.5615
 6118SOL    HW229817   4.144   2.377   0.582  2.1198 -1.6865 -1.6324
 6119SOL     OW29818   3.846   2.045  15.359  0.6864 -0.1452 -0.2252
 6119SOL    HW129819   3.843   1.976  15.292 -2.1903 -0.1407 -0.0991
 6119SOL    HW229820   3.838   2.122  15.303  0.2265  0.3593  0.5319
 6120SOL     OW29821   2.262   4.713  15.658 -0.0805  0.1577  0.1730
 6120SOL    HW129822   2.199   4.661  15.708  0.5693 -0.1248  0.7163
 6120SOL    HW229823   2.254   0.077  15.704 -0.1441 -0.5487  1.4538
 6121SOL     OW29824   4.162   4.247   2.997  0.0546  0.3873 -0.1738
 6121SOL    HW129825   4.175   4.330   3.042  0.9638  1.1942 -1.9460
 6121SOL    HW229826   4.071   4.229   3.021  0.0248  1.4675  0.5308
 6122SOL     OW29827   3.299   0.585   9.088 -0.2158  0.3447 -0.0537
 6122SOL    HW129828   3.252   0.561   9.008  2.3991 -0.9419 -1.2008
 6122SOL    HW229829   3.241   0.657   9.112 -1.5496 -0.9055  0.4821
 6123SOL     OW29830   3.848   3.376  16.645 -0.4267  0.0951  0.2603
 6123SOL    HW129831   3.913   3.307  16.633 -0.6576 -0.4063  1.8810
 6123SOL    HW229832   3.895   3.443  16.694  1.0832  0.9276 -2.2953
 6124SOL     OW29833   4.592   3.087  12.952  0.0374 -0.5880 -0.2214
 6124SOL    HW129834   4.592   3.078  13.047  2.2350  1.6205 -0.0135
 6124SOL    HW229835   4.515   3.143  12.936 -0.7048 -1.3984  0.5474
 6125SOL     OW29836   1.664   0.506   7.392  0.4849 -0.1343 -0.3265
 6125SOL    HW129837   1.585   0.453   7.395 -0.3671  1.2247  0.9860
 6125SOL    HW229838   1.682   0.489   7.299 -1.5100  0.6065 -0.8466
 6126SOL     OW29839   1.207   2.810   7.208  0.7163 -0.0303  0.6947
 6126SOL    HW129840   1.276   2.876   7.215 -1.8224  2.6289  1.0345
 6126SOL    HW229841   1.244   2.733   7.252  0.2862 -0.6613 -0.0641
 6127SOL     OW29842   3.624   4.545   0.377  0.6134  0.9035  0.4096
 6127SOL    HW129843   3.656   4.459   0.405 -0.8447 -0.0677 -0.9434
 6127SOL    HW229844   3.634   4.599   0.456 -0.6328 -0.2469  1.3405
 6128SOL     OW29845   4.716   2.672   5.081 -0.0123 -0.1260 -0.1207
 6128SOL    HW129846   0.080   2.691   5.040 -0.1301 -0.8587 -0.7101
 6128SOL    HW229847   4.697   2.757   5.121 -0.6668 -0.8529  1.1522
 6129SOL     OW29848   4.062   3.170  16.917  0.2163 -0.2004  1.0053
 6129SOL    HW129849   4.130   3.143  16.979  1.8872 -0.3837 -0.8932
 6129SOL    HW229850   4.116   3.156  16.839  0.7013 -1.0296  1.4852
 6130SOL     OW29851   1.798   1.764   4.145  0.2208 -0.3002 -0.3119
 6130SOL    HW129852   1.864   1.721   4.199 -0.5380 -1.6380 -0.4369
 6130SOL    HW229853   1.767   1.827   4.210  0.5045  0.9692 -1.4036
 6131SOL     OW29854   2.166   0.943   6.875 -0.1256 -0.0635 -0.2383
 6131SOL    HW129855   2.181   1.007   6.805 -3.0986  1.9061  0.9543
 6131SOL    HW229856   2.093   0.985   6.919  2.3418  4.1768 -0.1130
 6132SOL     OW29857   1.190   3.860   4.060 -0.4220 -0.2973 -0.7200
 6132SOL    HW129858   1.103   3.843   4.023 -1.3151  1.6808  0.4745
 6132SOL    HW229859   1.235   3.919   4.001  1.3062 -2.7757 -1.8736
 6133SOL     OW29860   0.948   3.588   5.868  0.3890  0.3258  0.2183
 6133SOL    HW129861   1.031   3.613   5.908  1.3960 -1.3565 -0.8437
 6133SOL    HW229862   0.960   3.631   5.784 -0.1259  2.5500  1.2579
 6134SOL     OW29863   2.588   4.702   8.858  0.2080 -0.6777  0.1151
 6134SOL    HW129864   2.572   0.064   8.907  1.2335 -1.2755  1.4327
 6134SOL    HW229865   2.500   4.698   8.820  1.0720  0.8249 -2.0576
 6135SOL     OW29866   0.631   2.872   7.362  0.2662 -0.3453  0.4835
 6135SOL    HW129867   0.706   2.909   7.314  1.6744  0.6301  3.4397
 6135SOL    HW229868   0.557   2.900   7.309  0.2486 -0.9641  0.1704
 6136SOL     OW29869   4.354   2.808   1.608  0.5617  0.1255 -0.0284
 6136SOL    HW129870   4.307   2.775   1.684 -0.5655  0.4297 -0.5926
 6136SOL    HW229871   4.290   2.810   1.537 -0.2510 -1.2502  0.6757
 6137SOL     OW29872   2.931   1.942   9.328  0.0006  0.1533  0.1314
 6137SOL    HW129873   3.017   1.949   9.370  1.3519 -1.2495 -2.4430
 6137SOL    HW229874   2.877   2.004   9.377  0.4272  0.7381 -0.1382
 6138SOL     OW29875   4.543   2.049  14.632 -0.0918  0.6661  0.3607
 6138SOL    HW129876   4.486   2.044  14.556  1.2058 -0.9957 -0.4884
 6138SOL    HW229877   4.477   2.089  14.689 -1.2923 -0.8732  0.0529
 6139SOL     OW29878   4.036   3.285   9.513  0.0656 -0.0683  0.3667
 6139SOL    HW129879   4.097   3.347   9.473 -0.0585 -0.6687 -0.7356
 6139SOL    HW229880   3.957   3.307   9.465  0.9163  0.3408 -0.8464
 6140SOL     OW29881   1.280   1.699   7.908 -0.0335  0.4067  0.2573
 6140SOL    HW129882   1.195   1.743   7.909  1.0351  2.4300  1.9082
 6140SOL    HW229883   1.310   1.721   7.996 -1.2384 -2.0836  1.2950
 6141SOL     OW29884   0.467   2.303  10.820 -0.4802 -0.4117  0.1870
 6141SOL    HW129885   0.556   2.339  10.822 -0.4088 -0.4289 -3.0686
 6141SOL    HW229886   0.479   2.224  10.874 -0.1260 -1.5405 -1.5228
 6142SOL     OW29887   3.123   3.308   2.796  0.0133 -0.2527 -0.6029
 6142SOL    HW129888   3.122   3.395   2.754  0.7267  1.0850  2.1769
 6142SOL    HW229889   3.134   3.255   2.717  0.4294 -1.7568  0.4725
 6143SOL     OW29890   1.093   4.022   0.940 -0.5414  0.5440 -0.6525
 6143SOL    HW129891   1.000   4.041   0.941 -0.5130  0.6170  0.9859
 6143SOL    HW229892   1.126   4.082   1.007  1.7528 -1.4667  0.0357
 6144SOL     OW29893   3.948   4.115   6.328  0.4262 -0.3376 -0.1019
 6144SOL    HW129894   3.859   4.147   6.344 -0.0037 -1.7198  0.2335
 6144SOL    HW229895   3.979   4.188   6.274  2.7025  0.2713  2.0344
 6145SOL     OW29896   4.047   2.078  13.074  0.2433 -0.1303  0.4269
 6145SOL    HW129897   4.042   2.039  13.162 -0.3319 -0.6390  0.1659
 6145SOL    HW229898   3.953   2.094  13.065  0.3656  0.2402 -0.1944
 6146SOL     OW29899   0.268   0.259   0.799  0.2959 -0.3173  0.4970
 6146SOL    HW129900   0.337   0.268   0.734  1.0154 -1.1196  1.1487
 6146SOL    HW229901   0.200   0.232   0.737  1.2402 -1.7465  0.1006
 6147SOL     OW29902   2.371   2.103  12.970  0.4614 -0.1638  0.5865
 6147SOL    HW129903   2.303   2.037  12.980  0.3449 -0.4899 -2.1930
 6147SOL    HW229904   2.387   2.127  13.061 -3.3706 -3.0126  1.9911
 6148SOL     OW29905   2.174   0.589   4.783 -0.0621 -0.2555  0.2165
 6148SOL    HW129906   2.221   0.633   4.854 -0.6474  0.0073  0.4451
 6148SOL    HW229907   2.233   0.518   4.757  0.6251  0.9270 -1.4135
 6149SOL     OW29908   3.908   2.613  12.263  0.0343 -0.3587 -0.3730
 6149SOL    HW129909   3.926   2.552  12.334  1.0109  0.0460 -0.2707
 6149SOL    HW229910   3.816   2.634  12.277  0.3763  1.1002 -0.3374
 6150SOL     OW29911   2.841   0.108   7.816  0.1017  0.5692 -0.3764
 6150SOL    HW129912   2.847   0.052   7.893 -1.4514  0.4411 -0.3534
 6150SOL    HW229913   2.841   0.194   7.857 -1.4752  0.4324 -0.1056
 6151SOL     OW29914   3.069   0.128   2.797  0.3408  0.0449 -0.4456
 6151SOL    HW129915   2.989   0.088   2.830  0.4180  1.7451  1.8349
 6151SOL    HW229916   3.035   0.164   2.716  0.7139  2.0811  0.2841
 6152SOL     OW29917   0.802   0.512   5.867  0.1829  0.3188  0.6613
 6152SOL    HW129918   0.717   0.551   5.848  0.0790 -1.0358 -1.6654
 6152SOL    HW229919   0.855   0.577   5.821 -0.3545  0.4027  0.1739
 6153SOL     OW29920   4.151   0.258   1.940 -0.4499  0.0453 -0.3924
 6153SOL    HW129921   4.125   0.172   1.906  2.4620 -0.5998 -0.9181
 6153SOL    HW229922   4.175   0.296   1.855  0.3251 -1.5791 -0.9132
 6154SOL     OW29923   0.392   3.375   1.379  0.0605  0.0403 -0.1038
 6154SOL    HW129924   0.308   3.420   1.378  0.9757  1.7197 -1.3450
 6154SOL    HW229925   0.408   3.388   1.472 -1.9857 -0.0989  0.2681
 6155SOL     OW29926   2.090   3.402   8.450 -0.1993 -0.1311 -0.0501
 6155SOL    HW129927   2.071   3.461   8.523  0.3341  1.7484 -1.4294
 6155SOL    HW229928   2.005   3.383   8.411 -1.3696 -0.0631  2.4251
 6156SOL     OW29929   2.191   3.158   7.869  0.9515  0.3318 -0.7504
 6156SOL    HW129930   2.234   3.204   7.798 -1.2364 -0.0905 -2.3203
 6156SOL    HW229931   2.238   3.074   7.863  1.8435  0.9495 -2.1867
 6157SOL     OW29932   2.470   0.885   2.035 -0.0015  0.1219  0.0595
 6157SOL    HW129933   2.430   0.862   2.119 -1.0822 -0.0628 -0.4966
 6157SOL    HW229934   2.487   0.977   2.051 -0.0978 -0.2442  2.3418
 6158SOL     OW29935   4.101   1.680   5.159  0.3416  0.6744  0.4493
 6158SOL    HW129936   4.064   1.745   5.100  0.9905  0.1273 -0.5622
 6158SOL    HW229937   4.150   1.632   5.093 -0.2915  0.4768  0.1300
 6159SOL     OW29938   1.548   4.644   8.650 -0.0764  0.1810 -0.3964
 6159SOL    HW129939   1.470   4.691   8.679  0.7650  1.2592  0.0726
 6159SOL    HW229940   1.510   4.598   8.574  0.0366 -0.7134  0.0939
 6160SOL     OW29941   3.235   2.838   5.253  0.1214  0.6126  0.0649
 6160SOL    HW129942   3.225   2.878   5.167 -1.3656  3.3792  1.5306
 6160SOL    HW229943   3.326   2.854   5.278  0.7059 -1.2624 -0.9053
 6161SOL     OW29944   4.705   1.234   5.387 -0.1191  0.2544 -0.0109
 6161SOL    HW129945   0.004   1.163   5.326  0.2875 -1.1543  1.7579
 6161SOL    HW229946   0.075   1.268   5.391  0.3704 -1.0691  0.0733
 6162SOL     OW29947   0.863   3.738   3.023 -0.0703  0.5093 -0.1329
 6162SOL    HW129948   0.828   3.821   2.994  1.3534  1.0624 -0.2672
 6162SOL    HW229949   0.947   3.744   2.977  0.4260 -1.5760  0.4750
 6163SOL     OW29950   3.547   2.979   4.471  0.4305 -0.2433  0.3575
 6163SOL    HW129951   3.463   2.983   4.516 -0.3177 -1.1565 -0.9602
 6163SOL    HW229952   3.580   2.904   4.521  1.7230 -0.6948 -1.1742
 6164SOL     OW29953   4.115   1.275   7.791 -0.0203  0.1384  0.5172
 6164SOL    HW129954   4.166   1.195   7.802  0.6014  0.9298  3.2276
 6164SOL    HW229955   4.044   1.243   7.735 -0.2685  0.6872  0.5221
 6165SOL     OW29956   0.602   2.334   5.270 -0.1050  0.1701 -0.4551
 6165SOL    HW129957   0.651   2.308   5.347  0.1445 -1.5691 -1.2009
 6165SOL    HW229958   0.636   2.270   5.208 -0.1555  1.4177 -1.7816
 6166SOL     OW29959   4.096   1.429   8.280 -0.0700  0.1605 -0.2648
 6166SOL    HW129960   4.161   1.495   8.254  0.7714  0.6476  3.0544
 6166SOL    HW229961   4.140   1.354   8.241  2.7413  0.2513  2.6681
 6167SOL     OW29962   3.415   0.847   3.914  0.9272 -0.3783 -0.2736
 6167SOL    HW129963   3.394   0.919   3.855 -0.7158 -0.3143  0.4070
 6167SOL    HW229964   3.504   0.876   3.937  1.8390 -2.1954 -1.4176
 6168SOL     OW29965   2.434   4.428   4.656 -0.4412  0.4023 -0.0122
 6168SOL    HW129966   2.491   4.399   4.727 -0.0039  1.2055 -0.0366
 6168SOL    HW229967   2.489   4.501   4.627  1.2398 -0.3793  1.1633
 6169SOL     OW29968   2.594   4.703   4.781 -0.5125  0.0497 -0.6988
 6169SOL    HW129969   2.634   4.670   4.701 -0.4086 -1.8268  0.1343
 6169SOL    HW229970   2.543   0.058   4.747 -2.2611 -1.0785 -0.5394
 6170SOL     OW29971   3.636   0.014   2.216  0.6082  0.2034 -0.3615
 6170SOL    HW129972   3.553   0.031   2.259  0.5195 -0.6301 -0.1967
 6170SOL    HW229973   3.691   0.071   2.271 -1.5942  0.9355  1.0689
 6171SOL     OW29974   0.986   3.411  16.136 -0.5945 -0.0802  0.8980
 6171SOL    HW129975   0.980   3.432  16.229 -1.2143 -0.0532  0.8493
 6171SOL    HW229976   0.943   3.326  16.140 -3.1559  1.1417 -0.2797
 6172SOL     OW29977   3.241   3.383   1.119  0.7414 -0.1258  0.3518
 6172SOL    HW129978   3.276   3.372   1.030  0.0394 -3.2281  0.4448
 6172SOL    HW229979   3.224   3.292   1.143 -2.0285  0.8833  2.2307
 6173SOL     OW29980   2.286   0.697   3.441 -0.5210 -0.1770 -0.3252
 6173SOL    HW129981   2.264   0.693   3.534 -0.9728 -1.6112 -0.4905
 6173SOL    HW229982   2.325   0.784   3.432  1.2693 -1.0517 -1.0647
 6174SOL     OW29983   0.543   2.268  11.509 -0.4417  0.1428  0.0001
 6174SOL    HW129984   0.495   2.206  11.564  2.8363  1.3532  4.2432
 6174SOL    HW229985   0.570   2.204  11.444 -0.5524 -0.2762  0.3677
 6175SOL     OW29986   2.632   3.684   6.530 -0.1957 -0.8415  0.2669
 6175SOL    HW129987   2.607   3.776   6.535  3.3098  0.1859 -0.7971
 6175SOL    HW229988   2.560   3.651   6.477 -0.9555  0.3306  0.5774
 6176SOL     OW29989   2.518   1.951  15.018 -0.4307  0.3062  0.2525
 6176SOL    HW129990   2.602   1.961  15.062 -0.1057 -3.6016  0.5911
 6176SOL    HW229991   2.518   2.027  14.961  1.5487  0.3138  0.2726
 6177SOL     OW29992   2.918   3.291   1.566 -0.0113  0.0546 -0.2146
 6177SOL    HW129993   2.836   3.281   1.517  0.4371  0.4800 -1.0691
 6177SOL    HW229994   2.944   3.199   1.566 -0.1134  0.0325  2.7696
 6178SOL     OW29995   2.530   1.814   7.723  0.7044 -0.2916 -0.3490
 6178SOL    HW129996   2.497   1.755   7.655  0.0439 -1.4361  0.9615
 6178SOL    HW229997   2.625   1.812   7.710  0.5012 -1.1051 -1.7307
 6179SOL     OW29998   3.869   3.132   7.302  0.2673  0.1796  0.0911
 6179SOL    HW129999   3.814   3.098   7.231  1.1883 -0.8946 -0.0983
 6179SOL    HW230000   3.806   3.120   7.374  0.3487  0.6681  0.2484
 6180SOL     OW30001   4.573   4.608   4.281  0.4655  0.1349 -0.5624
 6180SOL    HW130002   4.618   4.690   4.261 -1.2710  1.6091  1.5382
 6180SOL    HW230003   4.629   4.576   4.352  0.3369  1.3684  0.1071
 6181SOL     OW30004   2.440   4.483   0.806 -0.1442  0.0558 -0.1771
 6181SOL    HW130005   2.491   4.558   0.777 -0.2892  0.6087  0.9734
 6181SOL    HW230006   2.400   4.520   0.885  0.8445  1.7703 -0.4670
 6182SOL     OW30007   3.429   2.012  13.935 -0.3166  0.2587  0.2386
 6182SOL    HW130008   3.514   2.019  13.893 -1.5248 -0.2634 -2.3046
 6182SOL    HW230009   3.364   2.026  13.866  0.6001 -0.5946 -0.7934
 6183SOL     OW30010   2.567   2.738   1.150 -0.3828  0.5189 -0.3373
 6183SOL    HW130011   2.472   2.732   1.155 -0.2880 -1.7126 -1.0661
 6183SOL    HW230012   2.573   2.817   1.097 -0.7436  0.8304  0.0976
 6184SOL     OW30013   4.420   3.142   2.592 -0.3758 -0.1108 -0.3034
 6184SOL    HW130014   4.430   3.236   2.578  1.3486 -0.0266  1.5054
 6184SOL    HW230015   4.508   3.136   2.627 -0.4701  1.1868  0.1815
 6185SOL     OW30016   1.122   3.549   0.857 -0.1306  0.1072  0.3049
 6185SOL    HW130017   1.123   3.628   0.911 -1.9444 -0.0157  0.4856
 6185SOL    HW230018   1.027   3.548   0.851 -0.2974  0.4231  2.8831
 6186SOL     OW30019   1.310   4.382   4.104  0.1997  0.3006  0.6970
 6186SOL    HW130020   1.341   4.472   4.097 -0.2811  0.1864 -2.6412
 6186SOL    HW230021   1.359   4.351   4.028 -2.3189  0.0161 -0.8112
 6187SOL     OW30022   3.885   3.763  10.455 -0.4469  0.2881  0.7758
 6187SOL    HW130023   3.860   3.843  10.409 -1.7202 -0.1218  0.7735
 6187SOL    HW230024   3.940   3.714  10.394 -3.4400 -0.0055 -1.6868
 6188SOL     OW30025   2.582   1.741   1.423  0.0308 -0.2237 -0.0882
 6188SOL    HW130026   2.564   1.667   1.366 -1.2666 -0.0844  0.1342
 6188SOL    HW230027   2.553   1.719   1.511 -2.4740  1.1425 -0.5520
 6189SOL     OW30028   0.973   0.388   3.911 -0.3105 -0.3542 -0.8383
 6189SOL    HW130029   1.046   0.440   3.946  0.7138 -0.9025 -2.1390
 6189SOL    HW230030   0.975   0.416   3.819 -0.3098 -0.0827 -0.7565
 6190SOL     OW30031   0.904   3.048   1.158 -0.5969  1.2513  0.0191
 6190SOL    HW130032   0.883   2.955   1.147  0.3376  0.9436  0.7421
 6190SOL    HW230033   0.926   3.052   1.251  1.5387 -1.9249 -0.3237
 6191SOL     OW30034   3.137   1.577  12.451 -0.3587  0.1823 -0.0106
 6191SOL    HW130035   3.050   1.617  12.443  0.2441  1.6538  0.7833
 6191SOL    HW230036   3.118   1.496  12.404 -0.2600  0.0171  0.2326
 6192SOL     OW30037   2.085   2.117   2.437 -0.5182 -0.1361  0.0833
 6192SOL    HW130038   2.101   2.122   2.531  0.2033  0.3871 -0.0705
 6192SOL    HW230039   2.099   2.022   2.428 -1.7347 -0.5478  2.5531
 6193SOL     OW30040   3.334   4.445  12.697 -0.0427 -0.1176  0.4287
 6193SOL    HW130041   3.316   4.470  12.787 -1.2038  1.6993 -0.2924
 6193SOL    HW230042   3.340   4.535  12.664  2.7458 -0.0863  1.0486
 6194SOL     OW30043   4.605   2.101   3.068  0.1057 -0.1006 -0.4627
 6194SOL    HW130044   4.666   2.062   3.006  0.1209 -0.0301 -0.4925
 6194SOL    HW230045   4.524   2.069   3.029  0.4380 -2.9280  1.2073
 6195SOL     OW30046   0.644   1.707   1.503  0.4983 -0.2844 -0.0329
 6195SOL    HW130047   0.570   1.766   1.514  1.1818  0.5764  0.0166
 6195SOL    HW230048   0.695   1.757   1.438 -1.8766  1.8571 -0.2255
 6196SOL     OW30049   1.652   3.202  15.511  0.5745  0.5125 -0.0054
 6196SOL    HW130050   1.565   3.239  15.498  0.3830 -0.7260 -2.2945
 6196SOL    HW230051   1.715   3.273  15.507  0.1801  1.0505  3.4157
 6197SOL     OW30052   1.163   1.537   6.171 -0.1884  0.1699 -0.6662
 6197SOL    HW130053   1.080   1.500   6.198  0.9983 -2.2314 -0.3427
 6197SOL    HW230054   1.214   1.490   6.236 -0.6832  1.2125  0.4638
 6198SOL     OW30055   1.012   3.876   6.362  0.4558 -0.3723  0.0091
 6198SOL    HW130056   0.929   3.869   6.315 -0.0742  0.0563  0.8851
 6198SOL    HW230057   1.020   3.971   6.368 -0.3350 -0.4337  1.8783
 6199SOL     OW30058   4.373   0.730   6.045  0.4659  0.8905  0.7739
 6199SOL    HW130059   4.345   0.670   5.977  0.8292  1.5776  0.0181
 6199SOL    HW230060   4.464   0.708   6.064 -0.1417  0.3364  3.1306
 6200SOL     OW30061   1.535   0.054  10.340 -0.4535  0.6250  0.3395
 6200SOL    HW130062   1.596   0.100  10.282  0.6361 -1.4176 -0.1454
 6200SOL    HW230063   1.593   0.014  10.405  3.3151  1.8058 -2.2571
 6201SOL     OW30064   2.546   0.777   2.677 -0.6382 -0.0927 -0.0434
 6201SOL    HW130065   2.567   0.869   2.660  2.7628 -0.9891 -0.7279
 6201SOL    HW230066   2.451   0.783   2.687 -0.6948 -0.1343 -0.5804
 6202SOL     OW30067   4.444   4.105  15.462  0.0755 -0.5358 -0.4126
 6202SOL    HW130068   4.428   4.192  15.500 -0.0988  0.2176 -2.2248
 6202SOL    HW230069   4.523   4.115  15.409  0.1973 -0.3004 -0.1901
 6203SOL     OW30070   1.381   3.825   7.426 -0.1072  0.3135  0.0603
 6203SOL    HW130071   1.361   3.734   7.406  0.3245  0.2878 -0.2549
 6203SOL    HW230072   1.303   3.854   7.473 -0.6541  0.4634 -0.9301
 6204SOL     OW30073   0.835   0.224   8.987 -0.3489  0.1472  0.1779
 6204SOL    HW130074   0.889   0.163   9.038  0.4083 -1.0296 -2.0222
 6204SOL    HW230075   0.772   0.160   8.955  0.2889  0.3293 -1.4409
 6205SOL     OW30076   4.533   0.579   7.892  0.1588 -0.2384 -0.2706
 6205SOL    HW130077   4.569   0.490   7.888  0.1393 -0.2338 -0.5490
 6205SOL    HW230078   4.583   0.609   7.968  0.6995  2.8652 -1.8435
 6206SOL     OW30079   1.794   3.795   8.948 -0.0433  0.2681  0.1970
 6206SOL    HW130080   1.722   3.732   8.952  0.7314 -0.6277  0.2043
 6206SOL    HW230081   1.847   3.748   9.012  1.5021  1.0073 -0.5324
 6207SOL     OW30082   3.625   2.764   3.740  0.3374 -0.0638 -0.0012
 6207SOL    HW130083   3.588   2.746   3.826  0.1171 -0.7393 -0.2380
 6207SOL    HW230084   3.568   2.718   3.678 -2.1367  1.9841  0.7566
 6208SOL     OW30085   4.542   2.477   4.385  0.0403 -0.0434  0.4360
 6208SOL    HW130086   4.584   2.450   4.303 -1.0971 -1.8909  0.4638
 6208SOL    HW230087   4.490   2.407   4.424 -1.3596  1.0930  0.6336
 6209SOL     OW30088   1.520   0.918  14.221 -0.1404 -0.1004  0.4130
 6209SOL    HW130089   1.547   0.952  14.306 -2.3145  0.4120  0.8879
 6209SOL    HW230090   1.428   0.944  14.231 -0.0315 -0.1126  1.4725
 6210SOL     OW30091   3.934   3.133   0.772 -0.2986  0.5112  0.8604
 6210SOL    HW130092   3.913   3.201   0.836  0.2307  1.6768 -0.2102
 6210SOL    HW230093   3.888   3.168   0.697  1.0233 -0.7592 -0.5455
 6211SOL     OW30094   4.544   0.254  12.114 -0.8086 -0.0867 -0.2546
 6211SOL    HW130095   4.487   0.199  12.061  0.8791 -2.3242  0.2159
 6211SOL    HW230096   4.622   0.198  12.112 -0.7004 -0.0204  1.6625
 6212SOL     OW30097   2.120   0.889   8.760  0.3347 -0.6942 -0.3661
 6212SOL    HW130098   2.086   0.972   8.794 -0.8584 -1.3478  0.0310
 6212SOL    HW230099   2.203   0.915   8.720  1.1362 -0.8492  1.1743
 6213SOL     OW30100   0.865   1.547   6.653 -0.0181 -0.2707  0.1349
 6213SOL    HW130101   0.896   1.622   6.705 -1.1863 -0.5590  1.2610
 6213SOL    HW230102   0.936   1.485   6.668  0.0601 -0.0919  0.5140
 6214SOL     OW30103   4.471   0.995   8.750  0.2344  0.3871  0.3034
 6214SOL    HW130104   4.450   1.018   8.660  0.9237 -0.2772 -0.0259
 6214SOL    HW230105   4.489   1.079   8.792 -0.4299  0.6295  0.1023
 6215SOL     OW30106   3.701   2.174   5.441 -0.4897 -0.4429 -0.6245
 6215SOL    HW130107   3.797   2.179   5.439 -0.5381  0.9168  0.3352
 6215SOL    HW230108   3.681   2.152   5.350 -0.1001  1.8369 -1.2632
 6216SOL     OW30109   1.178   4.591   2.277  0.1338 -0.1621 -0.1580
 6216SOL    HW130110   1.211   4.673   2.241  0.7391 -0.6749 -0.7848
 6216SOL    HW230111   1.199   4.539   2.200 -0.9840 -1.0530  0.1486
 6217SOL     OW30112   1.498   4.022  14.008  0.3298  0.1599  0.1751
 6217SOL    HW130113   1.546   4.094  14.050  1.0061 -0.2643  0.1372
 6217SOL    HW230114   1.526   4.030  13.917 -0.3025 -3.9577 -0.3930
 6218SOL     OW30115   2.677   1.051   8.397 -0.6431  0.4108  0.5806
 6218SOL    HW130116   2.598   1.014   8.357  0.1774  1.5965 -2.1469
 6218SOL    HW230117   2.709   0.963   8.415 -0.9874 -0.5121 -3.4216
 6219SOL     OW30118   3.590   2.728   3.291 -0.0160  0.6759  0.5530
 6219SOL    HW130119   3.497   2.744   3.310  0.0855 -0.6262  2.0783
 6219SOL    HW230120   3.582   2.644   3.245  0.8852  0.8612  0.0535
 6220SOL     OW30121   4.157   0.200  14.508  0.2099 -0.0894  0.2535
 6220SOL    HW130122   4.200   0.138  14.566 -0.2370 -0.1861  0.4814
 6220SOL    HW230123   4.118   0.145  14.441 -0.2314  0.0803  0.3655
 6221SOL     OW30124   1.481   2.627  16.713 -0.2055  0.6252  0.5844
 6221SOL    HW130125   1.459   2.552  16.767  0.5046  0.3201  0.4468
 6221SOL    HW230126   1.403   2.636  16.658 -0.7317 -0.6694  1.1199
 6222SOL     OW30127   2.768   1.583   1.990  0.2557  0.2093 -0.4686
 6222SOL    HW130128   2.858   1.615   1.991  0.2700  0.1774 -0.9000
 6222SOL    HW230129   2.738   1.657   1.938  0.4811 -0.5038 -1.6071
 6223SOL     OW30130   3.630   3.521   2.957  0.4191 -0.0918 -0.6287
 6223SOL    HW130131   3.660   3.459   3.024 -1.1947 -0.6446 -0.4119
 6223SOL    HW230132   3.697   3.517   2.889 -0.1999  0.5960 -1.2867
 6224SOL     OW30133   1.973   0.649  16.268 -0.1102  0.0140  0.4885
 6224SOL    HW130134   1.925   0.730  16.249 -0.3183 -0.1751  0.1995
 6224SOL    HW230135   1.915   0.620  16.339  1.6145 -1.6290  1.2098
 6225SOL     OW30136   4.199   3.842   8.885 -0.0545 -0.2981  0.0007
 6225SOL    HW130137   4.194   3.933   8.913 -0.6346  0.1633 -1.5995
 6225SOL    HW230138   4.285   3.811   8.916 -0.0174  1.5315  1.6892
 6226SOL     OW30139   1.951   3.542  10.314 -0.7681 -0.0941  0.3125
 6226SOL    HW130140   2.009   3.613  10.342 -1.6201  0.4351  0.7453
 6226SOL    HW230141   1.965   3.479  10.384 -0.8257 -2.0117 -1.4123
 6227SOL     OW30142   4.591   0.430   3.714  0.1396 -0.4518 -0.1423
 6227SOL    HW130143   4.649   0.457   3.784  1.6729  1.0405 -1.9994
 6227SOL    HW230144   4.588   0.511   3.664 -3.9309  0.1634  1.0904
 6228SOL     OW30145   0.961   4.550   3.603 -0.6790  0.1556 -0.0184
 6228SOL    HW130146   0.904   4.620   3.573 -2.0038 -0.9028  0.0302
 6228SOL    HW230147   0.956   4.560   3.698  1.1960 -1.9652  0.3217
 6229SOL     OW30148   3.555   0.563  11.557  0.4461  0.3812  0.3882
 6229SOL    HW130149   3.501   0.625  11.509  1.2162  0.4016 -0.4448
 6229SOL    HW230150   3.579   0.496  11.492 -1.1343 -0.2563  0.4406
 6230SOL     OW30151   3.577   3.968   8.641  0.3834 -0.2014 -0.2812
 6230SOL    HW130152   3.657   3.997   8.686 -0.3237  1.0686  0.1368
 6230SOL    HW230153   3.560   4.041   8.583 -1.2937  0.6767  1.3322
 6231SOL     OW30154   0.903   2.778  16.524 -0.1593 -0.0612  0.5616
 6231SOL    HW130155   0.906   2.703  16.464 -3.9169  1.0496 -1.0173
 6231SOL    HW230156   0.851   2.741  16.595 -0.9185  1.0695  0.5958
 6232SOL     OW30157   4.470   3.857   9.433 -0.0981 -0.1909 -0.4904
 6232SOL    HW130158   4.399   3.906   9.392  0.3594 -1.1749 -2.4345
 6232SOL    HW230159   4.406   3.796   9.470  1.6099 -1.6499  0.0781
 6233SOL     OW30160   4.176   4.202   5.219  0.0378  0.0844  0.4885
 6233SOL    HW130161   4.176   4.265   5.291 -2.7146  0.2312  0.3320
 6233SOL    HW230162   4.140   4.256   5.149  1.4691 -2.2333 -2.0585
 6234SOL     OW30163   2.979   0.011   8.455 -0.2617 -0.5707 -0.1019
 6234SOL    HW130164   3.071   4.709   8.440 -0.2752  0.3775 -1.5929
 6234SOL    HW230165   2.986   0.106   8.464  2.5219 -0.7832  0.1040
 6235SOL     OW30166   1.065   0.629   4.393 -0.2677 -0.0101  0.6205
 6235SOL    HW130167   1.096   0.647   4.482  0.5558  0.7684  0.1677
 6235SOL    HW230168   1.086   0.711   4.349  1.8891 -1.4320 -0.9855
 6236SOL     OW30169   2.126   1.652   9.110  0.0709  0.9083  0.1825
 6236SOL    HW130170   2.052   1.633   9.167  0.3843 -0.8570  0.0136
 6236SOL    HW230171   2.149   1.562   9.085  0.8473  1.5040 -1.2825
 6237SOL     OW30172   4.423   1.478   7.101 -0.0799  0.4178 -0.0347
 6237SOL    HW130173   4.445   1.406   7.161 -2.6282 -0.4413 -0.1224
 6237SOL    HW230174   4.496   1.540   7.108  0.0255  0.0916  1.9612
 6238SOL     OW30175   1.151   4.298   6.276  0.0732  0.3938 -0.1454
 6238SOL    HW130176   1.232   4.252   6.298 -0.2217  0.0210  0.1682
 6238SOL    HW230177   1.185   4.342   6.199  1.1417 -0.4591 -0.1577
 6239SOL     OW30178   4.625   3.630   2.410  0.2754  0.0335  0.7659
 6239SOL    HW130179   4.545   3.679   2.427 -0.3206  1.0370 -4.9441
 6239SOL    HW230180   4.658   3.675   2.332  0.0909 -1.0332  0.0651
 6240SOL     OW30181   0.521   0.456   3.460  0.5054  0.1825  0.0569
 6240SOL    HW130182   0.443   0.401   3.462  0.8475 -0.3134  0.0792
 6240SOL    HW230183   0.495   0.545   3.440 -1.0421  0.1727  2.0888
 6241SOL     OW30184   2.168   4.686   1.700  0.4729 -0.2951  0.1532
 6241SOL    HW130185   2.096   0.025   1.680  0.6469 -0.7467 -1.8246
 6241SOL    HW230186   2.224   0.032   1.741 -1.8137 -0.4181  3.4127
 6242SOL     OW30187   1.349   4.065  16.071  0.5627 -0.0412  0.1200
 6242SOL    HW130188   1.298   4.037  15.995  2.2362  0.2348 -1.1073
 6242SOL    HW230189   1.304   4.146  16.094 -0.3343 -0.7007  0.6938
 6243SOL     OW30190   1.683   0.910   4.527  0.1793  0.8315 -1.0301
 6243SOL    HW130191   1.659   0.933   4.617  0.1865 -1.5305 -0.4204
 6243SOL    HW230192   1.608   0.861   4.493  0.3939  0.7586 -1.3980
 6244SOL     OW30193   4.197   0.335   2.605  0.2777 -0.3282  0.0918
 6244SOL    HW130194   4.258   0.392   2.558 -0.5304  0.2784 -0.2262
 6244SOL    HW230195   4.217   0.251   2.565  1.6658  0.7202 -1.4543
 6245SOL     OW30196   2.410   3.356   4.363  0.0897 -0.2950  0.6581
 6245SOL    HW130197   2.429   3.429   4.421  0.0212  0.8654 -0.7885
 6245SOL    HW230198   2.402   3.410   4.285  3.4740  0.9711  1.1842
 6246SOL     OW30199   3.490   0.293  17.210 -0.0305 -0.1409  0.0096
 6246SOL    HW130200   3.560   0.231  17.189 -0.7252 -0.4446 -1.3723
 6246SOL    HW230201   3.419   0.236  17.182  1.8072 -2.2770 -0.3570
 6247SOL     OW30202   0.263   4.300   7.994 -0.5803 -0.4935  0.4899
 6247SOL    HW130203   0.228   4.388   7.984 -1.1115 -0.6857  0.6314
 6247SOL    HW230204   0.218   4.284   8.078 -0.7691 -0.0651  0.4664
 6248SOL     OW30205   1.560   3.016  10.015 -0.3885  0.2819 -0.0178
 6248SOL    HW130206   1.648   2.993  10.046 -1.1851 -0.7636  1.4690
 6248SOL    HW230207   1.580   3.062   9.934  1.8757 -1.8242 -0.6417
 6249SOL     OW30208   3.764   1.338   5.144 -0.4497  0.3167  0.1972
 6249SOL    HW130209   3.724   1.308   5.226 -0.1435 -1.4090 -0.2835
 6249SOL    HW230210   3.691   1.395   5.118 -1.1838 -1.4766 -1.6969
 6250SOL     OW30211   1.515   2.299   8.186  0.5194 -0.1360 -0.0144
 6250SOL    HW130212   1.558   2.377   8.220 -0.7838 -0.5629  2.5903
 6250SOL    HW230213   1.434   2.290   8.236 -1.5877  1.8896 -3.0972
 6251SOL     OW30214   4.182   0.439   0.930  0.3898 -0.2183 -0.2316
 6251SOL    HW130215   4.146   0.476   0.850 -0.1315  0.6150  0.3774
 6251SOL    HW230216   4.164   0.508   0.994  0.1870 -0.6039  0.1264
 6252SOL     OW30217   1.917   2.990  13.271  0.0249  0.5059  0.2387
 6252SOL    HW130218   1.842   3.049  13.278 -0.7626 -0.5804  0.8845
 6252SOL    HW230219   1.901   2.911  13.323  0.4422  0.5243  0.3948
 6253SOL     OW30220   0.019   0.812   5.823  0.0149  0.4822  0.3592
 6253SOL    HW130221   4.667   0.867   5.793  0.4496  2.2630  2.6356
 6253SOL    HW230222   0.055   0.778   5.740 -1.7604 -0.2177 -0.1260
 6254SOL     OW30223   3.573   4.396  17.165 -0.0493 -0.3611 -0.1338
 6254SOL    HW130224   3.625   4.315  17.170  0.3722 -0.1704 -1.4155
 6254SOL    HW230225   3.519   4.376  17.089  0.2907  1.4186 -0.8217
 6255SOL     OW30226   2.744   3.770   3.270  0.0777  0.3516  0.2229
 6255SOL    HW130227   2.780   3.724   3.346  0.9930 -0.1515 -0.5095
 6255SOL    HW230228   2.793   3.852   3.277  1.2918 -0.2067 -1.8791
 6256SOL     OW30229   1.428   1.042   6.062  0.5492 -0.3933 -0.2017
 6256SOL    HW130230   1.507   1.013   6.109  0.4152  0.2179  0.4074
 6256SOL    HW230231   1.427   1.005   5.974 -1.4110 -1.5659  0.3174
 6257SOL     OW30232   2.402   1.009  16.085  0.2820  0.2043 -0.3883
 6257SOL    HW130233   2.332   1.003  16.020 -0.8122 -1.2694  0.9438
 6257SOL    HW230234   2.462   0.947  16.045  0.9740  0.3772  0.3850
 6258SOL     OW30235   1.245   1.990  16.765 -0.0368 -0.2412  0.2785
 6258SOL    HW130236   1.276   2.055  16.702 -1.6584  0.6078  0.3519
 6258SOL    HW230237   1.288   2.008  16.848  0.2630 -0.4416  0.1671
 6259SOL     OW30238   3.470   2.036   9.351  0.2862  0.1231 -0.0146
 6259SOL    HW130239   3.433   2.050   9.264  0.7061 -1.0680 -0.3705
 6259SOL    HW230240   3.446   1.946   9.373  1.6273 -0.4761 -1.0455
 6260SOL     OW30241   3.838   4.561   2.304 -0.2736 -0.9594 -0.6345
 6260SOL    HW130242   3.761   4.609   2.274  1.2259  2.1377  0.4648
 6260SOL    HW230243   3.784   4.485   2.326 -0.1329 -0.2170  2.1587
 6261SOL     OW30244   3.208   1.514   9.170  0.3080  0.2372 -0.5603
 6261SOL    HW130245   3.291   1.503   9.123  0.8010 -0.0551  0.3830
 6261SOL    HW230246   3.215   1.468   9.253 -0.7423 -0.8442 -1.0761
 6262SOL     OW30247   3.173   0.868   6.996 -0.9025 -0.6269  0.5993
 6262SOL    HW130248   3.202   0.934   7.059  0.7033  0.9040 -1.7586
 6262SOL    HW230249   3.121   0.923   6.938  2.5014  2.2599  0.2730
 6263SOL     OW30250   2.691   2.016   8.091 -0.4578 -0.3966 -0.4379
 6263SOL    HW130251   2.632   1.990   8.161  2.1736 -1.4736  1.3810
 6263SOL    HW230252   2.657   2.101   8.063  1.0326 -0.0324 -1.1575
 6264SOL     OW30253   0.089   1.489  12.983  0.0101 -0.0199 -0.3380
 6264SOL    HW130254   0.026   1.556  12.959 -0.0269 -0.5324 -1.6665
 6264SOL    HW230255   0.116   1.450  12.899  3.7635 -1.8082  1.6841
 6265SOL     OW30256   0.669   3.062   6.652  0.2748  0.2275 -0.2958
 6265SOL    HW130257   0.576   3.080   6.670  0.4733  1.9921 -1.0161
 6265SOL    HW230258   0.702   3.148   6.627  0.1841  0.0662 -0.9611
 6266SOL     OW30259   3.787   2.496   5.042  0.3115 -0.6110 -0.0746
 6266SOL    HW130260   3.849   2.425   5.028  1.4586  0.5426 -0.8208
 6266SOL    HW230261   3.845   2.566   5.073 -0.7271  1.1055 -1.9617
 6267SOL     OW30262   2.382   4.021   3.812  0.2354 -0.1024  0.1976
 6267SOL    HW130263   2.416   3.948   3.760  1.2423 -0.0095  0.7345
 6267SOL    HW230264   2.315   3.986   3.871 -1.6986  2.2672 -0.6317
 6268SOL     OW30265   3.611   2.890   8.044  0.3153 -0.6629  0.4950
 6268SOL    HW130266   3.532   2.935   8.016  0.3959 -1.0208 -0.2948
 6268SOL    HW230267   3.570   2.807   8.068 -0.7089 -1.0681 -2.6934
 6269SOL     OW30268   1.355   3.284   0.189  0.1666  0.2591  0.1852
 6269SOL    HW130269   1.444   3.285   0.224 -0.2612  2.3115  1.1711
 6269SOL    HW230270   1.304   3.286   0.270  0.2871  1.8568  0.2150
 6270SOL     OW30271   2.246   3.917   3.049 -0.3113 -0.7353 -0.7210
 6270SOL    HW130272   2.244   3.821   3.050  3.3300 -0.8340  0.1354
 6270SOL    HW230273   2.241   3.939   3.142  2.8570 -1.3487 -0.3965
 6271SOL     OW30274   0.057   3.622  12.250  0.2139  0.2336  0.0998
 6271SOL    HW130275   0.073   3.712  12.281 -0.9616 -0.4385  2.6624
 6271SOL    HW230276   0.086   3.569  12.323  0.3283 -0.7577 -0.6713
 6272SOL     OW30277   4.566   3.841   3.645 -0.3852 -0.5349  0.2774
 6272SOL    HW130278   4.518   3.887   3.576  1.3800  0.7683 -0.0704
 6272SOL    HW230279   4.584   3.768   3.585  0.3268 -0.6493  0.6260
 6273SOL     OW30280   4.280   3.643   9.518 -0.5631  0.3951 -0.5852
 6273SOL    HW130281   4.275   3.582   9.444 -1.3430 -1.8071  1.2632
 6273SOL    HW230282   4.246   3.588   9.589 -0.0320  0.0932 -0.5600
 6274SOL     OW30283   0.494   0.246   6.272  0.5826  0.0221 -0.1777
 6274SOL    HW130284   0.427   0.179   6.281  1.9911 -1.1558  1.3807
 6274SOL    HW230285   0.475   0.312   6.339  2.0775 -1.2047  1.4344
 6275SOL     OW30286   3.347   3.504   6.677  1.1122  0.1214  0.2461
 6275SOL    HW130287   3.431   3.543   6.704  0.4597  1.1396  0.8077
 6275SOL    HW230288   3.348   3.486   6.583 -1.1163 -0.8454  0.4091
 6276SOL     OW30289   4.660   1.902   4.989  0.3652 -0.0070 -0.1186
 6276SOL    HW130290   0.023   1.938   4.957  0.8326 -1.3450 -0.4156
 6276SOL    HW230291   4.612   1.985   4.996  1.1263  0.2866  1.5877
 6277SOL     OW30292   3.097   4.573  17.419  0.2273 -0.0907  0.1677
 6277SOL    HW130293   3.189   4.585  17.396  1.1594 -2.1553  2.8006
 6277SOL    HW230294   3.053   4.654  17.392 -1.8437 -0.7682  1.4508
 6278SOL     OW30295   4.238   1.007  16.134 -0.6144  0.1057 -0.3101
 6278SOL    HW130296   4.285   1.088  16.112 -1.0208  0.5593  0.4714
 6278SOL    HW230297   4.271   0.987  16.221 -3.2760 -0.1954  0.6511
 6279SOL     OW30298   1.778   1.920   0.257  0.3819  0.5654 -0.2339
 6279SOL    HW130299   1.826   1.856   0.206 -2.3046 -1.2613 -0.4801
 6279SOL    HW230300   1.762   1.870   0.337 -0.2534 -0.0333 -0.7340
 6280SOL     OW30301   2.486   3.657  10.104  0.2627  0.7721 -0.0944
 6280SOL    HW130302   2.563   3.681  10.053  1.2913  1.3232  1.7262
 6280SOL    HW230303   2.514   3.672  10.194 -1.3651  3.6089 -0.0592
 6281SOL     OW30304   1.767   2.776  13.383 -0.1421 -0.5409 -0.2712
 6281SOL    HW130305   1.820   2.712  13.334  1.0278  0.4649 -0.3144
 6281SOL    HW230306   1.711   2.718  13.434 -0.8170 -0.2192 -0.6536
 6282SOL     OW30307   2.028   4.387   8.541 -0.0942 -0.3069 -0.0011
 6282SOL    HW130308   2.028   4.476   8.575  0.0946  1.0189 -3.5321
 6282SOL    HW230309   1.958   4.354   8.598 -0.1256  1.0579  0.7594
 6283SOL     OW30310   2.911   1.678  13.826 -0.0495  0.2893  0.2883
 6283SOL    HW130311   2.935   1.649  13.914  0.7750 -1.8316 -0.6222
 6283SOL    HW230312   2.841   1.741  13.843  1.6301  2.0659  0.4599
 6284SOL     OW30313   0.365   4.191   0.856 -0.7278  0.1685  0.5218
 6284SOL    HW130314   0.279   4.231   0.842 -0.5793  0.7839  1.3729
 6284SOL    HW230315   0.351   4.152   0.942  0.7125 -0.4796  0.4690
 6285SOL     OW30316   2.502   0.363   7.244  0.5767 -0.1335 -0.0281
 6285SOL    HW130317   2.482   0.282   7.197  0.3527  0.2570 -0.6064
 6285SOL    HW230318   2.589   0.350   7.281  2.1174  0.5460 -3.4398
 6286SOL     OW30319   3.982   2.960   3.035  0.6115  0.1069 -0.1576
 6286SOL    HW130320   3.934   2.896   3.089 -1.3057  1.0590 -0.7338
 6286SOL    HW230321   3.945   2.931   2.951  0.5706 -0.8024  0.1726
 6287SOL     OW30322   4.437   4.237   5.121 -0.4851  0.2393  0.4070
 6287SOL    HW130323   4.425   4.283   5.038  0.5737  1.7285  1.0838
 6287SOL    HW230324   4.348   4.243   5.156 -0.5549 -0.4657  0.3673
 6288SOL     OW30325   4.556   2.561   6.817 -0.0823 -0.1969  0.4181
 6288SOL    HW130326   4.493   2.594   6.753  0.5735  1.1701  0.4768
 6288SOL    HW230327   4.571   2.472   6.784  0.1827 -0.1342  0.3706
 6289SOL     OW30328   0.640   4.579  16.333  0.1311 -0.1758  0.3408
 6289SOL    HW130329   0.571   4.569  16.399 -1.1056  0.7915 -0.7948
 6289SOL    HW230330   0.703   4.627  16.387 -0.9121  2.0670 -0.4288
 6290SOL     OW30331   0.620   1.494   6.578 -1.0004  0.4538 -0.1404
 6290SOL    HW130332   0.713   1.513   6.590 -0.8604  0.1007 -0.6706
 6290SOL    HW230333   0.620   1.408   6.537  2.6990 -0.3095  1.4736
 6291SOL     OW30334   4.425   2.293  17.176  0.3025  0.5243  0.1006
 6291SOL    HW130335   4.379   2.377  17.165 -1.1266 -0.1451  0.8581
 6291SOL    HW230336   4.514   2.318  17.199  1.2090 -0.4443 -2.3634
 6292SOL     OW30337   4.370   2.035   7.156 -0.4181 -0.4706 -0.0223
 6292SOL    HW130338   4.442   2.026   7.094 -0.8409  0.7572 -0.6963
 6292SOL    HW230339   4.389   1.963   7.215  0.2256 -0.0049  0.3254
 6293SOL     OW30340   2.414   3.039  11.102 -0.2501  0.3700 -0.1357
 6293SOL    HW130341   2.373   2.973  11.046 -1.2176  1.0332 -0.2049
 6293SOL    HW230342   2.417   3.111  11.040  1.3342  0.8780  0.5387
 6294SOL     OW30343   1.333   0.898   5.794 -0.0591 -0.0101 -0.2732
 6294SOL    HW130344   1.246   0.924   5.822  0.5948  1.8615  0.0622
 6294SOL    HW230345   1.308   0.838   5.725  1.5585 -0.0070 -0.8572
 6295SOL     OW30346   1.256   0.778  16.784 -0.4388 -0.4723  0.9264
 6295SOL    HW130347   1.299   0.699  16.818  0.2669 -0.0686  0.9703
 6295SOL    HW230348   1.215   0.744  16.705  0.2490 -0.2858  0.4873
 6296SOL     OW30349   4.286   2.115   7.866 -0.4116 -0.3660 -0.5807
 6296SOL    HW130350   4.356   2.143   7.806  0.4636 -0.8156  0.2298
 6296SOL    HW230351   4.312   2.024   7.881  0.3840 -0.1748 -0.7862
 6297SOL     OW30352   3.086   3.413   2.460 -0.0149 -0.2983  0.2450
 6297SOL    HW130353   3.124   3.334   2.498  1.2533  0.8522  1.3657
 6297SOL    HW230354   3.117   3.477   2.524 -1.2840 -1.1249  1.6928
 6298SOL     OW30355   3.280   3.890  14.600  0.2853  0.6802  0.8251
 6298SOL    HW130356   3.209   3.864  14.542  2.2957 -0.8201 -0.9547
 6298SOL    HW230357   3.328   3.951  14.543 -0.3098  0.0350 -0.3585
 6299SOL     OW30358   2.296   0.771   8.055  0.4294  0.0986  0.5511
 6299SOL    HW130359   2.333   0.771   7.967 -0.0573 -2.9103  0.3626
 6299SOL    HW230360   2.328   0.856   8.086  0.0387 -0.1321  1.5822
 6300SOL     OW30361   0.292   4.030   3.265 -0.6973 -1.1498 -0.2880
 6300SOL    HW130362   0.307   4.021   3.359 -0.6937 -0.2450 -0.2008
 6300SOL    HW230363   0.224   3.964   3.254 -2.3082  0.1107  2.3035
 6301SOL     OW30364   1.928   1.694   5.470 -0.2295  0.6482  0.2961
 6301SOL    HW130365   1.944   1.599   5.465 -1.8860  0.3629  0.2177
 6301SOL    HW230366   1.842   1.695   5.512 -0.8088  1.6543 -0.9419
 6302SOL     OW30367   0.482   3.748   3.409  0.3039  0.5626  0.3401
 6302SOL    HW130368   0.558   3.799   3.436  0.1014  1.2060 -0.2805
 6302SOL    HW230369   0.520   3.698   3.337 -1.0415  0.6807 -0.4582
 6303SOL     OW30370   1.211   2.651   8.189  0.2986 -0.4966  0.0328
 6303SOL    HW130371   1.230   2.604   8.270 -0.9724  0.6618  1.0098
 6303SOL    HW230372   1.300   2.683   8.170  0.2942 -1.1476 -1.1083
 6304SOL     OW30373   0.754   1.198   5.285  0.2818 -0.7079  0.3491
 6304SOL    HW130374   0.808   1.244   5.351  1.0949 -0.7148 -0.3056
 6304SOL    HW230375   0.799   1.227   5.205  0.8243  0.0656  0.9281
 6305SOL     OW30376   0.054   3.479  14.627 -0.1747 -0.4772  0.3234
 6305SOL    HW130377   0.131   3.426  14.645  0.1175  0.2684  1.2688
 6305SOL    HW230378   4.718   3.472  14.704 -1.4467 -0.4753 -0.5836
 6306SOL     OW30379   1.770   3.080   8.170  0.1210 -0.3871 -0.4450
 6306SOL    HW130380   1.720   3.009   8.130  0.5812 -1.6779  1.2616
 6306SOL    HW230381   1.858   3.049   8.150  0.5563  0.5950 -0.0556
 6307SOL     OW30382   0.777   3.300   6.653 -0.7040  0.0035  0.7459
 6307SOL    HW130383   0.689   3.335   6.635  0.3609  1.5991 -1.2960
 6307SOL    HW230384   0.837   3.354   6.602  0.1186 -0.3487  1.3377
 6308SOL     OW30385   4.619   2.657   3.535 -0.0916  0.0520 -0.1601
 6308SOL    HW130386   4.633   2.616   3.450 -0.1875  0.0928 -0.1957
 6308SOL    HW230387   4.639   2.748   3.513 -1.4581  0.2603 -0.5528
 6309SOL     OW30388   1.091   4.432   8.630 -0.1300 -0.1325  0.0035
 6309SOL    HW130389   1.081   4.356   8.571 -0.7152 -0.7194  0.8681
 6309SOL    HW230390   1.011   4.482   8.615 -0.2010 -0.4109 -0.5697
 6310SOL     OW30391   3.973   3.881  12.465  0.0569  0.3246  0.6751
 6310SOL    HW130392   3.947   3.931  12.387 -0.0664 -0.9089 -0.0837
 6310SOL    HW230393   4.069   3.885  12.460 -0.0352  1.4246 -0.2642
 6311SOL     OW30394   0.944   2.254   3.438  0.5660  0.4697 -0.3477
 6311SOL    HW130395   0.950   2.339   3.483  2.8456 -1.9864  4.0402
 6311SOL    HW230396   0.858   2.254   3.397  0.0543  0.1253  0.7282
 6312SOL     OW30397   1.241   2.401   4.407  0.7086 -0.1402 -0.0781
 6312SOL    HW130398   1.335   2.420   4.409  0.2973  2.1560 -1.9559
 6312SOL    HW230399   1.222   2.411   4.500  0.7578  2.7336 -0.3852
 6313SOL     OW30400   3.632   0.572   6.803 -0.4291  0.2333  0.4409
 6313SOL    HW130401   3.571   0.530   6.864  1.7690 -0.9517  1.8317
 6313SOL    HW230402   3.683   0.627   6.862  0.1143  0.7283 -0.4894
 6314SOL     OW30403   3.254   2.146   3.137 -0.1110 -0.5252  0.2122
 6314SOL    HW130404   3.320   2.097   3.087  0.5044  1.3845 -0.8478
 6314SOL    HW230405   3.257   2.099   3.221  0.0691 -1.3886 -0.2721
 6315SOL     OW30406   0.854   1.889   4.829  0.1251  0.6131  0.1179
 6315SOL    HW130407   0.814   1.801   4.825  1.3055  0.0878 -0.0062
 6315SOL    HW230408   0.919   1.882   4.898 -0.7283  1.2853  0.9768
 6316SOL     OW30409   0.233   2.124   0.302 -0.1026 -0.6551 -0.1264
 6316SOL    HW130410   0.247   2.176   0.381 -0.1355  0.1423 -0.6517
 6316SOL    HW230411   0.218   2.033   0.330  1.4333 -1.1748 -0.9710
 6317SOL     OW30412   2.004   1.802   1.973 -0.5219  0.4456 -0.0698
 6317SOL    HW130413   1.929   1.853   1.943 -0.1418  1.1777  0.2255
 6317SOL    HW230414   2.001   1.835   2.063  2.7657  1.5638 -0.3663
 6318SOL     OW30415   3.456   0.386  11.763  0.3613 -0.1507  0.0185
 6318SOL    HW130416   3.548   0.365  11.780  0.7246  0.7606 -0.7788
 6318SOL    HW230417   3.453   0.422  11.674 -2.0457 -1.6589 -0.4942
 6319SOL     OW30418   1.632   0.552   4.474 -0.1175  0.1983 -0.3487
 6319SOL    HW130419   1.556   0.599   4.509 -0.3700 -0.1210 -0.4733
 6319SOL    HW230420   1.611   0.461   4.495 -1.0430  0.7721  1.1685
 6320SOL     OW30421   1.105   2.160   4.351  0.4122  0.1270 -0.2169
 6320SOL    HW130422   1.124   2.158   4.257 -0.0501  0.3120 -0.3173
 6320SOL    HW230423   1.145   2.242   4.381 -0.9469  1.2234 -1.4034
 6321SOL     OW30424   3.021   1.314   3.126  0.2283 -0.3363  0.2241
 6321SOL    HW130425   2.989   1.337   3.213  1.8953  0.1775  0.6860
 6321SOL    HW230426   3.115   1.306   3.139 -0.0604 -2.3626  1.0882
 6322SOL     OW30427   1.996   1.536  10.282  0.2420  0.2535  0.4398
 6322SOL    HW130428   1.994   1.546  10.377 -1.8853 -0.7948  0.5242
 6322SOL    HW230429   1.901   1.539  10.265  0.1948 -0.3788  0.5633
 6323SOL     OW30430   4.025   1.255   3.941 -0.1224  0.1703  0.2199
 6323SOL    HW130431   4.028   1.261   4.037  0.2843 -0.1622  0.2265
 6323SOL    HW230432   4.104   1.300   3.913 -0.2110  0.8821  1.0986
 6324SOL     OW30433   3.795   3.931   2.051  0.5104 -0.0620 -0.1450
 6324SOL    HW130434   3.737   4.007   2.043  1.8920  1.1239  1.0682
 6324SOL    HW230435   3.731   3.859   2.048  0.3113  0.1301 -0.4996
 6325SOL     OW30436   2.880   1.008   6.168 -0.3936 -0.4503  0.0362
 6325SOL    HW130437   2.931   1.030   6.090  1.0578 -1.4155  0.7232
 6325SOL    HW230438   2.905   0.917   6.157  3.3591  0.2046  3.2673
 6326SOL     OW30439   0.695   4.205   3.322 -0.6647  0.3788 -0.8197
 6326SOL    HW130440   0.669   4.171   3.237  0.2233 -0.8801 -0.5956
 6326SOL    HW230441   0.767   4.262   3.296 -1.1583  0.8091 -1.2293
 6327SOL     OW30442   0.056   2.386   3.060 -0.0072 -0.2009 -0.0470
 6327SOL    HW130443   0.126   2.391   2.995  0.6080  1.7126  0.7464
 6327SOL    HW230444   4.693   2.406   3.016 -0.6514 -1.3447  0.6721
 6328SOL     OW30445   3.069   1.576   0.449 -0.6616 -0.6066  0.6560
 6328SOL    HW130446   3.146   1.522   0.468  0.3113  0.9144  1.1057
 6328SOL    HW230447   3.110   1.641   0.391  0.6840 -2.6360 -0.6636
 6329SOL     OW30448   4.031   3.453  15.784  0.0417 -0.0985  0.1025
 6329SOL    HW130449   3.998   3.391  15.719  0.7327  1.8034 -2.0823
 6329SOL    HW230450   4.066   3.390  15.847 -0.9584 -0.0095  0.7338
 6330SOL     OW30451   4.404   0.216  11.562 -0.4650  0.4359  0.1854
 6330SOL    HW130452   4.309   0.204  11.570 -0.3450 -0.3678  0.4296
 6330SOL    HW230453   4.398   0.307  11.535  0.2459  0.6191  0.6416
 6331SOL     OW30454   2.319   1.024   8.637 -0.0325  0.3626 -0.4147
 6331SOL    HW130455   2.282   1.113   8.633 -0.5584 -0.0025 -3.3951
 6331SOL    HW230456   2.408   1.037   8.603 -0.4429 -1.7083 -2.2079
 6332SOL     OW30457   1.161   4.474  10.640 -0.2489  0.2960 -0.0437
 6332SOL    HW130458   1.212   4.543  10.683  0.4521 -0.1216 -0.2134
 6332SOL    HW230459   1.132   4.426  10.718 -1.0656  1.3192  0.2760
 6333SOL     OW30460   0.357   3.222   8.229 -0.5610  0.9349  0.4933
 6333SOL    HW130461   0.396   3.204   8.314  2.2965 -1.0674 -1.2575
 6333SOL    HW230462   0.423   3.273   8.182  0.6367  0.5229  1.7431
 6334SOL     OW30463   3.864   4.531  12.368 -0.1160 -0.0452  0.2342
 6334SOL    HW130464   3.859   4.612  12.317 -3.5304  0.8380  2.0094
 6334SOL    HW230465   3.774   4.508  12.390  0.1548 -0.9701  0.4130
 6335SOL     OW30466   3.170   1.998   9.449 -0.1948 -0.3377 -0.8656
 6335SOL    HW130467   3.208   2.083   9.427  1.1113  0.0781  3.1343
 6335SOL    HW230468   3.174   2.010   9.544  1.5273 -1.3972 -0.8014
 6336SOL     OW30469   3.487   0.150   3.585 -0.9847 -0.2065 -0.2794
 6336SOL    HW130470   3.494   0.114   3.497 -0.1469  2.2754 -1.2322
 6336SOL    HW230471   3.447   0.236   3.569 -1.4485 -0.7471 -1.9496
 6337SOL     OW30472   4.232   0.897   7.301  0.0936 -0.1440  0.3757
 6337SOL    HW130473   4.207   0.965   7.239  0.3676 -0.6553 -0.3058
 6337SOL    HW230474   4.213   0.817   7.252  0.2254 -0.5161  0.9283
 6338SOL     OW30475   4.110   2.736   1.115  0.8001 -0.1761 -0.4140
 6338SOL    HW130476   4.046   2.751   1.184 -2.0011 -0.8138 -2.8644
 6338SOL    HW230477   4.092   2.801   1.047 -1.5350 -1.6410 -1.1938
 6339SOL     OW30478   3.416   3.375  15.487 -0.5477 -0.3950 -0.0471
 6339SOL    HW130479   3.372   3.447  15.530 -3.5567 -2.5177  0.4087
 6339SOL    HW230480   3.348   3.308  15.486 -0.7486 -0.1848 -0.2404
 6340SOL     OW30481   0.659   0.818   9.397  0.0478  0.0041 -0.2387
 6340SOL    HW130482   0.718   0.831   9.323 -0.2695 -0.7071 -0.6139
 6340SOL    HW230483   0.581   0.861   9.361  0.6884  1.2822 -0.0885
 6341SOL     OW30484   4.500   1.025  14.019  0.0876 -0.2685  0.0190
 6341SOL    HW130485   4.512   0.997  13.928 -0.3410  1.4272 -0.5630
 6341SOL    HW230486   4.444   0.956  14.054  0.8658 -1.1309 -0.4545
 6342SOL     OW30487   0.760   1.034   3.722  0.2320 -0.3053 -0.5418
 6342SOL    HW130488   0.794   0.953   3.684 -0.8689 -0.4490 -1.2237
 6342SOL    HW230489   0.707   1.064   3.648  1.6277 -0.0683 -1.4493
 6343SOL     OW30490   4.321   3.516   4.178  0.2305 -0.0174 -0.2783
 6343SOL    HW130491   4.290   3.545   4.264  1.5297 -0.5539  0.3636
 6343SOL    HW230492   4.248   3.457   4.157  0.1482  0.6858 -1.9870
 6344SOL     OW30493   4.448   0.877   3.188  0.2906  0.1763  0.4489
 6344SOL    HW130494   4.518   0.855   3.250  0.9931 -2.1265 -1.1342
 6344SOL    HW230495   4.373   0.847   3.238  0.9016  0.1676  1.3590
 6345SOL     OW30496   0.515   4.335   4.714  0.0870  0.2295 -0.6735
 6345SOL    HW130497   0.522   4.296   4.800  0.9618 -0.6277 -1.1308
 6345SOL    HW230498   0.606   4.325   4.686  1.4906  3.2547  2.8000
 6346SOL     OW30499   1.291   1.128   6.718  0.4667 -0.7736  0.0998
 6346SOL    HW130500   1.282   1.091   6.806  0.4406 -1.9555 -0.3922
 6346SOL    HW230501   1.279   1.047   6.668  0.9990 -1.6178  1.3427
 6347SOL     OW30502   2.611   4.260  12.864 -0.1193 -0.0797 -0.1539
 6347SOL    HW130503   2.611   4.310  12.782 -1.9505  0.9421  0.4602
 6347SOL    HW230504   2.555   4.187  12.839  1.5415 -0.6727 -2.0650
 6348SOL     OW30505   3.835   0.021   3.891  0.0181  0.4836  0.5990
 6348SOL    HW130506   3.910   4.683   3.902  0.8163  1.8268  2.3706
 6348SOL    HW230507   3.842   0.072   3.972 -0.9454 -2.1669  2.3401
 6349SOL     OW30508   3.208   1.046   9.421 -0.2023 -0.2166 -0.0910
 6349SOL    HW130509   3.222   0.985   9.494  2.9370 -1.2318 -1.5315
 6349SOL    HW230510   3.151   1.110   9.462 -1.2360 -2.5611  2.1731
 6350SOL     OW30511   0.365   4.241   7.066  0.3512 -0.1808  0.5175
 6350SOL    HW130512   0.418   4.167   7.096 -0.4632 -0.8349  0.3464
 6350SOL    HW230513   0.365   4.239   6.970  1.8156 -1.1637  0.5409
 6351SOL     OW30514   2.789   4.027   7.754  0.2485  0.2583 -0.4621
 6351SOL    HW130515   2.805   3.936   7.729 -0.7987  0.5229 -2.1017
 6351SOL    HW230516   2.715   4.057   7.700 -0.6231 -0.1194  0.5263
 6352SOL     OW30517   3.148   1.847   3.948  0.5528 -1.1288  0.2772
 6352SOL    HW130518   3.141   1.869   3.855  2.1787  0.3687  0.5201
 6352SOL    HW230519   3.210   1.915   3.976 -1.1846 -0.3089  2.1769
 6353SOL     OW30520   3.107   1.118  14.698 -0.1786  0.2157  0.1292
 6353SOL    HW130521   3.118   1.088  14.608 -0.3185 -0.1156  0.2234
 6353SOL    HW230522   3.018   1.152  14.707 -0.6875 -0.7305 -1.3474
 6354SOL     OW30523   0.345   0.120   4.596 -0.3689 -0.3320 -0.0017
 6354SOL    HW130524   0.290   0.120   4.517  1.3443 -0.6819 -1.1999
 6354SOL    HW230525   0.325   0.032   4.629 -0.4817 -1.4339 -2.9142
 6355SOL     OW30526   2.645   0.521   2.739  0.0049  0.1033 -0.0263
 6355SOL    HW130527   2.611   0.607   2.716 -2.3477 -0.3476  1.7702
 6355SOL    HW230528   2.632   0.530   2.833 -0.3526 -2.0256  0.1494
 6356SOL     OW30529   0.081   3.327  12.281 -0.1359 -0.2409 -0.1458
 6356SOL    HW130530   0.001   3.345  12.230 -1.0989  0.6420  1.6945
 6356SOL    HW230531   0.113   3.247  12.240 -0.1628 -0.7698  0.8832
 6357SOL     OW30532   3.723   3.400   6.053 -0.8215 -0.4189  0.3492
 6357SOL    HW130533   3.652   3.462   6.070  0.2339  0.2125  2.4914
 6357SOL    HW230534   3.787   3.463   6.023  1.0423 -2.5604 -0.1837
 6358SOL     OW30535   0.354   1.463   7.042 -0.0895  0.4855  0.1128
 6358SOL    HW130536   0.402   1.469   7.125 -2.5606  0.7070  1.5296
 6358SOL    HW230537   0.410   1.402   6.993 -1.2469 -0.1378 -0.4226
 6359SOL     OW30538   0.901   3.541  17.180 -1.0363 -0.2090 -0.6293
 6359SOL    HW130539   0.935   3.621  17.222  0.1013  1.2534 -4.3360
 6359SOL    HW230540   0.930   3.557  17.090 -0.9741 -2.4121 -0.9817
 6360SOL     OW30541   3.023   4.129  16.012  0.1851  0.1211 -0.0320
 6360SOL    HW130542   3.115   4.112  16.032  0.5236 -0.7634 -2.3147
 6360SOL    HW230543   2.977   4.048  16.033  0.3426 -0.4027 -1.7074
 6361SOL     OW30544   1.770   0.719   2.895 -0.5575  0.5054  0.6704
 6361SOL    HW130545   1.733   0.720   2.807  1.5267 -1.5501 -0.2422
 6361SOL    HW230546   1.862   0.696   2.883 -0.9040 -0.3848 -0.3245
 6362SOL     OW30547   4.486   3.727   2.738  0.2420  0.3366 -0.2310
 6362SOL    HW130548   4.559   3.787   2.722  0.8640 -0.3398  0.1046
 6362SOL    HW230549   4.526   3.641   2.748  0.7211  0.3765 -1.9005
 6363SOL     OW30550   2.142   2.267  13.466  0.6168 -0.4659  0.6022
 6363SOL    HW130551   2.095   2.333  13.414 -1.2842 -1.5432  0.9429
 6363SOL    HW230552   2.222   2.254  13.416  0.4560 -1.8481  0.7138
 6364SOL     OW30553   1.601   1.660  13.000 -0.3072 -0.3161  0.4267
 6364SOL    HW130554   1.558   1.739  13.033  0.3624  0.2233 -0.0053
 6364SOL    HW230555   1.561   1.644  12.914  0.2433 -2.2489  0.5362
 6365SOL     OW30556   0.176   2.355  10.497 -0.0133  0.4306  0.2732
 6365SOL    HW130557   0.097   2.301  10.489  0.8356 -1.2238  2.7670
 6365SOL    HW230558   0.218   2.326  10.416  2.0675 -0.2032  1.5644
 6366SOL     OW30559   0.861   4.350   7.269 -0.1416  0.1592  0.6268
 6366SOL    HW130560   0.851   4.402   7.348  0.9645  0.3748  0.6228
 6366SOL    HW230561   0.825   4.265   7.297 -1.0575  0.1887 -0.4630
 6367SOL     OW30562   4.212   3.863  14.770 -0.0099  0.8632  0.0483
 6367SOL    HW130563   4.261   3.856  14.851 -0.6625  0.7306  0.4316
 6367SOL    HW230564   4.155   3.940  14.776 -1.3172 -0.2095  1.4737
 6368SOL     OW30565   4.078   2.972  17.562  0.3085 -0.2909 -0.2091
 6368SOL    HW130566   4.029   3.055  17.560  0.8973  0.0133 -2.2735
 6368SOL    HW230567   4.050   2.950  17.473  3.1058 -1.1332 -0.8795
 6369SOL     OW30568   4.669   2.675   6.138 -0.6752 -0.0324 -0.7677
 6369SOL    HW130569   0.006   2.610   6.096 -2.0500 -1.2488 -0.7295
 6369SOL    HW230570   4.581   2.639   6.136 -1.4480  1.8839 -0.8414
 6370SOL     OW30571   2.096   1.243   6.987 -0.0251  0.1487 -0.0130
 6370SOL    HW130572   2.054   1.268   7.070  1.0922  0.2725  0.5224
 6370SOL    HW230573   2.186   1.260   7.016 -0.2215 -0.2645  0.8609
 6371SOL     OW30574   3.029   1.637   2.017  0.3323  0.2192 -0.2288
 6371SOL    HW130575   3.079   1.718   2.004 -0.0222  0.9555  2.9748
 6371SOL    HW230576   3.073   1.606   2.096  0.6688  2.9714  0.6639
 6372SOL     OW30577   4.541   4.121  15.059  0.0750 -0.0918  0.2348
 6372SOL    HW130578   4.459   4.110  15.108  1.2951 -0.3202  2.2486
 6372SOL    HW230579   4.585   4.040  15.085  0.8536  0.3608  0.3303
 6373SOL     OW30580   4.370   3.115   1.526 -0.0695 -0.0208  0.0111
 6373SOL    HW130581   4.329   3.061   1.458 -0.5078  0.9165 -0.4587
 6373SOL    HW230582   4.454   3.072   1.544 -0.3262 -0.6371 -0.2409
 6374SOL     OW30583   1.707   2.438   4.072 -0.6547  0.6705  0.5764
 6374SOL    HW130584   1.772   2.488   4.023  0.6702 -1.3632  0.2416
 6374SOL    HW230585   1.695   2.364   4.013 -0.2569  1.5119 -0.5498
 6375SOL     OW30586   0.011   2.056   3.989  0.6525  0.1286 -0.3857
 6375SOL    HW130587   0.030   2.147   3.966  1.8978  0.1512  0.7913
 6375SOL    HW230588   0.103   2.030   3.994  1.0471  1.2311 -1.7390
 6376SOL     OW30589   2.971   0.359   5.614  0.5009 -0.0425 -0.3301
 6376SOL    HW130590   2.998   0.371   5.705  0.2896  0.3637 -0.3193
 6376SOL    HW230591   2.950   0.449   5.589  0.2290  1.0992  4.0600
 6377SOL     OW30592   4.322   1.294   2.824 -0.1710  0.1332  0.6055
 6377SOL    HW130593   4.235   1.298   2.784  1.4257 -0.1285 -2.9208
 6377SOL    HW230594   4.351   1.205   2.806 -1.8169 -0.6901  2.0860
 6378SOL     OW30595   1.404   1.427   1.502  0.1879  0.3464 -0.0805
 6378SOL    HW130596   1.326   1.376   1.482  0.2675  0.0839  0.2824
 6378SOL    HW230597   1.421   1.390   1.589  1.6995  2.0342  0.3437
 6379SOL     OW30598   4.214   2.805   3.078  0.2637  0.0138  0.5560
 6379SOL    HW130599   4.169   2.751   3.013  0.4100 -1.1418  1.4221
 6379SOL    HW230600   4.153   2.880   3.079 -0.6509 -0.7517  2.2585
 6380SOL     OW30601   2.644   1.650   7.445 -0.3005  0.5190 -0.1374
 6380SOL    HW130602   2.639   1.598   7.364  0.8582 -1.4278  1.0529
 6380SOL    HW230603   2.577   1.718   7.436 -1.9697 -1.3014 -1.7788
 6381SOL     OW30604   3.873   0.660   3.766 -0.1455  0.7620 -0.0355
 6381SOL    HW130605   3.967   0.675   3.763 -0.1003  0.7570  1.2365
 6381SOL    HW230606   3.844   0.673   3.676 -1.4970  1.0499  0.4353
 6382SOL     OW30607   3.933   4.621   7.270 -0.6944 -0.8753  0.4592
 6382SOL    HW130608   4.007   4.681   7.266 -0.1565 -1.6464 -0.9783
 6382SOL    HW230609   3.920   4.590   7.181 -0.0400  1.7187 -0.5521
 6383SOL     OW30610   1.475   2.377   5.042 -0.1090 -0.3415  0.2089
 6383SOL    HW130611   1.547   2.317   5.060 -1.7697 -1.8734  1.7699
 6383SOL    HW230612   1.517   2.442   4.985  1.6378 -2.5537 -0.9974
 6384SOL     OW30613   4.121   2.880  16.321  0.0053  0.3014 -0.4750
 6384SOL    HW130614   4.087   2.791  16.328  1.1331 -0.2057 -1.4458
 6384SOL    HW230615   4.055   2.908  16.258 -0.7648  3.2530  1.6181
 6385SOL     OW30616   3.111   1.259  16.952  0.3438 -0.5734 -0.6091
 6385SOL    HW130617   3.020   1.246  16.978  0.1535 -1.1476 -1.5670
 6385SOL    HW230618   3.145   1.170  16.944 -0.3086 -0.8988  0.1842
 6386SOL     OW30619   4.106   2.577   2.326 -0.1633  0.2644 -0.1299
 6386SOL    HW130620   4.162   2.514   2.281  0.5887  0.9866 -0.2263
 6386SOL    HW230621   4.168   2.621   2.385 -2.4267 -0.4820  2.8028
 6387SOL     OW30622   1.523   0.069   3.519 -0.4820 -0.2610  0.1846
 6387SOL    HW130623   1.585   4.716   3.515 -0.3561 -0.2436  2.1196
 6387SOL    HW230624   1.503   0.077   3.425  0.8754  0.4281 -0.0310
 6388SOL     OW30625   1.448   4.639   9.115  0.0502  0.2598  0.1297
 6388SOL    HW130626   1.401   4.620   9.195 -2.1063 -0.4199 -1.3092
 6388SOL    HW230627   1.385   4.608   9.050  0.1981  1.5943 -0.6509
 6389SOL     OW30628   2.782   2.368   7.812 -0.2520  0.1410 -0.1783
 6389SOL    HW130629   2.748   2.294   7.761 -0.1321  0.5703 -0.8905
 6389SOL    HW230630   2.742   2.348   7.896  0.1794  1.6735  0.3910
 6390SOL     OW30631   2.272   1.262   5.193  0.1350  0.3483 -0.4782
 6390SOL    HW130632   2.308   1.213   5.267  1.0384  0.6556 -0.7211
 6390SOL    HW230633   2.179   1.265   5.217  0.1569  2.2737 -0.6220
 6391SOL     OW30634   1.853   0.915   3.079  0.1296 -0.4600  0.3354
 6391SOL    HW130635   1.853   0.859   3.156 -0.1260 -1.2092 -0.2077
 6391SOL    HW230636   1.795   0.864   3.023 -0.9142  0.7200  0.3236
 6392SOL     OW30637   0.745   0.126   8.071  0.2333 -0.3165  0.7621
 6392SOL    HW130638   0.714   0.077   7.995  0.9931 -0.0161  0.2624
 6392SOL    HW230639   0.660   0.164   8.097  0.4985  0.8407 -0.0627
 6393SOL     OW30640   1.779   1.934  13.344 -0.3772  0.2046 -0.4008
 6393SOL    HW130641   1.864   1.945  13.385 -0.0352 -0.3638 -0.9545
 6393SOL    HW230642   1.791   1.917  13.251  0.5098 -0.9707 -0.0733
 6394SOL     OW30643   2.197   0.314   6.643  0.3283 -0.5677 -0.7185
 6394SOL    HW130644   2.193   0.293   6.550  0.3592 -0.9967 -0.6244
 6394SOL    HW230645   2.288   0.295   6.665 -0.4552 -3.2310  0.2006
 6395SOL     OW30646   0.447   4.502   9.448 -0.5201 -0.3027  0.5845
 6395SOL    HW130647   0.521   4.447   9.425 -0.5780 -0.4042  0.6411
 6395SOL    HW230648   0.451   4.530   9.540  1.3479  2.3885 -0.3386
 6396SOL     OW30649   1.535   1.584   4.133 -0.1557 -0.8473 -0.6037
 6396SOL    HW130650   1.483   1.663   4.117  1.9034  0.8513  1.1448
 6396SOL    HW230651   1.622   1.617   4.154 -0.8489  0.2772  0.5170
 6397SOL     OW30652   3.390   2.838   0.028 -0.1442  0.1963 -0.9645
 6397SOL    HW130653   3.466   2.887   0.059 -1.6667  1.3857  0.9143
 6397SOL    HW230654   3.337   2.902  17.661  0.4727 -0.1163 -2.0558
 6398SOL     OW30655   3.305   1.334  10.016  0.3256 -0.0506  0.1840
 6398SOL    HW130656   3.361   1.261   9.993  2.5614  1.4293  0.9788
 6398SOL    HW230657   3.285   1.312  10.107  1.1212 -1.1662  0.0863
 6399SOL     OW30658   3.829   0.642   4.291  0.3818 -0.2914 -0.2879
 6399SOL    HW130659   3.840   0.686   4.206  0.2061  0.9252  0.3107
 6399SOL    HW230660   3.900   0.579   4.288  0.8800  0.2377  0.3687
 6400SOL     OW30661   1.575   3.607   4.880  0.3968  0.3528 -0.0204
 6400SOL    HW130662   1.496   3.578   4.925  1.8585 -0.9097  1.7363
 6400SOL    HW230663   1.556   3.575   4.791  0.0492  0.1021  0.1468
 6401SOL     OW30664   4.288   1.845   0.912 -0.2135 -0.3057 -0.2010
 6401SOL    HW130665   4.317   1.755   0.901  0.2672 -0.1008 -0.6087
 6401SOL    HW230666   4.253   1.854   0.824  2.7638  1.2140 -1.2289
 6402SOL     OW30667   1.772   1.294   4.299 -0.3164  0.7406 -0.3453
 6402SOL    HW130668   1.775   1.201   4.323  1.8956  1.3875  1.9464
 6402SOL    HW230669   1.682   1.307   4.272 -0.5214  0.8553  0.4021
 6403SOL     OW30670   4.714   3.868   4.965 -0.2594 -0.3745  0.3474
 6403SOL    HW130671   4.637   3.908   5.006 -1.4502 -2.5436  0.2289
 6403SOL    HW230672   4.712   3.782   5.007 -0.6672 -0.5440 -0.0147
 6404SOL     OW30673   4.235   1.878  13.481 -0.1784  0.0151 -0.3016
 6404SOL    HW130674   4.283   1.920  13.410  1.0219 -0.8513  0.0021
 6404SOL    HW230675   4.161   1.937  13.467 -0.4604 -0.0532  0.8494
 6405SOL     OW30676   1.936   2.103   1.376  0.5413  0.2749 -0.3951
 6405SOL    HW130677   1.943   2.008   1.387  0.7140  0.3881  0.4668
 6405SOL    HW230678   1.938   2.111   1.280  1.8685  0.0512 -0.3837
 6406SOL     OW30679   2.660   1.730   0.966 -0.0352 -0.3355 -0.0633
 6406SOL    HW130680   2.732   1.702   1.024  0.1384 -2.2649 -1.2029
 6406SOL    HW230681   2.592   1.665   0.984  0.9120 -1.4703 -0.5979
 6407SOL     OW30682   1.883   2.592   8.113 -0.2378 -0.4284  0.8082
 6407SOL    HW130683   1.789   2.578   8.108 -0.4249  1.5344 -1.2903
 6407SOL    HW230684   1.903   2.546   8.194 -1.1548 -1.2851  0.5429
 6408SOL     OW30685   3.004   1.115   5.115 -0.1093 -0.6650 -0.1561
 6408SOL    HW130686   2.932   1.114   5.177 -0.2999 -1.6413 -0.3853
 6408SOL    HW230687   2.969   1.049   5.055 -0.0732 -0.5972 -0.2517
 6409SOL     OW30688   3.365   3.430   6.422 -0.3204 -0.1936 -0.8357
 6409SOL    HW130689   3.319   3.365   6.368 -1.5413  1.9755 -2.3790
 6409SOL    HW230690   3.344   3.509   6.373  3.2126  1.2090 -0.0668
 6410SOL     OW30691   1.383   4.674  10.687 -0.2227  0.0959  0.2714
 6410SOL    HW130692   1.477   4.654  10.690 -0.8306 -2.4839  1.3991
 6410SOL    HW230693   1.373   4.715  10.773  0.9729  0.0077  0.4592
 6411SOL     OW30694   2.318   1.626   5.647 -0.9182  0.4012 -0.3916
 6411SOL    HW130695   2.273   1.544   5.629  0.2208  0.3969 -3.2676
 6411SOL    HW230696   2.342   1.622   5.740  1.4740 -0.2635 -1.0306
 6412SOL     OW30697   4.192   0.132   5.458 -0.1326  0.6401  0.0092
 6412SOL    HW130698   4.232   0.061   5.408  0.2837  1.4236 -0.7701
 6412SOL    HW230699   4.127   0.158   5.393 -0.2804  0.6763  0.1692
 6413SOL     OW30700   3.509   4.398   7.776 -0.4087 -0.7594  0.1313
 6413SOL    HW130701   3.460   4.358   7.704  0.7213  1.9278 -2.1529
 6413SOL    HW230702   3.455   4.475   7.788  1.3416  0.2275  1.6107
 6414SOL     OW30703   3.408   0.222   6.893 -0.1197 -0.0940 -0.0584
 6414SOL    HW130704   3.487   0.201   6.944 -0.3033 -0.7261 -0.0311
 6414SOL    HW230705   3.362   0.289   6.943 -0.8614 -0.1111 -0.7255
 6415SOL     OW30706   1.293   1.291   1.992 -0.4062 -0.1332 -0.1238
 6415SOL    HW130707   1.247   1.245   2.062  0.2493  0.3792  0.6458
 6415SOL    HW230708   1.369   1.231   1.996 -0.1223  0.1718 -1.0270
 6416SOL     OW30709   1.208   1.136  15.917  0.4456 -0.2989 -0.1855
 6416SOL    HW130710   1.115   1.117  15.932  0.9924 -2.3814  0.5907
 6416SOL    HW230711   1.228   1.184  15.997 -2.3305  2.1063 -0.9085
 6417SOL     OW30712   1.453   3.195  12.159  0.5782  0.2391 -0.2780
 6417SOL    HW130713   1.384   3.138  12.125 -0.1358 -0.1950  1.9430
 6417SOL    HW230714   1.461   3.251  12.081  2.2157  1.2978  0.6441
 6418SOL     OW30715   3.090   4.573   5.949  0.0570 -0.2036 -0.0767
 6418SOL    HW130716   3.064   4.482   5.932 -0.4104 -0.7022  3.2199
 6418SOL    HW230717   3.073   4.560   6.042  1.0744 -0.7613  0.0321
 6419SOL     OW30718   2.244   3.937   8.122 -0.0826  0.2092  0.2636
 6419SOL    HW130719   2.249   3.841   8.122 -0.3632  0.1993 -0.7556
 6419SOL    HW230720   2.335   3.964   8.120  0.3992 -1.3558  1.6209
 6420SOL     OW30721   4.394   0.755   9.363  0.2251 -0.0346  0.0285
 6420SOL    HW130722   4.441   0.672   9.356 -1.9484 -1.1737 -0.8630
 6420SOL    HW230723   4.403   0.779   9.455  2.6886 -1.3854  0.1482
 6421SOL     OW30724   2.750   2.111   3.097  0.5863  0.2324 -0.3755
 6421SOL    HW130725   2.694   2.189   3.098 -0.7765 -0.7046 -2.6315
 6421SOL    HW230726   2.796   2.118   3.180  1.3973  1.8486 -0.9689
 6422SOL     OW30727   1.304   0.458  11.912  0.2478 -0.0619 -0.0823
 6422SOL    HW130728   1.317   0.549  11.885 -0.9639 -0.6046 -2.4888
 6422SOL    HW230729   1.211   0.455  11.889  0.1859 -1.5292  0.3667
 6423SOL     OW30730   2.468   3.472  11.551 -0.3863 -0.0063  0.2205
 6423SOL    HW130731   2.449   3.378  11.548 -0.0616 -0.0181 -1.4591
 6423SOL    HW230732   2.381   3.500  11.521 -0.8470 -3.3087 -1.5205
 6424SOL     OW30733   2.563   2.607   9.904  0.4242  0.0088 -0.5030
 6424SOL    HW130734   2.508   2.627   9.829  1.0869  1.2873 -0.6586
 6424SOL    HW230735   2.526   2.520   9.918  0.1874  0.5015  1.9390
 6425SOL     OW30736   2.567   2.704   0.552  0.3610  0.1936  0.7967
 6425SOL    HW130737   2.621   2.711   0.473 -1.2223 -2.2355 -0.4935
 6425SOL    HW230738   2.490   2.753   0.524  0.2705 -0.8637 -0.7716
 6426SOL     OW30739   2.840   1.916   3.865  0.0756  0.0061 -0.4409
 6426SOL    HW130740   2.900   1.908   3.791 -0.6969 -0.6286 -0.9919
 6426SOL    HW230741   2.837   2.012   3.865 -2.0477 -0.0738  1.3770
 6427SOL     OW30742   0.204   1.112   6.695 -0.5382 -0.0577  0.1727
 6427SOL    HW130743   0.235   1.069   6.775  2.8383  2.1510  0.0210
 6427SOL    HW230744   0.220   1.041   6.633 -1.3793 -1.3609  1.4312
 6428SOL     OW30745   4.450   2.929   8.308 -0.1615  0.6862  0.6079
 6428SOL    HW130746   4.398   2.870   8.253  0.7675  2.6143 -2.3013
 6428SOL    HW230747   4.387   3.000   8.319 -2.3458 -1.7701  3.8407
 6429SOL     OW30748   2.788   1.596   3.870 -0.1812  0.7464 -0.0471
 6429SOL    HW130749   2.779   1.547   3.952 -1.0969  1.0604  0.0392
 6429SOL    HW230750   2.843   1.669   3.900 -1.4758  0.8585  2.0319
 6430SOL     OW30751   2.653   2.972   1.618  0.1360 -0.1570 -0.4264
 6430SOL    HW130752   2.684   2.889   1.653  0.4522  0.6360  1.1753
 6430SOL    HW230753   2.603   2.947   1.540  0.7750 -1.9521 -0.2605
 6431SOL     OW30754   0.935   2.053   6.624  0.1435  0.2363  0.4968
 6431SOL    HW130755   0.969   2.103   6.698 -0.2327  2.1550 -0.6255
 6431SOL    HW230756   0.848   2.034   6.658  0.4683  1.1581  1.8285
 6432SOL     OW30757   1.874   3.773   8.488 -0.1169  0.2529 -0.4676
 6432SOL    HW130758   1.839   3.806   8.406 -0.8703 -1.6135 -0.8954
 6432SOL    HW230759   1.900   3.860   8.518  0.6838 -0.4506  0.9130
 6433SOL     OW30760   2.486   0.206   8.959  0.2523  0.0380  0.0892
 6433SOL    HW130761   2.432   0.155   9.020  0.4164 -0.9985 -0.6336
 6433SOL    HW230762   2.467   0.291   8.998  0.5164  0.8291 -1.5092
 6434SOL     OW30763   3.185   2.839   1.173  0.2469 -0.0460  0.3526
 6434SOL    HW130764   3.165   2.808   1.261  1.6183 -1.3833  0.1966
 6434SOL    HW230765   3.258   2.779   1.158 -0.6431 -1.7159  2.7584
 6435SOL     OW30766   2.602   4.392   8.315 -0.0009  0.2952  0.1054
 6435SOL    HW130767   2.590   4.430   8.228 -2.0569 -0.5558  0.0118
 6435SOL    HW230768   2.659   4.450   8.366  0.9078 -0.5422  0.0460
 6436SOL     OW30769   1.261   4.518   3.102  0.2428 -0.2608  0.1497
 6436SOL    HW130770   1.245   4.571   3.180  0.5986  0.7109 -0.4400
 6436SOL    HW230771   1.333   4.561   3.057  1.3213  0.5578  2.7131
 6437SOL     OW30772   3.256   0.856   4.966  0.2900 -0.3004  0.4118
 6437SOL    HW130773   3.212   0.909   5.033 -0.5050  1.6588 -1.6948
 6437SOL    HW230774   3.279   0.916   4.896  2.0188  0.6725  1.8136
 6438SOL     OW30775   4.103   3.698   3.601  0.0001  0.2237 -0.6585
 6438SOL    HW130776   4.045   3.624   3.587  0.9934 -0.7609  0.4571
 6438SOL    HW230777   4.132   3.709   3.511 -0.9783 -0.3022 -1.0341
 6439SOL     OW30778   3.038   2.572   3.846 -0.1321  0.2563  0.1130
 6439SOL    HW130779   2.962   2.608   3.892  0.0765  0.2809  0.4343
 6439SOL    HW230780   3.051   2.486   3.887  2.8853  0.4122 -0.4997
 6440SOL     OW30781   2.881   2.534   7.608  0.3391 -0.2831  0.0019
 6440SOL    HW130782   2.866   2.512   7.516 -1.2238  1.1965 -0.1190
 6440SOL    HW230783   2.821   2.485   7.664  0.7840  0.3021  1.0016
 6441SOL     OW30784   4.650   4.369  10.715 -0.4111 -0.1670 -0.2274
 6441SOL    HW130785   4.652   4.356  10.621  0.1813  1.4307 -0.4466
 6441SOL    HW230786   4.569   4.326  10.742 -0.2364 -0.8170 -0.7576
 6442SOL     OW30787   1.456   1.510   6.196 -0.1166 -0.2178 -0.2893
 6442SOL    HW130788   1.407   1.532   6.275  2.1737 -1.0902  1.3873
 6442SOL    HW230789   1.401   1.558   6.134  0.4776  0.0231 -0.6301
 6443SOL     OW30790   0.933   0.704  10.312 -0.2617  0.2117  0.1320
 6443SOL    HW130791   0.951   0.798  10.312 -1.5682  0.4642  0.8363
 6443SOL    HW230792   0.844   0.703  10.276  0.0150  2.6806 -0.5915
 6444SOL     OW30793   4.260   3.714   6.208  0.0791 -0.0183 -0.2992
 6444SOL    HW130794   4.215   3.684   6.287  2.0167 -0.3344  0.6924
 6444SOL    HW230795   4.199   3.784   6.186 -0.4283  0.2801  2.0344
 6445SOL     OW30796   3.249   2.872   5.768 -0.2971 -0.4653  0.0659
 6445SOL    HW130797   3.334   2.907   5.794 -1.0617  1.5437 -0.0992
 6445SOL    HW230798   3.210   2.956   5.743 -1.8229 -1.0417  0.5491
 6446SOL     OW30799   1.501   3.141   7.330 -0.0186 -0.4936  0.4687
 6446SOL    HW130800   1.593   3.117   7.327  1.1127  3.7162  1.3094
 6446SOL    HW230801   1.474   3.097   7.249  2.3961  0.9124 -1.1134
 6447SOL     OW30802   0.017   1.049   5.218 -0.4649 -0.2739 -0.5189
 6447SOL    HW130803   4.678   0.982   5.252  0.4333 -1.2513 -0.9123
 6447SOL    HW230804   0.085   1.001   5.171  2.0862  2.8102 -0.0384
 6448SOL     OW30805   1.097   4.212  15.153  0.1217  0.0265 -0.4697
 6448SOL    HW130806   1.158   4.178  15.218 -0.7811  1.1854  0.9903
 6448SOL    HW230807   1.030   4.253  15.209 -1.0973  2.6587 -3.8493
 6449SOL     OW30808   0.746   4.675   1.276 -0.0942  0.9746  0.3203
 6449SOL    HW130809   0.829   4.718   1.299 -0.1896  0.8839  0.8277
 6449SOL    HW230810   0.740   4.712   1.188 -0.5369  0.1131 -0.0039
 6450SOL     OW30811   1.096   4.565   7.299 -0.0054 -0.1392  0.2711
 6450SOL    HW130812   1.153   4.630   7.339 -1.7996  1.7289 -0.1652
 6450SOL    HW230813   1.149   4.485   7.303  1.0959  0.4580 -1.9106
 6451SOL     OW30814   0.203   3.404   8.443  0.0134  0.5197 -0.0467
 6451SOL    HW130815   0.152   3.325   8.461  0.8578 -0.2543 -1.0596
 6451SOL    HW230816   0.287   3.371   8.477  0.2976  1.7566  0.4571
 6452SOL     OW30817   4.017   3.949   3.658 -0.4425  0.1733  0.3884
 6452SOL    HW130818   3.982   3.997   3.583  1.4582 -0.1482 -0.6783
 6452SOL    HW230819   4.059   3.874   3.617  1.0278  0.1134  2.0195
 6453SOL     OW30820   0.879   1.248   8.934 -0.2789  0.2540  0.5514
 6453SOL    HW130821   0.914   1.170   8.976 -0.5654 -0.9069 -1.3754
 6453SOL    HW230822   0.784   1.239   8.939 -0.3437  0.1990 -0.7232
 6454SOL     OW30823   2.526   2.971   5.109 -0.0394  0.0429 -0.5487
 6454SOL    HW130824   2.478   3.035   5.162  0.6316  1.8481 -2.1471
 6454SOL    HW230825   2.457   2.951   5.047  0.4194 -2.6016 -0.1875
 6455SOL     OW30826   0.120   1.212   3.215  0.0969  0.3624 -0.1987
 6455SOL    HW130827   0.132   1.245   3.126 -2.4118  1.4363 -0.1399
 6455SOL    HW230828   0.125   1.296   3.259  2.1680  0.3987 -0.4966
 6456SOL     OW30829   4.233   2.171  16.575  0.1893 -0.4754  0.4718
 6456SOL    HW130830   4.267   2.096  16.525  1.0385  0.7086 -0.7242
 6456SOL    HW230831   4.283   2.247  16.544 -2.1261  0.4486 -0.9776
 6457SOL     OW30832   2.630   4.285   5.822 -0.0842 -0.3773 -0.5064
 6457SOL    HW130833   2.587   4.291   5.737  0.3363 -1.2900 -0.7899
 6457SOL    HW230834   2.692   4.359   5.821 -0.5158 -0.0075  2.3334
 6458SOL     OW30835   2.918   1.694   8.865  0.4901 -0.2746  0.1768
 6458SOL    HW130836   2.900   1.706   8.959 -2.8609  2.6619 -0.8186
 6458SOL    HW230837   2.969   1.773   8.847 -0.0421  0.4308  1.7525
 6459SOL     OW30838   2.842   3.571  10.253  0.1140 -0.0194 -0.0763
 6459SOL    HW130839   2.801   3.485  10.248  1.4988 -0.6961  0.2070
 6459SOL    HW230840   2.873   3.568  10.343 -2.6349 -1.8103  0.8266
 6460SOL     OW30841   3.530   0.684   4.575 -0.4542 -0.3970  0.2486
 6460SOL    HW130842   3.590   0.635   4.632 -1.0507  1.0417  2.1145
 6460SOL    HW230843   3.456   0.686   4.635  0.3636  2.4958  1.1463
 6461SOL     OW30844   4.247   0.979   2.688  0.0775  0.1865 -0.0717
 6461SOL    HW130845   4.237   0.884   2.679  2.5707 -0.3789  2.9100
 6461SOL    HW230846   4.341   0.992   2.672 -0.0689 -0.3711 -1.3917
 6462SOL     OW30847   1.823   0.996  15.067  0.1967  0.2844  0.4300
 6462SOL    HW130848   1.913   0.978  15.094 -0.1455 -0.3409  1.1450
 6462SOL    HW230849   1.833   1.090  15.050 -0.6010 -0.1652 -2.3556
 6463SOL     OW30850   1.386   1.956  11.877  0.6813 -0.1638 -0.4114
 6463SOL    HW130851   1.332   2.025  11.838  0.2335 -0.1225  0.2996
 6463SOL    HW230852   1.324   1.883  11.877 -0.2694  0.6359 -2.2471
 6464SOL     OW30853   3.907   0.282  10.641 -0.4198  0.0772  0.1330
 6464SOL    HW130854   3.996   0.257  10.614  0.0053  1.1147  0.5584
 6464SOL    HW230855   3.925   0.316  10.728  1.8006  0.2604 -0.3933
 6465SOL     OW30856   3.134   4.389   6.654 -0.2135  0.0513 -0.3752
 6465SOL    HW130857   3.172   4.439   6.726  0.5282 -1.2953  0.1714
 6465SOL    HW230858   3.044   4.419   6.660 -0.8958 -1.9373 -0.6941
 6466SOL     OW30859   2.094   2.524  10.991 -0.3357  0.2485  0.0491
 6466SOL    HW130860   2.004   2.554  10.996  0.2788  1.9333  1.0706
 6466SOL    HW230861   2.076   2.438  10.952  0.1219 -1.1049  2.8406
 6467SOL     OW30862   2.532   0.210   4.564 -0.1990  0.5941 -0.4613
 6467SOL    HW130863   2.477   0.155   4.508 -2.2475  2.1921 -0.0252
 6467SOL    HW230864   2.587   0.241   4.493  0.7386 -0.2862 -0.1229
 6468SOL     OW30865   1.893   0.171   3.847  0.2256 -0.4134 -0.6149
 6468SOL    HW130866   1.976   0.139   3.883  0.6799  1.6541  0.1786
 6468SOL    HW230867   1.903   0.209   3.760 -1.9286  0.4821 -0.4649
 6469SOL     OW30868   0.504   0.109   3.065 -0.3681  0.2998  0.5987
 6469SOL    HW130869   0.494   0.117   2.970  2.9082 -2.1465  0.0259
 6469SOL    HW230870   0.415   0.110   3.101 -0.3421  1.4968  0.6028
 6470SOL     OW30871   1.438   1.642   8.156 -0.2124 -0.2357  0.2191
 6470SOL    HW130872   1.513   1.586   8.176 -1.9140 -2.4007  0.5728
 6470SOL    HW230873   1.454   1.724   8.203 -1.2705  0.3076 -0.3839
 6471SOL     OW30874   4.050   3.800  15.462 -0.1259 -0.2284  0.1466
 6471SOL    HW130875   4.000   3.796  15.380 -1.7851 -1.2695  1.2135
 6471SOL    HW230876   4.108   3.875  15.448  0.9321 -0.6312  2.4337
 6472SOL     OW30877   3.036   2.391   6.904 -0.0634 -0.2793 -0.0034
 6472SOL    HW130878   2.958   2.335   6.903  1.6279 -2.6446  0.8109
 6472SOL    HW230879   3.059   2.385   6.812  0.9699  0.4983  0.2068
 6473SOL     OW30880   0.906   4.346   3.201 -0.1559 -0.0641  0.3453
 6473SOL    HW130881   0.975   4.314   3.142 -1.5402 -0.9127 -0.8089
 6473SOL    HW230882   0.904   4.439   3.177  2.6926  0.1164  0.8037
 6474SOL     OW30883   3.735   0.317   6.161 -0.0197  0.3412 -0.6478
 6474SOL    HW130884   3.787   0.278   6.231  0.3770 -1.6553 -2.0626
 6474SOL    HW230885   3.795   0.376   6.114  1.9621  0.7082  2.3328
 6475SOL     OW30886   4.086   4.368  10.509  0.5893  0.0472  0.3961
 6475SOL    HW130887   4.088   4.463  10.519 -0.4252 -0.1475  2.3409
 6475SOL    HW230888   3.997   4.337  10.522  0.9660 -1.6727 -1.1499
 6476SOL     OW30889   2.440   0.349   6.798 -0.1426 -0.4201 -0.2865
 6476SOL    HW130890   2.386   0.308   6.865  2.3213 -1.4901  1.0384
 6476SOL    HW230891   2.408   0.438   6.783  4.4788  1.3494  0.3475
 6477SOL     OW30892   4.016   2.268   2.574 -0.0738  0.1359  0.0424
 6477SOL    HW130893   4.047   2.216   2.500  1.9239 -0.6557  1.4223
 6477SOL    HW230894   4.001   2.197   2.637  1.2946 -0.8679 -0.7639
 6478SOL     OW30895   2.595   1.652   8.291 -0.4438 -0.2211 -0.4135
 6478SOL    HW130896   2.656   1.663   8.363 -0.6618  0.9175 -0.3966
 6478SOL    HW230897   2.529   1.601   8.338  0.5869 -0.1667  1.0601
 6479SOL     OW30898   3.043   0.353   5.873  0.1037  0.2215 -0.2865
 6479SOL    HW130899   2.991   0.277   5.902  1.3758 -0.3692  0.4407
 6479SOL    HW230900   3.089   0.378   5.953  0.0009 -0.2354 -0.0842
 6480SOL     OW30901   3.489   0.395   7.218  1.0824 -0.1630 -0.7536
 6480SOL    HW130902   3.532   0.480   7.221 -0.4172  0.6025 -0.9280
 6480SOL    HW230903   3.423   0.417   7.152  0.2806  1.9829  0.7456
 6481SOL     OW30904   3.571   3.045   3.159  0.2724  0.2071  0.3799
 6481SOL    HW130905   3.602   3.038   3.249  0.1041 -3.1427  0.1637
 6481SOL    HW230906   3.523   2.962   3.149  2.0066 -1.3222  4.9089
 6482SOL     OW30907   4.291   3.642   5.013  0.1473  0.1955  0.3509
 6482SOL    HW130908   4.312   3.662   4.922 -0.0721 -0.7343  0.0956
 6482SOL    HW230909   4.196   3.648   5.017  0.0882 -0.4760  0.0243
 6483SOL     OW30910   1.432   4.209   5.457  0.0841 -0.2533 -0.1678
 6483SOL    HW130911   1.389   4.139   5.505  0.8704 -0.3344  0.4157
 6483SOL    HW230912   1.458   4.281   5.515 -1.7630 -0.4735  0.9245
 6484SOL     OW30913   1.234   3.484  16.053  0.3750 -0.0594  0.3511
 6484SOL    HW130914   1.269   3.562  16.097 -1.9123  0.9224  0.4130
 6484SOL    HW230915   1.146   3.482  16.090 -0.8320  0.7687 -2.4534
 6485SOL     OW30916   3.332   3.338   0.854 -0.3037  0.1181 -0.1378
 6485SOL    HW130917   3.298   3.327   0.765  0.4386  2.3770 -0.7102
 6485SOL    HW230918   3.378   3.255   0.865 -1.1396 -0.5909 -1.9518
 6486SOL     OW30919   1.383   2.679   5.432 -0.3185 -0.0188 -0.4237
 6486SOL    HW130920   1.477   2.685   5.415  0.1093 -0.5367  1.7118
 6486SOL    HW230921   1.341   2.676   5.347 -0.8890 -0.2152 -0.1344
 6487SOL     OW30922   3.721   2.712   8.579  0.2654 -1.1812  0.2783
 6487SOL    HW130923   3.768   2.775   8.634 -0.3181 -0.3079 -0.2228
 6487SOL    HW230924   3.732   2.627   8.621  1.4297 -1.4496 -0.5611
 6488SOL     OW30925   2.379   4.592   5.909  0.5720 -0.3116 -0.1963
 6488SOL    HW130926   2.335   4.638   5.980  1.1708 -1.4039  0.8824
 6488SOL    HW230927   2.445   4.657   5.884  2.0235 -0.8646  2.2426
 6489SOL     OW30928   1.251   3.942   5.257  0.5967  0.3107 -0.0130
 6489SOL    HW130929   1.215   3.911   5.340 -1.1102 -0.1323 -0.9001
 6489SOL    HW230930   1.244   4.037   5.267  1.2696  0.5115 -1.3845
 6490SOL     OW30931   2.532   3.806   5.358  0.2414  0.4674 -0.1028
 6490SOL    HW130932   2.445   3.807   5.320  0.1227  0.2548  0.1645
 6490SOL    HW230933   2.538   3.719   5.398  0.7359  0.2324 -0.6739
 6491SOL     OW30934   3.340   0.493   8.025 -0.4519 -0.2648 -0.4611
 6491SOL    HW130935   3.405   0.491   7.954 -0.1783  0.0334 -0.2171
 6491SOL    HW230936   3.292   0.412   8.006  1.2607 -1.3541 -0.1431
 6492SOL     OW30937   0.658   0.258  12.497  0.3221 -0.4468 -0.1207
 6492SOL    HW130938   0.678   0.254  12.591 -0.7443 -2.4282  0.0199
 6492SOL    HW230939   0.587   0.321  12.500  1.5955  0.9907 -0.2278
 6493SOL     OW30940   3.499   2.198   4.330  0.1875  0.3363  0.3837
 6493SOL    HW130941   3.413   2.173   4.297 -0.4281  0.4129  1.9223
 6493SOL    HW230942   3.533   2.252   4.259 -0.9751  0.4946 -0.0374
 6494SOL     OW30943   0.969   3.765   2.681  0.1796  0.0151 -0.3192
 6494SOL    HW130944   0.921   3.747   2.601  1.7697 -1.5843 -0.9316
 6494SOL    HW230945   1.059   3.750   2.653  0.7130 -0.1464  1.4452
 6495SOL     OW30946   0.236   2.149   6.892 -0.1624  0.2886  0.6336
 6495SOL    HW130947   0.266   2.178   6.979  0.9373 -1.4117  0.8087
 6495SOL    HW230948   0.142   2.166   6.902  0.3035  3.1056  0.1992
 6496SOL     OW30949   2.432   4.623   3.238  0.0372  0.0694  0.2793
 6496SOL    HW130950   2.414   4.694   3.300  2.6151  1.0539 -0.1075
 6496SOL    HW230951   2.341   4.612   3.213  0.4344 -2.1172 -0.1472
 6497SOL     OW30952   1.466   2.395  13.147  0.0242  0.0162 -0.3454
 6497SOL    HW130953   1.371   2.394  13.159 -0.1097  0.9413 -1.3791
 6497SOL    HW230954   1.488   2.304  13.170  1.9393 -0.1496 -2.8236
 6498SOL     OW30955   3.073   2.386  15.795 -0.6331 -0.8499  0.4389
 6498SOL    HW130956   3.131   2.446  15.747 -1.7983  0.9866  1.3341
 6498SOL    HW230957   3.017   2.367  15.720 -0.1736 -1.1283  0.1626
 6499SOL     OW30958   1.950   1.909   2.207 -0.0747 -0.5146  0.2113
 6499SOL    HW130959   1.872   1.920   2.261 -0.0034  0.3447  0.1392
 6499SOL    HW230960   2.014   1.888   2.275  0.3542  0.9282  0.2547
 6500SOL     OW30961   3.196   2.114  11.418 -0.3709  0.0829  0.6966
 6500SOL    HW130962   3.139   2.144  11.347  0.3424  0.4644  0.2868
 6500SOL    HW230963   3.264   2.181  11.424  0.6587 -0.9359  0.4305
 6501SOL     OW30964   4.670   2.473   0.339 -0.0237  0.1513  0.4192
 6501SOL    HW130965   4.646   2.563   0.315 -0.3136  0.6206  2.4879
 6501SOL    HW230966   0.029   2.454   0.287  0.3761 -0.3998  1.2396
 6502SOL     OW30967   0.102   1.384  11.612  0.3996 -0.2309  0.2344
 6502SOL    HW130968   0.025   1.426  11.575  0.7064 -0.3803 -0.5642
 6502SOL    HW230969   0.171   1.450  11.617 -0.0315  0.2748 -0.6661
 6503SOL     OW30970   1.369   2.617  16.272  0.1631 -0.1921 -0.4072
 6503SOL    HW130971   1.421   2.686  16.231  1.1424 -1.1278 -0.7508
 6503SOL    HW230972   1.432   2.547  16.290 -2.3883 -2.3728  0.0339
 6504SOL     OW30973   0.167   0.069   2.519 -0.2981 -0.2947  0.3110
 6504SOL    HW130974   0.161   0.056   2.614 -0.3556  2.5876  0.6977
 6504SOL    HW230975   0.210   0.154   2.520 -0.3057 -0.2701 -1.7176
 6505SOL     OW30976   1.581   4.480   4.215 -0.1224  0.2552  0.2474
 6505SOL    HW130977   1.549   4.565   4.188  0.5616  0.7559  1.0059
 6505SOL    HW230978   1.506   4.446   4.263  1.2916 -2.3937  0.5924
 6506SOL     OW30979   4.632   0.571   5.474  0.3685 -0.0002 -0.6273
 6506SOL    HW130980   4.600   0.511   5.407  0.0906 -1.7743  1.0850
 6506SOL    HW230981   4.560   0.579   5.537  1.0549  1.5606 -0.0565
 6507SOL     OW30982   2.948   0.823   9.516 -0.4080 -0.0261  0.1487
 6507SOL    HW130983   3.034   0.781   9.517 -1.0907 -1.4255  0.9576
 6507SOL    HW230984   2.929   0.825   9.610 -2.7764  0.4542 -0.3327
 6508SOL     OW30985   4.553   2.649  15.019  0.0796  0.2495 -0.3880
 6508SOL    HW130986   4.555   2.723  15.080 -2.8170  2.7889 -3.3744
 6508SOL    HW230987   4.472   2.606  15.047  0.1815  0.3899  0.1113
 6509SOL     OW30988   4.126   0.028   3.984 -0.1662 -0.0707  0.2026
 6509SOL    HW130989   4.170   0.100   3.940 -1.5278  0.3221 -0.5008
 6509SOL    HW230990   4.134   4.680   3.917  3.7836 -0.1187  0.7180
 6510SOL     OW30991   1.184   3.020  15.249 -0.1182 -0.5599  0.2216
 6510SOL    HW130992   1.245   3.068  15.304 -0.2211  0.5166 -0.5990
 6510SOL    HW230993   1.245   3.001  15.177 -0.2797 -2.0289  0.4774
 6511SOL     OW30994   1.212   1.656   4.299 -0.3195 -0.0031 -0.4921
 6511SOL    HW130995   1.243   1.708   4.225 -1.4614 -1.8501 -2.2799
 6511SOL    HW230996   1.290   1.602   4.303  0.8552  1.7014 -0.3692
 6512SOL     OW30997   2.723   4.664   4.558  0.0904 -0.7899  0.1872
 6512SOL    HW130998   2.801   4.629   4.515  1.2033 -0.2270  1.7645
 6512SOL    HW230999   2.697   0.014   4.497  0.5403 -2.4977 -1.9641
 6513SOL     OW31000   1.120   1.420   2.528  0.2498 -0.4110  0.3601
 6513SOL    HW131001   1.038   1.425   2.576 -0.9768  2.9253 -2.0425
 6513SOL    HW231002   1.191   1.444   2.587 -0.1185  2.1706 -0.2668
 6514SOL     OW31003   1.603   0.467  11.160  0.3001 -0.0922 -0.3248
 6514SOL    HW131004   1.615   0.554  11.123 -1.9326  0.7475  0.9789
 6514SOL    HW231005   1.508   0.463  11.172  0.4255 -0.6528  0.5190
 6515SOL     OW31006   3.932   3.982  10.919 -0.3122  0.0469 -0.0845
 6515SOL    HW131007   3.863   3.923  10.888 -0.0315  0.5275 -1.6540
 6515SOL    HW231008   3.999   3.971  10.851 -0.7425  0.5707 -0.5906
 6516SOL     OW31009   1.331   1.825   5.318  0.8060  0.4021 -0.4347
 6516SOL    HW131010   1.253   1.835   5.373 -0.4243 -1.8802 -1.7796
 6516SOL    HW231011   1.397   1.816   5.387  0.6743 -0.7258 -0.4627
 6517SOL     OW31012   1.571   0.145  16.281  0.0651 -0.2314  0.3294
 6517SOL    HW131013   1.494   0.201  16.288  0.2706  0.1207 -0.1846
 6517SOL    HW231014   1.533   0.061  16.305  1.0272 -0.8397 -0.2594
 6518SOL     OW31015   3.450   4.531  10.056  0.1357  0.0814 -0.3091
 6518SOL    HW131016   3.435   4.597  10.123  0.0277  1.1298 -1.3546
 6518SOL    HW231017   3.438   4.452  10.108  2.4532 -0.1224 -0.0656
 6519SOL     OW31018   3.152   0.719   9.849 -0.2411  0.0817 -0.5972
 6519SOL    HW131019   3.186   0.629   9.853  0.1794  0.1708 -2.4472
 6519SOL    HW231020   3.221   0.754   9.905 -0.7024  1.8471 -1.1384
 6520SOL     OW31021   2.528   1.938   4.429  0.3628 -0.3249 -0.3432
 6520SOL    HW131022   2.446   1.941   4.478  0.2211 -0.8152 -0.5494
 6520SOL    HW231023   2.543   2.029   4.403 -0.3473 -0.2698 -0.5403
 6521SOL     OW31024   3.736   0.386   8.605  0.3037 -0.0952  0.3631
 6521SOL    HW131025   3.755   0.410   8.514  0.2196 -0.8195  0.1616
 6521SOL    HW231026   3.811   0.426   8.651  0.5708 -1.4992  1.1258
 6522SOL     OW31027   3.464   4.293   5.132  0.3702  0.9325  0.2169
 6522SOL    HW131028   3.422   4.222   5.181  2.6902 -0.1046  0.7249
 6522SOL    HW231029   3.465   4.363   5.197  0.1951  0.8618  0.2938
 6523SOL     OW31030   3.155   0.508   6.388 -0.1849 -0.3817  0.4177
 6523SOL    HW131031   3.146   0.478   6.478 -0.8950  1.3663  0.9286
 6523SOL    HW231032   3.250   0.522   6.385 -0.2208  0.1325  1.7636
 6524SOL     OW31033   4.212   0.251   6.041  0.0256 -0.1514 -0.5246
 6524SOL    HW131034   4.190   0.225   5.952  3.3527  2.5710 -2.1516
 6524SOL    HW231035   4.287   0.310   6.034 -0.7132  0.7199 -1.0584
 6525SOL     OW31036   1.539   1.300   3.723 -0.0136 -0.2840 -0.2178
 6525SOL    HW131037   1.513   1.383   3.685  1.3429 -0.4591 -1.5193
 6525SOL    HW231038   1.611   1.277   3.664 -1.9648 -1.4860 -2.1276
 6526SOL     OW31039   2.057   3.966   6.696  0.1302  0.1043 -0.2175
 6526SOL    HW131040   2.014   3.993   6.615  0.4392 -0.9310 -0.7111
 6526SOL    HW231041   1.992   3.906   6.732  0.5531 -1.0410 -1.4019
 6527SOL     OW31042   3.356   0.694  11.413 -0.3756 -0.0082  0.5005
 6527SOL    HW131043   3.429   0.756  11.415  0.5253 -1.0866  1.2789
 6527SOL    HW231044   3.298   0.744  11.355  1.0414 -0.2070 -1.1080
 6528SOL     OW31045   4.620   2.385   6.022 -0.2019 -0.2579 -0.1814
 6528SOL    HW131046   4.566   2.306   6.021 -0.2058 -0.2368 -1.5480
 6528SOL    HW231047   4.705   2.345   6.040 -0.4781 -1.6537 -2.0109
 6529SOL     OW31048   4.267   1.548   0.786 -0.6741 -0.4567 -0.4448
 6529SOL    HW131049   4.315   1.520   0.709  1.1313 -0.0460  0.5232
 6529SOL    HW231050   4.198   1.482   0.792 -1.5897  0.4200 -1.4232
 6530SOL     OW31051   2.923   2.363   3.342  0.3169 -0.0171 -0.3126
 6530SOL    HW131052   2.968   2.360   3.257  0.7031  1.0870 -0.1452
 6530SOL    HW231053   2.921   2.269   3.360 -0.1981  0.1684  0.5682
 6531SOL     OW31054   2.713   1.150   3.453 -0.8361  0.5990 -0.3912
 6531SOL    HW131055   2.682   1.237   3.428 -3.4473 -0.7433 -1.8580
 6531SOL    HW231056   2.804   1.159   3.481 -0.0223 -0.8499 -2.6046
 6532SOL     OW31057   3.745   2.725   9.127  0.1717  0.1074 -0.0352
 6532SOL    HW131058   3.650   2.724   9.114 -0.1040  1.2316  2.0290
 6532SOL    HW231059   3.756   2.631   9.111 -1.3291 -0.3401  1.5795
 6533SOL     OW31060   4.003   4.024   6.947 -0.1428 -0.0228  0.1336
 6533SOL    HW131061   3.948   4.102   6.937  0.3127  0.0558 -1.7844
 6533SOL    HW231062   4.083   4.065   6.981 -0.4017 -0.5931  1.4190
 6534SOL     OW31063   1.847   1.198   3.820  0.1188 -0.1666 -0.0417
 6534SOL    HW131064   1.858   1.288   3.791  0.4212  0.2111  1.2209
 6534SOL    HW231065   1.874   1.149   3.742 -2.2131 -2.7356  0.7614
 6535SOL     OW31066   3.937   1.144  11.360 -0.0847  0.0817  0.6127
 6535SOL    HW131067   3.937   1.056  11.323 -0.3324 -0.1577  1.1816
 6535SOL    HW231068   3.862   1.185  11.317 -0.6403 -0.6577  0.8737
 6536SOL     OW31069   2.102   2.231  12.593  0.6346 -0.1703 -0.0103
 6536SOL    HW131070   2.163   2.240  12.520  1.8276  1.0301  1.1275
 6536SOL    HW231071   2.159   2.188  12.656  0.5942 -1.4525 -0.8626
 6537SOL     OW31072   0.862   0.672  11.940 -0.0173 -0.2529 -0.0058
 6537SOL    HW131073   0.793   0.641  11.999 -1.5482  3.3571  0.1200
 6537SOL    HW231074   0.856   0.767  11.949 -2.3917 -0.6000  1.9581
 6538SOL     OW31075   2.385   1.925   5.498  0.2519 -0.4480 -0.1559
 6538SOL    HW131076   2.320   1.894   5.562 -1.0951  1.4811 -0.6078
 6538SOL    HW231077   2.334   1.950   5.421  1.1221 -0.6414 -0.7967
 6539SOL     OW31078   0.124   0.709   8.957  0.1430  0.3201 -0.2154
 6539SOL    HW131079   0.109   0.790   8.909  2.1305  0.1546 -1.0941
 6539SOL    HW231080   0.155   0.746   9.039 -0.3852  1.1740 -0.4028
 6540SOL     OW31081   1.099   3.627   7.635  0.3282 -0.1397 -0.2030
 6540SOL    HW131082   1.102   3.719   7.612  0.9449 -0.7695 -2.6927
 6540SOL    HW231083   1.028   3.600   7.577  1.4979 -1.9263 -0.8278
 6541SOL     OW31084   1.823   0.992   7.315  0.0300 -0.1973  0.1673
 6541SOL    HW131085   1.828   0.918   7.254 -0.2053  0.0384 -0.1381
 6541SOL    HW231086   1.900   1.044   7.295 -1.0649  0.7567 -1.5837
 6542SOL     OW31087   2.039   0.104   8.860  1.1899  0.1859 -0.3523
 6542SOL    HW131088   2.093   0.085   8.937  0.4411  0.3355  0.2246
 6542SOL    HW231089   1.956   0.096   8.907  1.3985 -1.2801 -0.2191
 6543SOL     OW31090   0.429   0.282   7.762 -0.2878  0.2860  0.2980
 6543SOL    HW131091   0.446   0.188   7.763 -2.8741 -0.1785  0.3678
 6543SOL    HW231092   0.417   0.306   7.670 -0.6666 -0.2976  0.1971
 6544SOL     OW31093   4.385   4.010   7.898  0.3738 -0.4328  0.0517
 6544SOL    HW131094   4.479   3.999   7.883  0.2527  0.4594 -1.2949
 6544SOL    HW231095   4.367   3.958   7.976  0.3325 -0.1774  0.2137
 6545SOL     OW31096   0.214   4.716   3.493 -0.5128 -0.5120  0.1434
 6545SOL    HW131097   0.214   4.631   3.537  3.4078 -0.3724  0.4124
 6545SOL    HW231098   0.121   4.711   3.469 -0.7576 -1.4772  1.2914
 6546SOL     OW31099   0.079   3.912   7.504  0.1087  0.4149 -0.5225
 6546SOL    HW131100   0.167   3.911   7.542 -0.6777 -1.2323  1.2237
 6546SOL    HW231101   0.029   3.861   7.568 -1.3946  1.4875 -0.8452
 6547SOL     OW31102   4.450   3.518   5.182 -0.8211 -0.6145  0.3135
 6547SOL    HW131103   4.402   3.435   5.176  1.1315 -1.7356  0.0094
 6547SOL    HW231104   4.407   3.573   5.117  3.3065  2.1931 -0.0378
 6548SOL     OW31105   2.596   2.980   1.352 -0.0373 -0.3374 -0.0869
 6548SOL    HW131106   2.557   3.034   1.284 -2.2077 -1.6056  0.1587
 6548SOL    HW231107   2.609   2.903   1.297 -0.9541 -1.1694  0.8533
 6549SOL     OW31108   2.670   2.040  15.311  0.7715 -0.2813  0.0197
 6549SOL    HW131109   2.654   2.133  15.328 -1.6472 -1.0138  1.6745
 6549SOL    HW231110   2.689   2.021  15.402 -1.6048  1.5475  0.9017
 6550SOL     OW31111   1.913   1.254  15.947  0.2957 -0.1575  0.1833
 6550SOL    HW131112   1.996   1.224  15.908  0.4015 -2.1515  1.9795
 6550SOL    HW231113   1.914   1.348  15.926  0.0967 -0.6308 -2.0070
 6551SOL     OW31114   1.909   4.444   9.106 -0.1476  0.0984  0.4767
 6551SOL    HW131115   1.915   4.398   9.190 -1.3474 -0.2295  0.3891
 6551SOL    HW231116   1.828   4.411   9.068  1.5005 -0.8149 -2.1995
 6552SOL     OW31117   2.003   4.520   1.551 -0.0199  0.5015  0.1243
 6552SOL    HW131118   2.049   4.551   1.629 -1.5928 -0.3863  1.3956
 6552SOL    HW231119   1.968   4.598   1.509 -1.4257  2.1940  4.5078
 6553SOL     OW31120   2.708   3.247   4.879 -0.1353 -0.3713  0.1833
 6553SOL    HW131121   2.702   3.152   4.890  3.0842 -0.3055  2.4873
 6553SOL    HW231122   2.625   3.255   4.832  0.3146  1.0097 -0.3592
 6554SOL     OW31123   0.227   4.380   3.026 -0.1017  0.5211  0.0549
 6554SOL    HW131124   0.219   4.447   2.958 -1.3645  1.1628  0.8462
 6554SOL    HW231125   0.296   4.332   2.980  1.0706  1.2569  1.0187
 6555SOL     OW31126   1.123   0.681  16.544 -0.5814 -0.9198  0.1556
 6555SOL    HW131127   1.053   0.633  16.500 -1.8032  1.4166 -0.4649
 6555SOL    HW231128   1.083   0.768  16.549 -0.6062 -1.0417  1.9643
 6556SOL     OW31129   3.996   0.489   0.221 -0.2207 -0.0998  0.2986
 6556SOL    HW131130   3.915   0.535   0.243 -0.8025 -0.4618 -1.1022
 6556SOL    HW231131   4.009   0.436   0.299  1.4422 -1.8626 -1.1704
 6557SOL     OW31132   0.888   0.329   2.389 -0.2437 -0.2349 -0.2350
 6557SOL    HW131133   0.879   0.238   2.419 -1.2271  0.0128  0.2197
 6557SOL    HW231134   0.978   0.330   2.357 -1.6244 -1.8099 -4.1087
 6558SOL     OW31135   2.210   1.179   8.085  0.6908 -0.0032  0.3346
 6558SOL    HW131136   2.282   1.239   8.065 -1.4604  2.0211 -1.3368
 6558SOL    HW231137   2.166   1.212   8.007  0.8820  1.1091  0.6975
 6559SOL     OW31138   2.507   2.447   5.537  0.4545  0.3264  0.4986
 6559SOL    HW131139   2.442   2.384   5.568  0.3822  0.6371  0.9929
 6559SOL    HW231140   2.452   2.525   5.546 -1.2465 -0.8074 -0.0551
 6560SOL     OW31141   2.283   3.294   3.661  0.0804 -0.2184  0.2548
 6560SOL    HW131142   2.352   3.271   3.598  0.6718 -1.6960  1.4480
 6560SOL    HW231143   2.279   3.389   3.654  0.1255 -0.2639 -0.3659
 6561SOL     OW31144   3.813   1.416  10.531  0.0802  0.0479 -0.0328
 6561SOL    HW131145   3.905   1.402  10.554  0.2003  1.2177  0.2060
 6561SOL    HW231146   3.777   1.368  10.606  0.3145  1.6727  1.1190
 6562SOL     OW31147   2.851   2.821   8.137  0.1523 -0.5259  0.0202
 6562SOL    HW131148   2.944   2.844   8.136  0.4122 -1.6357 -2.1267
 6562SOL    HW231149   2.849   2.762   8.061  0.0370  0.5735 -0.8337
 6563SOL     OW31150   1.976   1.419   5.295  0.1529  0.1349  0.2084
 6563SOL    HW131151   1.910   1.426   5.226  0.2549 -0.8060  0.0208
 6563SOL    HW231152   1.951   1.337   5.336 -1.2471  0.0827 -0.7564
 6564SOL     OW31153   4.542   1.293  17.022 -0.1537 -0.0988 -0.0150
 6564SOL    HW131154   4.620   1.347  17.035  0.9275 -1.3573 -1.2879
 6564SOL    HW231155   4.465   1.349  17.010  0.1791  0.3313 -0.1542
 6565SOL     OW31156   2.978   1.472   1.350  0.0408  0.0224 -0.4073
 6565SOL    HW131157   3.069   1.483   1.322  1.1269 -0.6102  2.7878
 6565SOL    HW231158   2.987   1.432   1.437 -3.5960 -0.5298 -0.3141
 6566SOL     OW31159   4.700   1.771   3.599 -0.0770 -0.0987  0.8044
 6566SOL    HW131160   0.058   1.763   3.544 -0.7267 -2.4993  0.2506
 6566SOL    HW231161   4.683   1.865   3.597 -0.0448 -0.1333 -0.9772
 6567SOL     OW31162   0.059   3.624  13.569 -0.0702  0.0428  0.5753
 6567SOL    HW131163   0.063   3.718  13.587 -0.5409  0.3007 -0.6743
 6567SOL    HW231164   0.147   3.600  13.542 -0.0784  0.2505  0.3618
 6568SOL     OW31165   2.268   0.312   6.148 -0.4137 -0.2536  0.5885
 6568SOL    HW131166   2.363   0.309   6.132 -0.0329  0.0778  2.7868
 6568SOL    HW231167   2.226   0.324   6.062  2.1404  1.2127 -0.4652
 6569SOL     OW31168   0.476   3.332   2.640  0.3048  0.3912 -0.6368
 6569SOL    HW131169   0.456   3.376   2.557 -0.0495  3.0306  0.8161
 6569SOL    HW231170   0.545   3.268   2.621  0.5088  1.1466 -2.4539
 6570SOL     OW31171   3.409   3.885   6.140 -0.0275 -0.3264  0.4201
 6570SOL    HW131172   3.334   3.901   6.083  0.1590 -4.3019 -0.8990
 6570SOL    HW231173   3.481   3.882   6.077  0.0799 -0.2944  0.5411
 6571SOL     OW31174   1.691   2.315   3.812 -0.6260 -0.5743  0.1069
 6571SOL    HW131175   1.708   2.393   3.760 -1.4436 -0.7747 -0.4598
 6571SOL    HW231176   1.774   2.268   3.801 -1.3008 -1.3078 -1.7998
 6572SOL     OW31177   0.218   3.664   3.419  0.0679 -0.1893 -0.2866
 6572SOL    HW131178   0.147   3.711   3.375  0.5001  0.6332 -0.1031
 6572SOL    HW231179   0.301   3.709   3.400 -0.8229  1.0438 -1.2756
 6573SOL     OW31180   2.234   3.101  13.175  0.1900  0.2921  0.1236
 6573SOL    HW131181   2.299   3.057  13.229  0.9439  0.5024 -0.6157
 6573SOL    HW231182   2.163   3.108  13.239 -0.0400  1.0585 -0.2093
 6574SOL     OW31183   0.305   4.517   2.560 -0.1784  0.4172  0.1688
 6574SOL    HW131184   0.281   4.607   2.536 -4.5924 -1.0349 -0.8863
 6574SOL    HW231185   0.389   4.536   2.600 -0.7480  2.7181  0.3092
 6575SOL     OW31186   4.566   1.415   2.806  0.1921 -0.4280  0.5699
 6575SOL    HW131187   4.475   1.388   2.824  0.1592  0.9626  2.5150
 6575SOL    HW231188   4.566   1.503   2.845 -1.6030 -0.0711 -0.1984
 6576SOL     OW31189   3.765   0.609   6.439  0.1067 -0.4803 -0.0883
 6576SOL    HW131190   3.715   0.684   6.406  1.5441 -0.2470 -1.7644
 6576SOL    HW231191   3.853   0.648   6.436 -0.0853 -0.0690 -0.4201
 6577SOL     OW31192   4.124   1.628   7.579 -0.0120  0.2632 -0.2231
 6577SOL    HW131193   4.144   1.700   7.638 -1.4201  2.6302 -2.6195
 6577SOL    HW231194   4.051   1.647   7.519  0.9901 -0.5585 -1.6976
 6578SOL     OW31195   4.064   2.992   6.674 -0.1046 -0.1836 -0.4153
 6578SOL    HW131196   4.034   3.083   6.680 -0.5568 -0.2796 -1.1821
 6578SOL    HW231197   4.083   2.978   6.767 -1.0581  0.5395 -0.1052
 6579SOL     OW31198   3.860   2.160   9.636  0.8291  0.4094  0.1449
 6579SOL    HW131199   3.776   2.194   9.605  1.0336  2.0747  1.4302
 6579SOL    HW231200   3.862   2.074   9.594  1.2516  0.7840 -0.5938
 6580SOL     OW31201   0.882   2.641  12.162 -1.1104  0.5614 -0.4494
 6580SOL    HW131202   0.939   2.717  12.171 -0.2401 -0.0296 -0.9454
 6580SOL    HW231203   0.812   2.685  12.114 -3.6490  0.5729  3.3339
 6581SOL     OW31204   2.390   2.733  10.645 -0.9576 -0.1037  0.2214
 6581SOL    HW131205   2.401   2.823  10.675  0.2107 -0.6600  1.4752
 6581SOL    HW231206   2.405   2.743  10.550 -2.8285 -0.8954 -0.1439
 6582SOL     OW31207   0.765   3.157   5.411 -0.3986 -0.5768  0.3418
 6582SOL    HW131208   0.678   3.125   5.435 -1.7023  1.4538 -1.6546
 6582SOL    HW231209   0.760   3.250   5.437 -0.3264 -0.3967 -0.3016
 6583SOL     OW31210   3.131   4.361  10.765  0.1190  0.2181 -0.0334
 6583SOL    HW131211   3.067   4.407  10.710  0.1397 -0.2625 -0.4714
 6583SOL    HW231212   3.165   4.429  10.822 -0.1576 -0.9804  1.5365
 6584SOL     OW31213   2.513   2.639   4.018 -0.6322  0.6697 -0.5587
 6584SOL    HW131214   2.477   2.728   4.022 -0.0573  0.9297 -1.1094
 6584SOL    HW231215   2.456   2.596   4.082 -1.5271  3.5773  0.6111
 6585SOL     OW31216   1.991   4.673   7.048 -0.0670 -0.5930 -0.6575
 6585SOL    HW131217   2.045   4.684   6.969 -1.3680 -0.5787 -1.5358
 6585SOL    HW231218   1.913   4.638   7.007 -1.8093  1.7847  0.6356
 6586SOL     OW31219   2.680   2.227   1.568  0.3445  0.0240  0.0240
 6586SOL    HW131220   2.713   2.160   1.509  0.3146  0.0275  0.0031
 6586SOL    HW231221   2.723   2.219   1.653  0.8877 -1.6754 -0.4163
 6587SOL     OW31222   0.185   1.316   5.228  0.4166 -0.0837 -0.5714
 6587SOL    HW131223   0.171   1.257   5.154  0.1645 -0.9512  0.1763
 6587SOL    HW231224   0.280   1.309   5.234  0.5336  0.5322 -1.6907
 6588SOL     OW31225   1.188   3.622  11.514 -0.1959 -0.3940  0.0380
 6588SOL    HW131226   1.241   3.630  11.435  0.4258 -0.1741  0.4745
 6588SOL    HW231227   1.105   3.610  11.469 -0.4355  1.6711 -0.0458
 6589SOL     OW31228   0.601   3.594   4.317 -0.1951 -0.2501  0.2032
 6589SOL    HW131229   0.627   3.634   4.233  1.8532 -0.6681  0.6458
 6589SOL    HW231230   0.662   3.521   4.326 -1.7368 -1.6388 -0.7290
 6590SOL     OW31231   0.576   3.505  12.232  0.1983 -0.4759 -0.7087
 6590SOL    HW131232   0.581   3.596  12.205 -1.1739  0.2997  1.6979
 6590SOL    HW231233   0.635   3.506  12.307  0.2614  1.3965 -0.8018
 6591SOL     OW31234   3.021   1.041  12.497 -0.0950 -0.5509 -0.6396
 6591SOL    HW131235   3.055   1.070  12.581  0.4728  0.0094 -1.0677
 6591SOL    HW231236   3.103   0.999  12.470 -0.3982 -1.6530  0.1796
 6592SOL     OW31237   3.994   4.485   2.726 -0.6255  0.1613 -0.2075
 6592SOL    HW131238   3.957   4.536   2.798  0.8295  0.5367  0.2678
 6592SOL    HW231239   3.973   4.397   2.755 -0.5590  0.4768  0.8060
 6593SOL     OW31240   0.176   3.833   4.740 -0.0179  0.4583 -0.9459
 6593SOL    HW131241   0.144   3.827   4.830 -1.2096 -1.5995 -1.4973
 6593SOL    HW231242   0.257   3.880   4.757 -1.5503  1.4076  3.7145
 6594SOL     OW31243   1.141   0.240  14.996 -0.0428  0.2638  0.1393
 6594SOL    HW131244   1.209   0.246  14.928  0.2047 -1.5801  0.2107
 6594SOL    HW231245   1.085   0.314  14.977  1.7633  1.3639 -0.8709
 6595SOL     OW31246   1.813   3.126   6.970  0.1948  0.4466  0.3235
 6595SOL    HW131247   1.725   3.160   6.958 -0.5551 -1.4322  0.4743
 6595SOL    HW231248   1.870   3.203   6.972  0.9584 -0.0683 -1.1953
 6596SOL     OW31249   0.156   0.673   1.047 -0.1171 -0.2542  0.5017
 6596SOL    HW131250   0.086   0.694   0.985 -0.9891 -1.8173  0.9523
 6596SOL    HW231251   0.136   0.728   1.122  1.4174  0.7009  0.2061
 6597SOL     OW31252   2.493   1.872   8.758 -0.3953  0.2062  0.0281
 6597SOL    HW131253   2.480   1.777   8.761  1.2940 -0.0232  0.6012
 6597SOL    HW231254   2.553   1.892   8.830 -0.3519 -1.4979  0.4779
 6598SOL     OW31255   1.896   1.389  13.483 -0.2402  0.4537  0.3311
 6598SOL    HW131256   1.866   1.462  13.537 -0.7437 -0.1018  0.7990
 6598SOL    HW231257   1.960   1.350  13.542  0.8664 -0.3480 -1.3885
 6599SOL     OW31258   1.411   3.651   2.788 -0.8443 -0.4104  0.0172
 6599SOL    HW131259   1.404   3.625   2.880  1.8185 -1.2492  0.0139
 6599SOL    HW231260   1.491   3.703   2.801 -2.0353  1.6417 -1.0045
 6600SOL     OW31261   3.678   1.090  10.444 -0.2211  0.1605 -0.4289
 6600SOL    HW131262   3.592   1.059  10.471  0.6306 -2.9571 -1.3181
 6600SOL    HW231263   3.738   1.046  10.504 -0.7051 -0.3147 -0.2956
 6601SOL     OW31264   3.156   2.478   8.386  0.0956  0.2439  0.3373
 6601SOL    HW131265   3.114   2.392   8.383  1.2439 -0.3608  1.6805
 6601SOL    HW231266   3.104   2.524   8.451  0.4493  0.8024  0.2181
 6602SOL     OW31267   2.067   2.514   7.602 -0.2420 -0.2493  0.1284
 6602SOL    HW131268   2.075   2.606   7.627  0.8324 -1.0093  2.6092
 6602SOL    HW231269   2.132   2.513   7.533 -0.4933  0.4960 -0.1129
 6603SOL     OW31270   3.029   3.474   5.667  0.5501  0.7304  0.2101
 6603SOL    HW131271   3.011   3.550   5.613  0.1779  0.0862 -0.5682
 6603SOL    HW231272   2.970   3.409   5.630 -0.8487  1.1048  1.7794
 6604SOL     OW31273   0.140   4.667   0.892  0.5405 -0.6112 -0.0869
 6604SOL    HW131274   0.075   4.628   0.833  0.8466 -0.5334 -0.4706
 6604SOL    HW231275   0.101   4.657   0.979  1.4828 -1.5158  0.2400
 6605SOL     OW31276   1.930   1.567   9.270 -0.4922  0.7891  0.3339
 6605SOL    HW131277   1.848   1.590   9.314 -1.3308 -1.2202 -0.2224
 6605SOL    HW231278   1.898   1.519   9.194  1.4244 -0.0975  0.1020
 6606SOL     OW31279   1.428   3.824  10.415  0.1685  0.0167  0.1448
 6606SOL    HW131280   1.522   3.807  10.424  0.0779 -0.5304  0.0450
 6606SOL    HW231281   1.390   3.766  10.480  0.5524 -3.2068 -2.4750
 6607SOL     OW31282   3.749   2.535   2.461 -0.3457 -0.0991  0.3741
 6607SOL    HW131283   3.672   2.488   2.493 -0.9017 -0.3360 -1.3226
 6607SOL    HW231284   3.812   2.463   2.466  0.5704  0.7454  0.8616
 6608SOL     OW31285   0.780   2.014  14.481  0.0122  0.4881 -0.5558
 6608SOL    HW131286   0.761   2.042  14.391  1.9587 -0.9426 -1.4140
 6608SOL    HW231287   0.825   2.095  14.506  0.0940 -0.3660  2.0387
 6609SOL     OW31288   2.847   1.751   9.157 -0.0515 -0.2694  0.0273
 6609SOL    HW131289   2.880   1.808   9.227  2.6422  0.3830 -1.7851
 6609SOL    HW231290   2.775   1.705   9.199  0.8080 -1.3319  0.3179
 6610SOL     OW31291   1.176   0.515   4.024  0.1738  0.1886 -0.2795
 6610SOL    HW131292   1.232   0.560   4.087  0.9807 -1.1762 -0.0188
 6610SOL    HW231293   1.225   0.436   4.003  1.2255  1.2508 -1.8052
 6611SOL     OW31294   4.487   3.740   6.083  0.0754 -0.3844  0.4268
 6611SOL    HW131295   4.534   3.677   6.138  1.7659 -0.7722 -1.5157
 6611SOL    HW231296   4.407   3.756   6.134  1.2774  0.8501  1.9336
 6612SOL     OW31297   0.855   2.328   7.773 -0.6771 -0.0215  0.1372
 6612SOL    HW131298   0.881   2.420   7.774 -0.8137  0.0169  0.0543
 6612SOL    HW231299   0.761   2.342   7.766 -0.7401 -1.5095 -2.0533
 6613SOL     OW31300   0.360   2.541  10.704 -0.5235 -0.1387  0.6453
 6613SOL    HW131301   0.278   2.504  10.671 -0.2323 -1.7990  1.8530
 6613SOL    HW231302   0.399   2.463  10.742  1.3602  1.0710  1.2379
 6614SOL     OW31303   1.022   2.076  12.582 -0.0452 -0.8701  0.2458
 6614SOL    HW131304   1.023   2.024  12.502  0.2500  1.4907 -1.2640
 6614SOL    HW231305   0.931   2.094  12.607  0.0325  0.2689 -0.2918
 6615SOL     OW31306   0.649   0.333   9.568  0.7009  0.2970 -0.2179
 6615SOL    HW131307   0.621   0.297   9.652  3.2582  0.8505  0.8650
 6615SOL    HW231308   0.614   0.422   9.563 -0.5522 -0.2506 -1.2822
 6616SOL     OW31309   1.210   0.774   6.077 -0.2389  0.4574 -0.8772
 6616SOL    HW131310   1.151   0.756   6.004 -1.1964  2.5002 -0.6075
 6616SOL    HW231311   1.298   0.772   6.039  0.0664  1.7793 -0.2463
 6617SOL     OW31312   4.153   3.360  17.348 -0.0511  0.8446  0.2429
 6617SOL    HW131313   4.180   3.384  17.259 -0.1634 -1.3894 -0.4128
 6617SOL    HW231314   4.153   3.267  17.324 -2.7317  0.5293  1.4582
 6618SOL     OW31315   3.970   0.982  12.147 -0.3625 -0.3805  0.4728
 6618SOL    HW131316   3.999   0.978  12.056  0.4595  0.8193  0.6850
 6618SOL    HW231317   4.004   1.069  12.167  2.1475 -0.5510 -3.0609
 6619SOL     OW31318   1.761   1.641   9.459 -0.3495 -0.4211  0.3896
 6619SOL    HW131319   1.683   1.612   9.412 -2.2987 -1.6070  4.3465
 6619SOL    HW231320   1.711   1.662   9.538 -0.8254  1.0888 -0.3305
 6620SOL     OW31321   1.909   0.277   6.199 -0.0506  0.4598 -0.3811
 6620SOL    HW131322   1.957   0.267   6.281 -2.1609  1.4792  0.9730
 6620SOL    HW231323   1.944   0.205   6.146  1.2955 -1.2101  2.7811
 6621SOL     OW31324   0.862   0.947   7.507 -0.7058  0.0083  0.2092
 6621SOL    HW131325   0.859   0.856   7.535  0.9992  0.1794  0.9675
 6621SOL    HW231326   0.898   0.974   7.592  0.1155 -0.4307  0.0077
 6622SOL     OW31327   2.325   4.225   3.102  0.0512 -0.3881  0.4480
 6622SOL    HW131328   2.339   4.267   3.187  1.0272 -1.6633  0.9160
 6622SOL    HW231329   2.334   4.132   3.125  2.0913 -0.5661 -1.0544
 6623SOL     OW31330   0.465   4.457   0.944 -0.6493 -0.2842  0.4187
 6623SOL    HW131331   0.450   4.449   1.038  3.3380  2.2505  1.2601
 6623SOL    HW231332   0.429   4.373   0.916 -2.3015  0.3513  0.6199
 6624SOL     OW31333   4.535   4.218   1.435 -0.5992  0.1277 -1.3096
 6624SOL    HW131334   4.605   4.168   1.394  1.2336  0.5592  1.3071
 6624SOL    HW231335   4.470   4.199   1.367  1.3994 -0.0882 -3.1358
 6625SOL     OW31336   3.253   3.948   3.049 -0.0852  0.2150  0.2724
 6625SOL    HW131337   3.192   3.899   3.104 -0.3019  0.0923 -0.0795
 6625SOL    HW231338   3.192   4.018   3.028  0.9743  1.0805  0.0866
 6626SOL     OW31339   1.443   2.524   6.417 -0.8459  0.0648 -0.2285
 6626SOL    HW131340   1.383   2.568   6.356 -0.8384  2.6386  1.5985
 6626SOL    HW231341   1.525   2.559   6.381 -0.1747 -0.8335  0.4323
 6627SOL     OW31342   0.924   2.041  13.294 -0.3533  0.0063  0.5536
 6627SOL    HW131343   0.833   2.039  13.324  0.8282 -1.2287  4.0926
 6627SOL    HW231344   0.949   1.958  13.333  1.5614  0.4983  0.3376
 6628SOL     OW31345   1.374   4.576   6.464 -0.5866  0.2121 -0.1890
 6628SOL    HW131346   1.331   4.628   6.396  1.2937  1.4718 -0.4193
 6628SOL    HW231347   1.334   4.602   6.547 -0.4123  2.2878 -0.7678
 6629SOL     OW31348   0.966   1.901  16.736  0.1382  0.3362 -0.3018
 6629SOL    HW131349   1.061   1.912  16.747 -0.0066  0.8097  0.5092
 6629SOL    HW231350   0.960   1.969  16.669 -0.6997  0.5397 -0.0231
 6630SOL     OW31351   2.296   2.240  12.431 -0.1689 -0.1753  0.1246
 6630SOL    HW131352   2.322   2.199  12.349  1.9849 -1.6915  1.5790
 6630SOL    HW231353   2.367   2.211  12.488  1.8208  0.0371 -2.2435
 6631SOL     OW31354   1.461   0.272  10.920 -0.1766 -0.0225  0.4361
 6631SOL    HW131355   1.503   0.307  10.841 -0.6551 -1.6642 -0.5401
 6631SOL    HW231356   1.525   0.203  10.939 -0.9948 -1.2042 -1.1588
 6632SOL     OW31357   2.923   3.108  10.357 -0.3661 -0.0889  0.0809
 6632SOL    HW131358   2.968   3.106  10.273  0.0451  2.1408  0.2287
 6632SOL    HW231359   2.989   3.091  10.423 -0.2961 -1.1098 -0.2524
 6633SOL     OW31360   4.572   2.423   4.935  0.0610  0.2973  0.0829
 6633SOL    HW131361   4.508   2.482   4.895  0.5000 -0.9444 -2.4658
 6633SOL    HW231362   4.646   2.438   4.876  1.8535 -2.8676  1.5350
 6634SOL     OW31363   2.497   2.760  11.478 -0.0555 -0.3388 -0.3430
 6634SOL    HW131364   2.479   2.716  11.561 -0.8382 -0.7369 -0.7230
 6634SOL    HW231365   2.479   2.849  11.509 -0.2954 -1.0011  1.4263
 6635SOL     OW31366   2.506   0.646   4.947 -0.9745 -0.1119  0.3546
 6635SOL    HW131367   2.462   0.561   4.956 -1.3650 -0.3604 -3.6811
 6635SOL    HW231368   2.436   0.697   4.986 -0.8982 -0.6790  1.2276
 6636SOL     OW31369   4.469   3.861  16.258  0.0869  0.5094 -1.0466
 6636SOL    HW131370   4.391   3.811  16.281  0.7944  0.6289  1.6088
 6636SOL    HW231371   4.524   3.838  16.333 -1.2275  2.1944  0.3977
 6637SOL     OW31372   3.208   3.600  15.819 -0.2976 -0.1679  0.1122
 6637SOL    HW131373   3.296   3.591  15.856  0.5045 -1.5043 -2.1272
 6637SOL    HW231374   3.221   3.574  15.728  2.3921  1.1182  0.1146
 6638SOL     OW31375   3.521   0.265   8.710 -0.6950 -0.0242  0.0005
 6638SOL    HW131376   3.550   0.231   8.795 -0.8056  2.5093  1.0356
 6638SOL    HW231377   3.606   0.291   8.676 -0.5153  1.1133  1.3281
 6639SOL     OW31378   0.630   2.652   0.547  0.2538 -0.6291  0.1936
 6639SOL    HW131379   0.588   2.593   0.610  0.5791 -0.9636  0.1005
 6639SOL    HW231380   0.586   2.736   0.553  0.9828 -0.2401  0.0762
 6640SOL     OW31381   2.302   3.871   7.143 -0.6359  0.1185  0.8817
 6640SOL    HW131382   2.299   3.892   7.236  0.4432 -1.3890  1.2511
 6640SOL    HW231383   2.373   3.808   7.156 -1.7106 -0.9735  1.5358
 6641SOL     OW31384   0.809   4.625   4.673 -0.0902  0.4349 -0.1093
 6641SOL    HW131385   0.889   4.677   4.684  0.0599  0.3302 -0.7129
 6641SOL    HW231386   0.773   4.667   4.596  0.7406 -2.7840 -2.2422
 6642SOL     OW31387   3.538   3.340   2.712 -0.1706 -0.5301  0.1944
 6642SOL    HW131388   3.492   3.329   2.795 -0.2662  1.3293  0.3827
 6642SOL    HW231389   3.608   3.275   2.711  0.6952  0.4343 -0.4249
 6643SOL     OW31390   2.418   1.671  15.944  0.1793  0.2338 -0.4946
 6643SOL    HW131391   2.332   1.709  15.961  0.5290  0.8122 -0.0012
 6643SOL    HW231392   2.432   1.600  16.005 -1.4057  1.3739  1.1972
 6644SOL     OW31393   1.278   4.335   8.256 -0.1134 -0.1590  0.6632
 6644SOL    HW131394   1.324   4.339   8.340  2.2083 -0.1134 -0.6287
 6644SOL    HW231395   1.217   4.263   8.276 -0.4323 -0.7800 -2.5408
 6645SOL     OW31396   2.172   1.490   1.942  0.4642 -0.1438  0.7611
 6645SOL    HW131397   2.267   1.489   1.955  0.7349 -0.5016 -1.2881
 6645SOL    HW231398   2.143   1.530   2.024  0.0527  1.9016 -0.3883
 6646SOL     OW31399   1.152   0.321   2.298  0.1024  0.2480 -0.0434
 6646SOL    HW131400   1.220   0.296   2.361 -0.7509 -1.0281  0.3762
 6646SOL    HW231401   1.167   0.261   2.225 -0.7060  1.1706 -0.9692
 6647SOL     OW31402   0.329   3.701   1.302  0.1457 -0.6537 -0.1613
 6647SOL    HW131403   0.358   3.727   1.389  0.9313 -0.3144 -0.5240
 6647SOL    HW231404   0.265   3.636   1.331 -1.0863  0.8271  0.3692
 6648SOL     OW31405   1.262   3.800  11.687  0.8665  0.2846 -0.1068
 6648SOL    HW131406   1.226   3.871  11.634  1.3993  0.0143 -0.8316
 6648SOL    HW231407   1.254   3.726  11.627 -0.7539 -0.7533  1.3489
 6649SOL     OW31408   0.005   4.605   2.090 -0.3566 -0.5142  0.3191
 6649SOL    HW131409   4.673   4.679   2.058  0.2238  0.5757  1.8929
 6649SOL    HW231410   0.006   4.538   2.021  0.3412 -1.7565  1.5400
 6650SOL     OW31411   1.369   3.823   6.682 -0.1902  0.4274 -0.9872
 6650SOL    HW131412   1.464   3.809   6.683 -0.2406  0.1068 -0.5408
 6650SOL    HW231413   1.337   3.747   6.635  1.0537  0.3234 -1.6573
 6651SOL     OW31414   1.018   1.647   5.439  0.1324 -0.2533  0.7975
 6651SOL    HW131415   1.101   1.616   5.403  0.7048  1.6915  0.4450
 6651SOL    HW231416   1.035   1.730   5.484  5.0448 -2.3579  2.8464
 6652SOL     OW31417   1.010   0.654   0.705  0.6701  0.2555 -0.2524
 6652SOL    HW131418   0.986   0.632   0.796  0.2012 -0.1158 -0.4612
 6652SOL    HW231419   0.949   0.603   0.652 -2.4572  3.0367  0.6446
 6653SOL     OW31420   3.799   2.556   9.515  0.0986 -0.2249  0.5169
 6653SOL    HW131421   3.850   2.479   9.490  0.0456 -0.4646  1.1477
 6653SOL    HW231422   3.849   2.630   9.479 -0.9282  1.5555  2.7320
 6654SOL     OW31423   2.481   3.577   4.506  0.0990  0.1869  0.6158
 6654SOL    HW131424   2.447   3.611   4.589  0.4461 -0.4025  0.9968
 6654SOL    HW231425   2.512   3.663   4.477 -2.0516  0.8958  0.3540
 6655SOL     OW31426   3.226   1.811   6.421  0.2821 -0.1545 -0.1176
 6655SOL    HW131427   3.318   1.794   6.440  0.4112  0.3204 -0.3165
 6655SOL    HW231428   3.184   1.735   6.461 -1.6321 -0.0823 -1.9531
 6656SOL     OW31429   0.454   2.381  16.671  0.4349 -0.0866 -0.4047
 6656SOL    HW131430   0.467   2.393  16.765  1.6168 -1.4328 -0.4118
 6656SOL    HW231431   0.520   2.315  16.651  1.5251  1.0164 -0.5067
 6657SOL     OW31432   2.204   3.943   1.719  0.0146  0.6923  0.6185
 6657SOL    HW131433   2.222   3.849   1.714 -4.0852 -0.0243 -0.6076
 6657SOL    HW231434   2.133   3.957   1.657  1.2173  0.7718 -0.7487
 6658SOL     OW31435   2.350   1.622   5.912  0.0317  0.2155  0.1377
 6658SOL    HW131436   2.279   1.605   5.973  0.2991 -0.7800  0.1812
 6658SOL    HW231437   2.420   1.565   5.945  0.7800  0.1744 -1.4753
 6659SOL     OW31438   1.242   1.767   2.340  0.8685 -0.0941  0.1686
 6659SOL    HW131439   1.271   1.857   2.331 -1.6000  0.6230 -0.5835
 6659SOL    HW231440   1.238   1.763   2.435 -0.0947 -0.9141  0.1017
 6660SOL     OW31441   4.043   1.527   3.822  0.3372 -0.2242 -0.0647
 6660SOL    HW131442   3.965   1.531   3.768  0.6008 -2.4408 -0.6161
 6660SOL    HW231443   4.118   1.527   3.762  2.2531  1.3584  2.3429
 6661SOL     OW31444   2.732   3.968  14.020 -0.3923  0.3336  0.3724
 6661SOL    HW131445   2.798   3.909  13.983  0.4148  1.4409  0.0787
 6661SOL    HW231446   2.655   3.915  14.043  0.3383 -0.1607  1.6983
 6662SOL     OW31447   1.799   2.256   4.811 -0.0128  0.0746  0.0349
 6662SOL    HW131448   1.863   2.209   4.757  0.8941  1.3048  0.0426
 6662SOL    HW231449   1.852   2.294   4.880 -1.1966  0.4811  0.7292
 6663SOL     OW31450   2.332   0.561   7.105 -0.5970  0.7380 -0.4186
 6663SOL    HW131451   2.385   0.624   7.057  0.0618  1.9896  1.9202
 6663SOL    HW231452   2.392   0.490   7.125 -1.4479 -0.4693 -2.1772
 6664SOL     OW31453   3.905   1.504  10.244  0.0185 -0.2022 -0.2944
 6664SOL    HW131454   3.829   1.460  10.207 -0.1410 -0.0881 -0.0973
 6664SOL    HW231455   3.889   1.485  10.336  1.5209  0.9072  0.2029
 6665SOL     OW31456   3.432   2.037   6.157 -0.5565  0.3184  0.7041
 6665SOL    HW131457   3.450   2.121   6.199  1.9305  0.2013 -0.1538
 6665SOL    HW231458   3.418   2.060   6.065  5.1706  0.1940 -0.1748
 6666SOL     OW31459   0.070   1.893   5.915  0.1212  0.1007  0.2191
 6666SOL    HW131460   0.119   1.818   5.949 -0.4592 -0.5760 -0.4249
 6666SOL    HW231461   0.095   1.883   5.823  0.2765 -1.1127  0.3838
 6667SOL     OW31462   0.380   0.802   2.239 -0.4197 -0.0981 -0.1825
 6667SOL    HW131463   0.321   0.747   2.187 -0.0437  0.0808 -0.8004
 6667SOL    HW231464   0.344   0.782   2.325  1.2884  0.3879  0.6418
 6668SOL     OW31465   1.124   2.626   8.929  0.4731  0.0463  0.0263
 6668SOL    HW131466   1.162   2.540   8.912  1.0508  0.3408 -0.1458
 6668SOL    HW231467   1.061   2.603   8.998  1.6551 -0.9959  0.7714
 6669SOL     OW31468   0.115   3.879   6.065  0.2302  0.5095  0.1637
 6669SOL    HW131469   0.116   3.783   6.071  1.4835  0.4316 -1.2557
 6669SOL    HW231470   0.207   3.897   6.047  0.1163 -1.5039 -2.5704
 6670SOL     OW31471   2.158   1.763   2.712  0.1274 -0.0020  0.1117
 6670SOL    HW131472   2.195   1.836   2.763 -0.6769  0.1434  0.4789
 6670SOL    HW231473   2.206   1.692   2.756  0.6623  0.4695  0.3008
 6671SOL     OW31474   4.550   3.298   8.202  0.2545 -0.2244  0.6625
 6671SOL    HW131475   4.583   3.352   8.130 -0.5497  1.0290  1.2413
 6671SOL    HW231476   4.551   3.212   8.160  1.7708 -0.1039  0.4288
 6672SOL     OW31477   4.349   2.296  11.391  0.3964  0.2409  0.4902
 6672SOL    HW131478   4.419   2.322  11.331 -0.6463  0.9703 -0.3899
 6672SOL    HW231479   4.285   2.355  11.351 -1.2745 -2.6433 -1.0369
 6673SOL     OW31480   0.675   4.332   7.019  0.7637 -0.1103 -0.5498
 6673SOL    HW131481   0.600   4.316   7.076 -0.3325  0.4792 -1.8281
 6673SOL    HW231482   0.658   4.418   6.982 -0.4046 -0.8042 -1.6359
 6674SOL     OW31483   4.265   0.669   8.364 -0.0424 -0.3731  0.2969
 6674SOL    HW131484   4.334   0.656   8.429 -1.2167 -2.3638  1.1278
 6674SOL    HW231485   4.251   0.578   8.339  1.7341 -0.9470  1.3729
 6675SOL     OW31486   2.491   0.200   8.677  0.0733 -0.5589  0.2321
 6675SOL    HW131487   2.528   0.248   8.751  0.8672 -0.0372 -0.4991
 6675SOL    HW231488   2.401   0.232   8.679 -0.2452 -1.5105  1.3381
 6676SOL     OW31489   1.633   4.363   0.876 -0.2646 -0.1938 -0.3380
 6676SOL    HW131490   1.582   4.362   0.957  2.3540  2.3306  1.3476
 6676SOL    HW231491   1.649   4.457   0.876  0.4101 -0.3123 -1.0908
 6677SOL     OW31492   3.608   1.833   3.503  0.5465  0.1656  0.9311
 6677SOL    HW131493   3.673   1.897   3.533  0.5405 -0.2234  1.7754
 6677SOL    HW231494   3.665   1.766   3.464  1.2852  1.0638  0.4767
 6678SOL     OW31495   0.874   3.445   1.625 -0.7975 -0.5974 -0.1036
 6678SOL    HW131496   0.947   3.502   1.649 -0.4979 -1.1014  0.1810
 6678SOL    HW231497   0.802   3.508   1.630  1.2346  1.6817  0.0838
 6679SOL     OW31498   3.199   3.816   9.451  0.1580  0.2387  0.4369
 6679SOL    HW131499   3.269   3.758   9.420 -1.4039 -2.0728  1.2221
 6679SOL    HW231500   3.236   3.893   9.407  0.8305  0.2842  1.0922
 6680SOL     OW31501   3.644   3.181  15.311  0.2083 -0.2254 -0.2759
 6680SOL    HW131502   3.702   3.112  15.278 -0.6561 -0.3247 -1.5668
 6680SOL    HW231503   3.562   3.137  15.289 -0.1449 -0.2865  1.1605
 6681SOL     OW31504   1.335   4.105   4.996  0.1829 -0.1442 -0.2269
 6681SOL    HW131505   1.395   4.124   5.068  1.3103 -1.4671 -0.8096
 6681SOL    HW231506   1.378   4.157   4.928 -0.4642  0.5072 -0.1351
 6682SOL     OW31507   1.140   4.097  13.503  0.0723  0.5961 -0.4346
 6682SOL    HW131508   1.099   4.011  13.509 -1.7836  1.4234 -1.1692
 6682SOL    HW231509   1.066   4.157  13.492  1.5053  2.5095  0.1594
 6683SOL     OW31510   4.433   4.595  11.229  0.4719  0.0671 -0.0595
 6683SOL    HW131511   4.522   4.609  11.197  0.1947  1.5809 -0.1406
 6683SOL    HW231512   4.451   4.519  11.285 -2.4159 -0.6810 -0.1451
 6684SOL     OW31513   2.525   3.897   2.923  0.1752 -0.4444 -0.5759
 6684SOL    HW131514   2.437   3.933   2.925  0.3866 -0.0785  1.5851
 6684SOL    HW231515   2.564   3.922   2.839 -0.8248 -0.8155 -1.1544
 6685SOL     OW31516   0.130   3.329   6.600 -0.8534 -0.6176 -0.0182
 6685SOL    HW131517   0.062   3.304   6.662  1.4288 -1.4528  2.1617
 6685SOL    HW231518   0.145   3.240   6.567  3.1870 -0.5913  1.7469
 6686SOL     OW31519   3.440   3.392   3.751  0.0826  0.3850 -0.4892
 6686SOL    HW131520   3.372   3.430   3.807  0.5617 -0.3078  0.5679
 6686SOL    HW231521   3.513   3.429   3.802  0.3276 -2.8296  1.4374
 6687SOL     OW31522   2.028   0.249   5.262  0.9897 -0.6784 -0.2101
 6687SOL    HW131523   1.990   0.181   5.206  0.9758 -1.7728  1.1234
 6687SOL    HW231524   2.087   0.205   5.323 -0.9788 -0.9900  1.4837
 6688SOL     OW31525   3.942   2.115   0.063 -0.2707 -0.5056 -0.3800
 6688SOL    HW131526   3.978   2.122  17.656 -0.1211 -0.9825 -0.3572
 6688SOL    HW231527   4.013   2.154   0.115 -1.6350  1.0357  0.3294
 6689SOL     OW31528   1.616   1.219   3.986  0.2492 -0.3520 -0.4300
 6689SOL    HW131529   1.704   1.217   3.947 -0.4751  0.1045 -2.0654
 6689SOL    HW231530   1.573   1.242   3.903  3.7646  2.4594 -1.4742
 6690SOL     OW31531   3.388   4.603   2.070  0.0834 -0.0043  0.3252
 6690SOL    HW131532   3.324   4.543   2.030 -0.3224  1.0130 -0.5576
 6690SOL    HW231533   3.465   4.546   2.075 -0.4513 -0.8363 -0.8053
 6691SOL     OW31534   4.379   0.196   2.880 -0.1364  0.8130 -0.2200
 6691SOL    HW131535   4.431   0.127   2.921 -1.8172  0.1891  0.8650
 6691SOL    HW231536   4.415   0.196   2.791 -1.9320  0.4866 -0.9445
 6692SOL     OW31537   0.025   4.682   5.047 -0.9163 -0.0107  0.4246
 6692SOL    HW131538   0.117   4.675   5.021 -0.9092  2.5388 -0.2324
 6692SOL    HW231539   0.028   4.609   5.109  1.7543  0.0247  0.3380
 6693SOL     OW31540   0.031   3.342   0.303  0.2413  0.0342 -0.3565
 6693SOL    HW131541   0.104   3.283   0.285  1.2004  0.6757  1.4958
 6693SOL    HW231542   4.678   3.279   0.309  0.1105  0.1771 -0.4161
 6694SOL     OW31543   3.878   0.922   2.212  0.1875 -0.0442 -0.3420
 6694SOL    HW131544   3.796   0.952   2.250 -1.0035 -0.3798 -2.6529
 6694SOL    HW231545   3.902   0.982   2.141  2.0141  0.8923  1.0511
 6695SOL     OW31546   1.483   1.709  16.793  0.2266  0.4705 -0.4468
 6695SOL    HW131547   1.411   1.650  16.815  0.4952  0.6509  0.9170
 6695SOL    HW231548   1.528   1.662  16.722  1.9437  1.5593 -0.0783
 6696SOL     OW31549   1.613   2.318   3.045 -0.1874  0.4565  0.5165
 6696SOL    HW131550   1.595   2.291   2.955  1.0612  2.3929 -0.3213
 6696SOL    HW231551   1.556   2.260   3.095 -0.0775  0.1313  0.2635
 6697SOL     OW31552   3.629   3.871   2.308  0.2221  0.5807 -0.1916
 6697SOL    HW131553   3.681   3.808   2.358  2.0463  1.2235 -1.2796
 6697SOL    HW231554   3.607   3.816   2.233 -2.3454 -0.9562  1.6961
 6698SOL     OW31555   3.045   1.446   7.090  0.4388  0.2523 -0.0293
 6698SOL    HW131556   3.095   1.495   7.025  1.1199  0.0101  0.3121
 6698SOL    HW231557   3.005   1.504   7.154  0.0396 -0.0467 -0.0076
 6699SOL     OW31558   1.359   3.477   2.597  0.5390 -0.2172 -0.1913
 6699SOL    HW131559   1.374   3.549   2.659  0.6838 -0.7665  0.4135
 6699SOL    HW231560   1.331   3.530   2.522  1.7853  1.4335  0.5079
 6700SOL     OW31561   0.687   1.358   2.304 -0.0595  0.3961 -0.2460
 6700SOL    HW131562   0.702   1.412   2.227 -0.9619  2.1166  0.7902
 6700SOL    HW231563   0.623   1.292   2.276  0.8789 -2.4168  4.1774
 6701SOL     OW31564   1.102   0.419  16.158 -0.2406  0.2370 -0.0805
 6701SOL    HW131565   1.011   0.437  16.137 -0.2079  2.2130  1.4961
 6701SOL    HW231566   1.119   0.420  16.064  0.7898 -0.2581  0.0986
 6702SOL     OW31567   0.587   0.043  15.953  0.1819  0.5524  0.6480
 6702SOL    HW131568   0.516   0.039  16.017  0.3209 -0.0830  0.7631
 6702SOL    HW231569   0.663   0.061  16.008  1.0260 -0.2839 -0.2465
 6703SOL     OW31570   2.157   1.633  10.725  0.5957  0.7512  0.9171
 6703SOL    HW131571   2.245   1.642  10.689  0.1443 -0.7318 -0.5976
 6703SOL    HW231572   2.118   1.710  10.684 -2.1794 -0.3379  1.5286
 6704SOL     OW31573   2.653   2.004   3.382 -0.2053  0.4348 -0.3035
 6704SOL    HW131574   2.607   1.956   3.451 -0.8475  1.2182 -0.1878
 6704SOL    HW231575   2.734   2.027   3.428 -0.7141 -0.7736  1.2099
 6705SOL     OW31576   2.843   1.814   7.966  0.4603 -0.1980  0.3820
 6705SOL    HW131577   2.798   1.884   8.012 -0.1831  1.4475 -2.7704
 6705SOL    HW231578   2.914   1.871   7.939 -0.1571  0.7134  0.6792
 6706SOL     OW31579   1.347   2.101   6.404 -0.6053  0.3439  0.3631
 6706SOL    HW131580   1.321   2.138   6.319 -0.7744  1.6263  0.9753
 6706SOL    HW231581   1.325   2.008   6.394 -1.4237  0.5237  0.4280
 6707SOL     OW31582   4.022   1.781   3.587  0.3781 -0.0977  0.1957
 6707SOL    HW131583   4.110   1.755   3.616  1.5166  1.5921 -1.7936
 6707SOL    HW231584   4.024   1.735   3.503 -0.5122 -0.2482  0.2570
 6708SOL     OW31585   1.353   3.737   7.739  0.6462  0.0902 -0.5987
 6708SOL    HW131586   1.290   3.673   7.772  0.7182  0.8314  0.9708
 6708SOL    HW231587   1.330   3.757   7.648  0.5753  1.0827 -0.3696
 6709SOL     OW31588   4.026   2.250   7.345  0.8962  0.3329 -0.0842
 6709SOL    HW131589   4.090   2.250   7.415  1.8066 -2.3154 -0.9147
 6709SOL    HW231590   3.968   2.175   7.358 -0.2909  1.2521  0.0092
 6710SOL     OW31591   3.514   2.830  15.829  0.1039 -0.1446 -0.0034
 6710SOL    HW131592   3.449   2.807  15.895 -2.0282  0.7800 -1.7709
 6710SOL    HW231593   3.507   2.748  15.781 -3.3063 -0.8797  1.7833
 6711SOL     OW31594   0.481   3.664  17.056  0.4731 -0.0829 -0.2105
 6711SOL    HW131595   0.505   3.696  17.143 -0.8889 -2.1685  0.9161
 6711SOL    HW231596   0.439   3.581  17.076  0.6709 -0.1820 -0.2047
 6712SOL     OW31597   3.405   3.493   3.106 -0.2816 -0.1793  0.2453
 6712SOL    HW131598   3.474   3.522   3.046 -0.5672 -1.1940 -0.5674
 6712SOL    HW231599   3.381   3.411   3.063  0.3348 -1.7772  2.8914
 6713SOL     OW31600   3.526   4.014   4.938  1.0344 -0.6963  0.1812
 6713SOL    HW131601   3.561   4.102   4.949  2.6020 -1.3710  0.5813
 6713SOL    HW231602   3.595   3.957   4.972  0.1046 -1.8069  0.2021
 6714SOL     OW31603   0.798   2.947   6.436 -0.5723  0.2531 -0.4287
 6714SOL    HW131604   0.758   2.995   6.363 -0.9126  2.4942  1.2432
 6714SOL    HW231605   0.758   2.988   6.512 -2.1468 -1.9301 -0.0745
 6715SOL     OW31606   1.945   4.039   8.922 -0.5466 -0.3562  0.1829
 6715SOL    HW131607   1.901   3.964   8.884  0.1056 -0.4983 -0.2928
 6715SOL    HW231608   2.023   3.993   8.954 -0.8928 -1.2664 -0.2819
 6716SOL     OW31609   1.064   0.228   7.571 -0.1218  0.1687  0.1251
 6716SOL    HW131610   1.009   0.245   7.647 -1.2704  1.0382 -0.8934
 6716SOL    HW231611   1.139   0.280   7.600 -0.6283  1.7584 -1.3505
 6717SOL     OW31612   2.407   2.831   0.007  0.0773  0.4561 -0.1614
 6717SOL    HW131613   2.452   2.894   0.064 -0.0065 -0.8658  1.3710
 6717SOL    HW231614   2.336   2.884  17.652 -0.5952 -0.7386 -0.5683
 6718SOL     OW31615   1.672   1.645   7.320 -0.3079  0.0872  0.5675
 6718SOL    HW131616   1.667   1.739   7.338  1.7202  0.4342 -0.6762
 6718SOL    HW231617   1.755   1.638   7.272  0.1218  0.2287  1.2928
 6719SOL     OW31618   2.627   1.095   1.839 -0.4350  0.5787  0.4440
 6719SOL    HW131619   2.697   1.048   1.793  0.3018 -0.6099  2.7589
 6719SOL    HW231620   2.678   1.174   1.855 -3.0584  2.7504 -2.1483
 6720SOL     OW31621   0.226   1.133  16.742  0.1646  0.0315 -0.2974
 6720SOL    HW131622   0.172   1.144  16.820 -2.5074 -0.6870 -2.0224
 6720SOL    HW231623   0.216   1.039  16.726 -0.1836  0.2264 -1.2288
 6721SOL     OW31624   0.301   1.286  12.186 -0.1249  0.2795  0.3835
 6721SOL    HW131625   0.268   1.199  12.160 -1.7260  0.8226  0.6364
 6721SOL    HW231626   0.378   1.257  12.234  0.7785  0.9946 -0.6271
 6722SOL     OW31627   1.533   2.450  10.838 -0.1747  0.1165  0.3307
 6722SOL    HW131628   1.439   2.451  10.859 -0.7316  3.7681 -2.2687
 6722SOL    HW231629   1.527   2.371  10.786 -2.3464  0.0490  0.6805
 6723SOL     OW31630   2.546   3.046   0.108  0.2469  0.0350 -0.8572
 6723SOL    HW131631   2.607   3.071   0.039  0.1987 -0.0758 -0.9393
 6723SOL    HW231632   2.596   3.078   0.183 -0.8951 -0.3268  0.0600
 6724SOL     OW31633   0.665   4.225   5.650 -0.6040 -0.2512  0.2310
 6724SOL    HW131634   0.703   4.313   5.654 -3.0671  0.8480 -0.4777
 6724SOL    HW231635   0.722   4.174   5.708  1.1799  1.1012 -0.3517
 6725SOL     OW31636   2.855   4.374   8.164  0.2064 -0.0526  0.4627
 6725SOL    HW131637   2.870   4.467   8.180 -4.4234  0.7341  0.1824
 6725SOL    HW231638   2.774   4.375   8.113 -0.9657  1.8058  2.3688
 6726SOL     OW31639   4.381   0.094   9.025  0.3735  0.0639 -0.1790
 6726SOL    HW131640   4.361   0.019   9.080  1.9573 -1.4671 -1.6966
 6726SOL    HW231641   4.458   0.052   8.987  0.1263 -0.3853 -0.1841
 6727SOL     OW31642   3.149   0.621  13.399  0.2866 -0.1028 -0.1999
 6727SOL    HW131643   3.092   0.579  13.335 -0.2235 -1.3461  1.0654
 6727SOL    HW231644   3.192   0.539  13.424  0.2491 -0.4569 -1.3257
 6728SOL     OW31645   4.490   2.615   8.830  0.0713 -0.0699 -1.2984
 6728SOL    HW131646   4.519   2.529   8.799  1.8400 -0.2200  0.7884
 6728SOL    HW231647   4.498   2.659   8.745 -1.3224 -1.0267 -1.9228
 6729SOL     OW31648   1.553   4.419  10.896 -0.2310 -0.2029 -0.2856
 6729SOL    HW131649   1.566   4.465  10.812 -0.1603  0.2603 -0.0221
 6729SOL    HW231650   1.627   4.445  10.952 -0.0092  0.1900 -0.7598
 6730SOL     OW31651   0.703   1.233   4.642  0.2716  0.3710 -0.9953
 6730SOL    HW131652   0.635   1.300   4.648 -0.2403 -0.1122 -1.4084
 6730SOL    HW231653   0.709   1.210   4.549 -0.5032 -0.3816 -0.8526
 6731SOL     OW31654   1.722   4.626   6.901 -0.1671 -0.4048 -0.0849
 6731SOL    HW131655   1.710   4.565   6.829  0.8283 -0.2666 -0.3608
 6731SOL    HW231656   1.655   4.597   6.963  0.2094  0.2607  0.6403
 6732SOL     OW31657   2.493   2.507   4.562 -0.0941 -0.0560 -0.5174
 6732SOL    HW131658   2.576   2.460   4.555 -1.0709 -1.7576 -0.6386
 6732SOL    HW231659   2.528   2.596   4.563 -0.4984  0.0742  1.1902
 6733SOL     OW31660   1.040   2.553   5.076  0.6327  0.3374 -0.2393
 6733SOL    HW131661   1.043   2.565   4.981  0.2308 -1.1513 -0.4395
 6733SOL    HW231662   0.974   2.620   5.093  0.3667 -0.5889  2.3284
 6734SOL     OW31663   2.257   2.069   6.426  0.0396  0.0619  0.3673
 6734SOL    HW131664   2.329   2.032   6.376 -0.5167 -0.0391 -0.3559
 6734SOL    HW231665   2.260   2.012   6.502 -2.4716 -1.4881 -0.6913
 6735SOL     OW31666   4.027   4.081   9.523  0.6219 -0.1782  0.2747
 6735SOL    HW131667   4.116   4.111   9.538  1.0247 -1.2676  0.0438
 6735SOL    HW231668   4.044   3.987   9.534  0.7136 -0.0796  0.9859
 6736SOL     OW31669   3.733   4.619  11.755 -0.1158  0.2187 -0.1030
 6736SOL    HW131670   3.750   4.705  11.716  0.2620 -0.7070 -1.9753
 6736SOL    HW231671   3.641   4.613  11.729  0.3803  1.3819 -2.1381
 6737SOL     OW31672   1.628   2.333  17.648  0.4790 -0.2702  0.2886
 6737SOL    HW131673   1.577   2.254  17.667 -1.1255  0.4623 -0.9379
 6737SOL    HW231674   1.713   2.291  17.634  1.0156  1.4051 -1.4639
 6738SOL     OW31675   3.986   3.129   8.357  0.4662 -0.2019 -0.3107
 6738SOL    HW131676   3.941   3.085   8.429 -1.1184 -0.1074 -1.2448
 6738SOL    HW231677   4.037   3.053   8.329  0.7736 -0.0187 -0.2438
 6739SOL     OW31678   1.640   0.394  10.289  0.2569 -0.1040 -0.5754
 6739SOL    HW131679   1.686   0.338  10.353 -0.6059 -0.8694 -0.6198
 6739SOL    HW231680   1.633   0.327  10.221  0.7871 -1.2076  0.4323
 6740SOL     OW31681   2.156   0.132  16.247  0.2473  0.0894 -0.5310
 6740SOL    HW131682   2.116   0.178  16.321  1.8131 -0.7171  0.8073
 6740SOL    HW231683   2.243   0.173  16.243  0.2123  0.3145  0.9923
 6741SOL     OW31684   0.533   2.292  16.919 -0.1256 -0.8954 -0.2526
 6741SOL    HW131685   0.601   2.326  16.978 -1.9532 -0.8018  1.8270
 6741SOL    HW231686   0.590   2.268  16.846 -0.2063  0.1170 -0.6490
 6742SOL     OW31687   1.819   0.412   5.310  0.1577 -0.6488 -0.4388
 6742SOL    HW131688   1.883   0.342   5.295  0.3329 -0.8513  1.2740
 6742SOL    HW231689   1.747   0.352   5.292 -1.4700  0.7225  1.5471
 6743SOL     OW31690   4.094   4.715   3.144  0.3192 -0.3491 -0.2133
 6743SOL    HW131691   4.082   0.056   3.071 -0.0338  0.8222  0.8205
 6743SOL    HW231692   4.003   4.712   3.172  0.1762 -2.2760 -0.9252
 6744SOL     OW31693   0.641   3.350   1.984 -0.0269  0.3198  0.1567
 6744SOL    HW131694   0.669   3.435   1.952  0.1576  0.6641  1.2299
 6744SOL    HW231695   0.726   3.309   1.999  0.9385  1.8934 -0.9961
 6745SOL     OW31696   2.775   2.124   5.745  0.0187  0.1506 -0.3320
 6745SOL    HW131697   2.751   2.132   5.837  0.2611 -1.4503 -0.1310
 6745SOL    HW231698   2.723   2.191   5.701  0.7943  1.7481  1.1798
 6746SOL     OW31699   2.910   0.854   9.007 -0.1478  0.4543 -0.1265
 6746SOL    HW131700   2.823   0.875   9.043  0.6702  0.5312  1.8336
 6746SOL    HW231701   2.951   0.940   8.997  0.5319  0.1916  0.4165
 6747SOL     OW31702   4.348   4.528   4.418  0.1759  0.0040  0.0315
 6747SOL    HW131703   4.311   4.499   4.335  0.5243  0.6031 -0.3271
 6747SOL    HW231704   4.416   4.584   4.382  1.1329 -1.9314 -1.1404
 6748SOL     OW31705   0.214   1.350   6.165 -0.1212  0.5576  0.2877
 6748SOL    HW131706   0.135   1.402   6.150  0.1459  0.7583 -0.4340
 6748SOL    HW231707   0.199   1.266   6.122 -0.0990  1.4537 -1.4672
 6749SOL     OW31708   0.043   2.861   8.724 -0.6240 -0.2651  0.6324
 6749SOL    HW131709   0.118   2.913   8.695 -1.6298  0.9490  0.2482
 6749SOL    HW231710   0.069   2.771   8.702  1.1313  0.6568 -1.0543
 6750SOL     OW31711   1.395   4.423   7.762 -0.1041 -0.0088 -0.0260
 6750SOL    HW131712   1.458   4.474   7.712 -0.2940  1.1378  0.8972
 6750SOL    HW231713   1.369   4.473   7.840 -1.8744  0.2831 -0.8078
 6751SOL     OW31714   2.334   3.414   8.310 -0.1775 -0.4487 -0.1136
 6751SOL    HW131715   2.267   3.424   8.377 -0.1923 -0.2927 -0.1512
 6751SOL    HW231716   2.414   3.411   8.364 -0.4208  0.5453  0.2983
 6752SOL     OW31717   3.580   2.610   4.263 -0.4261  0.1002 -0.0743
 6752SOL    HW131718   3.637   2.687   4.255 -0.6621  0.4381  1.6318
 6752SOL    HW231719   3.594   2.589   4.355 -1.1638  0.4695  0.1191
 6753SOL     OW31720   3.549   0.642   7.625 -0.1771 -0.1070 -0.3287
 6753SOL    HW131721   3.548   0.566   7.567  2.1807 -0.4576  0.0596
 6753SOL    HW231722   3.588   0.699   7.558 -0.1780  0.9414  0.5620
 6754SOL     OW31723   1.710   4.405   8.920  0.2524 -0.4690 -0.2708
 6754SOL    HW131724   1.729   4.499   8.930  1.5156 -0.7702  0.1568
 6754SOL    HW231725   1.632   4.398   8.975 -0.3978 -3.1273 -1.5356
 6755SOL     OW31726   1.778   4.222   2.668 -0.1273  0.3250 -0.2099
 6755SOL    HW131727   1.719   4.297   2.668  0.8886  1.1214 -0.7521
 6755SOL    HW231728   1.831   4.251   2.594  2.0643  3.2612  2.5128
 6756SOL     OW31729   3.459   1.713  13.078  0.2450  0.0150 -0.3448
 6756SOL    HW131730   3.390   1.670  13.129 -1.3629  1.3058 -1.4215
 6756SOL    HW231731   3.539   1.676  13.115 -0.5969 -0.5542  0.8868
 6757SOL     OW31732   1.898   1.168   3.217 -0.2385  0.6668  0.1774
 6757SOL    HW131733   1.927   1.086   3.177  0.0221  1.7118 -1.7756
 6757SOL    HW231734   1.848   1.140   3.294 -0.0227 -2.3298 -0.7817
 6758SOL     OW31735   0.173   4.608   6.749 -0.3375 -0.6869  0.4326
 6758SOL    HW131736   0.171   4.518   6.716 -1.9474 -0.4059 -0.2066
 6758SOL    HW231737   0.106   4.648   6.694  0.3813 -2.1074 -1.5112
 6759SOL     OW31738   1.397   2.008   6.665  0.1362  0.0260  0.3379
 6759SOL    HW131739   1.485   1.973   6.653  1.3936  2.6407  2.0690
 6759SOL    HW231740   1.393   2.068   6.591 -2.2082 -1.6754 -0.9473
 6760SOL     OW31741   1.336   4.650   9.998  0.4865  0.3397 -0.4829
 6760SOL    HW131742   1.309   4.603   9.919 -0.0738 -0.1349 -0.0190
 6760SOL    HW231743   1.321   0.021   9.971 -0.5108 -0.2940 -2.0772
 6761SOL     OW31744   3.694   0.146   7.969 -0.0210 -0.1772 -0.0514
 6761SOL    HW131745   3.737   0.077   7.917 -1.6697  0.0868 -1.7674
 6761SOL    HW231746   3.702   0.115   8.059  2.0898 -1.2941 -0.6126
 6762SOL     OW31747   2.210   0.821   8.397  0.3504 -0.0468  0.1248
 6762SOL    HW131748   2.129   0.791   8.440  0.6986  0.1832  0.9504
 6762SOL    HW231749   2.210   0.913   8.422  0.9377 -0.0755  0.2250
 6763SOL     OW31750   2.314   4.329   0.648 -0.3230 -0.0204  0.0237
 6763SOL    HW131751   2.232   4.375   0.633 -0.7866 -0.6668  0.5257
 6763SOL    HW231752   2.359   4.394   0.703 -1.9345  1.0657  0.0344
 6764SOL     OW31753   3.352   0.768  13.695  0.8672 -0.1782  0.0525
 6764SOL    HW131754   3.281   0.803  13.641 -0.9179 -1.2617  1.7532
 6764SOL    HW231755   3.412   0.730  13.630 -2.6704 -1.0240 -2.7482
 6765SOL     OW31756   1.589   4.297   9.156 -0.1147  0.6968 -0.0797
 6765SOL    HW131757   1.517   4.237   9.172  0.4603 -0.2728 -1.1247
 6765SOL    HW231758   1.614   4.328   9.243  1.6014 -0.1715 -0.2477
 6766SOL     OW31759   0.930   2.379   4.376  0.1546  0.0056 -0.0041
 6766SOL    HW131760   0.875   2.418   4.308  1.7223  2.4028  0.0887
 6766SOL    HW231761   1.019   2.387   4.342 -0.0677 -2.7626 -1.1947
 6767SOL     OW31762   4.559   1.449   0.248  0.3883 -0.0545 -0.6125
 6767SOL    HW131763   4.497   1.382   0.220  1.0181 -0.6595 -0.5667
 6767SOL    HW231764   4.631   1.398   0.286  0.1630  0.2843  0.2754
 6768SOL     OW31765   1.963   1.641   4.600  0.1501  0.1379 -0.0623
 6768SOL    HW131766   2.034   1.577   4.604 -0.2591 -0.3384 -0.4611
 6768SOL    HW231767   1.898   1.606   4.539 -1.1324 -0.5072  1.6594
 6769SOL     OW31768   3.888   3.929  10.225 -0.8230 -0.3492  0.0618
 6769SOL    HW131769   3.905   3.883  10.142  0.1250 -0.8376  0.5249
 6769SOL    HW231770   3.909   4.019  10.202 -1.9768  0.4805  2.2828
 6770SOL     OW31771   0.088   0.438   2.771 -0.9142  0.8906  0.4212
 6770SOL    HW131772   0.002   0.425   2.812  0.1224 -1.0065  1.9650
 6770SOL    HW231773   0.061   0.505   2.708 -2.4248 -0.6977 -0.6225
 6771SOL     OW31774   3.123   0.175  13.478  0.1497  0.1147 -0.1964
 6771SOL    HW131775   3.068   0.150  13.552  1.8522 -2.8604  0.0354
 6771SOL    HW231776   3.157   0.261  13.501 -1.3582  0.9605 -1.0668
 6772SOL     OW31777   3.650   3.710   8.685 -0.4797  0.1059 -0.1881
 6772SOL    HW131778   3.588   3.685   8.754  0.3330 -1.3473  0.0207
 6772SOL    HW231779   3.629   3.803   8.681 -3.9682 -0.5963  1.2487
 6773SOL     OW31780   3.939   4.695   6.049 -0.8002  0.0596 -0.1647
 6773SOL    HW131781   3.890   4.715   6.129  1.0489  1.6592  0.5660
 6773SOL    HW231782   3.901   0.036   5.986  1.6144  2.4068  0.6313
 6774SOL     OW31783   2.489   0.144  13.160  0.5282  0.2201 -0.5866
 6774SOL    HW131784   2.422   0.147  13.092 -0.0600 -0.1367 -0.0167
 6774SOL    HW231785   2.553   0.200  13.115  1.2679  0.2873  0.5250
 6775SOL     OW31786   4.090   3.279   8.557 -0.5042 -0.7968 -0.1537
 6775SOL    HW131787   4.164   3.219   8.569  0.3520 -0.0886 -1.8250
 6775SOL    HW231788   4.044   3.241   8.481  0.0509 -2.4085  0.3136
 6776SOL     OW31789   2.094   3.899  12.235  0.0300 -0.1956 -0.6161
 6776SOL    HW131790   2.066   3.821  12.186  0.1966  0.0680 -1.1327
 6776SOL    HW231791   2.145   3.942  12.166 -2.3449  0.6676 -1.8387
 6777SOL     OW31792   0.455   0.329   4.210  0.0241 -0.2227  0.3239
 6777SOL    HW131793   0.484   0.382   4.135 -0.2891 -0.3290  0.1268
 6777SOL    HW231794   0.482   0.389   4.279  0.3335  0.3156 -0.2591
 6778SOL     OW31795   0.801   2.294   8.969 -0.4381  0.2496  0.0729
 6778SOL    HW131796   0.802   2.199   8.960 -0.5146  0.1627  0.9525
 6778SOL    HW231797   0.815   2.316   9.061  0.3754  0.6176 -0.1398
 6779SOL     OW31798   1.724   1.628   6.315  0.1777 -0.5284 -0.2128
 6779SOL    HW131799   1.662   1.688   6.356 -1.4108 -0.5681 -2.5838
 6779SOL    HW231800   1.675   1.546   6.328 -0.2593 -0.1267  0.6801
 6780SOL     OW31801   1.902   2.451   2.496  0.2590 -0.4452  0.0679
 6780SOL    HW131802   1.900   2.421   2.587 -0.8418  0.3185  0.2971
 6780SOL    HW231803   1.821   2.499   2.481  0.0302 -1.0547 -0.6579
 6781SOL     OW31804   3.641   0.576   2.658 -0.3293  0.6685 -0.4091
 6781SOL    HW131805   3.725   0.534   2.640 -1.3865 -1.9723  0.8056
 6781SOL    HW231806   3.657   0.592   2.751 -1.8896  3.1791 -0.5822
 6782SOL     OW31807   2.034   1.168   8.814 -0.0201  0.6970 -0.4816
 6782SOL    HW131808   1.950   1.199   8.779 -1.5120 -2.0019  0.6941
 6782SOL    HW231809   2.094   1.239   8.792 -0.4888  0.8250 -1.3390
 6783SOL     OW31810   0.785   0.209   5.421  0.0229 -0.5143  0.1019
 6783SOL    HW131811   0.816   0.243   5.337  0.5527  0.3899  0.6575
 6783SOL    HW231812   0.691   0.223   5.424  0.3460  1.7332 -0.3113
 6784SOL     OW31813   1.863   3.857   6.855 -0.4659  0.0080 -0.2192
 6784SOL    HW131814   1.836   3.818   6.938  4.3061  1.7832  2.1728
 6784SOL    HW231815   1.811   3.936   6.863 -2.6063 -1.2710 -1.4077
 6785SOL     OW31816   1.928   0.206   5.600  0.3130  0.1792  0.3296
 6785SOL    HW131817   1.929   0.272   5.670 -2.4189  0.1209  0.4485
 6785SOL    HW231818   2.016   0.209   5.562 -0.4764 -0.7399 -1.5847
 6786SOL     OW31819   3.219   4.506   6.890 -0.5205  0.1930 -0.1942
 6786SOL    HW131820   3.218   4.452   6.969  1.1373 -0.6600 -0.7604
 6786SOL    HW231821   3.314   4.509   6.878 -0.8775  3.8513 -1.8769
 6787SOL     OW31822   4.523   3.301   7.222 -0.0266 -0.0677  0.2637
 6787SOL    HW131823   4.524   3.286   7.128 -0.6579 -0.5222  0.3286
 6787SOL    HW231824   4.433   3.271   7.237 -0.7752  2.8940  1.6832
 6788SOL     OW31825   3.559   4.292   4.869  0.4890  0.5256 -0.2457
 6788SOL    HW131826   3.555   4.299   4.965  1.7762  0.0423 -0.1598
 6788SOL    HW231827   3.583   4.381   4.843  0.8069  0.3022 -0.6990
 6789SOL     OW31828   0.386   1.074   7.172  0.7083 -0.0752 -0.1211
 6789SOL    HW131829   0.330   1.038   7.104  2.8718  0.1438 -2.0549
 6789SOL    HW231830   0.472   1.076   7.130  0.5517 -2.0697 -0.5278
 6790SOL     OW31831   2.789   1.394   2.394 -0.2477 -0.2005 -0.3603
 6790SOL    HW131832   2.845   1.470   2.413 -0.1036 -0.7227  1.2686
 6790SOL    HW231833   2.789   1.349   2.478  1.1649  1.3400  0.4751
 6791SOL     OW31834   0.930   0.419   3.633 -0.4296 -0.2718 -0.0301
 6791SOL    HW131835   0.903   0.480   3.564  0.2490 -0.6530 -0.6340
 6791SOL    HW231836   1.001   0.371   3.590  0.4683  2.6602 -1.8747
 6792SOL     OW31837   2.045   1.007   6.340  0.4308 -0.6794 -0.0061
 6792SOL    HW131838   2.066   0.957   6.260  2.0161  1.8808 -1.1781
 6792SOL    HW231839   1.991   0.944   6.387 -0.2486 -0.3275 -0.3100
 6793SOL     OW31840   1.341   4.544   8.516  0.1844 -0.0301 -0.2136
 6793SOL    HW131841   1.361   4.451   8.524  3.4724  0.5825 -1.4617
 6793SOL    HW231842   1.285   4.547   8.594 -0.0746 -2.0086 -0.3244
 6794SOL     OW31843   3.374   1.080  10.773  0.1964 -0.1917 -0.1008
 6794SOL    HW131844   3.401   1.172  10.765  0.5462 -0.3805 -1.1698
 6794SOL    HW231845   3.419   1.044  10.696 -0.1647  1.2827 -1.0203
 6795SOL     OW31846   2.152   1.912  14.891 -0.0623 -0.6259  0.6040
 6795SOL    HW131847   2.071   1.897  14.940 -2.0224  0.6809 -2.2337
 6795SOL    HW231848   2.132   1.862  14.812  1.0576 -1.4061  0.8026
 6796SOL     OW31849   1.659   0.045  10.905 -0.4466 -0.4107 -0.2556
 6796SOL    HW131850   1.647   4.706  10.831  1.3474 -0.1939 -0.7173
 6796SOL    HW231851   1.722   4.717  10.958  0.3622 -1.5729 -2.2904
 6797SOL     OW31852   3.382   1.232   0.181  0.2029 -0.1001 -0.1365
 6797SOL    HW131853   3.313   1.298   0.166  2.3297  2.3406  0.7855
 6797SOL    HW231854   3.368   1.221   0.275  0.2921  0.3407 -0.0682
 6798SOL     OW31855   2.506   0.931   2.950  0.1482  0.2738 -0.0686
 6798SOL    HW131856   2.485   0.886   2.869 -0.0445  0.1300  0.0614
 6798SOL    HW231857   2.491   0.866   3.019 -1.5420  0.2289 -0.4867
 6799SOL     OW31858   3.781   4.442   4.312 -0.3136  0.2308  0.0084
 6799SOL    HW131859   3.781   4.400   4.226  1.8716  0.6840 -0.2277
 6799SOL    HW231860   3.867   4.482   4.324 -0.5873  0.7988  0.0436
 6800SOL     OW31861   4.103   1.899   5.393 -0.5056 -0.4181  0.3758
 6800SOL    HW131862   4.117   1.820   5.340 -1.6576 -0.8525  0.7227
 6800SOL    HW231863   4.195   1.926   5.390 -0.7961  0.4246 -1.1516
 6801SOL     OW31864   3.650   2.748   5.816  0.3627 -0.4780  0.2884
 6801SOL    HW131865   3.618   2.739   5.906 -1.9417 -1.2042 -0.5918
 6801SOL    HW231866   3.693   2.833   5.822 -1.9555  0.7318  0.0367
 6802SOL     OW31867   4.170   1.230   0.971  0.1435 -0.3981 -0.2816
 6802SOL    HW131868   4.113   1.293   1.016 -0.9796 -0.8000 -1.1598
 6802SOL    HW231869   4.147   1.252   0.881 -0.5410 -2.8345 -0.7072
 6803SOL     OW31870   1.860   0.712   8.923  0.2048 -0.5651  0.1201
 6803SOL    HW131871   1.818   0.780   8.871 -0.1160 -0.2670  0.7624
 6803SOL    HW231872   1.893   0.645   8.864 -3.7141 -0.0454 -2.6128
 6804SOL     OW31873   2.378   3.554  10.858  0.1531  0.4598 -0.4965
 6804SOL    HW131874   2.307   3.618  10.853 -1.8293 -1.6266  0.7669
 6804SOL    HW231875   2.379   3.543  10.953  1.4511 -0.3006 -0.5951
 6805SOL     OW31876   1.998   4.634   5.625 -0.0911 -0.3962  0.3085
 6805SOL    HW131877   2.000   4.717   5.578  0.7508  0.1624  1.3329
 6805SOL    HW231878   1.962   4.647   5.713 -1.0038  1.0877 -0.2708
 6806SOL     OW31879   2.915   3.715   6.201 -0.0924  0.1694  0.0188
 6806SOL    HW131880   2.985   3.778   6.220 -1.1154  1.1432  0.5385
 6806SOL    HW231881   2.839   3.772   6.194 -2.5577 -3.0112  1.1695
 6807SOL     OW31882   1.479   1.268   6.305  0.6354 -0.1271  0.5748
 6807SOL    HW131883   1.495   1.352   6.262  2.2361  0.0983  1.6333
 6807SOL    HW231884   1.488   1.299   6.395  0.8310 -1.1755  0.9169
 6808SOL     OW31885   2.289   4.359   9.306 -0.2181 -0.2529 -0.3471
 6808SOL    HW131886   2.326   4.418   9.239  1.0104 -1.5188 -0.7891
 6808SOL    HW231887   2.374   4.326   9.336  0.6031 -0.7538 -3.2215
 6809SOL     OW31888   3.396   4.211   1.043 -0.0054 -0.5598  0.2194
 6809SOL    HW131889   3.310   4.237   1.012  0.7624 -0.5171 -1.8319
 6809SOL    HW231890   3.436   4.297   1.058 -2.0145  0.1542  1.4764
 6810SOL     OW31891   0.445   1.314   3.047 -0.5139 -0.5583  0.2067
 6810SOL    HW131892   0.415   1.276   2.965  0.0074  0.8235 -0.6327
 6810SOL    HW231893   0.390   1.393   3.043 -0.0207 -0.2608 -0.7356
 6811SOL     OW31894   2.172   3.347   3.930 -0.0283  0.6313 -0.6323
 6811SOL    HW131895   2.254   3.395   3.943  0.5301 -0.7386  0.9037
 6811SOL    HW231896   2.156   3.342   3.835  1.7346 -2.3709 -0.7734
 6812SOL     OW31897   2.601   3.569   6.032  0.0328  0.0860  0.0421
 6812SOL    HW131898   2.605   3.618   6.114 -3.6770  0.0548  0.2682
 6812SOL    HW231899   2.509   3.580   6.006 -0.2822 -0.1236  1.0868
 6813SOL     OW31900   2.675   3.315  11.652 -0.7181  0.0983  0.1333
 6813SOL    HW131901   2.610   3.374  11.614 -1.0255 -0.1718  0.2377
 6813SOL    HW231902   2.738   3.385  11.667 -1.8083  0.9163  0.8721
 6814SOL     OW31903   4.642   3.510  12.021 -0.9241  0.7853  0.3078
 6814SOL    HW131904   4.686   3.562  12.088  2.7733 -0.6641 -1.0245
 6814SOL    HW231905   4.701   3.511  11.946 -1.4139  0.7409 -0.0775
 6815SOL     OW31906   2.821   4.029   1.748  0.5107  0.0874  0.0474
 6815SOL    HW131907   2.864   4.112   1.730 -0.0820 -0.0546 -1.9668
 6815SOL    HW231908   2.859   3.973   1.680  0.1059  0.5272 -0.5334
 6816SOL     OW31909   0.384   3.810  13.483  0.2156 -0.1600  0.0003
 6816SOL    HW131910   0.375   3.887  13.426 -1.8030  0.1748  0.7841
 6816SOL    HW231911   0.336   3.825  13.564 -0.8693 -0.3633 -0.6029
 6817SOL     OW31912   1.933   4.039   4.874  0.4372 -0.2263  0.0004
 6817SOL    HW131913   1.871   4.086   4.929 -1.1117 -0.0372 -1.9081
 6817SOL    HW231914   1.871   3.989   4.821 -0.1599 -1.5851  2.0032
 6818SOL     OW31915   4.163   0.504   7.228 -0.2693 -0.1939 -0.1620
 6818SOL    HW131916   4.075   0.490   7.192  0.4320 -1.7801 -1.2766
 6818SOL    HW231917   4.206   0.539   7.149 -2.6065  1.8838 -0.5074
 6819SOL     OW31918   1.414   3.328   3.407  0.3954 -0.4356  0.1179
 6819SOL    HW131919   1.491   3.319   3.351 -0.1177 -1.6987 -0.3886
 6819SOL    HW231920   1.381   3.408   3.365  0.9192  0.6200  1.7019
 6820SOL     OW31921   2.603   0.581   6.049  0.2095 -0.5314  0.8788
 6820SOL    HW131922   2.562   0.507   6.092  0.2814 -0.2972  1.3526
 6820SOL    HW231923   2.636   0.548   5.965  0.3021  0.3296  0.5671
 6821SOL     OW31924   1.403   1.369  17.543 -0.0748 -0.0997 -0.4305
 6821SOL    HW131925   1.471   1.301  17.543 -1.2696 -1.3049 -1.8079
 6821SOL    HW231926   1.327   1.334  17.589  0.9948 -1.7097  0.1285
 6822SOL     OW31927   1.942   2.004   8.139  0.2965  0.1885  0.3431
 6822SOL    HW131928   1.986   2.014   8.055 -0.8342  0.7559 -0.1779
 6822SOL    HW231929   1.869   2.060   8.113  0.5650  1.1645  1.6335
 6823SOL     OW31930   1.688   4.080   5.365  0.2049  0.5571  0.1171
 6823SOL    HW131931   1.598   4.112   5.372  0.0619 -0.0767  1.1951
 6823SOL    HW231932   1.734   4.157   5.331  0.9542 -0.3375 -0.9054
 6824SOL     OW31933   4.632   0.049   2.434 -0.1843  0.7174  0.4620
 6824SOL    HW131934   4.625   0.093   2.350  1.8198 -3.1436 -1.7035
 6824SOL    HW231935   0.008   0.041   2.444 -0.4821 -1.7635  1.3990
 6825SOL     OW31936   0.922   1.335   2.077  0.2303  0.2152  0.2669
 6825SOL    HW131937   0.849   1.396   2.064  0.6388  0.5816 -0.2714
 6825SOL    HW231938   0.972   1.383   2.142 -0.1485 -0.6453  1.1974
 6826SOL     OW31939   1.146   2.163   6.141  0.9804  0.0345  0.2024
 6826SOL    HW131940   1.073   2.205   6.185 -0.9631 -3.1145 -0.0326
 6826SOL    HW231941   1.151   2.231   6.074  0.9618  1.3453  1.5585
 6827SOL     OW31942   3.711   0.973   9.353 -0.2957  0.8637 -0.9939
 6827SOL    HW131943   3.677   1.051   9.310 -1.4607 -0.2777 -2.1459
 6827SOL    HW231944   3.678   0.902   9.298  1.1960 -0.7312  0.1770
 6828SOL     OW31945   4.087   0.403  17.452  0.1243  0.1281 -0.2641
 6828SOL    HW131946   4.097   0.311  17.430  1.0483  0.0592  0.4909
 6828SOL    HW231947   4.168   0.421  17.498 -0.1063  1.4504 -0.3673
 6829SOL     OW31948   0.295   1.930   8.351  0.3395 -0.1573 -0.3904
 6829SOL    HW131949   0.368   1.979   8.388  0.7838 -2.1276  1.3328
 6829SOL    HW231950   0.299   1.846   8.398 -2.2086  0.6170  1.2307
 6830SOL     OW31951   0.508   4.301  11.804 -0.4525 -0.2660  0.0178
 6830SOL    HW131952   0.602   4.315  11.820 -0.4900  1.1135 -0.9792
 6830SOL    HW231953   0.477   4.391  11.804  0.1272 -0.0618  0.0086
 6831SOL     OW31954   3.069   3.111   8.007 -0.3116  0.4881 -0.0471
 6831SOL    HW131955   3.097   3.188   7.958  1.9469 -0.2666  0.0686
 6831SOL    HW231956   3.065   3.149   8.095 -1.1336  0.1355  0.0670
 6832SOL     OW31957   0.018   1.952  13.264  0.2929 -0.0526  0.3714
 6832SOL    HW131958   0.027   1.889  13.335  1.5322  0.0287  0.2817
 6832SOL    HW231959   0.069   2.027  13.294 -2.0263  0.2798  3.4745
 6833SOL     OW31960   3.845   3.681   8.504  0.1095 -0.2047 -0.0188
 6833SOL    HW131961   3.902   3.744   8.548 -0.1984 -1.5520  2.3619
 6833SOL    HW231962   3.772   3.681   8.567 -0.1005  2.9780 -0.3012
 6834SOL     OW31963   0.009   4.604   9.181 -0.1827 -0.0988  0.1512
 6834SOL    HW131964   4.673   4.526   9.176  1.8440 -1.5702  0.6077
 6834SOL    HW231965   4.671   4.677   9.158  1.8354  0.8105 -1.9712
 6835SOL     OW31966   2.626   1.765   6.829  0.0773 -0.8372  0.1656
 6835SOL    HW131967   2.620   1.857   6.854 -1.3502 -1.0749  0.7246
 6835SOL    HW231968   2.689   1.777   6.759 -1.0798 -1.8409 -1.0485
 6836SOL     OW31969   2.238   4.253   1.944  0.1136 -0.3010  0.2258
 6836SOL    HW131970   2.275   4.181   1.894 -2.4744 -1.1362 -0.4915
 6836SOL    HW231971   2.162   4.284   1.895 -2.3516 -2.6545  2.5491
 6837SOL     OW31972   3.228   1.646   6.012 -0.1626  0.1095 -0.4944
 6837SOL    HW131973   3.281   1.636   6.092  0.9083 -1.5433 -1.3972
 6837SOL    HW231974   3.262   1.733   5.991 -0.5222  0.3773  0.0382
 6838SOL     OW31975   0.166   1.660   4.532 -0.1655  0.1596 -0.3076
 6838SOL    HW131976   0.226   1.586   4.539 -2.2535 -1.4138  1.2061
 6838SOL    HW231977   0.145   1.678   4.624 -0.2651 -1.7903  0.0691
 6839SOL     OW31978   0.590   2.980  10.372  0.1934 -0.0314 -0.1226
 6839SOL    HW131979   0.652   2.919  10.331  0.5524 -0.1544  0.6077
 6839SOL    HW231980   0.528   2.912  10.397  0.1383  0.3661  0.8223
 6840SOL     OW31981   4.009   1.271   5.894 -0.1155  0.0009 -0.0397
 6840SOL    HW131982   4.083   1.327   5.873 -0.6422  0.7679  0.1267
 6840SOL    HW231983   3.971   1.318   5.969 -2.2165 -2.5243  0.4926
 6841SOL     OW31984   3.382   0.247  15.161 -0.2619 -0.2031 -0.0493
 6841SOL    HW131985   3.407   0.159  15.134  0.4678  0.3461 -1.1883
 6841SOL    HW231986   3.407   0.249  15.253  1.1658  0.6497 -0.4726
 6842SOL     OW31987   0.088   4.522   4.412 -0.2791  0.4001 -0.2778
 6842SOL    HW131988   0.121   4.483   4.493 -0.4776  3.4407  1.2700
 6842SOL    HW231989   0.135   4.467   4.349 -0.7660  0.0625 -0.3447
 6843SOL     OW31990   0.306   0.994   8.029  0.4398  0.2021 -0.5661
 6843SOL    HW131991   0.254   1.016   8.107 -0.9017  0.3784 -1.5068
 6843SOL    HW231992   0.327   1.080   7.994 -0.9332  1.0255  0.5883
 6844SOL     OW31993   1.137   3.906  14.524  0.4803 -0.3355  0.6497
 6844SOL    HW131994   1.092   3.990  14.515  0.2417 -0.3897  1.3319
 6844SOL    HW231995   1.219   3.940  14.559  1.2076 -0.9399 -0.4711
 6845SOL     OW31996   3.679   3.878   3.574  0.1241 -0.4238  0.4307
 6845SOL    HW131997   3.608   3.853   3.633  0.0329 -0.1196  0.4501
 6845SOL    HW231998   3.709   3.794   3.539  3.3214  0.5893  0.8105
 6846SOL     OW31999   3.918   0.944   4.698  0.1451  0.4889 -0.1184
 6846SOL    HW132000   3.906   1.037   4.719 -0.2657  0.7910 -1.6927
 6846SOL    HW232001   3.910   0.952   4.603  1.2537  1.0372 -0.1613
 6847SOL     OW32002   0.907   4.475   7.561  0.1345 -0.0786  0.1160
 6847SOL    HW132003   0.933   4.566   7.542 -1.2171 -0.3846 -3.1480
 6847SOL    HW232004   0.831   4.495   7.616 -0.8786  1.1512 -1.7337
 6848SOL     OW32005   1.683   1.901  11.585 -0.1649  0.2997  0.3992
 6848SOL    HW132006   1.624   1.975  11.571 -0.3169  0.1517  0.2560
 6848SOL    HW232007   1.665   1.850  11.506  1.4405 -1.0131  0.8939
 6849SOL     OW32008   1.099   2.676  16.829 -0.0003  0.0261 -0.0813
 6849SOL    HW132009   1.067   2.586  16.834  2.1079 -0.7494 -0.4443
 6849SOL    HW232010   1.120   2.690  16.921 -0.8401 -1.8983  0.4090
 6850SOL     OW32011   3.949   1.235   5.361  0.2047 -0.3350  0.0950
 6850SOL    HW132012   3.972   1.144   5.341 -0.6691 -0.2122 -1.4164
 6850SOL    HW232013   3.905   1.263   5.281 -0.2201  0.2933  0.5498
 6851SOL     OW32014   3.743   1.122   6.812  0.3413 -0.4368  0.1915
 6851SOL    HW132015   3.781   1.155   6.731  1.8900  1.1991  1.5634
 6851SOL    HW232016   3.726   1.204   6.858  0.7080 -0.8352  1.0550
 6852SOL     OW32017   0.074   3.136   5.286  0.1238  0.1787 -0.0662
 6852SOL    HW132018   0.043   3.222   5.256 -2.3624  0.0282  2.0353
 6852SOL    HW232019   0.157   3.150   5.331  0.0738 -2.9468  0.9614
 6853SOL     OW32020   1.970   3.571   3.566  0.5637  0.5899  0.3459
 6853SOL    HW132021   2.040   3.560   3.630  0.6028  2.5669  0.6291
 6853SOL    HW232022   1.954   3.480   3.540 -0.5227  1.0618 -0.6398
 6854SOL     OW32023   3.690   1.615  16.792  0.0441  0.6147  0.2679
 6854SOL    HW132024   3.666   1.631  16.701 -1.9357  0.2222  0.7113
 6854SOL    HW232025   3.774   1.659  16.779  0.8013 -0.6236  0.8890
 6855SOL     OW32026   4.101   3.036   7.190 -0.1672  0.1559 -0.3271
 6855SOL    HW132027   4.023   3.083   7.218  0.4099  1.3930 -0.8094
 6855SOL    HW232028   4.098   2.949   7.231 -0.2453  0.6530  0.7183
 6856SOL     OW32029   3.265   4.132  10.813  0.3575 -0.5108 -0.1750
 6856SOL    HW132030   3.218   4.215  10.820  1.1080 -0.0854 -0.2583
 6856SOL    HW232031   3.345   4.160  10.857  0.6953  0.2726 -1.2971
 6857SOL     OW32032   3.733   1.767   3.022 -0.1429  0.0501  0.3341
 6857SOL    HW132033   3.788   1.753   2.945  1.5194  1.8778  1.1748
 6857SOL    HW232034   3.664   1.705   3.001  1.5260 -1.7861  0.2624
 6858SOL     OW32035   0.658   4.516   6.739 -0.1793 -0.0797  0.1679
 6858SOL    HW132036   0.648   4.536   6.832 -0.1483 -0.1491  0.1865
 6858SOL    HW232037   0.635   4.602   6.704 -0.4281  0.5474  1.9236
 6859SOL     OW32038   1.281   0.255   3.955 -0.0619  0.0184  0.0860
 6859SOL    HW132039   1.202   0.203   3.966 -0.7980  0.8447 -1.3909
 6859SOL    HW232040   1.299   0.238   3.862  3.9295 -0.7302  0.9914
 6860SOL     OW32041   4.252   3.903  10.364 -0.6592  0.1348 -0.3042
 6860SOL    HW132042   4.327   3.953  10.333  0.1651 -1.5076 -0.9301
 6860SOL    HW232043   4.195   3.973  10.398 -0.3450  0.2003  0.0861
 6861SOL     OW32044   1.834   3.304  13.054 -0.4862 -0.2020 -0.2690
 6861SOL    HW132045   1.919   3.285  13.015  0.8526  1.3711  1.9344
 6861SOL    HW232046   1.805   3.385  13.012  0.7078 -0.0714 -0.8355
 6862SOL     OW32047   3.172   3.186   5.915 -0.1241  0.5241 -0.3825
 6862SOL    HW132048   3.115   3.260   5.937 -0.1626 -0.0882  1.5334
 6862SOL    HW232049   3.138   3.159   5.829  0.1626 -0.4406 -0.1917
 6863SOL     OW32050   3.713   4.644   0.124  0.3380 -0.5661  0.2065
 6863SOL    HW132051   3.794   4.610   0.163  1.4497  0.0197 -1.5671
 6863SOL    HW232052   3.653   4.609   0.189  0.3242 -2.0129 -0.5939
 6864SOL     OW32053   3.147   2.113   6.485 -0.6413  0.3108  0.6142
 6864SOL    HW132054   3.098   2.149   6.412  2.3605  1.4940 -0.8173
 6864SOL    HW232055   3.184   2.037   6.440 -2.0045 -0.5181  0.9027
 6865SOL     OW32056   2.346   4.566   5.295 -0.3607  0.2851 -0.2305
 6865SOL    HW132057   2.408   4.587   5.226  1.4218  1.5535  1.7613
 6865SOL    HW232058   2.389   4.604   5.371 -0.2671 -0.0008 -0.1397
 6866SOL     OW32059   2.058   4.188   4.379  0.0393  0.2275  0.0569
 6866SOL    HW132060   2.113   4.155   4.308  2.8904  1.1791  1.8210
 6866SOL    HW232061   2.133   4.200   4.437  0.8760 -1.7980 -0.6091
 6867SOL     OW32062   2.039   2.695   3.667 -0.0865 -0.4226 -0.2066
 6867SOL    HW132063   1.988   2.634   3.720  0.4553 -1.1296 -0.5140
 6867SOL    HW232064   2.106   2.720   3.731  0.1437  2.7412 -1.6651
 6868SOL     OW32065   4.570   0.300   0.534  0.0734 -0.4229 -0.3852
 6868SOL    HW132066   4.518   0.315   0.613 -0.4101 -0.2534 -0.7296
 6868SOL    HW232067   4.656   0.271   0.563  0.2552  0.2409 -0.2466
 6869SOL     OW32068   3.917   0.260   3.703  0.2991  0.6315  0.4504
 6869SOL    HW132069   3.998   0.269   3.753 -0.8050 -0.3084  2.4159
 6869SOL    HW232070   3.858   0.309   3.760 -0.2989  1.3749 -0.8090
 6870SOL     OW32071   1.404   2.139   8.916  0.4706 -0.5629  0.1231
 6870SOL    HW132072   1.318   2.126   8.956 -0.1793  0.6628 -0.9276
 6870SOL    HW232073   1.464   2.104   8.983  1.7107  1.9560  0.3381
 6871SOL     OW32074   2.994   3.743   5.194 -0.0444 -0.0435  0.1554
 6871SOL    HW132075   2.926   3.791   5.241 -0.6507 -1.2636  0.5367
 6871SOL    HW232076   3.049   3.814   5.160 -2.3006  1.9715  0.7088
 6872SOL     OW32077   0.193   2.649  13.972 -0.0780  0.0114  0.0400
 6872SOL    HW132078   0.170   2.719  13.911  0.1665 -0.3833 -0.5142
 6872SOL    HW232079   0.289   2.642  13.971 -0.0944 -0.1219 -0.5574
 6873SOL     OW32080   0.885   1.019  16.837  0.0132  0.7396 -0.1835
 6873SOL    HW132081   0.838   0.939  16.861 -1.5072  1.5326 -0.4880
 6873SOL    HW232082   0.817   1.086  16.846  0.2950  1.2974 -2.2113
 6874SOL     OW32083   4.596   3.003   4.658 -0.1158  0.7425 -0.1934
 6874SOL    HW132084   4.671   2.966   4.612 -0.7700 -2.2139  1.1439
 6874SOL    HW232085   4.542   2.926   4.674 -0.2229  0.9331  0.3779
 6875SOL     OW32086   1.347   2.432   1.643 -0.3466 -0.0091 -0.3816
 6875SOL    HW132087   1.329   2.402   1.732  0.7112 -0.4949 -0.3331
 6875SOL    HW232088   1.422   2.377   1.620  1.0802  1.4786  0.6939
 6876SOL     OW32089   3.534   4.222  17.448  0.1650 -0.2394  0.0799
 6876SOL    HW132090   3.624   4.193  17.461  0.4278 -0.2733 -1.8084
 6876SOL    HW232091   3.496   4.204  17.534  0.1604  2.5258  0.6708
 6877SOL     OW32092   1.573   1.771   6.514 -0.4765  0.4872  0.1520
 6877SOL    HW132093   1.564   1.827   6.437 -1.0157  1.0659  0.6234
 6877SOL    HW232094   1.624   1.837   6.561 -1.3736  0.8734  0.5939
 6878SOL     OW32095   2.113   1.288  13.059 -0.1333 -0.4996  0.0070
 6878SOL    HW132096   2.176   1.255  12.996 -1.1415 -2.7140  0.1470
 6878SOL    HW232097   2.125   1.383  13.058  3.8358 -1.0819 -3.8854
 6879SOL     OW32098   1.124   4.080   8.283  0.3431 -0.6358  0.4165
 6879SOL    HW132099   1.191   4.013   8.299  1.0008  0.0242  0.4048
 6879SOL    HW232100   1.089   4.058   8.197  1.2075  1.0917 -0.3755
 6880SOL     OW32101   2.048   3.294   1.899  0.3987  0.0680  0.0631
 6880SOL    HW132102   2.050   3.217   1.955 -1.4675  0.8069  1.1404
 6880SOL    HW232103   1.993   3.355   1.948  0.2953 -0.1454  0.2099
 6881SOL     OW32104   3.114   1.087   8.537 -0.5342  0.6001  0.2332
 6881SOL    HW132105   3.056   1.048   8.471  0.5932  1.3377 -1.1806
 6881SOL    HW232106   3.176   1.016   8.550 -0.7041  0.3757 -0.1669
 6882SOL     OW32107   2.886   1.125  12.268  0.8541  0.5683 -0.0562
 6882SOL    HW132108   2.953   1.072  12.225  0.9668  1.1111 -0.5432
 6882SOL    HW232109   2.910   1.113  12.360  0.4042  0.7122  0.0831
 6883SOL     OW32110   3.842   4.082   1.337 -0.6225  0.1045 -0.7300
 6883SOL    HW132111   3.868   4.040   1.419 -0.6720  0.7881 -0.3599
 6883SOL    HW232112   3.754   4.102   1.367 -0.2629  0.4456  0.0992
 6884SOL     OW32113   0.005   0.611   9.202 -0.4072 -0.4321 -0.0403
 6884SOL    HW132114   4.633   0.629   9.181 -0.7666  0.7963  2.6014
 6884SOL    HW232115   0.054   0.641   9.125  2.0272 -2.3463  0.7658
 6885SOL     OW32116   2.393   2.982  14.567  0.0310 -0.2680 -1.0083
 6885SOL    HW132117   2.357   3.031  14.493  0.3954  3.2169  1.1238
 6885SOL    HW232118   2.346   3.009  14.645  0.9045 -0.2500 -0.4900
 6886SOL     OW32119   2.942   0.068   8.079 -0.9060  0.6134 -0.6130
 6886SOL    HW132120   2.887   0.097   8.153  0.1676 -1.4920  0.9886
 6886SOL    HW232121   3.027   0.105   8.105 -0.1890 -2.5656  1.6391
 6887SOL     OW32122   0.795   1.750   3.958 -0.4652  0.2847  0.1119
 6887SOL    HW132123   0.786   1.816   3.889  0.9119  1.3932  1.0121
 6887SOL    HW232124   0.708   1.713   3.971 -1.3500  2.1732 -0.5102
 6888SOL     OW32125   2.029   1.890  10.787 -0.0361  0.1153  0.2300
 6888SOL    HW132126   2.089   1.932  10.725  0.5548  3.8482  3.3983
 6888SOL    HW232127   1.945   1.893  10.741 -1.3770 -0.9894  2.5784
 6889SOL     OW32128   0.660   4.143  10.674  0.4634 -0.0124 -0.8257
 6889SOL    HW132129   0.634   4.071  10.732  1.2996  0.1514 -0.2413
 6889SOL    HW232130   0.721   4.193  10.728 -0.3391  0.8449 -0.7195
 6890SOL     OW32131   3.424   0.365   9.128  0.0396  0.7945 -0.8750
 6890SOL    HW132132   3.351   0.427   9.121  1.1441  2.2721  0.7082
 6890SOL    HW232133   3.482   0.380   9.053 -0.9374 -0.6212 -1.9080
 6891SOL     OW32134   1.150   4.459   9.522  0.1843 -0.5836 -0.4032
 6891SOL    HW132135   1.139   4.387   9.584  1.3520 -0.7947 -0.4304
 6891SOL    HW232136   1.081   4.521   9.546 -1.2077 -1.3943 -2.2775
 6892SOL     OW32137   3.757   3.488   4.364  0.0885 -0.4378 -0.1460
 6892SOL    HW132138   3.718   3.511   4.449  0.9708 -1.5171  0.5589
 6892SOL    HW232139   3.787   3.399   4.382  1.2738 -0.0425 -0.1380
 6893SOL     OW32140   3.225   1.013   5.225 -0.1170  0.9517  0.4938
 6893SOL    HW132141   3.144   1.060   5.204 -1.3910 -0.4691  2.2908
 6893SOL    HW232142   3.285   1.087   5.239 -0.2140  1.1882 -0.3203
 6894SOL     OW32143   0.940   2.287   4.640  0.1035 -0.2352  0.1750
 6894SOL    HW132144   0.908   2.266   4.728  0.5262 -1.5610  0.0125
 6894SOL    HW232145   1.018   2.336   4.666  0.2321 -1.3032  1.8456
 6895SOL     OW32146   1.035   1.211   4.316  0.3168  0.4497 -0.5421
 6895SOL    HW132147   1.104   1.172   4.370 -0.9857 -2.8491 -1.3037
 6895SOL    HW232148   1.086   1.280   4.273 -0.8983  0.1206 -2.4828
 6896SOL     OW32149   4.479   0.504  15.907  0.0315 -0.3368 -0.1197
 6896SOL    HW132150   4.462   0.436  15.841 -0.9692 -0.1212 -0.0920
 6896SOL    HW232151   4.470   0.584  15.855 -0.1118 -0.9390 -1.0410
 6897SOL     OW32152   3.684   3.358  15.867  0.3368  0.8732 -0.0889
 6897SOL    HW132153   3.740   3.282  15.850 -0.1147  0.6149 -0.4212
 6897SOL    HW232154   3.723   3.386  15.950  0.8597  0.1975 -0.1065
 6898SOL     OW32155   2.908   0.981   2.421 -0.1797  0.1658 -0.1994
 6898SOL    HW132156   2.891   1.011   2.332  0.1236 -1.8047 -0.9194
 6898SOL    HW232157   2.856   0.900   2.422  1.0984 -0.6685 -1.6399
 6899SOL     OW32158   0.904   3.859   7.820 -0.0824  0.1379  0.2494
 6899SOL    HW132159   0.933   3.774   7.853  1.4674 -0.6705 -3.2416
 6899SOL    HW232160   0.827   3.874   7.875 -0.6299 -2.7173  0.2826
 6900SOL     OW32161   4.035   3.907   4.176 -0.0248  0.2316  0.8776
 6900SOL    HW132162   4.127   3.896   4.198  0.5054  0.0911 -1.4741
 6900SOL    HW232163   3.989   3.836   4.222 -1.4408  0.8197  0.3810
 6901SOL     OW32164   2.158   0.520   6.347 -0.2265  0.4185  0.1537
 6901SOL    HW132165   2.160   0.426   6.332  1.1715  0.6136 -0.9146
 6901SOL    HW232166   2.143   0.555   6.259 -2.8731  3.1549  1.7054
 6902SOL     OW32167   2.075   3.407   7.210  0.5856 -0.3649  0.0276
 6902SOL    HW132168   2.055   3.497   7.236 -0.9388 -1.0501  1.2520
 6902SOL    HW232169   2.099   3.427   7.120 -2.1826 -1.6900 -1.0055
 6903SOL     OW32170   1.960   4.125   2.210  0.9977  0.0821 -0.0377
 6903SOL    HW132171   1.913   4.183   2.150 -3.6482 -1.7966  1.7826
 6903SOL    HW232172   2.049   4.126   2.176  0.7798  1.3743 -0.5868
 6904SOL     OW32173   1.702   1.840   2.456  0.0415 -0.0405  0.0562
 6904SOL    HW132174   1.713   1.831   2.551 -0.3098 -0.4960  0.0513
 6904SOL    HW232175   1.760   1.771   2.426 -0.1269  0.2737 -1.0031
 6905SOL     OW32176   2.065   4.486   0.638  0.2473  0.0379 -0.2919
 6905SOL    HW132177   2.005   4.462   0.567  1.1020 -0.7017 -0.7821
 6905SOL    HW232178   2.000   4.520   0.699  1.4662 -2.5206  2.4502
 6906SOL     OW32179   3.128   3.076   8.815  0.1920 -0.3922 -0.6012
 6906SOL    HW132180   3.170   3.011   8.872  1.9413 -0.2051 -1.6718
 6906SOL    HW232181   3.067   3.109   8.880  0.6949  1.4221 -1.0637
 6907SOL     OW32182   2.204   4.143   4.175 -0.3741 -0.1392  0.5022
 6907SOL    HW132183   2.136   4.119   4.112  0.4494 -1.2253  0.0297
 6907SOL    HW232184   2.271   4.189   4.125 -0.3229 -1.0747 -0.2815
 6908SOL     OW32185   0.137   2.549   3.954  0.2675 -0.6447  0.5096
 6908SOL    HW132186   0.200   2.593   4.011 -2.4232  3.0228  0.6284
 6908SOL    HW232187   0.073   2.612   3.922 -0.7476 -0.5866  2.6235
 6909SOL     OW32188   2.561   3.715  10.361  0.0837 -0.2452 -0.0673
 6909SOL    HW132189   2.643   3.764  10.362  0.2464 -0.4952 -1.2010
 6909SOL    HW232190   2.567   3.666  10.443 -0.7672  0.3796  0.3649
 6910SOL     OW32191   1.023   2.654   4.800  0.1379 -0.5495 -0.2882
 6910SOL    HW132192   1.075   2.728   4.829 -0.4021 -1.3165  2.6731
 6910SOL    HW232193   0.962   2.698   4.741 -0.2940 -0.3888  0.2687
 6911SOL     OW32194   1.899   1.155   8.067  0.0736  0.2186  0.0931
 6911SOL    HW132195   1.907   1.061   8.055  0.5624  0.0413  1.8323
 6911SOL    HW232196   1.994   1.165   8.077  0.6306 -1.8996 -3.1015
 6912SOL     OW32197   2.188   2.320   5.926  0.1461  0.0720  0.4168
 6912SOL    HW132198   2.183   2.230   5.893 -1.2428  0.1889  0.3231
 6912SOL    HW232199   2.102   2.333   5.965 -1.0738  0.6422 -2.5223
 6913SOL     OW32200   3.608   2.641   0.919  0.2478 -0.2157 -0.1611
 6913SOL    HW132201   3.534   2.583   0.936  1.4056 -1.0801  1.9910
 6913SOL    HW232202   3.638   2.610   0.834 -0.8909 -3.6382  0.6703
 6914SOL     OW32203   0.980   1.277   6.724 -0.1687 -0.9486  0.9261
 6914SOL    HW132204   1.026   1.222   6.660 -0.1024  0.5886 -0.3480
 6914SOL    HW232205   1.058   1.310   6.769  0.6221 -1.2805 -0.1783
 6915SOL     OW32206   2.230   1.754  11.008 -0.4399  0.0793 -0.3908
 6915SOL    HW132207   2.279   1.792  10.935  0.8780 -1.5955 -0.3821
 6915SOL    HW232208   2.186   1.692  10.951 -0.3018 -1.2570  0.9383
 6916SOL     OW32209   2.678   4.532  15.868  0.0992  0.1850 -0.3690
 6916SOL    HW132210   2.595   4.497  15.898  0.9161 -0.2177  1.3893
 6916SOL    HW232211   2.680   4.532  15.772  0.1226 -1.4011 -0.3795
 6917SOL     OW32212   0.347   0.608   3.305 -0.4218 -0.3075  0.1040
 6917SOL    HW132213   0.283   0.550   3.264 -2.5999  1.6472  0.7377
 6917SOL    HW232214   0.430   0.586   3.263 -0.7051  0.9222 -1.1201
 6918SOL     OW32215   4.272   3.922   1.563  0.4339  0.6298  0.5348
 6918SOL    HW132216   4.277   3.842   1.615 -1.2872  0.5183  0.5047
 6918SOL    HW232217   4.186   3.904   1.525  0.7444  0.0744  0.0918
 6919SOL     OW32218   1.213   1.352   8.989  0.1892  0.1936  1.0093
 6919SOL    HW132219   1.177   1.434   9.022 -0.7892  0.8501 -1.7098
 6919SOL    HW232220   1.136   1.307   8.953  0.1004 -0.0446  1.4993
 6920SOL     OW32221   1.985   1.981   9.297 -0.1598  0.1783 -0.5196
 6920SOL    HW132222   2.027   2.027   9.224  2.1929 -1.2179 -0.0460
 6920SOL    HW232223   1.924   2.044   9.336 -0.9083 -1.8493  1.5782
 6921SOL     OW32224   3.281   1.245   3.095 -0.1620 -0.2258  0.4322
 6921SOL    HW132225   3.340   1.227   3.022 -0.0234 -1.7393  0.8966
 6921SOL    HW232226   3.352   1.261   3.157 -1.2375  2.7789  0.8609
 6922SOL     OW32227   3.385   1.084   3.739  0.6634  0.3738 -0.0699
 6922SOL    HW132228   3.480   1.069   3.737  0.2719 -2.0798 -0.1166
 6922SOL    HW232229   3.354   1.116   3.655  0.6426  1.4404  0.3441
 6923SOL     OW32230   3.266   0.206   8.743 -0.1510 -0.0330 -0.2532
 6923SOL    HW132231   3.253   0.270   8.813 -2.1437 -0.4481 -0.2674
 6923SOL    HW232232   3.356   0.224   8.715 -0.7047  2.5586 -0.3447
 6924SOL     OW32233   0.257   0.888  14.403  0.2012  0.2840 -0.1856
 6924SOL    HW132234   0.284   0.931  14.484  1.2526 -0.0916 -0.3420
 6924SOL    HW232235   0.273   0.795  14.420 -1.5875 -0.7460 -4.3254
 6925SOL     OW32236   0.147   3.143  14.702  0.1423  0.3413 -0.4989
 6925SOL    HW132237   0.216   3.205  14.677  0.1884  0.1745 -0.7877
 6925SOL    HW232238   0.132   3.092  14.622  0.2406 -1.1231  0.4147
 6926SOL     OW32239   1.112   2.490   0.580 -0.0149 -0.1250 -0.1574
 6926SOL    HW132240   1.187   2.475   0.637 -0.6745 -0.3961  0.6388
 6926SOL    HW232241   1.113   2.410   0.529  0.4195 -0.6446  0.6678
 6927SOL     OW32242   4.354   1.366   4.814  0.0058  0.2639 -0.2936
 6927SOL    HW132243   4.270   1.363   4.769 -0.6491  1.1754  0.8896
 6927SOL    HW232244   4.412   1.319   4.753 -0.7998 -1.4694  0.2618
 6928SOL     OW32245   3.151   4.414  13.695 -0.0285  0.3860 -0.2406
 6928SOL    HW132246   3.185   4.433  13.783 -0.2662  1.7559 -0.4583
 6928SOL    HW232247   3.059   4.392  13.709  0.1348 -0.2810 -0.2132
 6929SOL     OW32248   4.054   4.522   3.821 -0.1452 -0.2427 -0.2302
 6929SOL    HW132249   4.061   4.500   3.914 -1.2988  1.3107  0.2275
 6929SOL    HW232250   4.017   4.443   3.781 -0.0815 -0.4292  0.0773
 6930SOL     OW32251   2.545   0.756   8.726 -0.0746 -0.1859  0.0813
 6930SOL    HW132252   2.603   0.680   8.730 -1.8579 -1.6815 -2.5980
 6930SOL    HW232253   2.468   0.700   8.717  0.6367 -0.8873 -1.6651
 6931SOL     OW32254   0.508   2.304   6.416 -0.2921  0.4068  0.0582
 6931SOL    HW132255   0.416   2.284   6.435 -0.3276  0.9445  0.4559
 6931SOL    HW232256   0.529   2.350   6.497  0.4191  1.7907 -0.9304
 6932SOL     OW32257   2.644   3.693  11.615  0.1124 -0.1965 -0.0349
 6932SOL    HW132258   2.569   3.634  11.619  0.2961 -0.5421 -2.0306
 6932SOL    HW232259   2.708   3.629  11.584 -1.2398 -1.8100  0.5108
 6933SOL     OW32260   1.937   2.444   4.483  0.5520  0.0678  0.0110
 6933SOL    HW132261   1.888   2.494   4.417  0.5245  1.5818  1.1640
 6933SOL    HW232262   1.996   2.509   4.521 -1.0281  0.8966  1.0346
 6934SOL     OW32263   4.105   2.036  12.555 -0.0870 -0.2151 -0.3487
 6934SOL    HW132264   4.198   2.046  12.534 -0.1169 -1.3737 -1.0063
 6934SOL    HW232265   4.104   2.067  12.646 -2.3936  1.2986 -0.8794
 6935SOL     OW32266   4.709   4.349   8.170  0.1043 -0.2475  0.2822
 6935SOL    HW132267   4.632   4.305   8.134  2.5440 -1.9872 -2.8403
 6935SOL    HW232268   4.689   4.442   8.156 -1.0191 -0.3630  1.1563
 6936SOL     OW32269   4.078   3.052   9.955  0.3273  0.6401  0.2627
 6936SOL    HW132270   4.058   3.128   9.899  0.9452  0.2650 -0.4698
 6936SOL    HW232271   4.098   2.983   9.891 -2.9141 -0.3906  0.3520
 6937SOL     OW32272   1.801   4.318   5.819 -0.6214  0.0752 -0.4927
 6937SOL    HW132273   1.868   4.258   5.851 -1.0653  0.2635  0.7671
 6937SOL    HW232274   1.753   4.253   5.766  0.1213 -1.0953  0.2859
 6938SOL     OW32275   3.578   0.948   3.470 -0.0724 -0.1529  0.3625
 6938SOL    HW132276   3.535   0.898   3.539 -0.3935  0.2972  0.4888
 6938SOL    HW232277   3.516   0.949   3.397  1.5626 -0.7049 -1.0253
 6939SOL     OW32278   4.464   0.999   9.255 -0.3022 -0.1273  0.6251
 6939SOL    HW132279   4.398   0.940   9.290  1.6155 -1.2071  2.4527
 6939SOL    HW232280   4.408   1.044   9.192  1.5593  1.1612 -0.1060
 6940SOL     OW32281   0.530   0.973   4.597 -0.1098 -0.1901  0.5246
 6940SOL    HW132282   0.448   0.992   4.644 -1.7672 -1.4685 -1.8695
 6940SOL    HW232283   0.511   1.005   4.509 -1.5932  0.1665  0.9796
 6941SOL     OW32284   0.958   0.383   7.098 -0.1214  0.2094  0.1866
 6941SOL    HW132285   0.991   0.316   7.158  0.4902 -0.6511 -1.1309
 6941SOL    HW232286   0.899   0.333   7.042  0.7898  0.3591 -0.9084
 6942SOL     OW32287   2.537   0.322   6.134 -0.2376  0.0621  0.2103
 6942SOL    HW132288   2.562   0.333   6.226 -0.3500 -2.9627  0.5948
 6942SOL    HW232289   2.609   0.260   6.120 -2.2140 -1.5110 -2.9429
 6943SOL     OW32290   1.398   2.673   4.737  0.5375  0.6269 -0.3789
 6943SOL    HW132291   1.389   2.735   4.664  0.3030  1.7798  0.6366
 6943SOL    HW232292   1.445   2.716   4.808 -0.7908  1.4940 -0.0247
 6944SOL     OW32293   3.705   4.604   1.958  0.0816  0.2533 -0.6053
 6944SOL    HW132294   3.674   4.538   2.020  0.6521  1.2101  0.6969
 6944SOL    HW232295   3.730   4.677   2.015 -0.4036 -0.1804  0.1770
 6945SOL     OW32296   2.612   1.605   4.112 -0.0099 -0.0890  0.3173
 6945SOL    HW132297   2.562   1.676   4.152  0.8809  0.3139  0.7046
 6945SOL    HW232298   2.628   1.552   4.191  0.0830  0.9736  1.0179
 6946SOL     OW32299   3.298   2.028  13.680  0.1659  0.1314 -0.0338
 6946SOL    HW132300   3.334   1.948  13.642 -3.3875 -1.6387  0.2958
 6946SOL    HW232301   3.219   1.997  13.726  0.2757  0.0981  0.1329
 6947SOL     OW32302   4.636   3.321  14.880 -0.3503 -0.5187 -0.3277
 6947SOL    HW132303   0.006   3.352  14.898  0.1912 -2.9629  1.1585
 6947SOL    HW232304   4.603   3.409  14.862  0.4670  0.0326  0.8660
 6948SOL     OW32305   0.546   1.168   8.711 -0.1166 -0.0796 -0.1817
 6948SOL    HW132306   0.501   1.245   8.746 -0.1723 -1.6206  3.1095
 6948SOL    HW232307   0.559   1.202   8.622  0.7909 -1.0127 -0.4055
 6949SOL     OW32308   3.854   1.064   3.502 -0.2542  0.5788  0.2868
 6949SOL    HW132309   3.767   1.028   3.489 -0.2784  0.6090  0.3641
 6949SOL    HW232310   3.846   1.132   3.569  1.1976  1.9891 -0.9375
 6950SOL     OW32311   4.656   2.486   4.138 -0.3156  0.9953  0.7488
 6950SOL    HW132312   4.607   2.458   4.061 -0.2701 -0.7965  1.3848
 6950SOL    HW232313   0.025   2.501   4.107 -0.5800  1.0323  0.0205
 6951SOL     OW32314   0.062   1.526  13.447  0.2226  0.6010  0.0996
 6951SOL    HW132315   0.108   1.524  13.531 -1.3400 -0.2327  0.9284
 6951SOL    HW232316   0.020   1.612  13.447 -0.1726  0.4201 -1.6157
 6952SOL     OW32317   1.837   0.450  10.064 -0.1367 -0.0507  0.0783
 6952SOL    HW132318   1.818   0.384  10.131 -0.7532  1.9866  1.9075
 6952SOL    HW232319   1.852   0.391   9.991 -0.4228  0.2220 -0.2008
 6953SOL     OW32320   3.632   2.447  16.977  0.3004  0.4280  0.0385
 6953SOL    HW132321   3.690   2.419  16.906 -1.0883 -0.4111 -0.7622
 6953SOL    HW232322   3.577   2.369  16.976  0.8787  0.0148  0.6522
 6954SOL     OW32323   4.347   4.603   9.185 -0.5624 -0.5904  0.4933
 6954SOL    HW132324   4.396   4.626   9.264 -1.3862 -0.0513  0.8535
 6954SOL    HW232325   4.259   4.593   9.223 -1.3194  1.3177 -0.7200
 6955SOL     OW32326   4.211   0.906  13.498 -0.3308 -0.4450  0.1842
 6955SOL    HW132327   4.287   0.860  13.463  1.2696  0.6135  2.2195
 6955SOL    HW232328   4.197   0.857  13.579  2.1610  0.6897  1.3001
 6956SOL     OW32329   3.714   2.465   9.062  0.2449  0.3076  0.6527
 6956SOL    HW132330   3.736   2.383   9.019 -1.9961 -0.1424  0.4145
 6956SOL    HW232331   3.648   2.436   9.125 -0.3474 -1.3950 -0.7419
 6957SOL     OW32332   1.743   4.527   4.448  0.0545 -0.0309 -0.0202
 6957SOL    HW132333   1.760   4.434   4.458  0.3935  0.2117  1.5890
 6957SOL    HW232334   1.707   4.527   4.359 -0.2205 -1.1297  0.0875
 6958SOL     OW32335   1.782   0.451   6.893 -0.0728  0.3061 -0.2793
 6958SOL    HW132336   1.808   0.543   6.891  1.5781 -0.1162  1.7910
 6958SOL    HW232337   1.854   0.403   6.851 -0.4878  0.3539 -1.0488
 6959SOL     OW32338   2.258   1.296  12.485 -0.8683  0.4112 -0.6568
 6959SOL    HW132339   2.334   1.259  12.532 -1.9271  1.1384  1.6127
 6959SOL    HW232340   2.275   1.389  12.496 -2.4958  0.6398 -0.1724
 6960SOL     OW32341   2.550   1.601   1.669 -0.0826 -0.5501  0.2757
 6960SOL    HW132342   2.460   1.591   1.637  0.0124  0.7306 -0.3985
 6960SOL    HW232343   2.574   1.510   1.653 -3.8380 -1.6092  0.6059
 6961SOL     OW32344   1.802   4.279   6.120 -0.0749  0.1373  0.1411
 6961SOL    HW132345   1.750   4.359   6.116  1.3398  1.1976  3.3580
 6961SOL    HW232346   1.890   4.310   6.097  1.5162 -2.7596  2.4389
 6962SOL     OW32347   0.009   3.566   3.035 -0.7930 -0.0225  0.6714
 6962SOL    HW132348   4.682   3.541   2.955  1.2400  0.3793 -0.6276
 6962SOL    HW232349   0.024   3.661   3.034  4.1354 -0.8132  0.2407
 6963SOL     OW32350   3.618   4.423  11.444  0.1224  0.4042  0.6003
 6963SOL    HW132351   3.676   4.425  11.368 -0.0112 -1.3786  0.4513
 6963SOL    HW232352   3.669   4.388  11.517  0.3505 -1.5400 -0.4760
 6964SOL     OW32353   4.500   0.661  10.370  0.2985  0.1271  0.7090
 6964SOL    HW132354   4.552   0.593  10.413 -0.3531  0.4113  1.9444
 6964SOL    HW232355   4.488   0.616  10.286 -1.0292 -0.4139  1.1753
 6965SOL     OW32356   4.656   4.562   4.826 -0.8800 -0.2559  0.0243
 6965SOL    HW132357   4.622   4.621   4.893  2.5470  0.0166  1.5479
 6965SOL    HW232358   4.585   4.543   4.765 -2.4641  0.7092  1.5890
 6966SOL     OW32359   2.007   2.042  13.439  0.1421 -0.0486  0.3545
 6966SOL    HW132360   2.030   2.135  13.449  1.4469 -0.3423 -0.0025
 6966SOL    HW232361   2.096   2.008  13.428  0.9167  1.8318  0.8080
 6967SOL     OW32362   3.002   0.331   2.296 -0.0063  0.5037 -0.4141
 6967SOL    HW132363   3.077   0.309   2.352 -0.4006 -0.4810 -0.2593
 6967SOL    HW232364   3.061   0.367   2.231  1.4934  2.3228  1.9492
 6968SOL     OW32365   2.434   1.995   4.033  0.1405  0.5356 -0.1811
 6968SOL    HW132366   2.513   2.042   4.062  1.9713 -2.6982  0.0675
 6968SOL    HW232367   2.477   1.911   4.022 -0.7744 -0.0707  0.9052
 6969SOL     OW32368   2.654   3.391   3.841 -0.0435 -0.4650  0.0257
 6969SOL    HW132369   2.733   3.431   3.805 -0.3992  1.0675  0.9777
 6969SOL    HW232370   2.618   3.343   3.767  0.8696 -1.2138  0.0532
 6970SOL     OW32371   1.287   3.021   5.365 -0.0713 -0.4135  0.2349
 6970SOL    HW132372   1.243   2.947   5.325  1.3621 -1.3951  0.5022
 6970SOL    HW232373   1.261   3.087   5.301 -1.2559 -1.6481 -0.5518
 6971SOL     OW32374   2.335   1.587   1.517  0.0939 -0.6574  0.0714
 6971SOL    HW132375   2.261   1.637   1.481 -0.2497  0.0392  1.7737
 6971SOL    HW232376   2.320   1.495   1.495  0.0212 -0.5955 -0.1418
 6972SOL     OW32377   4.484   4.216   8.820  0.0701 -0.4558 -0.1268
 6972SOL    HW132378   4.579   4.219   8.831 -0.0942  1.3151  0.8215
 6972SOL    HW232379   4.455   4.308   8.818 -1.8021 -1.0008  1.8635
 6973SOL     OW32380   4.567   0.183  15.832  0.1707  0.3531 -0.0816
 6973SOL    HW132381   4.503   0.238  15.787 -2.5920 -0.7881  2.5168
 6973SOL    HW232382   4.650   0.210  15.793  0.2082  0.6560  0.2104
 6974SOL     OW32383   2.792   3.184   7.932  0.1148  0.0227 -0.0822
 6974SOL    HW132384   2.876   3.156   7.967 -0.0545 -1.4927 -0.8474
 6974SOL    HW232385   2.812   3.240   7.857 -0.4926 -1.0671 -1.0635
 6975SOL     OW32386   3.203   4.391   7.614  0.0917 -0.0283  0.2943
 6975SOL    HW132387   3.140   4.365   7.681  1.5297 -0.1307  1.5943
 6975SOL    HW232388   3.153   4.463   7.576  0.7112  0.9595  1.3698
 6976SOL     OW32389   4.623   1.657   3.126  0.5930  0.0136  0.1662
 6976SOL    HW132390   4.593   1.655   3.035 -0.6798 -0.4945  0.6044
 6976SOL    HW232391   4.697   1.718   3.117  1.1496 -0.2947  2.8868
 6977SOL     OW32392   4.166   2.774  13.884  0.2245 -0.4992 -0.0154
 6977SOL    HW132393   4.211   2.835  13.942  1.5151 -1.3678 -0.1147
 6977SOL    HW232394   4.227   2.702  13.866  1.5877  0.0082  2.5821
 6978SOL     OW32395   3.327   2.301   8.845 -0.4843  0.0517 -0.6836
 6978SOL    HW132396   3.371   2.375   8.803 -0.0601 -0.0043 -0.3405
 6978SOL    HW232397   3.254   2.355   8.876 -1.2946  0.3032 -3.0245
 6979SOL     OW32398   2.775   4.256   4.713 -0.7187  0.1600  0.3077
 6979SOL    HW132399   2.855   4.284   4.667 -0.5930  0.9126  0.9725
 6979SOL    HW232400   2.707   4.252   4.646  0.3785 -0.1904 -0.7953
 6980SOL     OW32401   3.483   0.776  12.854  0.0843 -0.7754 -0.0032
 6980SOL    HW132402   3.450   0.687  12.842  1.6933 -1.3678 -0.0464
 6980SOL    HW232403   3.553   0.758  12.917  0.5263 -0.6068 -0.4451
 6981SOL     OW32404   3.251   0.648   2.500  0.1716 -0.5141  0.7238
 6981SOL    HW132405   3.265   0.743   2.501  0.2087 -0.5168  0.4762
 6981SOL    HW232406   3.161   0.641   2.469 -0.2452  2.0011  1.3705
 6982SOL     OW32407   3.547   2.698  12.510 -0.1526 -0.4255  0.2280
 6982SOL    HW132408   3.569   2.738  12.426 -1.5210 -1.4826 -0.6341
 6982SOL    HW232409   3.626   2.643  12.517  1.0225  1.7264  3.6596
 6983SOL     OW32410   1.022   4.412   1.136  0.3516  0.0164  0.5496
 6983SOL    HW132411   1.010   4.443   1.226 -3.0911  0.3869 -0.0111
 6983SOL    HW232412   0.935   4.430   1.101  0.6529 -0.6486 -0.5221
 6984SOL     OW32413   3.888   0.081   8.586  0.5684 -0.1211 -0.5499
 6984SOL    HW132414   3.889   0.008   8.524 -1.8305 -2.0840  1.7024
 6984SOL    HW232415   3.845   0.146   8.529 -0.6141  0.1442  0.6252
 6985SOL     OW32416   4.556   3.246   2.140 -0.3702 -0.5372 -0.3739
 6985SOL    HW132417   4.541   3.185   2.211 -0.7544  0.7127  0.6068
 6985SOL    HW232418   4.532   3.198   2.060 -0.1000  0.3768 -1.0073
 6986SOL     OW32419   1.856   1.951  11.947 -0.3175 -0.0118 -0.6458
 6986SOL    HW132420   1.789   1.885  11.963  0.5915 -0.3003  1.9139
 6986SOL    HW232421   1.803   2.011  11.894 -1.7633 -0.3545  0.4354
 6987SOL     OW32422   2.911   1.804  14.097  0.2849 -0.2189 -0.4521
 6987SOL    HW132423   2.982   1.868  14.093  0.0573  0.3005  3.9972
 6987SOL    HW232424   2.832   1.857  14.086 -0.2694 -0.5737  1.8913
 6988SOL     OW32425   1.191   2.130   5.136  0.1753  0.4298 -0.2500
 6988SOL    HW132426   1.200   2.159   5.227 -0.6748 -0.6265  0.1736
 6988SOL    HW232427   1.096   2.132   5.137  0.1159 -1.8906 -1.0748
 6989SOL     OW32428   3.247   3.973   7.960 -0.9366  0.9883 -0.1439
 6989SOL    HW132429   3.298   4.053   7.975 -0.2531  0.0720  2.3788
 6989SOL    HW232430   3.219   3.945   8.047 -0.0215  0.6830  0.0559
 6990SOL     OW32431   1.680   4.092   5.041 -0.7517 -0.1352  0.5631
 6990SOL    HW132432   1.628   4.014   5.057 -2.6040  0.6204 -1.8721
 6990SOL    HW232433   1.647   4.134   5.120 -1.7738  1.0401 -0.4896
 6991SOL     OW32434   2.612   4.672   1.093 -0.2721  0.2497 -0.1940
 6991SOL    HW132435   2.570   4.662   1.008  1.2493  0.5164 -0.9631
 6991SOL    HW232436   2.602   4.584   1.130  1.0761  0.1286 -0.1208
 6992SOL     OW32437   0.236   2.783   4.869  0.0775 -0.4596 -0.0077
 6992SOL    HW132438   0.289   2.764   4.946  0.1960 -3.3321 -0.7888
 6992SOL    HW232439   0.302   2.830   4.819  0.2291 -0.6350  0.0296
 6993SOL     OW32440   2.951   0.917   8.362 -0.3021 -0.7843 -0.0969
 6993SOL    HW132441   2.942   0.991   8.303 -0.5233 -0.1505  0.7296
 6993SOL    HW232442   2.976   0.851   8.297 -0.5436  1.3032 -2.2943
 6994SOL     OW32443   2.859   2.441   7.311  0.0252 -0.2397  0.6151
 6994SOL    HW132444   2.798   2.417   7.242 -1.6058  1.2723  1.5492
 6994SOL    HW232445   2.864   2.359   7.361 -0.4215 -0.3803  0.4220
 6995SOL     OW32446   4.525   1.387   3.834  0.2568  0.1985 -0.5279
 6995SOL    HW132447   4.589   1.431   3.778 -0.7179  0.6357 -1.2844
 6995SOL    HW232448   4.569   1.303   3.849 -1.2830 -0.4088  0.5797
 6996SOL     OW32449   0.565   3.378  11.997  0.1929  0.1585 -0.3297
 6996SOL    HW132450   0.604   3.449  11.947 -1.9037  1.2743 -0.3789
 6996SOL    HW232451   0.564   3.414  12.086 -2.5667 -1.2609  0.2334
 6997SOL     OW32452   3.451   4.709   5.491 -0.2585 -0.1878  0.0662
 6997SOL    HW132453   3.436   0.081   5.516 -1.5365 -0.9395  1.9609
 6997SOL    HW232454   3.402   4.665   5.560 -0.6806 -1.4707 -1.0529
 6998SOL     OW32455   0.780   3.563   1.912 -0.1007  0.2197  0.3036
 6998SOL    HW132456   0.779   3.659   1.908 -0.6719  0.1803 -0.5061
 6998SOL    HW232457   0.872   3.551   1.937 -0.2101  0.0070  0.6069
 6999SOL     OW32458   1.847   0.363   4.381 -0.0637  0.9451 -0.0998
 6999SOL    HW132459   1.833   0.290   4.442 -1.1674  0.7608 -0.5834
 6999SOL    HW232460   1.772   0.420   4.398  0.4650  1.4000  0.7028
 7000SOL     OW32461   3.863   2.486   3.062 -0.4384 -0.3795  0.6364
 7000SOL    HW132462   3.799   2.513   2.995 -1.1209 -2.6113  0.3776
 7000SOL    HW232463   3.914   2.414   3.024  0.1105  0.5425 -0.3849
 7001SOL     OW32464   3.928   2.097   6.670 -0.4735  0.5804  0.3323
 7001SOL    HW132465   3.840   2.109   6.633 -1.4015  0.4048  2.5031
 7001SOL    HW232466   3.907   2.032   6.737  0.2295  0.5810  0.5555
 7002SOL     OW32467   3.122   0.283   4.643 -0.0548  0.1304 -0.2410
 7002SOL    HW132468   3.117   0.372   4.608  1.0963  0.2537 -0.1033
 7002SOL    HW232469   3.124   0.231   4.563  1.8370  3.5732 -2.4539
 7003SOL     OW32470   0.409   1.622   5.828 -0.5032 -0.1680 -0.0671
 7003SOL    HW132471   0.406   1.616   5.924  1.5052  0.3057  0.0169
 7003SOL    HW232472   0.319   1.592   5.817 -0.0011 -2.0219  0.7657
 7004SOL     OW32473   4.439   0.502  13.323 -0.8380  0.0149  0.5412
 7004SOL    HW132474   4.418   0.508  13.230  1.8102  2.4513  0.0689
 7004SOL    HW232475   4.354   0.468  13.350 -0.6857 -0.4824  0.3958
 7005SOL     OW32476   1.909   0.187  12.216 -0.0491 -0.8676  0.3465
 7005SOL    HW132477   1.982   0.221  12.268 -1.0955 -0.7358  1.7300
 7005SOL    HW232478   1.855   0.267  12.212 -1.1409 -1.6816 -1.0488
 7006SOL     OW32479   3.427   0.619   6.356  0.1318  0.3297  0.1090
 7006SOL    HW132480   3.454   0.535   6.319 -1.9791 -0.5373  0.5559
 7006SOL    HW232481   3.463   0.680   6.292  1.6799 -0.3195  0.3509
 7007SOL     OW32482   4.610   0.837   2.086  0.3653 -0.6921  0.2421
 7007SOL    HW132483   4.705   0.824   2.081  0.0405 -2.0970 -2.4342
 7007SOL    HW232484   4.596   0.843   1.991  0.9023 -2.5608  0.0423
 7008SOL     OW32485   4.374   3.482   3.469  0.2584 -0.1898  0.8648
 7008SOL    HW132486   4.387   3.430   3.389 -1.5475 -1.4255  1.3701
 7008SOL    HW232487   4.336   3.560   3.430  0.7578  1.4329  3.6404
 7009SOL     OW32488   3.278   3.228   4.740  0.2001  0.1560  0.2831
 7009SOL    HW132489   3.295   3.257   4.829  0.2029  0.2103  0.2644
 7009SOL    HW232490   3.288   3.134   4.755  1.9383  0.4133  0.6541
 7010SOL     OW32491   1.507   1.871   8.316 -0.6148  0.1845  0.0761
 7010SOL    HW132492   1.461   1.954   8.302 -2.4075 -0.6155  1.1929
 7010SOL    HW232493   1.600   1.893   8.330 -0.0066 -2.5780  0.3594
 7011SOL     OW32494   3.069   2.209   8.396  0.1240  0.4288 -0.1811
 7011SOL    HW132495   3.007   2.187   8.464 -0.3184  2.9741  0.2418
 7011SOL    HW232496   3.064   2.133   8.337  1.8995  1.4702 -1.6950
 7012SOL     OW32497   0.435   2.073   7.888  0.1683  0.5671  0.3064
 7012SOL    HW132498   0.401   1.984   7.877 -0.7479  0.7519  1.6463
 7012SOL    HW232499   0.479   2.064   7.972 -0.7016 -1.8431  0.5193
 7013SOL     OW32500   3.635   0.013   8.220 -0.4934  0.4710 -0.1005
 7013SOL    HW132501   3.659   4.641   8.230 -2.5709  0.0591  0.9461
 7013SOL    HW232502   3.540   0.014   8.211 -0.7947  1.3866  2.9050
 7014SOL     OW32503   4.249   3.913   5.473  0.5778 -0.0548 -0.0822
 7014SOL    HW132504   4.156   3.908   5.495  0.2944 -2.1804 -1.7579
 7014SOL    HW232505   4.264   4.004   5.497  0.2881  0.7430 -2.9633
 7015SOL     OW32506   3.093   1.636   3.076 -0.1700  0.2674  0.0786
 7015SOL    HW132507   3.105   1.698   3.004  1.7419 -0.9728 -0.6690
 7015SOL    HW232508   3.119   1.554   3.035 -0.2471  0.7185 -0.8737
 7016SOL     OW32509   1.900   3.370   5.776  0.3932 -0.0615 -0.2137
 7016SOL    HW132510   1.888   3.464   5.764 -0.5889 -0.2746 -0.8752
 7016SOL    HW232511   1.837   3.334   5.714 -0.2715 -0.9198  0.9658
 7017SOL     OW32512   3.808   0.731   4.845 -0.5414 -0.5474 -0.2851
 7017SOL    HW132513   3.831   0.787   4.771  0.4688 -1.2656 -0.5102
 7017SOL    HW232514   3.777   0.650   4.804 -1.8032 -0.0832 -0.2575
 7018SOL     OW32515   3.786   0.581  15.204 -0.0424 -0.1262 -0.2175
 7018SOL    HW132516   3.729   0.646  15.166  0.7013 -0.6288 -2.1864
 7018SOL    HW232517   3.833   0.563  15.123  1.5068  1.4867  0.3227
 7019SOL     OW32518   3.779   3.105   3.752 -0.1594 -0.0675  0.5692
 7019SOL    HW132519   3.863   3.067   3.779 -0.0530  0.0531  0.4071
 7019SOL    HW232520   3.806   3.195   3.734  0.6193 -0.1867  1.1351
 7020SOL     OW32521   3.416   0.428   4.243  0.3067  0.4692 -0.0730
 7020SOL    HW132522   3.471   0.386   4.309 -1.0818  0.8379  1.3157
 7020SOL    HW232523   3.473   0.478   4.185 -1.8740  0.2694 -2.4009
 7021SOL     OW32524   3.367   0.102   6.662 -0.7276  0.0607 -0.0604
 7021SOL    HW132525   3.384   0.146   6.745 -1.2434  0.2671 -0.0655
 7021SOL    HW232526   3.272   0.118   6.657 -0.5713  0.6979 -1.0929
 7022SOL     OW32527   0.072   0.541   9.506  0.1544 -0.2877  0.0267
 7022SOL    HW132528   0.144   0.513   9.562 -0.1801 -2.0062 -0.3882
 7022SOL    HW232529   0.039   0.460   9.467  1.6559  0.5598 -3.0339
 7023SOL     OW32530   1.130   0.143  10.054 -0.1515 -0.7053  0.5218
 7023SOL    HW132531   1.137   0.059  10.098  1.7513 -1.9818 -2.2023
 7023SOL    HW232532   1.070   0.125   9.981  0.6109 -0.9349 -0.0422
 7024SOL     OW32533   1.819   1.462  17.507 -0.8020 -0.0110 -0.1756
 7024SOL    HW132534   1.846   1.529  17.570 -1.4557  2.2915 -2.3328
 7024SOL    HW232535   1.838   1.497  17.420 -1.6418 -0.4818 -0.5348
 7025SOL     OW32536   4.074   0.599  17.662 -0.0262  0.1762 -0.2120
 7025SOL    HW132537   3.989   0.641  17.644 -1.4290 -2.2735  0.7231
 7025SOL    HW232538   4.059   0.570   0.071  2.4761  0.7864  0.3989
 7026SOL     OW32539   2.613   1.235  15.754 -0.5795  0.5048  0.1130
 7026SOL    HW132540   2.708   1.225  15.762 -0.4135  1.0441 -1.1878
 7026SOL    HW232541   2.618   1.328  15.779 -0.5606  0.7121 -0.6520
 7027SOL     OW32542   2.773   0.500   5.818  0.5678 -0.1392  0.6291
 7027SOL    HW132543   2.807   0.577   5.773 -0.0775  0.0162  0.4075
 7027SOL    HW232544   2.852   0.455   5.848  1.4597 -0.0285 -1.5453
 7028SOL     OW32545   2.636   2.533   8.446  0.1385  0.0942 -0.3969
 7028SOL    HW132546   2.608   2.589   8.373 -2.0135 -0.8971 -0.3331
 7028SOL    HW232547   2.647   2.598   8.515 -1.6449 -1.7016  1.5568
 7029SOL     OW32548   3.751   1.402   7.765  0.2406  0.6585 -0.1823
 7029SOL    HW132549   3.662   1.424   7.738 -0.2550 -0.6835  0.3656
 7029SOL    HW232550   3.751   1.310   7.738 -0.3273  0.0866  1.7870
 7030SOL     OW32551   1.065   2.622   1.771  0.6763 -0.7686 -0.6297
 7030SOL    HW132552   1.061   2.527   1.757 -0.1254 -0.8433  0.0993
 7030SOL    HW232553   1.032   2.627   1.861 -1.8345  2.7511 -1.7728
 7031SOL     OW32554   2.917   3.568  11.081  0.0237 -0.3705 -0.0377
 7031SOL    HW132555   3.009   3.542  11.071 -0.0407 -0.4929 -0.3176
 7031SOL    HW232556   2.925   3.628  11.155  4.3167  0.5701 -1.2745
 7032SOL     OW32557   4.516   1.043   6.197  1.2091 -0.1785  0.3784
 7032SOL    HW132558   4.492   1.093   6.275  0.6052  1.2452 -0.7269
 7032SOL    HW232559   4.573   0.982   6.243  0.4930 -1.9254 -1.0394
 7033SOL     OW32560   1.495   3.024   1.482  0.8407  0.0582  0.0463
 7033SOL    HW132561   1.415   3.015   1.430  0.7828 -0.7441  0.2686
 7033SOL    HW232562   1.558   3.062   1.421  0.0460  0.4146 -0.5525
 7034SOL     OW32563   3.653   3.736   7.949 -0.4974 -0.2101 -0.3535
 7034SOL    HW132564   3.749   3.729   7.953 -0.4004  1.7484  0.9668
 7034SOL    HW232565   3.646   3.647   7.916 -1.2198 -0.5607  0.7796
 7035SOL     OW32566   3.944   3.810   8.036  0.0602  0.2020  0.0834
 7035SOL    HW132567   3.970   3.831   7.946 -1.7731 -2.6262 -1.1110
 7035SOL    HW232568   4.004   3.740   8.061 -1.8008 -2.3446 -2.5524
 7036SOL     OW32569   0.116   4.664   8.819  0.4688 -0.2636 -0.2071
 7036SOL    HW132570   0.184   4.697   8.878 -0.6410  0.1334  0.8415
 7036SOL    HW232571   0.078   0.028   8.792  2.3603 -0.0462 -2.2056
 7037SOL     OW32572   2.672   3.708   9.404  0.5853  0.3129 -0.0522
 7037SOL    HW132573   2.675   3.620   9.368 -0.2373 -0.8981  2.8202
 7037SOL    HW232574   2.763   3.734   9.389  0.6557 -0.4970 -1.0140
 7038SOL     OW32575   2.718   4.472   2.472  0.2898 -0.3111  0.0224
 7038SOL    HW132576   2.718   4.452   2.565  0.7380 -0.9938 -0.1241
 7038SOL    HW232577   2.646   4.418   2.440 -0.7743  0.8457  0.4975
 7039SOL     OW32578   2.131   3.108   6.056 -0.0800 -0.3664  0.1165
 7039SOL    HW132579   2.101   3.128   5.967 -0.1727  0.3023  0.2981
 7039SOL    HW232580   2.131   3.012   6.058  2.0526 -0.3586 -0.1405
 7040SOL     OW32581   1.227   1.382   4.860 -0.4581  0.7706 -0.1393
 7040SOL    HW132582   1.259   1.399   4.948  0.1957  0.1610 -0.2615
 7040SOL    HW232583   1.163   1.449   4.837 -0.9635 -0.7448 -3.2142
 7041SOL     OW32584   4.438   0.158   7.293 -0.0217  0.5143 -0.2805
 7041SOL    HW132585   4.364   0.217   7.307 -0.5498 -0.2983  0.3243
 7041SOL    HW232586   4.446   0.165   7.198 -1.2536  1.4749 -0.3078
 7042SOL     OW32587   1.817   1.620   0.673  0.1081  0.5767 -0.5070
 7042SOL    HW132588   1.874   1.598   0.599  0.5990 -0.1649  0.0928
 7042SOL    HW232589   1.769   1.683   0.619 -1.0402 -0.5680 -0.8417
 7043SOL     OW32590   3.580   3.850  16.883 -0.3259  0.0297 -0.0446
 7043SOL    HW132591   3.669   3.866  16.915 -0.3638  1.7429 -0.7901
 7043SOL    HW232592   3.581   3.758  16.856 -0.0347  0.5690 -1.8955
 7044SOL     OW32593   1.756   4.275   4.120 -0.2769  0.3812 -0.9412
 7044SOL    HW132594   1.703   4.351   4.142 -0.9939  0.0624 -1.5888
 7044SOL    HW232595   1.843   4.314   4.133 -0.1866 -0.8477  2.3448
 7045SOL     OW32596   2.658   1.435  11.915 -0.0060  0.0047  0.0262
 7045SOL    HW132597   2.582   1.492  11.905  0.5518  1.0233  1.5985
 7045SOL    HW232598   2.622   1.354  11.878  0.9510  0.7207 -2.4521
 7046SOL     OW32599   1.019   3.715  14.698  0.2763 -0.5121  0.1610
 7046SOL    HW132600   1.079   3.761  14.639 -0.8788  2.3326  1.2185
 7046SOL    HW232601   1.039   3.755  14.782 -2.6050  0.5800  0.3153
 7047SOL     OW32602   1.988   0.162   7.604  0.0022  0.4133  0.2675
 7047SOL    HW132603   1.972   0.090   7.544 -0.3678  1.6555 -1.1193
 7047SOL    HW232604   1.996   0.231   7.538 -0.7440 -0.6576 -0.9407
 7048SOL     OW32605   0.483   0.393   1.648 -0.4545  0.6510 -0.6437
 7048SOL    HW132606   0.430   0.437   1.582 -0.0468  0.2321 -1.2549
 7048SOL    HW232607   0.571   0.397   1.609  0.3919 -1.3616  1.0626
 7049SOL     OW32608   0.374   3.321   2.990 -0.4986 -0.6154 -0.0600
 7049SOL    HW132609   0.411   3.266   3.059  2.0330  0.8890 -0.2064
 7049SOL    HW232610   0.292   3.346   3.031  0.2759 -0.4301  1.3767
 7050SOL     OW32611   3.993   2.330  12.222  0.2293 -0.1813 -0.7764
 7050SOL    HW132612   4.084   2.350  12.203  0.2034  0.5428 -0.1465
 7050SOL    HW232613   3.957   2.373  12.144  3.3746  1.3436 -1.3547
 7051SOL     OW32614   2.401   3.554  15.777  0.2366 -0.2442  0.2326
 7051SOL    HW132615   2.374   3.526  15.690  0.1957 -0.1387  0.2118
 7051SOL    HW232616   2.472   3.614  15.752 -0.9642  1.6288  1.2888
 7052SOL     OW32617   1.492   0.477   3.616 -0.2183  0.0391 -0.2792
 7052SOL    HW132618   1.422   0.526   3.573 -0.4570 -0.3596 -0.3419
 7052SOL    HW232619   1.525   0.546   3.673  1.0468 -1.3723  0.6695
 7053SOL     OW32620   0.034   2.091   7.884  0.5516 -0.6624 -0.0448
 7053SOL    HW132621   0.100   2.158   7.905 -1.2617  0.6048  1.5372
 7053SOL    HW232622   0.011   2.128   7.799  2.4657 -0.7553 -0.6079
 7054SOL     OW32623   2.106   1.266   7.848  0.2663  0.5072  0.2105
 7054SOL    HW132624   2.018   1.244   7.818  0.4137  1.0411 -0.6168
 7054SOL    HW232625   2.095   1.358   7.870  1.5546  0.3533  1.5108
 7055SOL     OW32626   3.996   0.743  13.362  0.2018  0.1197  0.3732
 7055SOL    HW132627   3.922   0.767  13.306 -0.5018 -0.8826  0.8735
 7055SOL    HW232628   4.027   0.831  13.383 -0.2848  0.4623 -0.3383
 7056SOL     OW32629   0.055   3.885  13.576  0.0253  0.1561 -0.8450
 7056SOL    HW132630   4.685   3.917  13.592  0.2374  0.6935 -0.7318
 7056SOL    HW232631   0.096   3.897  13.662 -1.2840  1.6237 -0.4287
 7057SOL     OW32632   3.136   2.562   2.945  0.0551  0.5035 -0.2955
 7057SOL    HW132633   3.143   2.560   2.850  0.1326 -1.1476 -0.2519
 7057SOL    HW232634   3.049   2.525   2.964  0.2004  0.5272  0.4223
 7058SOL     OW32635   0.837   2.190   4.046  0.1020 -0.0237  0.1364
 7058SOL    HW132636   0.766   2.182   3.982 -0.4174  0.4587  0.6438
 7058SOL    HW232637   0.905   2.196   3.980 -0.5625  3.2516 -0.2571
 7059SOL     OW32638   3.638   0.818   4.376 -0.1076  0.3366 -0.4580
 7059SOL    HW132639   3.582   0.790   4.448 -0.3160 -0.4465 -0.9290
 7059SOL    HW232640   3.695   0.742   4.366  0.1045  0.1929  1.9706
 7060SOL     OW32641   1.496   2.428  12.348  0.6563 -0.0821  0.5763
 7060SOL    HW132642   1.531   2.403  12.433 -0.2685  2.6107  1.7496
 7060SOL    HW232643   1.409   2.462  12.371  0.2208  0.6104 -2.0615
 7061SOL     OW32644   1.402   2.226  15.898 -0.2941  0.1991 -0.3408
 7061SOL    HW132645   1.384   2.291  15.966  0.2818 -1.1865  1.1559
 7061SOL    HW232646   1.479   2.266  15.857  0.9073 -0.0179  1.6946
 7062SOL     OW32647   1.205   2.320  13.219 -0.0190 -0.1467 -0.1016
 7062SOL    HW132648   1.124   2.292  13.260 -0.6979  1.9345 -0.0009
 7062SOL    HW232649   1.171   2.378  13.151  0.8637 -0.1559 -0.5583
 7063SOL     OW32650   2.011   3.142   5.816 -0.4973  0.4850 -0.2621
 7063SOL    HW132651   1.994   3.144   5.722 -1.5295 -1.1992 -0.1079
 7063SOL    HW232652   1.987   3.235   5.822 -0.4309  0.4833  0.0187
 7064SOL     OW32653   3.329   1.558   9.845  0.0194  0.0746  0.0396
 7064SOL    HW132654   3.344   1.614   9.921  1.6662  1.6197 -1.4288
 7064SOL    HW232655   3.316   1.472   9.885  1.7134 -0.3293 -0.3118
 7065SOL     OW32656   1.063   1.846   7.021  0.2924 -0.4676  0.3667
 7065SOL    HW132657   1.151   1.857   6.985 -0.6340 -0.0963 -1.7433
 7065SOL    HW232658   1.069   1.758   7.060  0.8215 -1.3907 -1.8238
 7066SOL     OW32659   3.229   3.499   5.384  0.0056 -0.0018 -0.7016
 7066SOL    HW132660   3.221   3.595   5.388 -0.8968 -0.0691 -0.8622
 7066SOL    HW232661   3.144   3.477   5.346 -0.1305  0.5348 -0.7172
 7067SOL     OW32662   0.641   3.309   3.470  0.1136  0.0283 -0.2837
 7067SOL    HW132663   0.660   3.358   3.550 -0.8195  0.9424 -0.6240
 7067SOL    HW232664   0.581   3.243   3.506 -1.8419  0.9320 -1.9437
 7068SOL     OW32665   1.862   3.757   2.632  0.0412  0.4047 -0.4905
 7068SOL    HW132666   1.928   3.710   2.581 -0.9760  1.0301 -2.3486
 7068SOL    HW232667   1.913   3.809   2.694 -1.3733 -0.4224  1.3650
 7069SOL     OW32668   2.756   3.273  12.795  0.0304  0.1223 -0.1860
 7069SOL    HW132669   2.799   3.271  12.710  2.1072  0.2066  0.8545
 7069SOL    HW232670   2.767   3.184  12.828 -1.5066  0.0231  0.0824
 7070SOL     OW32671   0.140   0.561  16.507 -0.4516 -0.5286 -0.1321
 7070SOL    HW132672   0.160   0.537  16.417  2.8971  0.3367  0.3596
 7070SOL    HW232673   0.194   0.640  16.509  0.2402 -0.9840 -0.7920
 7071SOL     OW32674   3.360   3.856   4.826 -0.4879 -0.1248 -0.5409
 7071SOL    HW132675   3.311   3.925   4.782 -0.6275  0.0652 -0.0892
 7071SOL    HW232676   3.425   3.907   4.874 -2.2947  0.4979  1.2198
 7072SOL     OW32677   1.264   1.961   4.460 -0.5859  0.0769 -0.2144
 7072SOL    HW132678   1.207   2.031   4.429 -1.1457  0.1122  0.8946
 7072SOL    HW232679   1.308   1.996   4.537 -1.0552 -2.0247  0.9816
 7073SOL     OW32680   1.355   3.929  14.216  0.3703  0.1588  0.3034
 7073SOL    HW132681   1.385   3.964  14.132 -0.0151  0.5135  0.3158
 7073SOL    HW232682   1.326   4.007  14.264 -1.0018 -1.2155  1.7161
 7074SOL     OW32683   4.565   0.383  15.146  0.4910  0.0702 -0.1390
 7074SOL    HW132684   4.601   0.409  15.061 -1.5001 -0.6099 -1.1940
 7074SOL    HW232685   4.631   0.406  15.211 -1.4259 -1.3858  2.3403
 7075SOL     OW32686   2.470   2.580   7.713  0.3981  0.8104 -0.4116
 7075SOL    HW132687   2.419   2.619   7.785  1.4303 -0.9029  1.2242
 7075SOL    HW232688   2.445   2.488   7.721  3.6608 -0.0577 -0.4728
 7076SOL     OW32689   3.762   0.939  12.311 -0.0833  0.2081 -0.4401
 7076SOL    HW132690   3.801   0.992  12.380 -2.5897  0.4048  0.8142
 7076SOL    HW232691   3.823   0.963  12.242  1.1521  0.6105  0.7947
 7077SOL     OW32692   1.329   0.394  10.056  0.1548  0.9356 -0.0044
 7077SOL    HW132693   1.377   0.342   9.991 -0.6005 -2.5599  2.2372
 7077SOL    HW232694   1.373   0.479  10.053  0.9351  0.4652 -2.0569
 7078SOL     OW32695   1.018   3.680   3.225 -0.5743  0.4146 -0.6639
 7078SOL    HW132696   0.952   3.705   3.289  0.6240  1.8749  0.0042
 7078SOL    HW232697   0.965   3.691   3.146  1.4483  0.0856 -2.0928
 7079SOL     OW32698   2.206   0.348  11.920 -0.3130 -0.0398 -0.4643
 7079SOL    HW132699   2.167   0.272  11.963  1.9848 -0.8407  0.2178
 7079SOL    HW232700   2.132   0.409  11.920  0.5655  1.0321 -2.4534
 7080SOL     OW32701   1.911   2.441   6.300  0.1390  0.1131  0.1558
 7080SOL    HW132702   1.912   2.396   6.384 -2.1810 -1.8729 -0.9012
 7080SOL    HW232703   1.908   2.531   6.332  2.4647 -0.2913  1.5661
 7081SOL     OW32704   1.240   2.378  12.532  0.1632  0.0815  0.0948
 7081SOL    HW132705   1.210   2.322  12.461  0.3862  0.1050 -0.0176
 7081SOL    HW232706   1.179   2.451  12.520 -0.1755 -0.4734 -1.4951
 7082SOL     OW32707   0.235   4.460   3.623 -0.0129  0.2491 -0.0336
 7082SOL    HW132708   0.274   4.425   3.703 -0.7165 -0.8843 -0.1872
 7082SOL    HW232709   0.255   4.386   3.566  1.9651 -0.3484  1.4325
 7083SOL     OW32710   3.834   0.077  12.485 -0.3894 -0.2541 -0.9432
 7083SOL    HW132711   3.890   4.719  12.490 -0.2713  0.0064  1.5859
 7083SOL    HW232712   3.894   0.150  12.504  0.6020 -1.1099 -0.7817
 7084SOL     OW32713   2.374   1.124   0.481 -0.4104  0.4162  0.4892
 7084SOL    HW132714   2.392   1.060   0.412  1.6345  1.9900 -0.4071
 7084SOL    HW232715   2.388   1.076   0.563 -1.9060 -2.3449 -0.8673
 7085SOL     OW32716   2.617   0.818   3.191  0.0568  0.1124  0.1541
 7085SOL    HW132717   2.671   0.897   3.183  0.0128  0.2435  1.1768
 7085SOL    HW232718   2.633   0.776   3.276 -0.8647 -2.4868 -0.9532
 7086SOL     OW32719   3.612   0.723  12.274 -0.6013  0.1076 -0.0766
 7086SOL    HW132720   3.663   0.796  12.309  3.7984 -2.1371 -1.7955
 7086SOL    HW232721   3.634   0.732  12.181 -1.8122  1.2300 -0.2680
 7087SOL     OW32722   3.479   3.227   1.989  0.1799 -0.5262 -0.0330
 7087SOL    HW132723   3.482   3.179   1.906 -2.3230 -0.0994 -0.3650
 7087SOL    HW232724   3.564   3.198   2.024  1.6252  1.6890 -1.7252
 7088SOL     OW32725   1.836   2.413   0.192 -0.0241 -0.6392 -0.0869
 7088SOL    HW132726   1.878   2.328   0.208 -0.7609 -0.9058  0.4262
 7088SOL    HW232727   1.747   2.379   0.185  0.2744 -1.3649 -0.3733
 7089SOL     OW32728   3.988   1.423   1.102 -0.2329  0.1612 -0.0210
 7089SOL    HW132729   4.006   1.428   1.196  1.5189  1.2832 -0.4056
 7089SOL    HW232730   3.957   1.511   1.079  0.0683 -0.3816 -2.5654
 7090SOL     OW32731   2.911   4.439   3.595  0.2210 -0.6564  0.4098
 7090SOL    HW132732   2.982   4.413   3.537 -0.2586  0.4745 -0.6937
 7090SOL    HW232733   2.868   4.355   3.609  0.5634 -0.9629 -0.3927
 7091SOL     OW32734   0.588   3.969   1.406  0.1885 -0.1945 -0.2510
 7091SOL    HW132735   0.597   4.054   1.450 -0.5821 -1.5713  2.5690
 7091SOL    HW232736   0.571   3.903   1.473  0.7566 -0.1753 -0.0865
 7092SOL     OW32737   1.790   3.474   9.075 -0.0205 -0.3139 -0.1170
 7092SOL    HW132738   1.814   3.383   9.097 -2.4774 -1.0159 -0.3751
 7092SOL    HW232739   1.726   3.493   9.143 -0.8436 -1.1734 -0.6491
 7093SOL     OW32740   0.495   2.766   5.594  0.1588 -0.6987  0.2638
 7093SOL    HW132741   0.530   2.677   5.590 -1.9737 -1.4862 -1.0642
 7093SOL    HW232742   0.403   2.740   5.590  0.4418 -1.7270  0.5127
 7094SOL     OW32743   1.536   0.510   5.298 -0.0593 -0.0401 -0.1315
 7094SOL    HW132744   1.533   0.467   5.383  0.6432  1.3628  0.6110
 7094SOL    HW232745   1.600   0.577   5.324 -0.7581  0.6587 -0.2307
 7095SOL     OW32746   2.162   2.092   5.766 -0.4600 -0.4194  0.8214
 7095SOL    HW132747   2.209   2.015   5.798  0.6054 -1.5614 -3.4602
 7095SOL    HW232748   2.072   2.069   5.790 -0.4844  0.0086  1.1472
 7096SOL     OW32749   3.544   0.983  11.773 -0.6196 -0.0194  0.4057
 7096SOL    HW132750   3.602   1.027  11.834  1.3671 -1.6868 -0.2712
 7096SOL    HW232751   3.563   1.028  11.690  1.5893 -0.1854  0.8395
 7097SOL     OW32752   1.189   0.844   8.874  0.1696 -0.5113 -0.5106
 7097SOL    HW132753   1.123   0.881   8.932  0.3744 -0.7811 -0.1084
 7097SOL    HW232754   1.186   0.920   8.816  1.2017 -0.2683 -0.2493
 7098SOL     OW32755   2.507   4.672   5.040  0.6554  0.4483 -0.9050
 7098SOL    HW132756   2.596   4.652   5.069 -0.2344 -0.6539  1.1086
 7098SOL    HW232757   2.519   4.675   4.945 -0.9375 -4.3934 -1.2491
 7099SOL     OW32758   1.119   4.387   7.956 -0.2293 -0.6681 -0.8263
 7099SOL    HW132759   1.172   4.465   7.974  0.0853 -0.9445 -0.5468
 7099SOL    HW232760   1.178   4.320   7.992  2.1230 -0.2422 -3.9498
 7100SOL     OW32761   2.716   1.264   7.311 -0.6311 -0.3018 -0.0077
 7100SOL    HW132762   2.779   1.267   7.384 -0.0596 -0.2934 -0.4984
 7100SOL    HW232763   2.771   1.223   7.244  0.4012  0.8994  0.0946
 7101SOL     OW32764   1.908   0.372  14.956  0.2325 -0.3727  0.1283
 7101SOL    HW132765   1.902   0.399  15.048  1.0223 -1.6901  0.5768
 7101SOL    HW232766   1.822   0.382  14.915  0.9229  1.5692 -0.8587
 7102SOL     OW32767   3.335   3.977   2.117 -0.4115  0.1512 -0.2205
 7102SOL    HW132768   3.239   3.985   2.120 -0.5757 -1.4177 -1.4366
 7102SOL    HW232769   3.338   3.885   2.145 -0.4647  0.4085  0.6401
 7103SOL     OW32770   3.489   0.290   8.314 -0.0851 -0.0446  0.0929
 7103SOL    HW132771   3.519   0.373   8.277 -0.2962 -1.2867 -2.9459
 7103SOL    HW232772   3.567   0.282   8.369  0.1986 -0.0990 -0.3127
 7104SOL     OW32773   3.422   0.310  16.442 -0.5831 -0.2797  0.5197
 7104SOL    HW132774   3.441   0.280  16.531  3.8487  0.6924 -0.0922
 7104SOL    HW232775   3.386   0.227  16.410 -1.6224 -0.1497  1.3293
 7105SOL     OW32776   0.965   2.055  16.250 -0.5356  0.1560 -0.1849
 7105SOL    HW132777   1.021   2.008  16.188 -0.9383 -2.3033  1.3006
 7105SOL    HW232778   0.914   2.106  16.187 -1.9813 -3.0383 -1.5929
 7106SOL     OW32779   4.708   1.574   6.544  0.7937  0.0783  0.2121
 7106SOL    HW132780   0.048   1.502   6.522  0.3897  0.7358 -2.9611
 7106SOL    HW232781   0.045   1.649   6.560 -1.4476  1.9652 -0.8017
 7107SOL     OW32782   0.280   2.695  16.361 -0.9230 -0.3919 -0.4897
 7107SOL    HW132783   0.224   2.766  16.394  0.0483 -0.5940  1.5535
 7107SOL    HW232784   0.257   2.702  16.268 -4.0556 -0.6977  0.2580
 7108SOL     OW32785   2.908   2.622  13.006  0.0792  0.0786 -0.3173
 7108SOL    HW132786   2.982   2.638  13.064 -0.9479 -0.1486  1.0479
 7108SOL    HW232787   2.888   2.531  13.028 -2.0896  0.2668 -1.5161
 7109SOL     OW32788   3.270   1.158   1.288  0.7152 -0.3074 -0.1865
 7109SOL    HW132789   3.265   1.121   1.200  2.3863 -0.1083 -0.3596
 7109SOL    HW232790   3.334   1.098   1.326  0.9930  2.8274  4.3034
 7110SOL     OW32791   2.293   2.774   6.324 -0.1449  0.3826 -0.4789
 7110SOL    HW132792   2.348   2.783   6.247 -1.1278 -1.7530 -1.4208
 7110SOL    HW232793   2.326   2.692   6.361  1.1596  1.0391 -0.1767
 7111SOL     OW32794   1.093   0.391   8.250  0.2717 -0.0905  0.1695
 7111SOL    HW132795   1.162   0.416   8.188  0.1898 -0.0002  0.1159
 7111SOL    HW232796   1.032   0.332   8.205  1.7006 -0.8789 -0.7530
 7112SOL     OW32797   4.432   2.705   4.098 -0.0145  0.2116  0.1175
 7112SOL    HW132798   4.462   2.614   4.103  0.3289  0.4802  3.4013
 7112SOL    HW232799   4.357   2.699   4.158  0.3426  1.5125  0.7059
 7113SOL     OW32800   3.091   4.545  11.758 -0.6403  0.3284 -0.1594
 7113SOL    HW132801   3.050   4.526  11.843 -0.6116 -2.1584 -0.6939
 7113SOL    HW232802   3.184   4.525  11.769 -0.3248  1.9847  0.2085
 7114SOL     OW32803   1.291   2.189   2.999  0.2104 -0.3562  0.1957
 7114SOL    HW132804   1.352   2.134   2.950  0.1663 -0.0363 -0.2164
 7114SOL    HW232805   1.208   2.169   2.955  0.8121 -0.5177 -0.8686
 7115SOL     OW32806   2.667   4.342  16.295  0.4614  0.0632 -0.1719
 7115SOL    HW132807   2.645   4.424  16.338 -2.2224 -1.3482  1.1539
 7115SOL    HW232808   2.729   4.380  16.233 -0.7722  0.1488 -1.3373
 7116SOL     OW32809   2.489   4.052   5.646  0.1867 -0.0568  0.4013
 7116SOL    HW132810   2.407   4.057   5.597 -0.0706 -4.4066  0.4205
 7116SOL    HW232811   2.520   4.143   5.638  0.1760 -0.0707  0.2153
 7117SOL     OW32812   0.798   2.265   1.733  0.2440  0.0735 -0.0649
 7117SOL    HW132813   0.733   2.209   1.689  0.4870  0.7153 -1.2386
 7117SOL    HW232814   0.865   2.203   1.760  0.8087  1.3901  1.5787
 7118SOL     OW32815   1.239   2.271   5.896  0.3351  0.5948 -0.3456
 7118SOL    HW132816   1.315   2.256   5.841  1.1200 -0.7894  1.1272
 7118SOL    HW232817   1.190   2.340   5.852 -0.1292  0.0278 -0.7180
 7119SOL     OW32818   4.220   2.086   1.356 -0.6011  0.0713 -0.3882
 7119SOL    HW132819   4.208   2.078   1.261 -2.1085 -0.2731 -0.1730
 7119SOL    HW232820   4.271   2.007   1.374  0.9497  1.3605  0.8306
 7120SOL     OW32821   1.085   3.244   8.880 -0.4948  0.2629 -0.0039
 7120SOL    HW132822   1.000   3.229   8.921  0.3988 -1.8081  1.0985
 7120SOL    HW232823   1.067   3.256   8.787 -1.1455  0.5899  0.1607
 7121SOL     OW32824   2.650   0.934  11.505  0.2400 -0.1940 -0.6421
 7121SOL    HW132825   2.588   0.931  11.578  3.1556  0.9735  1.8526
 7121SOL    HW232826   2.695   0.851  11.524 -0.1817 -0.6765 -1.7439
 7122SOL     OW32827   2.189   1.906   4.865 -0.0843  0.2001  0.3452
 7122SOL    HW132828   2.224   1.819   4.844  2.6405  1.4180 -0.1157
 7122SOL    HW232829   2.139   1.917   4.784 -1.0756 -1.6239  0.7070
 7123SOL     OW32830   1.148   1.265   2.915 -0.9647  0.1703 -0.2123
 7123SOL    HW132831   1.089   1.214   2.971 -2.0494 -0.0587 -1.5590
 7123SOL    HW232832   1.085   1.306   2.856  0.1040 -0.8436 -2.0352
 7124SOL     OW32833   4.335   0.017   8.490  0.2186  0.1259 -0.0395
 7124SOL    HW132834   4.373   0.033   8.577  1.1343 -2.1282 -0.0253
 7124SOL    HW232835   4.398   4.682   8.443 -1.6974 -3.2751  1.3828
 7125SOL     OW32836   4.653   4.637   7.402  0.2945 -0.4316 -0.2428
 7125SOL    HW132837   4.694   4.555   7.374  1.6760  0.2386 -0.1915
 7125SOL    HW232838   4.590   4.653   7.332  1.5467 -1.8682 -1.6879
 7126SOL     OW32839   1.161   4.000   0.223 -0.3968  0.1927  0.0476
 7126SOL    HW132840   1.177   4.067   0.290 -0.5815  0.6749 -0.3911
 7126SOL    HW232841   1.218   4.025   0.150  1.8173 -1.5154  1.1992
 7127SOL     OW32842   1.377   3.085   8.567  0.5299  0.1524 -0.1645
 7127SOL    HW132843   1.390   3.069   8.661 -3.1075 -0.1267  0.2833
 7127SOL    HW232844   1.449   3.145   8.546  0.1779  0.5992 -0.1052
 7128SOL     OW32845   0.081   2.979  16.855  0.1323 -0.4057  0.0912
 7128SOL    HW132846   0.048   3.027  16.931  2.0716 -2.4728  2.2219
 7128SOL    HW232847   0.175   2.967  16.868  0.3028  2.3875  1.5099
 7129SOL     OW32848   2.444   1.620   5.410 -0.2886  0.2725 -0.5055
 7129SOL    HW132849   2.414   1.655   5.494 -0.7392  1.6477 -1.2461
 7129SOL    HW232850   2.433   1.526   5.425 -2.7053  0.7342  0.5536
 7130SOL     OW32851   2.676   1.567   4.441  0.1920  0.0843 -0.1130
 7130SOL    HW132852   2.726   1.647   4.424  2.6097 -1.1017  1.4039
 7130SOL    HW232853   2.638   1.596   4.524  0.7881 -0.6276  0.4047
 7131SOL     OW32854   1.726   2.354  11.644  1.2188  0.0148  0.2645
 7131SOL    HW132855   1.691   2.374  11.731  1.7282  0.1059  0.4504
 7131SOL    HW232856   1.820   2.340  11.658  1.4493  0.8340 -0.4976
 7132SOL     OW32857   3.641   1.036   4.632  0.1663  0.5334  0.5519
 7132SOL    HW132858   3.693   1.094   4.688 -0.8297  2.4805 -0.5163
 7132SOL    HW232859   3.608   0.974   4.697 -0.1354  0.8991  0.7484
 7133SOL     OW32860   4.447   1.932   3.263  0.0998  0.0438 -0.2989
 7133SOL    HW132861   4.533   1.943   3.222  0.3402 -3.5729 -0.8103
 7133SOL    HW232862   4.391   1.962   3.192  3.0117 -0.2022 -2.7137
 7134SOL     OW32863   2.850   2.197   6.675  0.4140 -0.7159  0.1638
 7134SOL    HW132864   2.852   2.284   6.635 -1.9657  0.0461  1.6737
 7134SOL    HW232865   2.849   2.152   6.590  0.2791  1.8149 -1.1669
 7135SOL     OW32866   3.547   3.049   5.590  0.7235  0.0192 -0.2841
 7135SOL    HW132867   3.544   2.955   5.605  1.8052  0.0412  0.0772
 7135SOL    HW232868   3.537   3.045   5.495 -0.5336 -0.6828 -0.1115
 7136SOL     OW32869   0.808   1.419   8.022  0.3754 -0.7824  0.0368
 7136SOL    HW132870   0.875   1.362   7.987 -0.1821 -2.3680  1.5516
 7136SOL    HW232871   0.857   1.490   8.064 -1.6159  0.1281  0.8183
 7137SOL     OW32872   0.575   2.560  15.195 -0.1600 -0.0832  0.5896
 7137SOL    HW132873   0.638   2.629  15.219  1.3388 -1.4950  0.6976
 7137SOL    HW232874   0.612   2.476  15.222 -1.9059 -0.8467  0.5865
 7138SOL     OW32875   1.451   4.305   3.877 -0.4543 -0.2595 -0.2499
 7138SOL    HW132876   1.416   4.357   3.805  3.0165  2.0950 -0.2803
 7138SOL    HW232877   1.524   4.259   3.835  0.0618 -0.4417  0.8560
 7139SOL     OW32878   3.373   4.163  12.891  0.4120  0.1880 -0.1337
 7139SOL    HW132879   3.395   4.208  12.809 -1.9684  0.2779 -0.7204
 7139SOL    HW232880   3.428   4.085  12.884  2.6705  1.9347 -1.7914
 7140SOL     OW32881   0.289   0.025   1.336 -0.4699 -0.0403  0.2338
 7140SOL    HW132882   0.275   0.033   1.431  1.0826 -2.8837  0.6726
 7140SOL    HW232883   0.347   0.100   1.321 -0.3694 -0.0470  0.5946
 7141SOL     OW32884   4.668   2.605   8.164 -0.3455  0.1103  0.6505
 7141SOL    HW132885   4.577   2.576   8.165 -0.4003  0.2897  0.8529
 7141SOL    HW232886   4.679   2.644   8.251 -1.3104 -0.5973  1.0890
 7142SOL     OW32887   0.865   0.689   7.661 -0.1741 -0.0671 -0.2322
 7142SOL    HW132888   0.858   0.645   7.577  0.6134  1.1104 -0.9263
 7142SOL    HW232889   0.782   0.669   7.703  0.6164  0.4769  1.6118
 7143SOL     OW32890   0.727   3.682   2.184  0.4719  0.2125 -0.3595
 7143SOL    HW132891   0.773   3.648   2.261 -1.3375  0.1056  0.6726
 7143SOL    HW232892   0.791   3.736   2.137 -0.4717  2.1284  0.5323
 7144SOL     OW32893   3.938   0.999   3.903  0.8641 -0.2663  0.2493
 7144SOL    HW132894   3.923   0.997   3.997  0.9472  0.3194  0.2778
 7144SOL    HW232895   3.987   1.082   3.899  0.6590 -0.0461  2.2518
 7145SOL     OW32896   3.033   4.333   7.832 -0.0878  0.0876  0.0920
 7145SOL    HW132897   3.034   4.283   7.913 -0.0782  0.9362  0.6225
 7145SOL    HW232898   2.945   4.369   7.842  1.1293  2.3092  2.9696
 7146SOL     OW32899   1.307   2.600   1.939 -0.2995 -0.1877  0.5379
 7146SOL    HW132900   1.320   2.523   1.995 -0.9029 -1.2708 -0.8409
 7146SOL    HW232901   1.281   2.670   1.999  0.1933  1.3123 -1.0279
 7147SOL     OW32902   0.829   3.960   7.567  0.2031 -0.1726  0.4258
 7147SOL    HW132903   0.900   4.001   7.519 -1.0003  1.0090 -0.3351
 7147SOL    HW232904   0.875   3.918   7.639  2.1386  0.2602 -0.5676
 7148SOL     OW32905   3.356   4.534   2.361 -0.1129 -0.5965  0.0964
 7148SOL    HW132906   3.388   4.545   2.271  2.0363 -1.7382  0.7167
 7148SOL    HW232907   3.277   4.481   2.348 -0.5823 -0.6629  3.2060
 7149SOL     OW32908   0.224   2.660   5.572  0.2870  0.4749  0.3469
 7149SOL    HW132909   0.204   2.588   5.512  3.9148 -1.9152  2.0225
 7149SOL    HW232910   0.211   2.614   5.655 -1.4514 -2.5447 -1.5589
 7150SOL     OW32911   3.470   1.436  16.594  0.4181 -0.7585  0.5718
 7150SOL    HW132912   3.453   1.394  16.679  1.0566  2.2772  2.2254
 7150SOL    HW232913   3.538   1.383  16.553  3.1424  0.7039  3.2004
 7151SOL     OW32914   3.975   3.448   2.466  0.1307 -0.4998 -0.2001
 7151SOL    HW132915   4.025   3.376   2.426 -1.8122 -1.1699 -1.3910
 7151SOL    HW232916   3.930   3.390   2.527  1.3285 -0.2431  0.9401
 7152SOL     OW32917   1.066   4.092   4.922 -0.0903  0.3402 -0.0979
 7152SOL    HW132918   1.090   4.035   4.849 -0.1140  0.5970 -0.3065
 7152SOL    HW232919   1.143   4.086   4.977  1.5864 -1.1614 -2.5831
 7153SOL     OW32920   2.478   0.095   7.196  0.2880  0.5976 -0.0120
 7153SOL    HW132921   2.403   0.045   7.230  0.8394  0.0742  0.4522
 7153SOL    HW232922   2.544   0.025   7.189 -0.0985  0.1299  1.0432
 7154SOL     OW32923   3.456   0.153   2.020  0.1936  0.1608 -0.2050
 7154SOL    HW132924   3.535   0.168   2.072  2.0079 -1.6833 -2.4009
 7154SOL    HW232925   3.435   0.066   2.055 -0.9691  0.0973 -1.0613
 7155SOL     OW32926   4.406   0.355  15.705  0.8832  0.3990 -0.1421
 7155SOL    HW132927   4.332   0.374  15.647  0.1800  2.0625  1.2960
 7155SOL    HW232928   4.468   0.399  15.648  2.4017 -0.7360  0.6335
 7156SOL     OW32929   1.007   3.483   2.461  0.2388  0.7703 -0.0453
 7156SOL    HW132930   0.926   3.487   2.511 -0.7686 -0.0023 -1.6252
 7156SOL    HW232931   0.972   3.453   2.377  0.7883 -1.1243  0.3959
 7157SOL     OW32932   0.719   2.292   6.631 -0.2791 -0.4515  0.1418
 7157SOL    HW132933   0.683   2.380   6.620 -0.4051 -0.8317 -2.3793
 7157SOL    HW232934   0.761   2.312   6.715 -1.3729  2.0508  0.1004
 7158SOL     OW32935   3.279   3.528   6.951  0.2120 -0.6673 -0.5075
 7158SOL    HW132936   3.244   3.511   6.864 -1.3126 -1.2538  0.2222
 7158SOL    HW232937   3.355   3.471   6.942  0.5094 -0.0524 -1.8007
 7159SOL     OW32938   3.885   4.272   3.060  0.7952  0.4696 -0.0591
 7159SOL    HW132939   3.816   4.223   3.107  0.0197  0.9159 -0.7382
 7159SOL    HW232940   3.851   4.270   2.971 -0.5107 -0.4025  0.4462
 7160SOL     OW32941   3.772   1.995   4.867  0.0040  0.0172  0.2063
 7160SOL    HW132942   3.681   1.999   4.896 -0.2346 -0.1205 -0.5261
 7160SOL    HW232943   3.759   2.001   4.772  0.2420 -0.9154  0.1241
 7161SOL     OW32944   3.957   1.792   8.242 -0.2334  0.1409  0.8541
 7161SOL    HW132945   3.897   1.863   8.223 -0.8096 -0.6920 -0.4109
 7161SOL    HW232946   3.900   1.726   8.281 -0.0389  1.1539  2.8877
 7162SOL     OW32947   2.420   0.742   6.900  0.1103 -0.0950 -1.0891
 7162SOL    HW132948   2.423   0.724   6.806 -3.0119 -0.9731 -1.0280
 7162SOL    HW232949   2.512   0.725   6.920 -0.2147 -1.4384 -0.7027
 7163SOL     OW32950   3.862   2.846  13.402 -0.5469  0.4596  0.1647
 7163SOL    HW132951   3.869   2.861  13.497  2.8306 -0.4769  0.0516
 7163SOL    HW232952   3.767   2.848  13.394 -0.4531 -2.0153 -1.3286
 7164SOL     OW32953   2.730   3.198   8.876 -0.4454  0.2409 -0.7354
 7164SOL    HW132954   2.743   3.107   8.905 -1.3774  0.5101  0.5246
 7164SOL    HW232955   2.751   3.247   8.956 -1.2379  0.8030 -0.8748
 7165SOL     OW32956   1.118   1.512  13.769  0.2708  0.5266 -0.3140
 7165SOL    HW132957   1.156   1.528  13.856 -1.4655  1.7320  0.2174
 7165SOL    HW232958   1.093   1.420  13.766 -1.8616  1.1692 -2.1044
 7166SOL     OW32959   0.005   2.799   3.128  0.2889 -0.1169 -0.5248
 7166SOL    HW132960   0.077   2.760   3.178  0.6268  0.8970 -0.2175
 7166SOL    HW232961   4.660   2.803   3.198 -0.1169 -2.6902 -0.7746
 7167SOL     OW32962   3.345   1.369  16.861 -0.3127  0.4739  0.3990
 7167SOL    HW132963   3.360   1.461  16.881 -0.8086  0.9424 -1.3843
 7167SOL    HW232964   3.255   1.352  16.888  0.0194 -1.0544  0.5865
 7168SOL     OW32965   1.009   4.677   6.783  0.3494 -0.2513 -0.5217
 7168SOL    HW132966   1.007   0.053   6.789 -0.6194 -0.3760  1.3138
 7168SOL    HW232967   0.985   4.649   6.871 -1.2231 -0.2720 -0.9613
 7169SOL     OW32968   3.785   3.775   7.440 -0.0980  0.2027 -0.3325
 7169SOL    HW132969   3.788   3.764   7.345  1.6193 -0.0803 -0.2577
 7169SOL    HW232970   3.709   3.833   7.446 -0.3028 -0.2311  1.2685
 7170SOL     OW32971   4.224   3.281   4.686  0.7285  0.5139  0.1664
 7170SOL    HW132972   4.306   3.262   4.640  0.8762  1.4973  0.0103
 7170SOL    HW232973   4.224   3.376   4.676 -0.5389  0.2868 -1.9066
 7171SOL     OW32974   1.608   0.676   0.173 -0.3983 -0.2326  0.3576
 7171SOL    HW132975   1.611   0.716   0.260  1.6867  1.0536 -0.2979
 7171SOL    HW232976   1.674   0.607   0.183  0.9324  0.6873 -2.2119
 7172SOL     OW32977   1.667   2.573   6.231 -0.0064  0.4550  0.0870
 7172SOL    HW132978   1.748   2.543   6.191  0.0619  1.9473 -0.9002
 7172SOL    HW232979   1.624   2.607   6.152  1.6771 -0.0596 -1.0412
 7173SOL     OW32980   2.927   0.400   4.162 -0.5262 -0.1654  0.2271
 7173SOL    HW132981   3.019   0.398   4.136 -0.1772 -0.7241  1.5177
 7173SOL    HW232982   2.920   0.312   4.200  0.2924 -0.7572 -0.9854
 7174SOL     OW32983   0.156   3.567   2.147 -0.2033 -0.3752 -0.4722
 7174SOL    HW132984   0.184   3.479   2.169  0.4634  0.6112  2.5935
 7174SOL    HW232985   0.227   3.624   2.178 -2.1639  1.0412  1.4672
 7175SOL     OW32986   0.831   0.014   7.535 -0.3663 -0.4017 -0.0577
 7175SOL    HW132987   0.886   0.090   7.522  0.7758 -1.0560  0.9734
 7175SOL    HW232988   0.745   0.056   7.524  0.4709  1.2435 -0.2192
 7176SOL     OW32989   1.172   1.213  16.625 -0.6453 -0.1777 -0.4363
 7176SOL    HW132990   1.245   1.255  16.671  1.8766 -3.3662 -1.6240
 7176SOL    HW232991   1.125   1.187  16.704  1.1145  1.4733  1.1593
 7177SOL     OW32992   0.603   0.706   4.226 -0.3681 -0.4098  0.1801
 7177SOL    HW132993   0.619   0.708   4.320  1.3655 -0.7497 -0.0918
 7177SOL    HW232994   0.670   0.771   4.204  0.1259 -1.3447 -1.1113
 7178SOL     OW32995   0.916   0.604   5.534 -0.0223  0.4096 -0.2407
 7178SOL    HW132996   0.873   0.686   5.510  1.9256  2.1677  2.3164
 7178SOL    HW232997   0.976   0.599   5.460  0.5664 -0.0202  0.2716
 7179SOL     OW32998   3.244   3.628   3.870  0.0891  0.3960  0.1602
 7179SOL    HW132999   3.237   3.717   3.905 -1.2151  0.9534 -1.5086
 7179SOL    HW233000   3.277   3.582   3.947 -2.1557  0.2934  1.0471
 7180SOL     OW33001   3.586   1.060   6.044 -0.3848 -0.2975 -0.3679
 7180SOL    HW133002   3.603   1.144   6.001 -1.2134  0.2638  0.4013
 7180SOL    HW233003   3.650   1.073   6.115  0.7339  0.4778 -1.5215
 7181SOL     OW33004   3.561   0.470   3.988 -0.8115  0.2329 -0.0699
 7181SOL    HW133005   3.608   0.475   3.905 -1.9670 -0.5849 -0.7907
 7181SOL    HW233006   3.558   0.374   3.993  2.4044  0.1138 -0.5793
 7182SOL     OW33007   1.446   1.731   8.670 -0.1371 -0.3019 -0.0269
 7182SOL    HW133008   1.459   1.690   8.585 -0.6085  1.8794 -1.1478
 7182SOL    HW233009   1.458   1.655   8.727 -0.8567 -0.2662  0.1754
 7183SOL     OW33010   0.337   0.353   5.204  0.6201  0.2814  0.4068
 7183SOL    HW133011   0.364   0.409   5.131  0.5478  1.1411  1.0329
 7183SOL    HW233012   0.374   0.399   5.279 -0.9529  0.7560  0.9121
 7184SOL     OW33013   0.704   3.419   3.718 -0.1967 -0.0808  0.2764
 7184SOL    HW133014   0.798   3.420   3.731  0.0454  0.4504 -1.6039
 7184SOL    HW233015   0.685   3.513   3.719  0.1717  0.0101 -1.3720
 7185SOL     OW33016   3.355   1.344   5.917 -0.2075  0.7034  0.4817
 7185SOL    HW133017   3.264   1.371   5.909 -0.2007  0.5270 -0.1801
 7185SOL    HW233018   3.385   1.400   5.989 -0.1762  0.6651  0.4989
 7186SOL     OW33019   1.192   0.823  13.146  0.2736  0.5094  0.1121
 7186SOL    HW133020   1.256   0.825  13.075  0.5195  0.6087  0.3390
 7186SOL    HW233021   1.183   0.916  13.166 -1.6579 -0.1019  2.0674
 7187SOL     OW33022   3.019   3.895   0.277 -0.3154 -0.6039  0.5474
 7187SOL    HW133023   2.939   3.873   0.325 -0.2186  1.0315  1.4505
 7187SOL    HW233024   2.985   3.964   0.221  1.1214 -0.1665  0.2165
 7188SOL     OW33025   0.144   0.049  15.540  0.4946  0.4430  0.4634
 7188SOL    HW133026   0.191   4.708  15.597 -1.4213  0.3422  1.9540
 7188SOL    HW233027   0.133   4.709  15.466 -1.1913  0.6430  0.5329
 7189SOL     OW33028   0.800   1.366   3.907  0.1030 -0.4373  0.4099
 7189SOL    HW133029   0.859   1.433   3.942 -0.7524 -0.0412  1.0792
 7189SOL    HW233030   0.860   1.302   3.868  0.8308  0.3555  0.2236
 7190SOL     OW33031   3.663   1.202   5.334 -0.2435 -0.6004 -0.2058
 7190SOL    HW133032   3.591   1.250   5.375  0.9758  0.9012  0.1632
 7190SOL    HW233033   3.620   1.124   5.298  0.5613 -1.2311  0.1943
 7191SOL     OW33034   1.546   4.032   6.516  0.2485  0.0251 -0.1743
 7191SOL    HW133035   1.456   4.004   6.536  0.6828 -0.0635  1.6682
 7191SOL    HW233036   1.589   3.949   6.535  1.4063  0.6274 -0.1659
 7192SOL     OW33037   1.325   2.473   6.953  0.1015 -0.2303 -0.0433
 7192SOL    HW133038   1.310   2.384   6.921  0.3589 -1.3849  3.0167
 7192SOL    HW233039   1.236   2.486   6.987 -0.5378 -0.5290 -1.6086
 7193SOL     OW33040   1.557   4.231   8.129 -0.3507  0.1393 -0.1068
 7193SOL    HW133041   1.538   4.315   8.087  0.0319  0.4921  0.4302
 7193SOL    HW233042   1.645   4.246   8.161 -0.6621  0.2012  0.7117
 7194SOL     OW33043   3.502   2.143   9.600  0.1566  0.3755 -0.8850
 7194SOL    HW133044   3.507   2.110   9.510  0.4670  0.4886 -0.9080
 7194SOL    HW233045   3.502   2.235   9.576  0.1076  0.8116  0.7735
 7195SOL     OW33046   0.339   3.105   6.728 -0.2158  0.1347  0.4575
 7195SOL    HW133047   0.273   3.083   6.793 -2.4675 -1.5575 -2.4609
 7195SOL    HW233048   0.290   3.093   6.647  3.4629  0.3164 -1.8181
 7196SOL     OW33049   0.159   3.889  12.882 -0.0270  0.1719  0.4913
 7196SOL    HW133050   0.194   3.805  12.853  0.0421  0.4191 -0.1246
 7196SOL    HW233051   0.156   3.871  12.976 -0.2733 -0.8682  0.2894
 7197SOL     OW33052   2.019   1.298   4.170  0.1970 -0.4452  0.0520
 7197SOL    HW133053   2.023   1.256   4.084  0.6126  1.1279 -0.7071
 7197SOL    HW233054   1.930   1.273   4.196  0.3933 -0.2644  0.8835
 7198SOL     OW33055   4.438   3.545  14.101 -0.1474 -0.1122  0.3816
 7198SOL    HW133056   4.435   3.497  14.184  0.8115 -1.1497 -0.1696
 7198SOL    HW233057   4.354   3.590  14.096 -0.6803 -1.3000 -1.1666
 7199SOL     OW33058   2.959   4.491   5.249  0.3024  0.5725  0.3707
 7199SOL    HW133059   2.949   4.493   5.154  1.0039  0.5459  0.2940
 7199SOL    HW233060   3.053   4.481   5.265  0.4067  2.0583  0.7475
 7200SOL     OW33061   1.411   3.203   9.111  0.1765 -0.1258  0.3331
 7200SOL    HW133062   1.460   3.150   9.174  0.5852 -0.5509 -0.3488
 7200SOL    HW233063   1.357   3.254   9.171  2.2523  1.8504  0.5058
 7201SOL     OW33064   4.534   3.983   6.822 -0.3323  0.0959 -0.3425
 7201SOL    HW133065   4.594   3.972   6.896 -1.5934  1.0347  0.8059
 7201SOL    HW233066   4.462   3.925   6.849 -0.4263  0.9024  1.1406
 7202SOL     OW33067   4.489   0.532   7.481 -0.1646 -0.0302  0.4836
 7202SOL    HW133068   4.492   0.539   7.385  2.2117 -0.5764  0.5193
 7202SOL    HW233069   4.431   0.604   7.507  1.3903  1.4036 -0.0096
 7203SOL     OW33070   1.148   0.256   3.536 -0.2079 -0.8404 -0.4252
 7203SOL    HW133071   1.231   0.232   3.576 -0.1148 -1.6440 -1.1049
 7203SOL    HW233072   1.170   0.266   3.443  0.1238  3.5506  0.1269
 7204SOL     OW33073   4.718   1.076   7.102  0.0477 -0.2256 -0.0627
 7204SOL    HW133074   0.046   1.159   7.095 -0.4681  0.0861  0.1682
 7204SOL    HW233075   4.629   1.110   7.098 -0.1350 -0.6129  0.8398
 7205SOL     OW33076   1.404   2.855   6.234  0.1645  0.6728  0.4381
 7205SOL    HW133077   1.450   2.886   6.157 -1.6795  2.5168  0.0481
 7205SOL    HW233078   1.311   2.860   6.211  0.9115 -0.9213 -2.8473
 7206SOL     OW33079   3.861   2.637  14.493  0.2757  0.5095  0.2981
 7206SOL    HW133080   3.930   2.702  14.486 -0.4421  1.2793  0.4456
 7206SOL    HW233081   3.864   2.597  14.406 -2.5060 -1.1754  0.9607
 7207SOL     OW33082   3.332   2.274  15.454 -0.2905  0.0347  0.1084
 7207SOL    HW133083   3.333   2.339  15.383  0.3226  0.6150  0.6481
 7207SOL    HW233084   3.250   2.225  15.444  1.4916 -2.2268 -3.7134
 7208SOL     OW33085   3.506   2.237  12.496 -0.1433  0.2526  0.2472
 7208SOL    HW133086   3.478   2.165  12.439 -3.5096  3.0566 -1.6836
 7208SOL    HW233087   3.598   2.250  12.476 -0.3039  0.7483 -0.1793
 7209SOL     OW33088   4.583   0.499   2.928  0.1892 -0.2285 -0.0446
 7209SOL    HW133089   4.503   0.488   2.876  0.0503  2.2931 -0.3486
 7209SOL    HW233090   4.612   0.584   2.896  0.7874 -0.3160  0.2735
 7210SOL     OW33091   1.957   3.329   4.290  0.3218  0.3133 -0.2270
 7210SOL    HW133092   1.923   3.343   4.202  0.2933  1.0839 -0.1000
 7210SOL    HW233093   2.028   3.266   4.277  0.5651  0.3673  0.8324
 7211SOL     OW33094   4.215   3.730   3.360 -0.4088  0.5164 -0.0128
 7211SOL    HW133095   4.204   3.710   3.267  0.7131  2.4074 -0.5474
 7211SOL    HW233096   4.275   3.803   3.347  0.7684 -0.9184 -2.7258
 7212SOL     OW33097   3.710   0.458   3.766  0.3326  0.0594 -0.4724
 7212SOL    HW133098   3.679   0.448   3.676 -2.4631  2.6060  0.2112
 7212SOL    HW233099   3.770   0.532   3.758  0.6460  0.0742  2.1293
 7213SOL     OW33100   3.529   1.939   8.991  0.3617 -0.4004 -0.6214
 7213SOL    HW133101   3.463   1.890   9.040  0.1321  0.1240 -0.4020
 7213SOL    HW233102   3.521   1.916   8.899 -0.3070  0.1080 -0.6921
 7214SOL     OW33103   0.482   0.248  16.678  0.1361 -0.3212  0.0668
 7214SOL    HW133104   0.490   0.223  16.770  1.0351 -1.1002 -0.2232
 7214SOL    HW233105   0.392   0.280  16.670  0.0091 -0.5087  0.6650
 7215SOL     OW33106   0.969   1.192   7.274 -0.7171  0.2247 -0.6227
 7215SOL    HW133107   1.022   1.147   7.340  0.6183  1.9160 -0.5452
 7215SOL    HW233108   0.878   1.179   7.299 -0.2073  0.7243  1.5129
 7216SOL     OW33109   1.202   3.823   8.626 -0.0112  0.2059  0.1203
 7216SOL    HW133110   1.123   3.779   8.595  0.5079  0.2642 -1.2918
 7216SOL    HW233111   1.227   3.858   8.540  0.0166 -0.8846 -0.3261
 7217SOL     OW33112   0.338   3.752   6.566 -0.2862  0.1947 -0.2027
 7217SOL    HW133113   0.336   3.797   6.481 -0.3633 -1.2706 -0.9856
 7217SOL    HW233114   0.297   3.669   6.541  0.3684  0.2997 -1.6454
 7218SOL     OW33115   1.950   3.434   1.254  0.3980 -0.2748  0.2210
 7218SOL    HW133116   2.031   3.388   1.275 -0.3659 -1.5814  0.2956
 7218SOL    HW233117   1.924   3.455   1.343 -0.9984  1.8173 -0.6986
 7219SOL     OW33118   1.769   2.762   7.138  0.5136  0.7804  0.3267
 7219SOL    HW133119   1.782   2.805   7.223  0.0318  0.3442  0.6219
 7219SOL    HW233120   1.692   2.710   7.161  1.6929  0.7857  4.3362
 7220SOL     OW33121   0.834   3.655  11.113 -0.4016  0.0054  0.4633
 7220SOL    HW133122   0.838   3.657  11.017 -0.2612  1.5194  0.5012
 7220SOL    HW233123   0.783   3.734  11.132  1.4787  0.3883  4.0786
 7221SOL     OW33124   0.725   1.121   0.120 -0.5068 -0.6845  0.0673
 7221SOL    HW133125   0.782   1.196   0.103 -0.1459 -1.1058 -0.6104
 7221SOL    HW233126   0.786   1.050   0.095  1.1852 -0.3498  3.2659
 7222SOL     OW33127   2.338   0.431   8.031 -0.2605 -0.3376  0.9016
 7222SOL    HW133128   2.421   0.427   8.079 -0.4255 -3.0239  0.9947
 7222SOL    HW233129   2.376   0.433   7.943  0.3292  1.1620  1.1990
 7223SOL     OW33130   0.380   4.099   6.490 -0.5938  0.1281  0.1962
 7223SOL    HW133131   0.416   4.036   6.427 -0.0428  0.5571  0.0823
 7223SOL    HW233132   0.457   4.122   6.541 -0.5970 -0.0969  0.3016
 7224SOL     OW33133   4.699   2.297   0.643  0.3896 -0.4493 -0.3144
 7224SOL    HW133134   4.684   2.350   0.721  0.2901  0.0367 -0.6644
 7224SOL    HW233135   4.688   2.210   0.682  0.3101 -0.2423  0.1343
 7225SOL     OW33136   0.639   0.862  15.620 -0.0319 -0.0556 -0.1945
 7225SOL    HW133137   0.562   0.911  15.592  0.1201 -0.1668 -0.8223
 7225SOL    HW233138   0.596   0.809  15.687 -0.9129  0.8413 -0.0580
 7226SOL     OW33139   2.027   4.164  15.906 -0.1357 -0.0073 -0.4940
 7226SOL    HW133140   1.983   4.097  15.853  0.0911  1.1542 -2.1361
 7226SOL    HW233141   1.952   4.183  15.962 -1.2074 -0.1751 -1.8639
 7227SOL     OW33142   4.090   3.062  10.289 -0.4705  0.3690  0.3808
 7227SOL    HW133143   4.072   2.968  10.295  0.4337  0.0749 -1.5156
 7227SOL    HW233144   4.036   3.080  10.212 -1.0785 -2.4787  0.1321
 7228SOL     OW33145   0.348   3.193   1.614 -0.5301 -0.0096 -0.2970
 7228SOL    HW133146   0.342   3.134   1.689 -1.2480 -0.7518 -0.9400
 7228SOL    HW233147   0.443   3.199   1.603 -0.5083 -0.7278 -0.4647
 7229SOL     OW33148   2.820   2.128   8.530  0.5394 -0.2171  0.2433
 7229SOL    HW133149   2.780   2.129   8.616  0.8995  0.4030  0.4049
 7229SOL    HW233150   2.828   2.034   8.511  0.5714  0.4687 -3.1548
 7230SOL     OW33151   1.554   1.886  15.352 -0.1564 -0.3316  0.8932
 7230SOL    HW133152   1.589   1.796  15.346  1.6775  0.4652 -0.6356
 7230SOL    HW233153   1.548   1.905  15.258 -0.1467 -0.7891  0.7958
 7231SOL     OW33154   2.731   1.314   8.951 -0.0874  0.1303  0.3434
 7231SOL    HW133155   2.788   1.270   9.014 -1.4438  0.0839  1.5581
 7231SOL    HW233156   2.792   1.370   8.904 -0.3482 -2.7102 -3.3960
 7232SOL     OW33157   3.538   2.401   9.538 -0.6480  0.2142  0.2024
 7232SOL    HW133158   3.591   2.471   9.501  0.6234  0.0718  1.7763
 7232SOL    HW233159   3.463   2.448   9.576  0.1354  3.6898 -2.5418
 7233SOL     OW33160   1.918   1.317   4.873  0.1493 -0.1596  0.3425
 7233SOL    HW133161   2.000   1.347   4.912 -0.1505  0.5976  0.3863
 7233SOL    HW233162   1.941   1.294   4.783 -0.6390 -1.1724  0.3954
 7234SOL     OW33163   0.561   0.003   6.606  1.0142 -0.5485 -0.5822
 7234SOL    HW133164   0.626   0.058   6.563  0.1046  2.7790  2.3908
 7234SOL    HW233165   0.488   0.064   6.616  1.6568  0.4876 -2.2835
 7235SOL     OW33166   0.717   0.011   8.870 -0.0602  0.1122  0.0050
 7235SOL    HW133167   0.638   0.007   8.817 -0.6854  1.4751  0.8477
 7235SOL    HW233168   0.693   4.663   8.934  1.7319 -1.8075 -1.3397
 7236SOL     OW33169   1.569   0.092  13.075  0.0906  0.1180  0.4874
 7236SOL    HW133170   1.557   0.149  13.151 -0.0472 -1.9686  2.0049
 7236SOL    HW233171   1.540   0.154  13.008  0.1062  2.0315  2.2516
 7237SOL     OW33172   1.184   0.264   6.545 -0.9057 -0.4837 -0.2345
 7237SOL    HW133173   1.275   0.283   6.522 -0.2926 -0.4997  2.1902
 7237SOL    HW233174   1.188   0.168   6.548  0.5041 -0.3877  1.3070
 7238SOL     OW33175   4.715   4.331   7.871  0.2502 -0.7251 -0.1620
 7238SOL    HW133176   4.623   4.343   7.894  0.5991 -0.0303  0.8852
 7238SOL    HW233177   0.039   4.363   7.950 -0.8201 -2.2330  1.0186
 7239SOL     OW33178   0.195   1.032  13.926 -0.5162 -0.0335  0.1929
 7239SOL    HW133179   0.177   1.037  14.019 -0.7659  2.7292  0.0127
 7239SOL    HW233180   0.185   1.125  13.902 -1.8845 -0.0548  0.6971
 7240SOL     OW33181   0.117   3.713   9.806  0.0077  0.0953  0.0427
 7240SOL    HW133182   0.042   3.749   9.759 -0.0084  0.6791  0.5202
 7240SOL    HW233183   0.114   3.617   9.799  0.7100  0.0962 -0.3027
 7241SOL     OW33184   2.854   4.688   4.034 -0.6744 -0.9880 -0.2358
 7241SOL    HW133185   2.833   4.658   3.946 -2.1414 -0.0392 -0.2033
 7241SOL    HW233186   2.944   4.717   4.018 -1.3696  2.4429  1.9667
 7242SOL     OW33187   2.693   1.762   5.390 -0.3818 -0.3371  0.1794
 7242SOL    HW133188   2.613   1.711   5.384 -1.2950  1.1835 -0.4925
 7242SOL    HW233189   2.740   1.739   5.309 -0.7300  0.8291 -0.3593
 7243SOL     OW33190   0.195   4.565   6.414 -0.2336 -0.0946  0.0160
 7243SOL    HW133191   0.173   4.522   6.497 -0.8383  1.4202  0.6378
 7243SOL    HW233192   0.234   4.493   6.363 -0.0880  0.2254 -0.3219
 7244SOL     OW33193   2.033   1.737   3.495 -0.0809  0.1679 -0.1911
 7244SOL    HW133194   2.071   1.652   3.517  0.5318  0.3205 -0.6539
 7244SOL    HW233195   1.990   1.707   3.416 -1.2873 -2.1437  1.3437
 7245SOL     OW33196   2.868   0.259   5.200  0.1826 -0.3790  0.2615
 7245SOL    HW133197   2.800   0.289   5.140  0.5141 -0.5671 -0.2219
 7245SOL    HW233198   2.938   0.323   5.189  2.1483 -2.6168 -0.4076
 7246SOL     OW33199   1.672   1.952   5.149 -0.3135  0.2935 -0.8370
 7246SOL    HW133200   1.766   1.943   5.164 -1.1019 -0.7788  3.2890
 7246SOL    HW233201   1.660   1.924   5.058  1.6025  0.6951 -1.2225
 7247SOL     OW33202   3.446   2.696   9.134 -0.4901  0.0623  0.3947
 7247SOL    HW133203   3.434   2.701   9.229 -0.2882 -1.1529  0.4939
 7247SOL    HW233204   3.425   2.603   9.125 -1.2442  0.4314 -1.5300
 7248SOL     OW33205   4.244   0.588   3.141  0.1602 -0.3250  0.9393
 7248SOL    HW133206   4.193   0.519   3.184  2.2132 -2.9543 -0.8149
 7248SOL    HW233207   4.328   0.545   3.155  0.5010  0.8922  2.5899
 7249SOL     OW33208   0.712   2.327   8.244  0.2287 -0.1138 -0.7487
 7249SOL    HW133209   0.653   2.280   8.185  0.9221 -0.5715 -1.0697
 7249SOL    HW233210   0.718   2.407   8.191  0.3313 -0.3685 -1.1247
 7250SOL     OW33211   3.437   4.457   1.173  0.4061 -0.5313  0.7610
 7250SOL    HW133212   3.532   4.443   1.180 -0.1107 -2.7800  3.4354
 7250SOL    HW233213   3.432   4.544   1.212  0.6606  0.2496 -0.9493
 7251SOL     OW33214   2.256   3.499  12.404 -0.5719 -0.1416 -0.0222
 7251SOL    HW133215   2.165   3.528  12.408 -0.7975 -0.7196 -1.1377
 7251SOL    HW233216   2.308   3.579  12.414 -1.6039  0.3497  1.4516
 7252SOL     OW33217   0.311   3.588  15.005  0.3660  0.5843  0.1700
 7252SOL    HW133218   0.251   3.517  14.982 -0.0726  0.8955  0.3557
 7252SOL    HW233219   0.324   3.629  14.920  0.1276  0.4301  0.0588
 7253SOL     OW33220   1.030   2.862   4.105 -0.8450 -0.4114 -0.5671
 7253SOL    HW133221   1.066   2.812   4.179 -2.3028  0.1062  0.4957
 7253SOL    HW233222   1.010   2.944   4.151 -2.0350 -0.8761 -0.2653
 7254SOL     OW33223   0.538   3.934   9.711 -0.0442 -0.5102 -0.4789
 7254SOL    HW133224   0.467   3.945   9.774  0.7339  1.5200  0.0310
 7254SOL    HW233225   0.509   3.848   9.679 -1.5542 -0.0381 -0.3878
 7255SOL     OW33226   1.554   3.845   5.509 -0.3533  0.3670 -0.4386
 7255SOL    HW133227   1.487   3.901   5.546 -0.8456 -1.3315  1.1907
 7255SOL    HW233228   1.606   3.897   5.447 -1.1947  2.8464  0.9924
 7256SOL     OW33229   1.370   3.875  13.694 -0.0290  0.0537  0.2181
 7256SOL    HW133230   1.284   3.903  13.727  1.5616  2.8502  1.9252
 7256SOL    HW233231   1.401   3.844  13.780  1.8848  2.4018  0.3731
 7257SOL     OW33232   2.332   1.552  12.473 -0.0183 -0.7279 -0.3288
 7257SOL    HW133233   2.311   1.542  12.380  0.6327 -0.2249 -0.5254
 7257SOL    HW233234   2.418   1.593  12.469 -0.0865 -0.5389  0.1000
 7258SOL     OW33235   4.181   0.202   9.973  0.2830 -1.0542 -0.0963
 7258SOL    HW133236   4.132   0.240  10.046  0.9157 -1.8090  0.7225
 7258SOL    HW233237   4.104   0.203   9.916 -0.7349 -3.6583  1.2489
 7259SOL     OW33238   3.969   3.474   7.824 -0.1591 -0.2814  0.1047
 7259SOL    HW133239   3.934   3.389   7.851  0.2150 -0.7295 -0.8283
 7259SOL    HW233240   3.919   3.539   7.873  0.2394 -0.3254  0.5701
 7260SOL     OW33241   0.006   4.586  13.016 -0.5188  0.0451  0.0558
 7260SOL    HW133242   4.674   4.644  13.071 -0.1661  0.5949 -0.1999
 7260SOL    HW233243   4.697   4.500  13.048  1.0884 -0.6011 -0.2601
 7261SOL     OW33244   1.258   3.744   4.449 -0.1157  0.1455  0.5350
 7261SOL    HW133245   1.288   3.751   4.359 -1.5138  0.4292  0.0977
 7261SOL    HW233246   1.312   3.810   4.492 -1.8658  1.7771  0.2025
 7262SOL     OW33247   3.198   3.482   8.605 -0.0164  0.2605 -0.0757
 7262SOL    HW133248   3.159   3.417   8.547 -0.9080 -0.8235  1.7600
 7262SOL    HW233249   3.264   3.423   8.641 -0.8308 -1.2032 -1.0082
 7263SOL     OW33250   2.228   0.771   7.553 -1.1497 -0.1358  0.0932
 7263SOL    HW133251   2.208   0.855   7.510 -0.8710 -0.9406 -1.6198
 7263SOL    HW233252   2.313   0.762   7.509 -1.4706  2.1444 -1.0357
 7264SOL     OW33253   4.078   1.053   0.281  0.4472  0.1172 -0.4251
 7264SOL    HW133254   4.124   1.036   0.198 -0.6261 -2.3773 -0.4896
 7264SOL    HW233255   3.994   1.011   0.265  0.8820 -1.0981  0.4150
 7265SOL     OW33256   4.360   0.583   2.045  0.0738  0.3671 -0.5012
 7265SOL    HW133257   4.285   0.641   2.031 -0.3423 -0.5508 -2.0181
 7265SOL    HW233258   4.394   0.563   1.958  0.0358  0.4037 -0.5241
 7266SOL     OW33259   1.693   4.324  16.452  0.2419  0.3292  0.2238
 7266SOL    HW133260   1.664   4.415  16.461 -0.4005  0.0345  1.0881
 7266SOL    HW233261   1.662   4.310  16.362  1.9862  2.3392 -0.6725
 7267SOL     OW33262   3.571   2.368   4.111  0.0108  0.0484 -0.0222
 7267SOL    HW133263   3.575   2.340   4.019 -3.4199 -2.4660  0.5954
 7267SOL    HW233264   3.589   2.461   4.097  0.6894 -0.4937 -2.8589
 7268SOL     OW33265   0.996   2.169   5.473 -0.3347 -0.5715  0.1335
 7268SOL    HW133266   1.023   2.193   5.561 -0.0515 -0.4373  0.0110
 7268SOL    HW233267   1.056   2.225   5.425 -1.4794  0.6497  0.1357
 7269SOL     OW33268   0.211   1.526  13.216 -0.1890 -0.5827 -0.3623
 7269SOL    HW133269   0.166   1.513  13.133  1.5509 -2.3263 -1.0189
 7269SOL    HW233270   0.143   1.529  13.282 -0.4332  1.3094 -0.6918
 7270SOL     OW33271   0.088   2.729  17.338  0.2154  0.2644  0.2989
 7270SOL    HW133272   0.025   2.767  17.276  0.9370 -1.2040 -1.3412
 7270SOL    HW233273   0.121   2.656  17.286  2.1807  3.1862 -2.5958
 7271SOL     OW33274   0.092   1.304   7.009  0.0368 -0.1737 -0.7480
 7271SOL    HW133275   0.100   1.397   6.986  1.8274  0.1577  1.2065
 7271SOL    HW233276   0.101   1.253   6.928  0.9304  1.4347 -1.6671
 7272SOL     OW33277   3.111   2.252   3.701 -0.2925  0.0857  0.0011
 7272SOL    HW133278   3.153   2.208   3.776  2.7305  2.2844 -0.4207
 7272SOL    HW233279   3.021   2.219   3.703 -0.8253  1.6359  2.4452
 7273SOL     OW33280   0.219   3.184   0.886  0.0832 -0.1907 -0.0539
 7273SOL    HW133281   0.218   3.160   0.979 -1.1710 -2.7882 -0.7491
 7273SOL    HW233282   0.273   3.263   0.888  0.0489 -0.1764  0.5464
 7274SOL     OW33283   3.918   3.577   3.995  0.4690 -0.2540 -0.0874
 7274SOL    HW133284   3.886   3.634   4.065  1.7468  2.1349 -1.4411
 7274SOL    HW233285   3.989   3.630   3.956  0.2573  1.9172  2.4821
 7275SOL     OW33286   1.934   1.897  12.413 -0.0963 -0.1522 -1.2309
 7275SOL    HW133287   1.929   1.993  12.419  2.0146 -0.1480  0.4846
 7275SOL    HW233288   2.013   1.894  12.360  1.2256  0.7869  0.6576
 7276SOL     OW33289   1.027   0.285   1.170  0.2683  0.2803 -0.3813
 7276SOL    HW133290   1.105   0.238   1.143 -0.0897 -0.6927  0.2440
 7276SOL    HW233291   1.003   0.316   1.083  0.5767 -0.4996 -0.7395
 7277SOL     OW33292   3.658   0.519  17.188 -0.9081  0.2401 -0.1036
 7277SOL    HW133293   3.695   0.453  17.129 -0.0112  0.1463  0.5653
 7277SOL    HW233294   3.571   0.481  17.200 -1.2126  0.8030 -0.5395
 7278SOL     OW33295   2.078   4.106  12.770 -0.0885  0.1674  0.7310
 7278SOL    HW133296   2.066   4.197  12.799 -1.1506  0.5067 -0.8047
 7278SOL    HW233297   2.115   4.115  12.683 -0.0306  0.6693  0.8085
 7279SOL     OW33298   4.376   0.964  16.339 -0.4310 -0.3257 -0.3286
 7279SOL    HW133299   4.453   0.909  16.351 -0.4400  0.4356  3.1044
 7279SOL    HW233300   4.372   0.997  16.429  0.1802 -2.1028  0.3516
 7280SOL     OW33301   2.386   3.495   7.311 -0.5975 -0.5347 -0.2870
 7280SOL    HW133302   2.319   3.495   7.379  0.2956  0.3987  0.5859
 7280SOL    HW233303   2.340   3.459   7.235 -1.7148 -1.8127  0.9822
 7281SOL     OW33304   1.646   2.096  11.863 -0.0608 -0.0328 -0.2392
 7281SOL    HW133305   1.617   2.186  11.874 -1.2901 -0.5640  0.8848
 7281SOL    HW233306   1.565   2.052  11.836 -0.0575 -0.4810  0.4787
 7282SOL     OW33307   3.791   3.342   0.316  0.2949  0.0092  0.1947
 7282SOL    HW133308   3.761   3.415   0.371  2.9598 -0.5322  2.3604
 7282SOL    HW233309   3.740   3.350   0.235 -0.5261  0.9738  0.8112
 7283SOL     OW33310   4.120   1.654   3.353 -0.2896  0.1483  0.0606
 7283SOL    HW133311   4.216   1.650   3.348 -0.2518  1.0182  0.1668
 7283SOL    HW233312   4.104   1.730   3.298 -3.0452  0.4724  1.3251
 7284SOL     OW33313   1.381   3.698   8.750 -0.2780  0.0911  0.6062
 7284SOL    HW133314   1.454   3.698   8.688 -1.6973  0.2408 -1.0781
 7284SOL    HW233315   1.311   3.741   8.701 -1.3882  0.4471  2.5114
 7285SOL     OW33316   2.610   0.947   4.900 -0.3115  0.2124 -0.1507
 7285SOL    HW133317   2.703   0.950   4.879  0.1019  1.6299  1.8505
 7285SOL    HW233318   2.612   0.896   4.981 -0.8602  0.4185 -0.0068
 7286SOL     OW33319   2.561   2.512   9.508  0.0097  0.3102 -0.4509
 7286SOL    HW133320   2.614   2.485   9.583  0.2754  1.5820 -0.1798
 7286SOL    HW233321   2.505   2.575   9.554  0.1021  0.2316 -0.2364
 7287SOL     OW33322   2.615   4.153  15.478 -0.1144 -0.1635 -1.0171
 7287SOL    HW133323   2.614   4.227  15.416  1.0894 -1.0273 -2.0939
 7287SOL    HW233324   2.691   4.168  15.534  0.1104  1.0084 -1.6148
 7288SOL     OW33325   2.242   0.772   2.245  0.3006  0.2739  0.3584
 7288SOL    HW133326   2.179   0.704   2.270 -0.7607  1.1889  0.2090
 7288SOL    HW233327   2.184   0.849   2.243 -1.4819 -1.0962 -1.2704
 7289SOL     OW33328   2.553   3.953   4.162  0.7390  0.1865  0.0445
 7289SOL    HW133329   2.483   3.901   4.124 -0.3445 -1.3084  4.0647
 7289SOL    HW233330   2.556   4.032   4.107  3.4893  0.2921  0.3178
 7290SOL     OW33331   3.039   0.451  13.697 -0.9372  0.2009  0.0398
 7290SOL    HW133332   3.019   0.544  13.708 -1.2348 -0.0317  1.4117
 7290SOL    HW233333   3.105   0.445  13.628 -0.8212  1.6811  0.0179
 7291SOL     OW33334   2.197   2.063  10.648  0.4229  0.3083 -0.1483
 7291SOL    HW133335   2.285   2.100  10.656  0.7260 -0.6015  0.7232
 7291SOL    HW233336   2.153   2.144  10.625 -0.3599 -0.0240  0.1680
 7292SOL     OW33337   3.579   1.262   9.642  0.0267  0.2536  0.0089
 7292SOL    HW133338   3.498   1.290   9.599  0.1110 -2.9233 -2.1102
 7292SOL    HW233339   3.574   1.318   9.720  0.9972 -0.6735  0.7268
 7293SOL     OW33340   0.580   0.637   3.138 -0.2737 -1.2768  0.5876
 7293SOL    HW133341   0.591   0.708   3.075 -0.6133 -0.8310  1.0258
 7293SOL    HW233342   0.618   0.569   3.083 -0.5866 -2.0983  1.3941
 7294SOL     OW33343   2.156   2.645   3.410  0.2690  0.2064  0.3401
 7294SOL    HW133344   2.092   2.668   3.477  0.1533  0.0567  0.2808
 7294SOL    HW233345   2.105   2.663   3.332  0.9376 -1.1581 -0.4121
 7295SOL     OW33346   2.035   2.857   4.933  0.0570 -0.2359 -0.8883
 7295SOL    HW133347   1.967   2.924   4.920  0.6182  0.0541 -2.3012
 7295SOL    HW233348   1.999   2.791   4.874 -1.4904 -1.2581  1.1862
 7296SOL     OW33349   0.484   0.747  16.463  0.3358 -0.0255 -0.4918
 7296SOL    HW133350   0.518   0.837  16.462 -1.1668  0.5674  1.5072
 7296SOL    HW233351   0.402   0.761  16.510  0.8590  2.4477 -0.3091
 7297SOL     OW33352   1.156   2.166   0.590  0.1318  0.5836 -0.1646
 7297SOL    HW133353   1.070   2.175   0.630  1.1204  0.6277  1.9176
 7297SOL    HW233354   1.210   2.194   0.664 -1.2624  1.4832  0.5227
 7298SOL     OW33355   2.598   3.880   5.864 -0.0968 -0.5684 -0.0137
 7298SOL    HW133356   2.592   3.795   5.820  0.4042  0.3421 -1.8543
 7298SOL    HW233357   2.584   3.935   5.787 -2.5784  0.0965  0.9123
 7299SOL     OW33358   1.882   2.097   5.941 -0.0894 -0.0765 -0.4249
 7299SOL    HW133359   1.811   2.110   6.004  0.4513  0.6945  0.0212
 7299SOL    HW233360   1.947   2.067   6.005 -0.9225 -0.1998  0.3708
 7300SOL     OW33361   1.963   3.758   0.237 -0.0228  0.0063  0.1491
 7300SOL    HW133362   1.990   3.736   0.148 -0.1251  0.9601 -0.1215
 7300SOL    HW233363   2.044   3.746   0.287  1.3491  2.5495 -1.4448
 7301SOL     OW33364   4.001   0.204   5.266 -0.2506 -0.5758  0.6563
 7301SOL    HW133365   3.933   0.271   5.270  0.9018  0.5822  0.4910
 7301SOL    HW233366   4.021   0.193   5.173 -1.6548  0.2878  0.2536
 7302SOL     OW33367   0.117   3.097  12.158  0.6067  0.1633  0.0771
 7302SOL    HW133368   0.061   3.020  12.165  0.6635  0.1682  0.6410
 7302SOL    HW233369   0.200   3.054  12.138  1.5349  1.7090  0.6198
 7303SOL     OW33370   0.526   1.045  13.125  0.2068 -0.8238 -0.4304
 7303SOL    HW133371   0.564   0.988  13.191 -2.7066 -0.1206  1.8512
 7303SOL    HW233372   0.574   1.128  13.124  0.6586 -1.0859 -0.5919
 7304SOL     OW33373   1.159   1.015   4.667 -0.2975  0.1662 -0.3043
 7304SOL    HW133374   1.089   1.040   4.728 -0.3715 -1.7827  0.4156
 7304SOL    HW233375   1.225   1.037   4.733 -1.4457 -0.0363  0.9256
 7305SOL     OW33376   2.679   3.931   0.704  0.4424 -0.2982  0.1608
 7305SOL    HW133377   2.587   3.907   0.696  0.3564  0.3474 -0.7514
 7305SOL    HW233378   2.669   4.026   0.696  0.4872 -0.1986  1.2418
 7306SOL     OW33379   3.088   1.979  13.257  0.3832 -0.1595  0.0810
 7306SOL    HW133380   3.065   2.071  13.269 -0.1403 -0.1420 -1.0622
 7306SOL    HW233381   3.035   1.950  13.183 -0.0899 -1.1180  0.7896
 7307SOL     OW33382   2.506   1.078   5.969  0.3916 -0.1755 -0.4170
 7307SOL    HW133383   2.431   1.125   6.006  1.0231 -0.0843  0.7626
 7307SOL    HW233384   2.568   1.150   5.981  0.9573 -0.5505 -1.1170
 7308SOL     OW33385   3.473   1.255   3.386 -0.2826 -0.9954  0.0705
 7308SOL    HW133386   3.486   1.199   3.309 -3.3257  0.7598 -1.7439
 7308SOL    HW233387   3.401   1.209   3.428 -1.4210 -0.3032 -1.1168
 7309SOL     OW33388   2.501   3.288   4.735 -0.5090  0.6281 -0.2952
 7309SOL    HW133389   2.414   3.247   4.737 -0.9935  1.5776 -2.0418
 7309SOL    HW233390   2.485   3.363   4.678 -1.3610 -0.8285 -1.9845
 7310SOL     OW33391   1.286   3.036   8.175  0.1791 -0.4606  0.2558
 7310SOL    HW133392   1.219   3.098   8.146  0.0877  0.4755  2.4570
 7310SOL    HW233393   1.245   2.993   8.250  2.2111 -1.1948  0.9403
 7311SOL     OW33394   2.628   2.643   2.529 -0.1097 -0.8287 -0.1446
 7311SOL    HW133395   2.650   2.609   2.442 -0.1589  1.2047 -0.9406
 7311SOL    HW233396   2.701   2.598   2.572  0.9597 -0.4994 -1.5845
 7312SOL     OW33397   0.681   0.301   3.947 -0.2003  0.4575 -0.0472
 7312SOL    HW133398   0.622   0.375   3.963  1.1074  0.8544  2.9616
 7312SOL    HW233399   0.758   0.335   3.902 -1.2874 -0.9103 -2.9373
 7313SOL     OW33400   0.505   0.564   5.864 -0.4403  0.3366 -0.0600
 7313SOL    HW133401   0.433   0.563   5.928 -1.7574 -2.7801 -1.5662
 7313SOL    HW233402   0.472   0.626   5.799  0.0560 -1.6597 -2.2410
 7314SOL     OW33403   4.451   1.746  11.631  0.0985  0.1140 -0.9942
 7314SOL    HW133404   4.377   1.801  11.608  0.6456  1.4110  0.3413
 7314SOL    HW233405   4.520   1.805  11.599  1.6368 -0.0883  1.9464
 7315SOL     OW33406   3.472   3.554   4.323 -0.2949 -0.2270  0.0130
 7315SOL    HW133407   3.415   3.630   4.331  0.6146  0.3015  1.5545
 7315SOL    HW233408   3.453   3.520   4.410  0.3051 -0.1640  0.1720
 7316SOL     OW33409   1.931   0.388   2.805  0.5116 -0.0836 -0.5450
 7316SOL    HW133410   1.940   0.355   2.715  0.8083 -1.7275  0.0945
 7316SOL    HW233411   1.836   0.384   2.817  0.4477 -1.1916 -1.3419
 7317SOL     OW33412   0.051   0.877  17.025  0.0162  0.1256  0.2526
 7317SOL    HW133413   0.080   0.891  17.115  0.0441 -1.4838  0.4931
 7317SOL    HW233414   4.692   0.931  17.026 -0.5756 -0.7645  1.4749
 7318SOL     OW33415   1.062   0.471   6.615  0.4737 -0.4560  0.2334
 7318SOL    HW133416   1.139   0.414   6.617 -0.2526 -1.4753 -1.0272
 7318SOL    HW233417   1.041   0.442   6.526  2.0187  2.8976 -1.2569
 7319SOL     OW33418   3.396   4.476   8.849 -0.3824  0.4197  0.0578
 7319SOL    HW133419   3.418   4.512   8.935  1.2620  1.0809 -0.6292
 7319SOL    HW233420   3.303   4.493   8.838 -0.7520 -1.6960 -0.0490
 7320SOL     OW33421   0.002   3.525   5.625 -0.6692 -0.7116 -0.5744
 7320SOL    HW133422   0.009   3.544   5.719 -0.6519 -1.2097 -0.4750
 7320SOL    HW233423   0.096   3.522   5.607 -1.1580  1.6267 -3.3760
 7321SOL     OW33424   1.926   3.350   4.012  0.1662  0.4862  0.6822
 7321SOL    HW133425   1.904   3.264   3.976  2.6656  0.7086 -1.3613
 7321SOL    HW233426   2.016   3.365   3.983 -0.5124  2.0948 -0.5299
 7322SOL     OW33427   3.873   4.613   6.751 -0.2936 -0.2490  0.1559
 7322SOL    HW133428   3.861   4.529   6.705 -0.8073  0.2490 -0.6254
 7322SOL    HW233429   3.786   4.652   6.745  0.0175  0.7362  2.4533
 7323SOL     OW33430   3.943   0.743   5.791  0.4255 -0.1611 -0.4968
 7323SOL    HW133431   4.020   0.777   5.747  0.2966  1.6794  0.6766
 7323SOL    HW233432   3.873   0.789   5.744  0.3997  0.4720  0.1506
 7324SOL     OW33433   3.448   2.954   5.959  0.3292 -0.3006 -0.5783
 7324SOL    HW133434   3.401   3.022   6.007  2.1119  0.5320 -0.0051
 7324SOL    HW233435   3.433   2.888   6.028 -0.5445  0.1574 -0.3321
 7325SOL     OW33436   3.782   0.851   2.870 -0.3680  0.2448  0.5661
 7325SOL    HW133437   3.877   0.859   2.872 -0.4232  0.1695  4.0187
 7325SOL    HW233438   3.776   0.758   2.890 -0.2125  0.1671  0.2464
 7326SOL     OW33439   0.829   2.709   5.127  0.3192 -0.3364  0.1123
 7326SOL    HW133440   0.747   2.668   5.101  0.3100  0.9038 -1.7852
 7326SOL    HW233441   0.798   2.774   5.189  2.1888 -0.5536  1.2861
 7327SOL     OW33442   1.380   0.093   7.668  0.1747 -0.2311 -0.1766
 7327SOL    HW133443   1.439   0.018   7.657  0.5277  0.0122  0.0526
 7327SOL    HW233444   1.437   0.162   7.702  0.7980 -0.6468 -0.3754
 7328SOL     OW33445   2.775   2.686   5.318  0.1963  0.1240  0.5592
 7328SOL    HW133446   2.685   2.704   5.343 -0.0585 -0.2116 -0.1285
 7328SOL    HW233447   2.785   2.751   5.248  2.3236  0.5338  1.2420
 7329SOL     OW33448   1.910   2.145   0.204 -0.2230 -0.5305 -0.5424
 7329SOL    HW133449   1.982   2.085   0.223  0.1882 -0.1256 -0.8453
 7329SOL    HW233450   1.847   2.076   0.227 -1.1779  0.3417 -0.5301
 7330SOL     OW33451   2.941   3.352   4.943 -0.6451  0.0419 -0.6403
 7330SOL    HW133452   2.860   3.301   4.946 -0.1029 -0.8354 -0.8567
 7330SOL    HW233453   2.917   3.444   4.943  1.3941  0.5781  1.5149
 7331SOL     OW33454   0.017   0.636  17.400 -0.8384 -0.3172  0.0788
 7331SOL    HW133455   0.031   0.591  17.484  0.5105  0.2282  0.1387
 7331SOL    HW233456   4.699   0.572  17.339  1.2930 -0.8316 -0.6637
 7332SOL     OW33457   3.202   2.356   2.408 -0.0977 -0.4569  0.3152
 7332SOL    HW133458   3.291   2.376   2.380 -1.4370  2.3674 -2.0902
 7332SOL    HW233459   3.159   2.337   2.324 -1.7053  2.8716  0.3873
 7333SOL     OW33460   0.886   2.740   6.633 -0.2974  0.1438 -0.1896
 7333SOL    HW133461   0.826   2.798   6.587  1.2522  0.5801 -1.6430
 7333SOL    HW233462   0.830   2.663   6.639  0.2008 -0.3715 -2.4272
 7334SOL     OW33463   4.432   0.492   8.559 -0.0709  0.3012  0.2535
 7334SOL    HW133464   4.474   0.561   8.611 -0.5082 -1.0405  2.4323
 7334SOL    HW233465   4.419   0.427   8.629  2.3031  1.3443  1.6537
 7335SOL     OW33466   3.940   1.720   4.631  0.6179 -0.0138 -0.6738
 7335SOL    HW133467   3.880   1.793   4.647  0.4674 -0.0313 -1.1448
 7335SOL    HW233468   3.882   1.645   4.616 -0.8206  0.3805  3.1078
 7336SOL     OW33469   4.423   2.561  17.122 -0.1391  0.6357 -0.1007
 7336SOL    HW133470   4.512   2.597  17.122  0.0508  0.1383  2.4921
 7336SOL    HW233471   4.367   2.639  17.117 -2.9032 -1.2302  2.0286
 7337SOL     OW33472   1.131   4.705   5.261 -0.2012  0.4473 -0.0193
 7337SOL    HW133473   1.203   0.040   5.229  1.2576 -0.8530  0.9802
 7337SOL    HW233474   1.064   4.706   5.193 -0.9649 -1.0743  0.7034
 7338SOL     OW33475   3.333   2.731  13.382  0.0905  0.5187 -0.4969
 7338SOL    HW133476   3.399   2.743  13.450 -1.2169  0.9600  0.7204
 7338SOL    HW233477   3.259   2.782  13.417 -0.2492 -2.3181  2.8603
 7339SOL     OW33478   1.840   3.311  17.138 -0.1470  0.0689  0.0334
 7339SOL    HW133479   1.800   3.382  17.188 -0.9308  0.8118 -1.6464
 7339SOL    HW233480   1.768   3.268  17.092  0.2879  1.3600 -1.8737
 7340SOL     OW33481   2.240   3.005   5.746 -0.0966 -0.1813  0.1987
 7340SOL    HW133482   2.203   2.925   5.784  0.1730  0.0068  0.8472
 7340SOL    HW233483   2.172   3.070   5.757 -0.4825 -0.5986  0.2848
 7341SOL     OW33484   2.891   4.113   8.709 -0.3547 -0.1075  0.0087
 7341SOL    HW133485   2.918   4.178   8.643  2.0310 -0.4264  0.6850
 7341SOL    HW233486   2.842   4.051   8.655 -0.7149 -0.5990  0.9167
 7342SOL     OW33487   4.182   0.801   8.680 -0.5440 -0.3839  0.7483
 7342SOL    HW133488   4.157   0.709   8.693 -1.5781 -0.2253 -0.1410
 7342SOL    HW233489   4.266   0.787   8.636 -0.1634  2.3915  0.5873
 7343SOL     OW33490   3.836   0.528   7.366 -0.4311  0.4148  0.7484
 7343SOL    HW133491   3.817   0.458   7.428  0.8239 -0.2083  0.4285
 7343SOL    HW233492   3.869   0.473   7.295 -0.2437 -0.0598  1.2067
 7344SOL     OW33493   2.212   3.419  13.868  0.3123  0.1829 -0.1587
 7344SOL    HW133494   2.119   3.438  13.866  0.2256 -0.4381 -1.8205
 7344SOL    HW233495   2.245   3.487  13.928 -1.3616  1.3278 -0.5626
 7345SOL     OW33496   4.640   1.503   1.809  0.2642  0.3024  0.4324
 7345SOL    HW133497   0.008   1.501   1.771  0.4978 -0.4675  1.0248
 7345SOL    HW233498   4.591   1.442   1.754  2.6120 -1.7285  0.5836
 7346SOL     OW33499   1.678   1.799   3.887 -0.2677 -0.4664 -0.3800
 7346SOL    HW133500   1.653   1.890   3.904  0.1525 -0.4634  0.2444
 7346SOL    HW233501   1.719   1.776   3.970  2.4915  0.7108 -1.4471
 7347SOL     OW33502   0.310   1.042  13.591  0.5600 -0.5336 -0.2406
 7347SOL    HW133503   0.297   0.953  13.622 -2.6305  0.8304  2.3570
 7347SOL    HW233504   0.264   1.096  13.656  1.5652  2.3711 -1.9232
 7348SOL     OW33505   1.530   4.510   7.055  0.4378 -0.4868 -0.0944
 7348SOL    HW133506   1.467   4.479   6.991  0.8031  1.0160 -1.1945
 7348SOL    HW233507   1.477   4.553   7.121 -0.2909 -0.2484 -0.8388
 7349SOL     OW33508   4.434   1.099  13.550  0.4712 -0.6352 -0.5005
 7349SOL    HW133509   4.363   1.035  13.559  0.6571 -0.8666 -0.6649
 7349SOL    HW233510   4.498   1.054  13.604  1.3080  0.6284 -0.4517
 7350SOL     OW33511   0.259   3.012   8.999 -0.4046 -0.1627 -0.1409
 7350SOL    HW133512   0.237   3.025   8.906 -0.2433  0.0177 -0.1536
 7350SOL    HW233513   0.296   2.924   8.994  0.4688  0.1940  0.0161
 7351SOL     OW33514   3.025   3.084   2.347 -0.0037  0.7513 -0.0552
 7351SOL    HW133515   2.961   3.133   2.296  0.3326  1.6555  0.4024
 7351SOL    HW233516   2.963   3.046   2.410  2.2112  0.9209  2.2179
 7352SOL     OW33517   1.793   2.956   4.832 -0.0644  0.0892 -0.0207
 7352SOL    HW133518   1.815   3.048   4.845 -0.3657  0.1199  0.2530
 7352SOL    HW233519   1.791   2.945   4.737  2.0468  0.7630 -0.1480
 7353SOL     OW33520   2.703   2.920  11.402  0.3518  0.0548 -0.3480
 7353SOL    HW133521   2.653   2.839  11.410  0.2152  0.1580 -0.1806
 7353SOL    HW233522   2.641   2.971  11.350 -1.3044 -0.6831  0.9279
 7354SOL     OW33523   0.635   4.403   3.863  0.4291 -0.1198  0.8523
 7354SOL    HW133524   0.665   4.352   3.788  0.0919  0.3233  0.4111
 7354SOL    HW233525   0.541   4.390   3.858  0.5394 -0.8402  0.6830
 7355SOL     OW33526   3.033   2.514   3.535 -0.6727 -0.1772  0.0540
 7355SOL    HW133527   3.012   2.475   3.450 -1.7295 -0.3623  0.4054
 7355SOL    HW233528   3.042   2.431   3.582 -1.6963 -1.2094 -1.5489
 7356SOL     OW33529   0.769   0.249   6.929  0.0735 -0.3142  0.9642
 7356SOL    HW133530   0.841   0.193   6.902 -0.8698 -0.5512 -1.0330
 7356SOL    HW233531   0.762   0.308   6.855  1.8070 -2.6401 -1.0655
 7357SOL     OW33532   0.788   4.176  15.279 -0.0248  0.1213 -0.0726
 7357SOL    HW133533   0.783   4.248  15.217  0.7411 -1.6569 -2.1887
 7357SOL    HW233534   0.862   4.217  15.326 -1.2994  0.3080  1.7830
 7358SOL     OW33535   1.613   2.015  12.692  0.2781 -0.0585  0.2181
 7358SOL    HW133536   1.702   2.045  12.673  0.0990 -0.5750 -1.4092
 7358SOL    HW233537   1.566   2.099  12.699 -0.8883 -0.6742 -0.2005
 7359SOL     OW33538   3.692   1.162   7.290 -0.4633  0.1792  0.1836
 7359SOL    HW133539   3.673   1.247   7.329  0.4945  1.7174 -2.7436
 7359SOL    HW233540   3.616   1.114   7.323 -0.4779 -2.1083 -3.1487
 7360SOL     OW33541   3.963   1.528   7.819  0.3314  0.1620  0.2431
 7360SOL    HW133542   4.026   1.463   7.788  1.9240  2.2093 -0.8711
 7360SOL    HW233543   3.883   1.486   7.786 -0.7987  1.5080  1.2468
 7361SOL     OW33544   2.405   2.155   2.908  0.1681  0.1630 -0.1101
 7361SOL    HW133545   2.455   2.179   2.985 -1.3403  1.6082  0.4168
 7361SOL    HW233546   2.415   2.231   2.852  0.2425  0.2121 -0.0288
 7362SOL     OW33547   1.089   4.714  11.206  0.3772  0.1447  1.2122
 7362SOL    HW133548   1.141   0.066  11.170  0.3553  0.7107  2.3234
 7362SOL    HW233549   1.066   4.683  11.118  0.9480 -1.5121  1.6311
 7363SOL     OW33550   2.279   2.994   4.544 -0.0700  0.2554  0.5517
 7363SOL    HW133551   2.225   3.073   4.549 -0.5058  0.2233 -3.8333
 7363SOL    HW233552   2.353   3.018   4.488 -0.9110 -0.3090 -0.8084
 7364SOL     OW33553   3.955   1.510   3.031 -0.3129 -0.2520 -0.0098
 7364SOL    HW133554   3.920   1.599   3.035 -0.6495 -0.4554  1.8839
 7364SOL    HW233555   4.025   1.522   3.095 -1.5051  0.8315  1.0809
 7365SOL     OW33556   3.201   1.962   4.481  0.2582 -0.0884  0.5503
 7365SOL    HW133557   3.115   1.919   4.484  0.5855 -0.4944  4.0599
 7365SOL    HW233558   3.182   2.052   4.455 -0.3177  0.8077  4.1641
 7366SOL     OW33559   0.041   3.860   3.836  0.2448  0.3284  0.4631
 7366SOL    HW133560   4.697   3.834   3.769  0.8410  0.9421 -0.3349
 7366SOL    HW233561   4.709   3.923   3.887  0.0965  0.8399 -0.3351
 7367SOL     OW33562   4.542   4.352   2.327  0.2166 -0.5766 -0.5747
 7367SOL    HW133563   4.491   4.428   2.299  2.6084 -0.4880 -4.8568
 7367SOL    HW233564   4.565   4.323   2.238  3.2645 -0.5598  0.2087
 7368SOL     OW33565   1.187   0.547  10.264 -0.6956 -0.2851  0.3558
 7368SOL    HW133566   1.242   0.581  10.335  0.5968 -0.3002 -0.6199
 7368SOL    HW233567   1.115   0.605  10.287  0.2690  0.4164  1.6058
 7369SOL     OW33568   3.030   3.122   7.455  0.1667  0.7467  0.6689
 7369SOL    HW133569   2.991   3.168   7.381  0.6421  0.3909  0.1962
 7369SOL    HW233570   3.118   3.100   7.426  0.4930  1.6994  0.9278
 7370SOL     OW33571   3.208   0.683   6.770 -0.7106  0.2550 -0.1586
 7370SOL    HW133572   3.185   0.736   6.847 -4.5369 -1.5979 -0.0355
 7370SOL    HW233573   3.240   0.751   6.710  1.9532  0.6160  1.6421
 7371SOL     OW33574   3.148   3.220   4.083 -0.6768  0.1534 -0.3473
 7371SOL    HW133575   3.208   3.213   4.158 -1.1913 -0.4687  0.0094
 7371SOL    HW233576   3.204   3.186   4.014 -0.3872 -0.2743  0.1052
 7372SOL     OW33577   1.968   3.929   5.307 -0.1655  0.2390 -0.1270
 7372SOL    HW133578   1.884   3.975   5.302 -0.1893  0.4121  1.9594
 7372SOL    HW233579   2.022   3.962   5.379  0.8968 -1.3982 -0.1662
 7373SOL     OW33580   2.363   1.918  10.818 -0.0701  0.3107 -0.0516
 7373SOL    HW133581   2.319   1.968  10.749 -1.7026 -0.1985  0.6050
 7373SOL    HW233582   2.324   1.956  10.897  2.4222 -0.5353  1.5696
 7374SOL     OW33583   0.729   4.527   2.770 -0.7126  0.3438 -0.2185
 7374SOL    HW133584   0.733   4.599   2.833  1.3154  0.1860 -0.1819
 7374SOL    HW233585   0.820   4.515   2.746  0.1976  0.9438  2.8857
 7375SOL     OW33586   1.927   1.284   2.277  0.0716 -0.0470  0.3263
 7375SOL    HW133587   1.885   1.246   2.199 -0.6707 -1.6836  1.5266
 7375SOL    HW233588   2.019   1.273   2.254 -0.3553 -3.6918  0.3368
 7376SOL     OW33589   4.564   3.018   2.354  0.7298 -0.1898 -0.6541
 7376SOL    HW133590   4.618   2.970   2.417  0.6008 -0.5340 -0.8051
 7376SOL    HW233591   4.487   3.035   2.409 -0.1495  1.8251 -2.5154
 7377SOL     OW33592   3.384   1.432   6.204 -0.5045 -0.1573  0.3785
 7377SOL    HW133593   3.471   1.471   6.195 -1.4111  1.5441 -1.0341
 7377SOL    HW233594   3.404   1.343   6.232  0.0469  0.4041  1.7841
 7378SOL     OW33595   0.862   3.364   5.166 -0.1449 -0.3151  0.2362
 7378SOL    HW133596   0.895   3.283   5.129 -1.0581 -2.1622  3.4567
 7378SOL    HW233597   0.768   3.346   5.157  0.2112 -2.4383  0.8944
 7379SOL     OW33598   1.003   2.708  12.662  0.4706 -0.3540  0.2423
 7379SOL    HW133599   1.047   2.666  12.587  1.1558  1.5313 -0.4084
 7379SOL    HW233600   0.929   2.750  12.619  0.8904 -2.0623 -2.1963
 7380SOL     OW33601   2.080   1.658   8.850  0.1139 -1.1679 -0.1003
 7380SOL    HW133602   1.997   1.704   8.839 -0.3372 -2.0719 -0.4193
 7380SOL    HW233603   2.110   1.681   8.938  0.9226 -0.0926 -0.6656
 7381SOL     OW33604   3.359   1.797   9.172 -0.0589 -0.3121 -0.3885
 7381SOL    HW133605   3.351   1.756   9.258  0.8627  2.4699  1.0068
 7381SOL    HW233606   3.288   1.743   9.136  1.1655 -2.6886  0.7058
 7382SOL     OW33607   2.617   3.125   5.424 -0.8260  0.3492  0.4099
 7382SOL    HW133608   2.651   3.066   5.491  1.1666  0.7041 -0.2950
 7382SOL    HW233609   2.697   3.169   5.394 -0.5701  0.1211  0.7574
 7383SOL     OW33610   2.085   2.061   6.204 -0.1949 -0.4889 -0.2188
 7383SOL    HW133611   2.109   2.153   6.189  0.6386 -0.6774 -0.0294
 7383SOL    HW233612   2.112   2.064   6.296 -0.0486 -1.7875 -0.2194
 7384SOL     OW33613   4.537   3.302  16.969 -0.2941  0.3270 -0.2177
 7384SOL    HW133614   4.583   3.368  16.916  1.2904 -0.0026  0.7455
 7384SOL    HW233615   4.542   3.344  17.054  1.8017 -0.7270  0.2084
 7385SOL     OW33616   4.396   4.417  12.602  0.2002  0.6193 -0.6913
 7385SOL    HW133617   4.358   4.344  12.651  1.2478 -0.9928 -2.2827
 7385SOL    HW233618   4.482   4.427  12.641  0.2974 -1.4881 -0.3666
 7386SOL     OW33619   2.131   3.735  10.392  0.1074  0.2847 -0.0006
 7386SOL    HW133620   2.212   3.764  10.350  0.7809 -1.8573 -0.1901
 7386SOL    HW233621   2.098   3.810  10.442  0.9259  0.8391 -0.2919
 7387SOL     OW33622   0.365   4.541  17.396  0.0955  0.1793 -0.5632
 7387SOL    HW133623   0.285   4.567  17.350 -1.2496 -0.6923  1.2678
 7387SOL    HW233624   0.421   4.505  17.327  3.3959 -0.3352  2.4214
 7388SOL     OW33625   3.941   2.185   3.769  0.0546  0.1305  0.0513
 7388SOL    HW133626   3.912   2.264   3.723  0.7023  0.6989  0.6114
 7388SOL    HW233627   4.030   2.213   3.793  0.3683 -1.1297  0.3614
 7389SOL     OW33628   1.533   2.226   1.685 -0.1689 -0.4631 -0.6581
 7389SOL    HW133629   1.594   2.220   1.759  0.2597  1.7688 -0.8425
 7389SOL    HW233630   1.566   2.161   1.622  3.4558  0.5762  0.1830
 7390SOL     OW33631   3.120   2.326   7.284 -0.5680  0.5038 -0.0092
 7390SOL    HW133632   3.156   2.366   7.363 -0.3239 -0.7142  0.4954
 7390SOL    HW233633   3.042   2.378   7.265 -0.5953  0.9314  1.2652
 7391SOL     OW33634   3.190   0.087   6.338 -0.0915 -0.0821  0.1532
 7391SOL    HW133635   3.276   0.117   6.366  0.1178 -0.6004  0.0704
 7391SOL    HW233636   3.203   4.713   6.358  0.8058  0.4369  2.0026
 7392SOL     OW33637   2.955   2.449   4.516  0.6063 -0.0855  0.2933
 7392SOL    HW133638   2.967   2.505   4.439  0.9714 -1.8925 -0.9520
 7392SOL    HW233639   3.008   2.485   4.587 -2.5701  2.7195  1.2175
 7393SOL     OW33640   2.143   1.024   4.605  0.4762  0.4799 -0.2805
 7393SOL    HW133641   2.119   0.950   4.549 -0.5744  1.2193 -0.8001
 7393SOL    HW233642   2.234   1.038   4.578  0.8143  0.2089  0.7179
 7394SOL     OW33643   1.930   3.642   3.975  0.1844  0.0031 -0.2023
 7394SOL    HW133644   1.933   3.547   3.983  0.5566 -0.0028 -0.3787
 7394SOL    HW233645   1.839   3.667   3.991  0.8526  2.5356 -0.2566
 7395SOL     OW33646   0.412   2.607   6.333 -0.4099 -0.3799  0.5903
 7395SOL    HW133647   0.490   2.657   6.307  0.5307 -1.0193  2.1614
 7395SOL    HW233648   0.378   2.667   6.400 -1.9201 -0.7465  0.1294
 7396SOL     OW33649   1.200   2.131   4.088 -0.1123 -0.1637 -0.7829
 7396SOL    HW133650   1.279   2.182   4.066 -0.0442 -0.0622 -0.3081
 7396SOL    HW233651   1.211   2.041   4.058  3.2243 -0.7830  2.2900
 7397SOL     OW33652   2.678   0.481   4.348  0.4716 -0.4040 -0.6220
 7397SOL    HW133653   2.651   0.548   4.410  3.0174  0.6980 -0.6804
 7397SOL    HW233654   2.765   0.516   4.327  0.4959 -0.8147 -1.2088
 7398SOL     OW33655   2.318   3.135   4.918 -0.0357 -0.4828  0.5207
 7398SOL    HW133656   2.258   3.200   4.882  2.3799  1.4441 -0.0957
 7398SOL    HW233657   2.335   3.170   5.006  1.8621  1.1542 -0.5058
 7399SOL     OW33658   0.075   3.114   3.401  0.0101 -0.5168 -0.3045
 7399SOL    HW133659   0.167   3.093   3.416 -0.0708 -0.4934  0.2024
 7399SOL    HW233660   0.056   3.190   3.456 -0.5430 -0.6399 -0.3177
 7400SOL     OW33661   2.235   1.003   1.363 -0.1122  0.4080 -0.2728
 7400SOL    HW133662   2.163   1.018   1.303 -0.3205  0.3193 -0.0429
 7400SOL    HW233663   2.187   0.971   1.439  1.2904  3.7017  1.9837
 7401SOL     OW33664   2.421   0.212  17.036 -0.4145 -0.0048 -0.2561
 7401SOL    HW133665   2.377   0.179  16.958 -0.4750 -0.5433  0.0023
 7401SOL    HW233666   2.420   0.307  17.031 -1.4948  0.0409  0.7699
 7402SOL     OW33667   0.461   2.718  16.557  1.0238 -0.3754  0.4327
 7402SOL    HW133668   0.533   2.754  16.505 -0.5028  0.8914 -0.8118
 7402SOL    HW233669   0.400   2.708  16.484 -0.2525  3.2957  0.9906
 7403SOL     OW33670   4.693   1.234   0.324 -0.5837 -0.1821 -0.0473
 7403SOL    HW133671   0.012   1.221   0.411 -0.9766 -1.8355 -0.1108
 7403SOL    HW233672   4.612   1.185   0.337 -1.8385  2.2340  1.1045
 7404SOL     OW33673   3.251   0.989   0.377 -0.3583  0.4383  0.4979
 7404SOL    HW133674   3.290   1.068   0.415  0.1521 -1.0624  3.1039
 7404SOL    HW233675   3.209   1.012   0.295  1.9730  0.9519 -0.5563
 7405SOL     OW33676   1.207   4.570   8.962 -0.9219  0.1397 -0.0003
 7405SOL    HW133677   1.211   4.596   8.870  1.6295  0.7539  0.2852
 7405SOL    HW233678   1.148   4.495   8.954 -1.4014  0.5474 -0.3017
 7406SOL     OW33679   0.760   2.751  11.295  0.0357  0.0553 -0.1045
 7406SOL    HW133680   0.832   2.690  11.311 -1.3152 -1.1781  1.2882
 7406SOL    HW233681   0.714   2.741  11.377  0.2333 -4.4300 -0.5535
 7407SOL     OW33682   3.642   1.547   6.639  0.2117 -0.2098 -1.1769
 7407SOL    HW133683   3.599   1.462   6.646  0.9725 -0.5217 -0.2365
 7407SOL    HW233684   3.726   1.528   6.681  0.2180 -1.0714 -1.5870
 7408SOL     OW33685   0.424   1.554  12.882  0.3098 -0.2119  0.4816
 7408SOL    HW133686   0.415   1.462  12.856 -1.4167 -0.3892  1.6521
 7408SOL    HW233687   0.346   1.591  12.840  0.9905  1.2652  0.5378
 7409SOL     OW33688   2.553   2.303   5.994 -0.4460 -0.3008 -0.2291
 7409SOL    HW133689   2.615   2.362   5.952  0.4656 -2.3213 -1.7403
 7409SOL    HW233690   2.494   2.364   6.038  1.0996  0.1253  1.2415
 7410SOL     OW33691   3.541   4.390   2.119 -0.6724  0.0685 -0.0462
 7410SOL    HW133692   3.555   4.385   2.214 -1.0782 -0.6818 -0.0211
 7410SOL    HW233693   3.537   4.299   2.089  0.8363 -0.6396  1.8872
 7411SOL     OW33694   2.101   1.773   3.044 -0.0056 -0.8878  0.5499
 7411SOL    HW133695   2.178   1.823   3.017  0.7493 -1.1461  2.2407
 7411SOL    HW233696   2.111   1.701   2.981  0.6966  0.9233 -1.3919
 7412SOL     OW33697   2.285   3.086   3.385 -0.5671 -0.1649  0.1627
 7412SOL    HW133698   2.208   3.030   3.397  0.3383 -1.3109  0.6269
 7412SOL    HW233699   2.252   3.145   3.317 -0.2425  0.6371  0.6943
 7413SOL     OW33700   1.719   2.098   2.292 -0.2651  0.2328 -0.1502
 7413SOL    HW133701   1.660   2.174   2.297 -1.6647 -0.8399 -0.2891
 7413SOL    HW233702   1.660   2.026   2.270  1.3512 -1.1684  0.1540
 7414SOL     OW33703   1.423   3.796   8.043 -0.1712 -0.2024  0.1229
 7414SOL    HW133704   1.380   3.822   7.961  0.1750 -0.4252 -0.1272
 7414SOL    HW233705   1.353   3.740   8.076  2.0657 -2.3968  1.0942
 7415SOL     OW33706   0.260   0.584   2.130 -0.3065 -0.1981  0.3076
 7415SOL    HW133707   0.189   0.585   2.065  1.1035  0.3769 -1.2191
 7415SOL    HW233708   0.207   0.540   2.196 -1.1924  1.1772  0.5155
 7416SOL     OW33709   3.560   0.678  11.816  0.5753  0.4401 -0.2485
 7416SOL    HW133710   3.582   0.613  11.748  0.5222 -1.4546  1.5468
 7416SOL    HW233711   3.538   0.756  11.765 -1.7438  1.0212  1.6257
 7417SOL     OW33712   4.295   2.463   8.973  0.2889  0.2584  0.1164
 7417SOL    HW133713   4.258   2.513   9.045  3.8227  1.5768  0.9552
 7417SOL    HW233714   4.356   2.522   8.928 -0.9004  0.6423 -1.0128
 7418SOL     OW33715   2.776   0.335   8.063  0.0700  0.2855  0.1787
 7418SOL    HW133716   2.730   0.386   8.130 -0.9309  0.3469 -0.5552
 7418SOL    HW233717   2.808   0.258   8.110 -0.4025  0.8511  1.4458
 7419SOL     OW33718   4.395   0.032   3.185 -0.0449  0.2795 -0.5737
 7419SOL    HW133719   4.361   0.033   3.096 -0.5293 -0.4430 -0.3934
 7419SOL    HW233720   4.323   0.071   3.236  1.3283 -0.0257  1.6220
 7420SOL     OW33721   3.537   4.177   8.498 -0.0347  0.7258  0.2702
 7420SOL    HW133722   3.555   4.248   8.560 -0.2639  0.4763  0.6225
 7420SOL    HW233723   3.459   4.198   8.447 -1.7304  0.3152  2.6903
 7421SOL     OW33724   2.420   1.135   2.023 -0.2956 -0.0972 -0.6776
 7421SOL    HW133725   2.355   1.125   1.953 -1.9302 -0.2963  0.8751
 7421SOL    HW233726   2.496   1.132   1.965  0.7817 -0.2149  0.7416
 7422SOL     OW33727   3.165   0.270  14.976 -0.6734 -0.3126 -0.7385
 7422SOL    HW133728   3.195   0.263  15.067  0.7965  3.3880 -0.9460
 7422SOL    HW233729   3.216   0.347  14.952  0.2599 -0.5775  0.3948
 7423SOL     OW33730   3.968   0.775   8.358 -0.0930  0.0775 -0.0677
 7423SOL    HW133731   3.963   0.815   8.445 -1.4960 -2.4054  0.9832
 7423SOL    HW233732   4.052   0.730   8.354 -0.8700 -1.3424 -0.2219
 7424SOL     OW33733   1.841   2.138   1.675  0.6274  0.3479 -0.2585
 7424SOL    HW133734   1.826   2.074   1.745 -3.5114  1.6905  0.1156
 7424SOL    HW233735   1.837   2.217   1.729 -0.8189 -0.3651  0.6999
 7425SOL     OW33736   4.249   3.151  16.729 -0.5646 -0.0440 -0.1976
 7425SOL    HW133737   4.312   3.079  16.726  1.7858  1.9096  2.3808
 7425SOL    HW233738   4.311   3.223  16.745 -1.5499  1.2690 -2.2586
 7426SOL     OW33739   4.298   2.421   2.191  0.0520  0.2619  0.1946
 7426SOL    HW133740   4.309   2.419   2.096  0.5087 -1.6120  0.2761
 7426SOL    HW233741   4.355   2.356   2.233 -2.2234 -1.0256  1.2805
 7427SOL     OW33742   2.201   2.940   7.039 -1.1796 -0.6455 -0.0979
 7427SOL    HW133743   2.289   2.920   7.070 -0.4662  1.1556 -0.9658
 7427SOL    HW233744   2.207   3.035   7.035  0.4597 -0.6969  1.4594
 7428SOL     OW33745   4.551   2.918   3.983 -0.5695  0.2145 -0.1620
 7428SOL    HW133746   4.503   2.924   3.900  0.9316  0.6901 -0.9990
 7428SOL    HW233747   4.517   2.836   4.018  2.2941 -0.8953 -0.0074
 7429SOL     OW33748   3.274   4.018  16.079 -0.2104  0.1026 -0.4598
 7429SOL    HW133749   3.319   3.934  16.075  0.3323  0.4008 -0.6602
 7429SOL    HW233750   3.332   4.077  16.128  0.8364 -0.5693 -0.8934
 7430SOL     OW33751   4.531   0.992  16.778  0.1224 -0.1113 -0.1647
 7430SOL    HW133752   4.479   1.030  16.707  0.8188 -1.8433 -1.6303
 7430SOL    HW233753   4.464   0.938  16.820 -0.5126 -0.1796 -1.2599
 7431SOL     OW33754   0.583   2.364   6.148 -0.0047 -0.0685 -0.0853
 7431SOL    HW133755   0.644   2.438   6.149  1.5024 -1.2899 -0.7772
 7431SOL    HW233756   0.571   2.358   6.242 -0.6089  1.2825 -0.0715
 7432SOL     OW33757   4.631   1.632   5.031  0.2678  0.5838 -0.0050
 7432SOL    HW133758   4.618   1.727   5.025  1.0017  0.6507 -0.5467
 7432SOL    HW233759   4.678   1.616   5.112  0.4497 -0.7401 -0.3608
 7433SOL     OW33760   3.327   2.180  10.738  0.3443 -0.2739 -0.6140
 7433SOL    HW133761   3.326   2.242  10.811  0.2741  0.1955 -1.0177
 7433SOL    HW233762   3.289   2.103  10.780 -1.5305  0.9416 -0.0537
 7434SOL     OW33763   4.327   0.574   6.998  0.1509 -0.0305  0.4105
 7434SOL    HW133764   4.359   0.503   6.941  1.8104  0.5293  0.6409
 7434SOL    HW233765   4.300   0.635   6.929  0.4461  0.3073  0.5946
 7435SOL     OW33766   2.806   0.337   7.182 -0.3889  0.5054 -0.1871
 7435SOL    HW133767   2.887   0.364   7.227 -1.0627  1.1336  0.6590
 7435SOL    HW233768   2.838   0.259   7.137 -0.0627 -0.1978  1.2453
 7436SOL     OW33769   4.331   1.938   3.675  0.3290  0.1036 -0.1072
 7436SOL    HW133770   4.401   1.954   3.612 -0.5800  0.1986 -1.1021
 7436SOL    HW233771   4.358   1.852   3.706 -2.6173  0.1268  2.5866
 7437SOL     OW33772   1.209   2.646  13.258  0.1307  0.1435  0.0054
 7437SOL    HW133773   1.298   2.640  13.293  0.0678 -1.5442 -0.1385
 7437SOL    HW233774   1.173   2.708  13.322  1.2087 -0.4962  1.2430
 7438SOL     OW33775   0.503   0.618   2.595 -1.0686  0.4168 -0.3438
 7438SOL    HW133776   0.549   0.702   2.605  1.8759 -1.3787  1.1117
 7438SOL    HW233777   0.568   0.563   2.552 -1.7846  0.0643 -0.9617
 7439SOL     OW33778   3.510   2.631   6.375 -0.9562  0.3609 -0.0771
 7439SOL    HW133779   3.567   2.608   6.302 -1.9141  3.2995 -1.7307
 7439SOL    HW233780   3.573   2.614   6.446  1.3228  0.0064 -2.1535
 7440SOL     OW33781   3.940   2.642  15.372 -0.2432  0.4502  0.1122
 7440SOL    HW133782   3.894   2.664  15.291 -1.0075 -2.2193 -0.1546
 7440SOL    HW233783   3.934   2.722  15.424 -1.8326  0.1362  0.4186
 7441SOL     OW33784   2.550   4.240   3.746  0.1689  0.3031  0.3533
 7441SOL    HW133785   2.510   4.307   3.801 -0.5622  0.9373 -0.9521
 7441SOL    HW233786   2.492   4.164   3.747  1.5347 -0.7136  1.5570
 7442SOL     OW33787   0.663   2.891   0.991 -0.4862  0.0149 -0.0611
 7442SOL    HW133788   0.624   2.953   0.929  2.8701  1.5287 -0.6357
 7442SOL    HW233789   0.582   2.842   1.007 -0.4054 -1.1120 -3.0653
 7443SOL     OW33790   4.171   2.576   2.848  0.0405  0.3266  0.4394
 7443SOL    HW133791   4.093   2.550   2.799 -0.0975  0.7602  0.4273
 7443SOL    HW233792   4.217   2.493   2.837  1.8612  1.0295  2.6607
 7444SOL     OW33793   0.374   1.627   8.444 -0.2975 -0.0091 -0.0713
 7444SOL    HW133794   0.301   1.649   8.387 -1.3416  0.2130  1.3527
 7444SOL    HW233795   0.335   1.549   8.484  1.9886 -0.0849  2.0727
 7445SOL     OW33796   2.484   3.886  15.484 -0.0338 -0.3270  0.3258
 7445SOL    HW133797   2.537   3.966  15.476 -0.8461  0.0847 -0.9324
 7445SOL    HW233798   2.496   3.839  15.401 -3.1778  0.4930 -0.5944
 7446SOL     OW33799   0.219   1.422   8.452  0.0321 -0.0635 -0.1305
 7446SOL    HW133800   0.257   1.351   8.400  0.2097 -1.3582  1.7650
 7446SOL    HW233801   0.130   1.432   8.418  0.1473  0.0843 -0.3954
 7447SOL     OW33802   3.703   1.218  11.260  0.3565  0.1737  0.0502
 7447SOL    HW133803   3.720   1.212  11.166 -0.1616  2.2211 -0.1840
 7447SOL    HW233804   3.608   1.231  11.255  0.3238  0.3233  1.1393
 7448SOL     OW33805   2.478   1.946  11.949  0.2600 -0.2255 -0.0306
 7448SOL    HW133806   2.562   1.963  11.991 -0.4144  0.8828  0.8606
 7448SOL    HW233807   2.484   2.001  11.870  0.1400  1.8402  1.3896
 7449SOL     OW33808   2.319   3.678  12.968 -0.4899 -0.6106 -0.0779
 7449SOL    HW133809   2.228   3.650  12.957 -0.7015  0.5143 -1.2012
 7449SOL    HW233810   2.301   3.771  12.960  1.3221 -0.2276  0.2641
 7450SOL     OW33811   0.135   1.955   1.137 -0.9062 -0.0031 -0.5314
 7450SOL    HW133812   0.084   1.975   1.215 -1.4139  2.5060 -1.5293
 7450SOL    HW233813   0.226   1.977   1.158 -1.9667  2.6581  1.2319
 7451SOL     OW33814   3.141   4.513  10.309  0.0802 -0.2719  0.2442
 7451SOL    HW133815   3.200   4.456  10.261  1.5389 -0.6768  2.5113
 7451SOL    HW233816   3.054   4.495  10.274 -0.0014 -3.6240  2.1600
 7452SOL     OW33817   2.021   3.655   7.240 -0.0453 -0.0637  0.6408
 7452SOL    HW133818   1.955   3.706   7.193 -1.4811 -1.0135  1.6003
 7452SOL    HW233819   2.047   3.709   7.314  0.0598  0.3707  0.2845
 7453SOL     OW33820   0.831   3.623   5.208 -0.0130 -0.0590  0.5284
 7453SOL    HW133821   0.847   3.529   5.215  0.5519 -0.0591 -0.6992
 7453SOL    HW233822   0.769   3.627   5.281 -1.0832  1.1833 -0.4445
 7454SOL     OW33823   2.705   4.660   7.154 -0.2130 -0.1555  0.1274
 7454SOL    HW133824   2.791   4.621   7.171  0.8619  2.6274  1.0249
 7454SOL    HW233825   2.662   4.590   7.105  0.2065  0.5602 -1.2345
 7455SOL     OW33826   2.635   0.917   6.255 -0.4180  0.5183 -0.5167
 7455SOL    HW133827   2.648   0.887   6.345  0.2188  3.1552  0.2634
 7455SOL    HW233828   2.722   0.921   6.214  0.1942 -2.3411  0.5335
 7456SOL     OW33829   2.328   4.430   1.594  0.4538  0.4107 -0.0792
 7456SOL    HW133830   2.404   4.420   1.652  0.9426  1.1273 -0.5916
 7456SOL    HW233831   2.293   4.507   1.638 -0.4370 -0.3877  0.6114
 7457SOL     OW33832   3.669   2.960   3.400  0.3186 -0.2081  0.5853
 7457SOL    HW133833   3.742   2.924   3.451  1.5175  0.8584 -0.3703
 7457SOL    HW233834   3.628   2.876   3.381 -1.8692  0.3784  2.8550
 7458SOL     OW33835   2.808   2.512   4.869  0.2668  0.7790  0.2398
 7458SOL    HW133836   2.864   2.445   4.908  1.6780  0.5789 -2.1351
 7458SOL    HW233837   2.875   2.523   4.801  1.5563  0.2946  1.4375
 7459SOL     OW33838   4.708   0.324  12.371 -0.0124 -0.2730  0.1901
 7459SOL    HW133839   4.693   0.273  12.291  1.6446  1.8150 -1.4483
 7459SOL    HW233840   4.624   0.357  12.403 -0.9404 -2.7778  0.3536
 7460SOL     OW33841   2.140   1.144   5.555  0.1338  0.0154  0.4691
 7460SOL    HW133842   2.100   1.112   5.475  1.5708 -1.4466  0.3413
 7460SOL    HW233843   2.064   1.188   5.595  0.7651  0.3197  1.3386
 7461SOL     OW33844   0.573   2.839   4.439 -0.3004  0.3214 -0.2463
 7461SOL    HW133845   0.568   2.931   4.412  3.0319  0.9876  1.3774
 7461SOL    HW233846   0.479   2.828   4.453 -0.5380  0.1734 -1.9691
 7462SOL     OW33847   3.301   2.867   7.893  0.1055  0.0047 -0.4244
 7462SOL    HW133848   3.365   2.894   7.827 -1.6828 -0.2841 -2.2655
 7462SOL    HW233849   3.281   2.956   7.923  0.1339 -0.9215  2.4228
 7463SOL     OW33850   2.223   0.688   9.058  0.2851 -0.7446  0.2708
 7463SOL    HW133851   2.130   0.707   9.070  1.1720  2.1045  2.3759
 7463SOL    HW233852   2.248   0.751   8.991 -1.6051  0.0354  0.2966
 7464SOL     OW33853   3.663   1.710   3.998  1.0512 -0.0961  0.0439
 7464SOL    HW133854   3.759   1.709   4.005  0.9970 -4.0528 -0.0505
 7464SOL    HW233855   3.648   1.755   3.915  0.4226  1.2461  0.8906
 7465SOL     OW33856   3.024   3.123   5.690  0.6850 -0.6466 -0.1006
 7465SOL    HW133857   3.082   3.136   5.615 -0.5879 -0.5220 -1.0679
 7465SOL    HW233858   2.949   3.177   5.665  2.6221  1.0056 -2.3088
 7466SOL     OW33859   0.573   3.336  16.067  0.5770  0.7515  0.3601
 7466SOL    HW133860   0.524   3.354  16.147  0.0728  0.6331  0.0812
 7466SOL    HW233861   0.654   3.379  16.092  1.8033 -0.8534 -0.8415
 7467SOL     OW33862   2.305   0.555   2.903 -0.1804 -0.3999 -0.3762
 7467SOL    HW133863   2.348   0.542   2.818 -0.4077  2.6276 -0.9579
 7467SOL    HW233864   2.305   0.465   2.936  2.9047  0.0610  0.8447
 7468SOL     OW33865   0.048   0.408   4.864 -0.1810  0.2772  0.0829
 7468SOL    HW133866   0.124   0.350   4.861 -0.0903  0.4044 -0.0859
 7468SOL    HW233867   4.719   0.361   4.931  0.8939 -1.7575 -0.5462
 7469SOL     OW33868   4.587   4.208  12.032 -0.1054 -0.1007  0.1289
 7469SOL    HW133869   4.600   4.115  12.012  0.6109 -0.3982  2.0196
 7469SOL    HW233870   4.586   4.201  12.127 -1.8703  2.2361  0.2802
 7470SOL     OW33871   3.233   1.497   8.806 -0.3231  0.0185 -0.2872
 7470SOL    HW133872   3.190   1.422   8.765 -2.0370 -0.4910  2.4568
 7470SOL    HW233873   3.212   1.579   8.761 -3.8785 -0.4600  0.4877
 7471SOL     OW33874   0.757   1.025   8.376 -0.1604  0.1553  0.0889
 7471SOL    HW133875   0.805   0.992   8.452 -0.7733 -1.0256 -0.0310
 7471SOL    HW233876   0.812   1.093   8.338  0.6272 -0.3563  0.2995
 7472SOL     OW33877   0.334   0.794  17.231  0.0191  0.1072  0.2776
 7472SOL    HW133878   0.372   0.744  17.303 -0.0967 -0.5752 -0.1340
 7472SOL    HW233879   0.241   0.807  17.253 -0.8516 -2.0845 -2.1332
 7473SOL     OW33880   2.701   0.482   1.084 -0.3146 -0.2747  0.3186
 7473SOL    HW133881   2.708   0.389   1.062  0.2709  0.0029 -0.6634
 7473SOL    HW233882   2.618   0.478   1.131 -1.2719 -0.5543 -1.4036
 7474SOL     OW33883   0.619   0.067   1.486  0.2755 -0.1049 -0.0528
 7474SOL    HW133884   0.657   0.005   1.424  0.4288  0.7270 -0.7826
 7474SOL    HW233885   0.584   0.119   1.414  0.2509  0.2532  0.2135
 7475SOL     OW33886   0.207   0.071   2.142 -0.7966 -0.7187 -0.1737
 7475SOL    HW133887   0.161   0.141   2.190 -0.7421 -0.4504 -0.5098
 7475SOL    HW233888   0.151   4.713   2.142 -2.5097  0.5213  0.5272
 7476SOL     OW33889   2.628   4.226   4.458  0.2765 -0.4994  0.2622
 7476SOL    HW133890   2.686   4.237   4.382  0.7489  0.9235  0.8259
 7476SOL    HW233891   2.549   4.277   4.442  0.4206 -0.5913 -0.7899
 7477SOL     OW33892   0.077   1.074   5.617  0.3088  0.1062  0.3223
 7477SOL    HW133893   4.716   1.109   5.654  0.1173  0.5198 -0.4837
 7477SOL    HW233894   0.067   1.096   5.524 -0.4603 -1.3176  0.0695
 7478SOL     OW33895   0.164   3.090   2.915  0.1506  0.1045 -0.7598
 7478SOL    HW133896   0.175   2.995   2.917  1.3387  0.2650  0.2207
 7478SOL    HW233897   0.103   3.102   2.987  1.2245  2.0448 -0.1677
 7479SOL     OW33898   1.138   2.674  13.762 -0.6994  0.2549  0.2784
 7479SOL    HW133899   1.212   2.654  13.705 -1.2345 -0.2467 -0.2389
 7479SOL    HW233900   1.065   2.625  13.724 -0.8048  0.2869  0.4393
 7480SOL     OW33901   0.447   3.366  12.699 -0.4401  0.3383  0.0326
 7480SOL    HW133902   0.365   3.388  12.743  0.3642  2.0230  0.7037
 7480SOL    HW233903   0.448   3.427  12.626 -1.1962  2.6591  1.9611
 7481SOL     OW33904   3.219   3.908   7.190  0.5086  0.2492 -0.2866
 7481SOL    HW133905   3.166   3.929   7.113 -0.3666 -0.9090  0.0202
 7481SOL    HW233906   3.291   3.893   7.129 -0.2668  0.7034 -1.3121
 7482SOL     OW33907   0.790   3.891   4.552  0.1081 -0.2538  0.2165
 7482SOL    HW133908   0.864   3.831   4.543  1.0778  0.9305  0.4122
 7482SOL    HW233909   0.731   3.847   4.614 -1.4383  0.2878 -0.8888
 7483SOL     OW33910   3.652   2.181   5.101  0.2789  0.1665 -0.5651
 7483SOL    HW133911   3.706   2.104   5.080  1.1962  0.7445 -0.3388
 7483SOL    HW233912   3.715   2.250   5.078  0.8732  0.0048  0.5268
 7484SOL     OW33913   1.315   1.275   9.388 -0.6164  0.6386  0.2157
 7484SOL    HW133914   1.229   1.314   9.373 -1.1985 -0.4131  0.8007
 7484SOL    HW233915   1.287   1.206   9.448  0.1044  0.8472  0.7957
 7485SOL     OW33916   1.288   3.306   7.406 -0.3765  0.1478 -0.6303
 7485SOL    HW133917   1.369   3.256   7.392 -1.0326 -1.2669  0.5460
 7485SOL    HW233918   1.232   3.256   7.347 -0.9550  0.9616 -0.7611
 7486SOL     OW33919   1.246   2.725   2.685 -0.1149 -0.0629 -0.0655
 7486SOL    HW133920   1.267   2.774   2.764 -1.5864  1.2757 -0.5043
 7486SOL    HW233921   1.244   2.800   2.625  0.1707  0.1562  0.1975
 7487SOL     OW33922   2.810   4.200  14.396 -0.1125 -0.0840  0.7899
 7487SOL    HW133923   2.854   4.116  14.385 -0.3340 -0.1839  0.6890
 7487SOL    HW233924   2.779   4.206  14.487  0.6466 -1.1362  1.1207
 7488SOL     OW33925   3.863   4.170  12.539  0.2482 -0.1972  0.6610
 7488SOL    HW133926   3.795   4.237  12.536  1.2576  0.7433 -0.9558
 7488SOL    HW233927   3.939   4.221  12.510 -0.3772  0.3020 -0.1154
 7489SOL     OW33928   2.674   4.647   3.513  0.7236  0.8198 -0.0514
 7489SOL    HW133929   2.609   4.613   3.451 -0.4501 -0.7740  2.0580
 7489SOL    HW233930   2.737   4.684   3.451  0.3923  3.4188  1.1526
 7490SOL     OW33931   1.781   1.521   5.810  0.1123  0.3037  0.0064
 7490SOL    HW133932   1.719   1.594   5.816  0.8458  0.9186  0.1980
 7490SOL    HW233933   1.728   1.446   5.836  1.6858 -0.9944 -0.5105
 7491SOL     OW33934   2.301   3.190   7.045 -0.2468  0.2484 -0.1754
 7491SOL    HW133935   2.301   3.229   6.958  0.9358 -0.1173 -0.3379
 7491SOL    HW233936   2.396   3.190   7.058 -0.3288  2.7782  0.5333
 7492SOL     OW33937   1.386   3.234  13.679  0.3578  0.0274 -0.1423
 7492SOL    HW133938   1.391   3.165  13.745 -1.1827  0.7389  0.7274
 7492SOL    HW233939   1.329   3.198  13.611  0.4800 -3.2377  1.4561
 7493SOL     OW33940   1.893   3.358   6.863  0.7281 -0.0368  0.1044
 7493SOL    HW133941   1.854   3.323   6.783 -1.8544  0.9616  0.9546
 7493SOL    HW233942   1.930   3.442   6.834  1.2493 -0.0213  0.8146
 7494SOL     OW33943   4.534   0.207   1.012 -0.5233 -0.0484 -0.0968
 7494SOL    HW133944   4.445   0.212   1.046 -0.3748 -2.4959  0.6705
 7494SOL    HW233945   4.556   0.294   1.045 -0.0262  0.2171 -1.1471
 7495SOL     OW33946   4.690   4.339   9.124  0.0097  0.0807 -0.1091
 7495SOL    HW133947   4.610   4.323   9.173 -0.9544  1.8212 -1.1375
 7495SOL    HW233948   0.037   4.290   9.173 -0.8816 -1.6102 -0.5668
 7496SOL     OW33949   1.840   1.731  12.613 -0.4041  0.5072  0.0995
 7496SOL    HW133950   1.851   1.802  12.549 -0.8977 -0.4688 -1.0630
 7496SOL    HW233951   1.923   1.686  12.604  1.4573  4.1435 -0.7818
 7497SOL     OW33952   3.379   2.027   4.066  0.4040 -0.3463  0.7505
 7497SOL    HW133953   3.344   2.087   4.132 -0.5867  0.8228 -0.8369
 7497SOL    HW233954   3.402   1.953   4.122 -4.2198 -1.7737  0.7580
 7498SOL     OW33955   4.089   1.814   5.769  0.5493  0.0963 -0.6391
 7498SOL    HW133956   4.176   1.810   5.729  1.0855  1.6576  0.3922
 7498SOL    HW233957   4.057   1.901   5.746 -1.3322  0.5551  3.7893
 7499SOL     OW33958   3.826   1.209   4.726 -0.2097  0.2056  0.6409
 7499SOL    HW133959   3.905   1.240   4.682 -0.3596  1.5551  1.3167
 7499SOL    HW233960   3.790   1.296   4.744  1.0600  1.1240 -1.2289
 7500SOL     OW33961   0.240   2.288  16.530 -0.5763 -0.2447  0.0323
 7500SOL    HW133962   0.310   2.333  16.576  1.1585 -1.8249 -1.0218
 7500SOL    HW233963   0.234   2.328  16.444  0.5242  2.7081  1.3403
 7501SOL     OW33964   3.318   2.971   1.875 -0.0562  0.0769  0.1365
 7501SOL    HW133965   3.381   2.902   1.896  0.9913  0.3225 -2.1415
 7501SOL    HW233966   3.366   3.041   1.831 -2.7877  0.8817 -1.5655
 7502SOL     OW33967   1.296   3.529   4.890 -0.0592 -0.2419 -0.1913
 7502SOL    HW133968   1.218   3.578   4.917  1.7373  2.1155  0.7416
 7502SOL    HW233969   1.265   3.500   4.805 -0.0374  0.4933 -0.4468
 7503SOL     OW33970   3.301   2.135  13.428 -0.0426 -0.4160  0.0270
 7503SOL    HW133971   3.249   2.056  13.412  0.6473 -1.0296  0.8445
 7503SOL    HW233972   3.307   2.138  13.524  1.2538 -0.4818 -0.0542
 7504SOL     OW33973   3.481   0.397   7.498  0.3376 -0.3727 -0.0208
 7504SOL    HW133974   3.472   0.405   7.403 -1.8560 -0.2599  0.1970
 7504SOL    HW233975   3.489   0.302   7.490 -0.6689 -0.6014  1.6749
 7505SOL     OW33976   3.983   0.247   7.770 -0.0538 -0.4583  0.1971
 7505SOL    HW133977   4.036   0.210   7.841  0.8913  1.3383  0.4377
 7505SOL    HW233978   3.919   0.302   7.815  1.4790 -0.8661  2.8761
 7506SOL     OW33979   2.167   1.860  10.390  0.2550 -0.1813  0.3672
 7506SOL    HW133980   2.236   1.795  10.375 -2.6440 -2.1296 -4.2425
 7506SOL    HW233981   2.213   1.943  10.401  3.0580 -1.7200  0.2204
 7507SOL     OW33982   3.178   3.242   0.608 -0.2193 -0.3020 -0.3604
 7507SOL    HW133983   3.137   3.185   0.543  0.1498 -0.0115 -0.8512
 7507SOL    HW233984   3.106   3.282   0.655  0.8215 -0.4934  1.3988
 7508SOL     OW33985   2.792   1.066  17.353  0.0617  0.2241 -0.1597
 7508SOL    HW133986   2.704   1.030  17.336  0.5985 -1.8024  1.3976
 7508SOL    HW233987   2.835   1.052  17.268  0.9742  2.3449 -0.0438
 7509SOL     OW33988   0.527   2.414  12.570 -0.3447  0.4592 -0.2354
 7509SOL    HW133989   0.621   2.421  12.555 -0.4983  1.1528 -0.8714
 7509SOL    HW233990   0.500   2.482  12.508  0.2414  0.9043  0.0033
 7510SOL     OW33991   1.273   1.154  13.989 -0.2404  1.0155 -0.1621
 7510SOL    HW133992   1.355   1.196  13.964 -0.3927  0.8319 -0.9719
 7510SOL    HW233993   1.278   1.151  14.085  0.2719 -1.8272 -0.2738
 7511SOL     OW33994   4.469   0.736   3.873 -0.2239 -0.4306 -0.2914
 7511SOL    HW133995   4.523   0.717   3.797 -2.0951 -1.0584 -1.4633
 7511SOL    HW233996   4.467   0.831   3.862  0.9890 -0.4481 -0.6009
 7512SOL     OW33997   0.042   1.271   2.908 -0.0433 -0.7504 -0.8923
 7512SOL    HW133998   4.697   1.322   2.858 -1.1523 -1.4539 -0.1921
 7512SOL    HW233999   4.718   1.186   2.895 -1.0829 -0.5965  1.7385
 7513SOL     OW34000   0.408   1.903   7.038 -0.4561 -0.3996  0.6098
 7513SOL    HW134001   0.339   1.941   6.984 -0.0502  1.7990  1.6261
 7513SOL    HW234002   0.367   1.893   7.124  0.9112 -0.2244  1.2875
 7514SOL     OW34003   2.336   4.372   5.002  0.8812  0.3271  0.6298
 7514SOL    HW134004   2.427   4.382   4.976  0.4712  1.3119 -0.4104
 7514SOL    HW234005   2.319   4.280   4.981  0.6225  0.4015  0.5144
 7515SOL     OW34006   2.805   2.434   2.151  0.4642 -0.1782 -0.0348
 7515SOL    HW134007   2.850   2.466   2.230 -2.0488 -1.3984  1.8780
 7515SOL    HW234008   2.760   2.363   2.196 -0.4594  1.9239  2.3145
 7516SOL     OW34009   2.328   0.147   6.976 -0.4861 -0.2861 -0.8887
 7516SOL    HW134010   2.349   0.053   6.972  1.2622  0.0191  1.2733
 7516SOL    HW234011   2.385   0.164   7.051  1.1621  0.0594 -2.2234
 7517SOL     OW34012   2.787   0.108  12.982 -0.6211  0.2490  0.9441
 7517SOL    HW134013   2.743   0.189  13.007 -2.2795  0.0223 -1.3022
 7517SOL    HW234014   2.716   0.052  12.952 -3.0050  2.6590  2.1185
 7518SOL     OW34015   1.568   0.616  16.845 -0.1398 -0.6890 -0.3166
 7518SOL    HW134016   1.504   0.593  16.913 -1.0456  1.5032 -0.4241
 7518SOL    HW234017   1.526   0.613  16.759  0.3209  0.3207 -0.5711
 7519SOL     OW34018   1.020   3.438   3.317  0.1264  0.3852 -0.0912
 7519SOL    HW134019   1.020   3.530   3.291 -4.7954  0.6325  0.7486
 7519SOL    HW234020   1.098   3.417   3.266 -0.5454  0.8958 -1.3176
 7520SOL     OW34021   1.762   2.617  10.038  0.1066 -0.1528  0.0602
 7520SOL    HW134022   1.766   2.707  10.007 -1.5974 -0.3879 -0.8314
 7520SOL    HW234023   1.837   2.627  10.097  0.6651 -0.4609 -0.6012
 7521SOL     OW34024   2.961   3.169   3.306 -0.9994 -0.1528 -0.3556
 7521SOL    HW134025   2.946   3.094   3.249  0.6820 -0.5123 -0.3377
 7521SOL    HW234026   3.055   3.180   3.292 -1.1099 -0.2128 -1.1139
 7522SOL     OW34027   2.992   1.281   7.342 -0.4595  0.1389  0.4170
 7522SOL    HW134028   3.071   1.229   7.356 -0.0675  1.0918  1.7647
 7522SOL    HW234029   3.014   1.322   7.258  2.0726  0.5267  1.2502
 7523SOL     OW34030   4.573   2.903   7.696 -0.4934  0.2847  0.4812
 7523SOL    HW134031   4.592   2.968   7.628  1.2627 -0.5186  0.2155
 7523SOL    HW234032   4.508   2.961   7.736 -1.2214 -0.7497  0.8110
 7524SOL     OW34033   1.689   3.802  10.471  0.2943  0.3340 -0.0243
 7524SOL    HW134034   1.781   3.830  10.478  1.0578 -1.7905 -1.6384
 7524SOL    HW234035   1.703   3.715  10.507 -0.7430 -0.4051 -1.4321
 7525SOL     OW34036   2.043   1.735   5.742  0.0074  0.1498 -0.3304
 7525SOL    HW134037   1.993   1.728   5.660 -0.3742 -0.2145 -0.0646
 7525SOL    HW234038   2.134   1.713   5.722  0.0908  0.6492 -0.5046
 7526SOL     OW34039   2.786   1.864   2.244  0.3905 -0.6507 -0.2889
 7526SOL    HW134040   2.737   1.902   2.171  0.8295  0.3268 -0.0718
 7526SOL    HW234041   2.729   1.793   2.273  0.7612 -0.8970 -0.1645
 7527SOL     OW34042   3.356   4.268  15.877 -0.1609 -0.1641  0.4199
 7527SOL    HW134043   3.315   4.351  15.902 -0.2497  0.1767 -0.8859
 7527SOL    HW234044   3.323   4.220  15.953 -0.4293  0.5255  0.7430
 7528SOL     OW34045   3.813   3.540  10.646 -0.5810 -0.2425  0.5076
 7528SOL    HW134046   3.903   3.508  10.653 -0.5800  0.0718  1.9792
 7528SOL    HW234047   3.825   3.599  10.572  0.5953 -0.9030  0.1694
 7529SOL     OW34048   1.024   2.971   6.755 -0.1241 -0.2913  0.2158
 7529SOL    HW134049   0.972   2.898   6.722 -1.4744 -0.5350  2.8826
 7529SOL    HW234050   1.080   2.922   6.816 -1.0555 -1.2192  0.3172
 7530SOL     OW34051   2.241   4.128  10.945 -0.0281 -0.6011 -0.2427
 7530SOL    HW134052   2.272   4.188  10.878 -2.7016  3.0007  1.7431
 7530SOL    HW234053   2.318   4.074  10.965  1.6432  2.4430  1.6573
 7531SOL     OW34054   0.751   0.174  12.775 -0.8152  0.1576  0.0522
 7531SOL    HW134055   0.836   0.214  12.794 -1.2794  1.8452 -1.5097
 7531SOL    HW234056   0.710   0.180  12.862 -1.2109 -1.5698 -0.0229
 7532SOL     OW34057   1.253   2.262   7.586  0.4361 -0.2765  0.0900
 7532SOL    HW134058   1.174   2.234   7.539 -0.9239  0.5690  1.8830
 7532SOL    HW234059   1.211   2.255   7.671  1.0830 -3.7022  0.1116
 7533SOL     OW34060   1.902   0.165   4.173 -0.7341  0.1513  0.1237
 7533SOL    HW134061   1.910   0.248   4.126  0.6030 -0.7299 -1.1883
 7533SOL    HW234062   1.887   0.180   4.267 -2.6134  0.2024 -0.1956
 7534SOL     OW34063   4.698   0.779   1.805  0.2099  0.3458  0.2529
 7534SOL    HW134064   0.046   0.820   1.858  0.9762 -1.3788  0.6293
 7534SOL    HW234065   0.010   0.690   1.789  0.6140  0.6478 -0.6098
 7535SOL     OW34066   0.680   0.001   0.996  0.1734 -0.2749 -0.7001
 7535SOL    HW134067   0.594   0.043   1.003  0.4363 -0.2673  2.5286
 7535SOL    HW234068   0.728   0.058   0.935  0.4636  0.2239 -0.0115
 7536SOL     OW34069   1.327   1.568   2.187 -0.1754 -0.0486 -0.1182
 7536SOL    HW134070   1.275   1.598   2.112  1.9055  0.8504 -1.2022
 7536SOL    HW234071   1.300   1.634   2.251  2.0408  1.8826 -1.1473
 7537SOL     OW34072   2.309   3.504   5.009 -0.1326 -0.0026  0.7002
 7537SOL    HW134073   2.215   3.485   5.008 -0.0960 -0.1807  0.6984
 7537SOL    HW234074   2.310   3.557   5.089 -0.0698  1.9210 -0.5810
 7538SOL     OW34075   1.437   2.950   5.772  0.1663  0.6403  0.1909
 7538SOL    HW134076   1.468   3.016   5.834 -0.2538  0.0189  1.0614
 7538SOL    HW234077   1.420   2.876   5.830  0.5136  0.1129 -0.3785
 7539SOL     OW34078   2.645   1.311   5.987  0.5432 -0.5377  0.0149
 7539SOL    HW134079   2.741   1.314   5.987  0.4911  1.5715 -0.2727
 7539SOL    HW234080   2.626   1.393   6.033  1.5329  0.9867 -2.2765
 7540SOL     OW34081   1.905   0.060   1.071 -0.5812 -0.0576 -0.1430
 7540SOL    HW134082   1.822   0.098   1.040  2.0268  1.4788 -5.2757
 7540SOL    HW234083   1.941   0.134   1.120 -0.3380 -0.5934  0.4745
 7541SOL     OW34084   0.086   0.517  15.369  0.2849 -0.2677  0.3731
 7541SOL    HW134085   0.015   0.579  15.351  0.7245  0.2963  0.5809
 7541SOL    HW234086   0.126   0.529  15.282 -0.4822  2.2993  0.3600
 7542SOL     OW34087   0.379   0.691   3.884  0.0474 -0.6410  0.3518
 7542SOL    HW134088   0.324   0.669   3.810 -1.2697 -0.1820  1.1918
 7542SOL    HW234089   0.329   0.769   3.905 -2.1143 -1.8294 -0.4603
 7543SOL     OW34090   4.515   0.176  13.850  0.0203  0.4628  0.1670
 7543SOL    HW134091   4.575   0.105  13.873  0.2575  0.7697  0.4856
 7543SOL    HW234092   4.432   0.129  13.863 -1.1270  2.2856 -0.6683
 7544SOL     OW34093   1.711   0.167   7.742  0.2006  0.2105  0.1202
 7544SOL    HW134094   1.786   0.198   7.691 -1.3023  0.6024 -1.8596
 7544SOL    HW234095   1.745   0.092   7.789 -1.1904 -0.1682  0.5394
 7545SOL     OW34096   1.351   1.652  15.229 -0.3263 -0.6117  0.2647
 7545SOL    HW134097   1.352   1.574  15.173 -2.2399  1.5483 -2.7776
 7545SOL    HW234098   1.436   1.635  15.269  0.4530  4.8797  0.9324
 7546SOL     OW34099   4.540   2.144   8.845  0.2229 -0.4253 -0.0797
 7546SOL    HW134100   4.561   2.055   8.815  2.2963 -0.0127  0.1089
 7546SOL    HW234101   4.482   2.134   8.920  0.5107  3.0697  0.5918
 7547SOL     OW34102   4.100   2.965  15.754  0.2424  0.4471  0.0739
 7547SOL    HW134103   4.010   2.966  15.787  0.4280 -0.0868  0.5964
 7547SOL    HW234104   4.104   2.881  15.708  0.3913  1.3087 -1.5047
 7548SOL     OW34105   0.735   3.537   0.589 -0.2772  0.8664  0.4933
 7548SOL    HW134106   0.798   3.491   0.645  0.9504  0.0912 -1.5453
 7548SOL    HW234107   0.685   3.569   0.664 -3.0670 -0.7896 -0.6975
 7549SOL     OW34108   3.674   2.507   9.775  0.3048 -0.1512 -0.2419
 7549SOL    HW134109   3.697   2.463   9.693 -0.5657  0.8318 -1.0257
 7549SOL    HW234110   3.617   2.441   9.814  0.4571 -0.9888 -1.4672
 7550SOL     OW34111   4.580   2.135  11.113  0.0156 -0.1843  0.1179
 7550SOL    HW134112   4.572   2.107  11.022  0.8084  2.0219 -0.6201
 7550SOL    HW234113   4.662   2.184  11.109 -0.0355 -0.0055  1.2600
 7551SOL     OW34114   0.274   3.142   9.238  0.2363  0.1566  0.2660
 7551SOL    HW134115   0.203   3.098   9.285  1.6966 -2.8647 -0.3642
 7551SOL    HW234116   0.264   3.109   9.149  0.5533  2.1551 -0.5070
 7552SOL     OW34117   3.061   2.821   3.420 -0.4244 -0.5071 -0.1867
 7552SOL    HW134118   3.118   2.744   3.419  2.2377  1.4707 -2.0340
 7552SOL    HW234119   3.114   2.885   3.466 -2.8659  0.1613  1.6823
 7553SOL     OW34120   0.423   3.944   4.810  0.0096 -0.0466  0.4731
 7553SOL    HW134121   0.467   4.020   4.848  2.0415 -0.1018 -1.7425
 7553SOL    HW234122   0.497   3.893   4.775  0.4504 -0.4606  2.0256
 7554SOL     OW34123   3.679   2.444  17.473  0.7229 -0.3842 -0.1661
 7554SOL    HW134124   3.618   2.503  17.430 -0.9871  0.4733  3.4364
 7554SOL    HW234125   3.671   2.364  17.421  0.7524  0.2347 -1.1107
 7555SOL     OW34126   3.665   0.195  10.584  0.1680 -0.1017  0.0530
 7555SOL    HW134127   3.756   0.223  10.596  0.2602  0.4108 -1.7684
 7555SOL    HW234128   3.664   0.127  10.651  1.0096 -3.3128 -3.2073
 7556SOL     OW34129   4.716   2.946   5.105 -0.6885  0.1190 -0.0544
 7556SOL    HW134130   0.026   3.013   5.166 -1.4549  1.1996 -0.8763
 7556SOL    HW234131   4.658   2.992   5.045  2.9075  1.5344 -2.4034
 7557SOL     OW34132   4.262   1.873   9.413  0.2882 -0.4887 -0.2009
 7557SOL    HW134133   4.178   1.872   9.367  0.2751 -6.8357 -0.0086
 7557SOL    HW234134   4.308   1.908   9.338 -0.3766  0.5693 -0.1106
 7558SOL     OW34135   0.756   3.971   2.326  0.3525 -0.0456  0.3547
 7558SOL    HW134136   0.779   4.020   2.404  1.5348 -1.4053  0.8612
 7558SOL    HW234137   0.836   3.971   2.273  0.0726 -2.5621 -0.0616
 7559SOL     OW34138   3.186   2.372  13.680 -0.7424 -0.1153 -0.0087
 7559SOL    HW134139   3.110   2.410  13.726 -1.4568 -0.5356 -0.8323
 7559SOL    HW234140   3.189   2.285  13.718  1.1353  0.8373  1.9979
 7560SOL     OW34141   3.288   2.097  16.217 -0.2497 -0.3747 -0.3768
 7560SOL    HW134142   3.288   2.152  16.139 -2.1107  0.6362  0.3321
 7560SOL    HW234143   3.220   2.031  16.206  2.1769 -2.8724 -0.2740
 7561SOL     OW34144   4.259   3.927  15.389  0.3505 -0.2496 -0.3021
 7561SOL    HW134145   4.306   4.005  15.418 -1.1480  0.4912  0.1289
 7561SOL    HW234146   4.284   3.944  15.298 -1.5350  0.3333 -0.6996
 7562SOL     OW34147   4.223   2.018   7.533  0.3913 -0.3036 -0.1470
 7562SOL    HW134148   4.204   1.971   7.614 -1.6395 -3.8665 -2.7283
 7562SOL    HW234149   4.146   1.993   7.482  1.1532  1.1363 -1.9776
 7563SOL     OW34150   1.259   0.803   6.363 -0.4949  0.4407  0.5033
 7563SOL    HW134151   1.206   0.804   6.283 -0.3769  0.0315  0.4172
 7563SOL    HW234152   1.349   0.791   6.332 -0.4403  0.4375  0.6629
 7564SOL     OW34153   3.397   4.550   8.055  0.3660 -0.1595  0.1193
 7564SOL    HW134154   3.306   4.552   8.024  1.1949  3.1282 -2.0268
 7564SOL    HW234155   3.409   4.642   8.078  0.1918  0.2003 -1.1939
 7565SOL     OW34156   4.275   2.930   6.515 -0.4889  0.7535 -0.0144
 7565SOL    HW134157   4.184   2.949   6.540 -1.0974 -1.8213 -0.2926
 7565SOL    HW234158   4.271   2.873   6.439  0.0244  0.3585  0.2556
 7566SOL     OW34159   0.653   2.819  16.372  0.2693 -0.3847 -0.1428
 7566SOL    HW134160   0.688   2.843  16.286 -1.0335  1.1001 -0.2551
 7566SOL    HW234161   0.710   2.878  16.422  0.3278 -1.0029  0.5302
 7567SOL     OW34162   0.492   2.400  11.149 -0.3832 -0.6439 -0.2662
 7567SOL    HW134163   0.424   2.464  11.169  0.8445  0.0202  1.8336
 7567SOL    HW234164   0.453   2.314  11.168 -0.9328 -0.4808 -0.6871
 7568SOL     OW34165   2.891   1.453   9.306  0.2149 -0.1383  0.0047
 7568SOL    HW134166   2.852   1.368   9.291  0.3956 -0.3997  1.0488
 7568SOL    HW234167   2.878   1.501   9.224 -1.6427 -0.7617 -0.0523
 7569SOL     OW34168   2.350   3.711   8.197  0.2462  0.8638  0.5498
 7569SOL    HW134169   2.293   3.636   8.213  2.0008 -0.3723  1.0596
 7569SOL    HW234170   2.440   3.679   8.208 -0.0243  0.3076  1.1268
 7570SOL     OW34171   1.996   0.603  15.981 -0.2135 -0.1275  0.8370
 7570SOL    HW134172   1.962   0.630  16.066 -1.1678  1.2449  0.0138
 7570SOL    HW234173   2.062   0.668  15.957 -0.7484  0.3682  0.7044
 7571SOL     OW34174   1.177   4.467  11.795  0.1617  0.1630  0.5160
 7571SOL    HW134175   1.195   4.502  11.882  0.3161  0.5100  0.3438
 7571SOL    HW234176   1.092   4.499  11.764  0.5475  1.7818  1.1421
 7572SOL     OW34177   1.660   2.844   8.080  0.4909  0.0534  0.3657
 7572SOL    HW134178   1.677   2.854   7.987  0.1009 -0.2771  0.2561
 7572SOL    HW234179   1.662   2.748   8.086  2.4180  0.0322 -0.8022
 7573SOL     OW34180   1.239   3.087   5.612  0.1706  0.0300 -0.4014
 7573SOL    HW134181   1.313   3.048   5.658  0.5993  1.5626  0.1999
 7573SOL    HW234182   1.267   3.073   5.522  0.0961  2.2117 -0.7775
 7574SOL     OW34183   1.282   0.767   3.012 -0.1674 -0.0676  0.1268
 7574SOL    HW134184   1.316   0.770   2.922  0.5836  2.2076  0.4624
 7574SOL    HW234185   1.269   0.861   3.028 -1.0783 -0.3326  0.8932
 7575SOL     OW34186   2.541   4.593  15.602  0.3383 -0.1668 -0.3342
 7575SOL    HW134187   2.523   4.507  15.640  0.7231 -0.0566  0.1011
 7575SOL    HW234188   2.462   4.640  15.577  0.4683 -0.4967 -1.3687
 7576SOL     OW34189   0.009   1.311  17.502 -0.1625 -0.4360 -0.0420
 7576SOL    HW134190   0.044   1.298  17.590 -2.5751  1.1409  1.1565
 7576SOL    HW234191   0.039   1.231  17.458 -1.1410 -2.0318  2.2128
 7577SOL     OW34192   1.325   0.498   5.149 -0.0318  0.2622 -0.4115
 7577SOL    HW134193   1.394   0.521   5.211 -0.1636 -1.2470  0.2991
 7577SOL    HW234194   1.338   0.567   5.085 -2.3528  1.6783  0.6198
 7578SOL     OW34195   0.158   4.067   5.601  0.2330  0.2527 -0.0461
 7578SOL    HW134196   0.105   4.090   5.525  3.0863 -0.3426 -2.1705
 7578SOL    HW234197   0.133   4.139   5.660 -0.4318  1.3642 -1.6778
 7579SOL     OW34198   4.575   1.286  13.938  0.6437  0.3170 -1.3303
 7579SOL    HW134199   4.560   1.195  13.962  1.1631  0.5966  0.0657
 7579SOL    HW234200   4.668   1.286  13.962  0.7303 -0.3688 -1.6700
 7580SOL     OW34201   2.566   3.742  14.136  0.1320 -0.3758  0.1788
 7580SOL    HW134202   2.537   3.786  14.215 -0.5996 -1.9662  0.7889
 7580SOL    HW234203   2.653   3.716  14.166 -0.1828 -1.2526  0.3356
 7581SOL     OW34204   2.163   3.530   6.258 -0.0416 -0.0124  0.6608
 7581SOL    HW134205   2.139   3.438   6.269 -0.3289  0.0367  0.4458
 7581SOL    HW234206   2.224   3.522   6.185 -0.0899  0.6426  0.5458
 7582SOL     OW34207   0.158   0.047   9.335 -0.1397 -0.4772 -0.1900
 7582SOL    HW134208   0.157   4.701   9.404 -1.2365  1.3190  1.4815
 7582SOL    HW234209   0.119   4.718   9.262 -1.1017 -1.2680  0.8482
 7583SOL     OW34210   1.448   4.516  14.867 -0.1848  0.5210  0.1304
 7583SOL    HW134211   1.403   4.440  14.831 -0.2534  0.9371 -0.6624
 7583SOL    HW234212   1.397   4.586  14.828  1.4976  1.7785  0.1883
 7584SOL     OW34213   0.515   3.040   5.487  0.2474 -0.0224 -0.3865
 7584SOL    HW134214   0.488   3.085   5.568 -0.7926  0.9544 -1.2725
 7584SOL    HW234215   0.526   2.951   5.520 -0.7994  0.3034  0.8880
 7585SOL     OW34216   0.626   4.223   8.504 -0.6411  0.2636  0.7368
 7585SOL    HW134217   0.702   4.184   8.546 -1.3834 -0.6522  1.2251
 7585SOL    HW234218   0.557   4.167   8.539 -1.5250  0.9384  0.0779
 7586SOL     OW34219   1.366   4.687   8.294  0.4691  0.4020 -0.7420
 7586SOL    HW134220   1.444   0.009   8.331  0.2933 -0.5742  0.7447
 7586SOL    HW234221   1.338   4.635   8.369  0.6248  0.9964 -0.2714
 7587SOL     OW34222   3.694   0.063   6.180  0.2271 -0.2853  0.2323
 7587SOL    HW134223   3.677   0.153   6.154 -1.4385 -0.9433 -0.9437
 7587SOL    HW234224   3.730   0.073   6.268 -1.8352 -1.5762  1.2009
 7588SOL     OW34225   0.703   1.568   5.902  0.4990  0.8859 -0.5406
 7588SOL    HW134226   0.610   1.575   5.924  0.5633  1.4374 -0.4420
 7588SOL    HW234227   0.736   1.520   5.978  0.5048  0.8590 -0.5602
 7589SOL     OW34228   1.553   1.989   9.108  0.0907 -0.5447 -0.0391
 7589SOL    HW134229   1.613   2.063   9.106 -0.9835  0.3305  0.3759
 7589SOL    HW234230   1.568   1.960   9.198 -3.7875  1.3071  1.2003
 7590SOL     OW34231   1.727   3.791   4.439 -0.0923  0.1875 -0.3362
 7590SOL    HW134232   1.737   3.720   4.375  2.2511 -1.0605  1.4004
 7590SOL    HW234233   1.775   3.863   4.399 -1.3057  0.5141 -1.1978
 7591SOL     OW34234   0.560   1.396  16.351 -0.1247 -0.7008  0.5304
 7591SOL    HW134235   0.516   1.331  16.406  0.0024 -2.0039 -0.9128
 7591SOL    HW234236   0.625   1.413  16.419  0.6990 -1.5811 -0.0372
 7592SOL     OW34237   3.095   4.622   7.511  0.5049  0.4824 -0.0147
 7592SOL    HW134238   3.116   4.622   7.417 -1.4629  0.1880 -0.4534
 7592SOL    HW234239   3.029   4.690   7.523  0.9564  1.2854 -2.1067
 7593SOL     OW34240   3.121   3.009   6.124 -0.4155 -0.1756  0.2669
 7593SOL    HW134241   3.133   2.916   6.105  0.6261 -0.2234  1.1737
 7593SOL    HW234242   3.119   3.053   6.039  1.8351 -1.7963 -0.6179
 7594SOL     OW34243   2.657   3.718   5.102 -0.3412 -0.1640 -1.1405
 7594SOL    HW134244   2.619   3.630   5.093 -0.5159 -0.1955 -0.0428
 7594SOL    HW234245   2.633   3.732   5.194  3.2696 -0.4779 -0.1526
 7595SOL     OW34246   3.889   3.360  17.024 -0.1787 -0.7611  0.1267
 7595SOL    HW134247   3.883   3.297  17.096 -0.3615 -0.3516  0.4783
 7595SOL    HW234248   3.945   3.303  16.973  0.0302 -1.2390  0.8819
 7596SOL     OW34249   2.841   4.276   8.929 -0.3795  0.1540 -0.1682
 7596SOL    HW134250   2.755   4.318   8.927 -1.1115 -1.4024 -1.1361
 7596SOL    HW234251   2.829   4.209   8.861 -1.5556  0.8684 -0.6774
 7597SOL     OW34252   1.532   0.416   6.813  0.1746  0.0299  0.3846
 7597SOL    HW134253   1.507   0.398   6.904 -0.4856 -0.2473  0.1495
 7597SOL    HW234254   1.627   0.421   6.823  0.1901  0.5711 -0.0535
 7598SOL     OW34255   4.169   2.621   4.324  0.9353  0.5006  0.7199
 7598SOL    HW134256   4.165   2.674   4.404 -2.2707 -2.5031  2.5657
 7598SOL    HW234257   4.188   2.531   4.353 -1.1527 -0.0756  0.2738
 7599SOL     OW34258   3.290   1.907   5.248 -0.0912 -0.8989  0.2525
 7599SOL    HW134259   3.241   1.988   5.264  0.2904 -0.6258  0.0131
 7599SOL    HW234260   3.381   1.929   5.228 -0.7331  1.8766  0.5108
 7600SOL     OW34261   2.590   3.692   2.511 -0.2797  0.7257  0.6452
 7600SOL    HW134262   2.662   3.670   2.571  0.1817  1.6771  0.4312
 7600SOL    HW234263   2.585   3.611   2.460 -2.8301  1.5123 -0.3189
 7601SOL     OW34264   3.675   3.147   8.350  0.2665  0.2795 -0.4192
 7601SOL    HW134265   3.758   3.136   8.303  1.1599  1.5274  0.8689
 7601SOL    HW234266   3.710   3.112   8.432  1.7183  2.7506  0.0017
 7602SOL     OW34267   2.475   4.518  15.056 -0.5099  0.9137  0.0087
 7602SOL    HW134268   2.446   4.434  15.021  1.4187  0.8864 -1.5309
 7602SOL    HW234269   2.436   4.510  15.143 -1.2178 -0.9668 -0.4862
 7603SOL     OW34270   4.394   3.258  12.845 -1.0098 -0.6582  0.1321
 7603SOL    HW134271   4.330   3.193  12.818  0.0679 -0.6358 -2.4324
 7603SOL    HW234272   4.335   3.333  12.845  1.1819  1.0939 -0.7009
 7604SOL     OW34273   3.124   3.544   2.706  0.0319 -0.3091  0.2285
 7604SOL    HW134274   3.162   3.624   2.742 -1.3160 -0.5750  2.2763
 7604SOL    HW234275   3.035   3.576   2.688  0.5110  1.8253  1.6966
 7605SOL     OW34276   1.079   1.019   9.313 -0.2075 -0.0171  0.1572
 7605SOL    HW134277   1.144   1.034   9.381 -0.7307  1.6180  0.2938
 7605SOL    HW234278   1.049   0.933   9.343  2.2580 -1.4542 -1.4970
 7606SOL     OW34279   2.658   2.119   4.147  0.0997  0.2576 -0.1566
 7606SOL    HW134280   2.694   2.198   4.108 -2.4955  1.7816  0.5339
 7606SOL    HW234281   2.604   2.161   4.214  2.1440 -0.5210  1.9862
 7607SOL     OW34282   4.424   1.489  11.689 -0.3517  0.2843  0.2897
 7607SOL    HW134283   4.456   1.573  11.656  0.0168  0.0081 -0.0465
 7607SOL    HW234284   4.389   1.464  11.604 -0.1955 -0.3609  0.4136
 7608SOL     OW34285   1.206   2.690  14.022 -0.1123 -0.2629 -0.4465
 7608SOL    HW134286   1.294   2.673  13.989  0.7297  2.8785  0.1072
 7608SOL    HW234287   1.160   2.689  13.938 -0.2908 -2.8443 -0.3093
 7609SOL     OW34288   1.156   1.321   1.531 -0.0963 -0.1562 -0.7153
 7609SOL    HW134289   1.094   1.301   1.461  3.0522 -0.8706 -3.2927
 7609SOL    HW234290   1.094   1.339   1.602  1.3286 -1.4394  0.8943
 7610SOL     OW34291   1.805   0.129   6.568 -0.0002  0.3191  0.8142
 7610SOL    HW134292   1.773   0.219   6.581 -0.8520  0.1571 -0.1422
 7610SOL    HW234293   1.719   0.086   6.566  0.5770 -0.8589  1.4559
 7611SOL     OW34294   2.852   0.001   2.888 -0.0359 -0.4895 -0.1989
 7611SOL    HW134295   2.785   0.009   2.820  0.0297 -0.8959 -0.3087
 7611SOL    HW234296   2.803   0.003   2.970  2.1081  2.0185  1.0496
 7612SOL     OW34297   4.554   0.529   4.705 -0.3032 -0.0149 -0.3731
 7612SOL    HW134298   4.574   0.577   4.785 -0.3621  1.3574 -1.1946
 7612SOL    HW234299   4.636   0.483   4.687  0.5683  0.5043  2.2633
 7613SOL     OW34300   4.608   0.895  10.311 -0.4272 -0.6087  0.7360
 7613SOL    HW134301   4.535   0.935  10.358 -1.7042 -1.4300 -0.5619
 7613SOL    HW234302   4.589   0.807  10.344 -0.1494 -0.2618  1.8401
 7614SOL     OW34303   1.858   0.100   9.574  0.2065  0.0236 -0.0944
 7614SOL    HW134304   1.797   0.160   9.530  3.4214  2.6567 -0.9129
 7614SOL    HW234305   1.924   0.165   9.597  1.9592 -2.2836  1.4184
 7615SOL     OW34306   3.522   2.395   2.520  0.7338  0.3272 -0.2450
 7615SOL    HW134307   3.545   2.315   2.567 -0.7978 -0.0559 -0.1446
 7615SOL    HW234308   3.507   2.350   2.437  1.1786  0.5545 -0.4482
 7616SOL     OW34309   3.704   2.520   2.818 -0.0957 -0.0288 -0.4483
 7616SOL    HW134310   3.691   2.426   2.832  0.0322  0.1076  0.5743
 7616SOL    HW234311   3.786   2.521   2.769  0.4205  1.0257  0.4215
 7617SOL     OW34312   0.442   2.463   7.008  0.5818 -0.3221 -0.0935
 7617SOL    HW134313   0.432   2.387   7.065 -1.4183 -0.3703 -0.5273
 7617SOL    HW234314   0.534   2.485   7.026 -0.4729  2.8679  1.3565
 7618SOL     OW34315   2.887   0.684   4.334 -0.1500 -0.0890 -0.4534
 7618SOL    HW134316   2.842   0.767   4.316 -1.2428 -0.4758  0.5370
 7618SOL    HW234317   2.973   0.710   4.300 -0.2790  0.3108 -0.4840
 7619SOL     OW34318   0.838   2.425  12.602  0.1621  0.2584 -0.1357
 7619SOL    HW134319   0.933   2.425  12.612  0.3804  2.2467 -2.1839
 7619SOL    HW234320   0.833   2.473  12.519  0.3118 -0.8556 -0.7915
 7620SOL     OW34321   1.697   4.005   4.119 -0.2168 -0.2826 -0.3185
 7620SOL    HW134322   1.708   4.100   4.120 -1.1065 -0.1914  0.4869
 7620SOL    HW234323   1.648   3.987   4.038  1.3935  2.6149 -1.9611
 7621SOL     OW34324   4.017   1.242   2.955 -0.1626  0.2770 -0.6120
 7621SOL    HW134325   3.981   1.325   2.986 -1.5211  0.0039 -1.4641
 7621SOL    HW234326   4.025   1.265   2.863 -0.8578  0.6567 -0.5751
 7622SOL     OW34327   0.564   0.247   8.486  0.3093  0.1971 -0.2704
 7622SOL    HW134328   0.505   0.302   8.537  0.6361  1.7842 -1.5888
 7622SOL    HW234329   0.510   0.174   8.456  2.1217 -1.6555  0.9814
 7623SOL     OW34330   1.178   2.875  16.651  0.3929  0.1817  0.2679
 7623SOL    HW134331   1.213   2.841  16.569 -0.8549 -0.5840  0.0448
 7623SOL    HW234332   1.144   2.791  16.680 -3.1420  1.2787 -0.6047
 7624SOL     OW34333   4.198   4.511   6.212  0.2489 -0.5982 -0.5979
 7624SOL    HW134334   4.233   4.425   6.235  1.3699 -0.5488 -2.1271
 7624SOL    HW234335   4.273   4.570   6.205 -0.5207  0.4097 -0.4089
 7625SOL     OW34336   0.613   3.315   5.092 -0.6243  1.0743  0.1257
 7625SOL    HW134337   0.570   3.229   5.092 -0.8668  1.1945 -1.2465
 7625SOL    HW234338   0.556   3.364   5.033 -2.0071  0.2351  0.7629
 7626SOL     OW34339   4.349   2.118  14.822  0.0812  0.3692 -0.2518
 7626SOL    HW134340   4.363   2.165  14.905  1.1657 -1.3160  0.5213
 7626SOL    HW234341   4.279   2.056  14.841 -0.2202  0.8327  0.1439
 7627SOL     OW34342   4.457   3.790   8.974 -0.6532  0.6275 -0.6856
 7627SOL    HW134343   4.501   3.853   9.030  2.5031  0.3807 -2.8852
 7627SOL    HW234344   4.499   3.709   9.004  1.0498  3.2832  4.1352
 7628SOL     OW34345   1.038   4.021  14.195 -0.1518 -0.4698 -0.0726
 7628SOL    HW134346   0.981   4.093  14.224  0.3872 -0.5712  1.2321
 7628SOL    HW234347   1.115   4.059  14.238 -2.0738  2.0646  1.1862
 7629SOL     OW34348   3.255   1.893  11.994 -0.0075 -0.5176  0.3042
 7629SOL    HW134349   3.217   1.835  12.060 -1.0867 -0.8894 -0.6395
 7629SOL    HW234350   3.172   1.917  11.953  0.3550 -2.0709 -1.3241
 7630SOL     OW34351   1.231   3.251   4.899  0.2039 -0.0980 -0.1901
 7630SOL    HW134352   1.154   3.292   4.858  1.0873  0.6955 -1.0674
 7630SOL    HW234353   1.268   3.323   4.950 -0.5614 -0.3709  0.7589
 7631SOL     OW34354   0.442   1.067   4.345  0.5983 -0.8039 -0.2801
 7631SOL    HW134355   0.369   1.112   4.302  0.0586 -1.4439 -0.0447
 7631SOL    HW234356   0.482   1.028   4.267  1.1695  0.5534 -0.6671
 7632SOL     OW34357   2.961   0.712   8.029 -0.2822  0.4851 -0.4129
 7632SOL    HW134358   3.031   0.747   8.083  0.0345 -1.7687  0.6290
 7632SOL    HW234359   3.003   0.697   7.944 -0.3793 -0.4777 -0.2924
 7633SOL     OW34360   4.701   3.640   0.381  0.1012  0.3709 -0.6431
 7633SOL    HW134361   4.699   3.544   0.381  2.0086  0.3161  0.1025
 7633SOL    HW234362   0.078   3.644   0.381  0.1588 -1.1591 -1.7583
 7634SOL     OW34363   4.277   4.286   9.181 -0.5832 -0.3399 -0.3663
 7634SOL    HW134364   4.226   4.358   9.218  0.3184  0.5791 -0.9148
 7634SOL    HW234365   4.362   4.307   9.220 -0.8460 -0.7868  0.4471
 7635SOL     OW34366   2.206   2.472   5.379  0.0595  0.0944  0.6145
 7635SOL    HW134367   2.272   2.526   5.422  0.5891 -0.1250  0.0613
 7635SOL    HW234368   2.171   2.423   5.454 -2.8631  0.2290 -0.6623
 7636SOL     OW34369   3.287   3.208   2.183 -0.5358  0.8515 -0.1579
 7636SOL    HW134370   3.219   3.187   2.118  1.5153 -1.0768 -1.6806
 7636SOL    HW234371   3.357   3.199   2.118 -1.5721  0.4080 -1.2271
 7637SOL     OW34372   1.065   1.382  14.114  0.0888 -0.5104  0.5459
 7637SOL    HW134373   1.150   1.424  14.103 -0.6904  0.6533 -1.1430
 7637SOL    HW234374   1.098   1.299  14.148  5.0859  1.5332  0.6692
 7638SOL     OW34375   0.735   4.414  11.902 -0.8295  0.2576  0.4142
 7638SOL    HW134376   0.777   4.448  11.823 -0.9438 -1.0493 -0.1985
 7638SOL    HW234377   0.728   4.493  11.957  1.3668  4.2198 -5.0629
 7639SOL     OW34378   3.415   2.072  13.050 -0.5820 -0.1642  0.0928
 7639SOL    HW134379   3.467   2.121  12.987 -0.6099 -0.9869 -0.5579
 7639SOL    HW234380   3.334   2.123  13.049  0.2504  1.1951  0.9938
 7640SOL     OW34381   0.509   1.781   3.797  0.3201 -0.9065  0.1601
 7640SOL    HW134382   0.502   1.762   3.890  0.9806  0.6552  0.5184
 7640SOL    HW234383   0.562   1.709   3.762  3.1458  1.2354  0.0450
 7641SOL     OW34384   3.618   1.725  13.350 -0.4976 -0.0848 -0.3192
 7641SOL    HW134385   3.713   1.712  13.351 -0.8200 -2.2824  0.7206
 7641SOL    HW234386   3.582   1.639  13.328  0.5861 -0.2111 -1.5739
 7642SOL     OW34387   0.465   4.529  14.170  0.2281  0.4339  0.2317
 7642SOL    HW134388   0.504   4.582  14.240 -1.3776 -0.1422  1.5730
 7642SOL    HW234389   0.500   4.446  14.201 -1.2752 -0.4857 -0.5278
 7643SOL     OW34390   1.432   3.007  17.039 -0.6426 -0.2046  0.0042
 7643SOL    HW134391   1.433   3.013  17.135 -1.1207  0.4491 -0.0293
 7643SOL    HW234392   1.437   2.912  17.042 -0.7404 -0.2208 -0.4641
 7644SOL     OW34393   0.218   3.429   2.776 -0.0032  0.6971  0.3198
 7644SOL    HW134394   0.188   3.479   2.700  0.7859 -0.0589 -0.4874
 7644SOL    HW234395   0.251   3.508   2.820  0.2982  1.4885 -1.3101
 7645SOL     OW34396   1.210   2.555  17.080  0.0831 -0.0970 -0.4847
 7645SOL    HW134397   1.141   2.564  17.147  0.2060  3.2815 -0.8006
 7645SOL    HW234398   1.222   2.462  17.099  3.2550  0.4532  0.1625
 7646SOL     OW34399   0.524   3.114  15.901 -0.1127 -0.0639 -0.0514
 7646SOL    HW134400   0.541   3.190  15.955  1.8341 -1.8605  1.8497
 7646SOL    HW234401   0.430   3.097  15.905  0.0234 -0.7337  0.2851
 7647SOL     OW34402   2.392   1.016   4.541  0.3474 -0.0475 -0.1362
 7647SOL    HW134403   2.475   1.062   4.558  0.4908 -0.3980  0.1081
 7647SOL    HW234404   2.410   0.939   4.595 -2.1020 -0.0768  0.6093
 7648SOL     OW34405   3.694   2.640   8.296 -0.3232  0.2097 -0.3667
 7648SOL    HW134406   3.768   2.636   8.356 -0.0446  0.7475 -0.6721
 7648SOL    HW234407   3.637   2.576   8.339  0.1724  1.7061  2.5446
 7649SOL     OW34408   0.436   4.165   5.811  0.1263 -0.1784  0.4501
 7649SOL    HW134409   0.406   4.127   5.729  0.0927 -2.8784  1.7127
 7649SOL    HW234410   0.515   4.210   5.779  0.2077 -0.1802  0.6450
 7650SOL     OW34411   1.407   1.302   8.294  0.6275 -0.8629 -0.6072
 7650SOL    HW134412   1.503   1.311   8.295  0.6554 -0.8586 -3.6378
 7650SOL    HW234413   1.387   1.235   8.229  0.5994 -2.5022  1.1166
 7651SOL     OW34414   0.567   4.426   9.981  0.2258 -0.0567  0.6328
 7651SOL    HW134415   0.530   4.387  10.060 -0.1724 -1.1055 -0.0739
 7651SOL    HW234416   0.608   4.499  10.028  0.3554  1.2406 -1.4785
 7652SOL     OW34417   0.563   1.702   8.039 -0.3296  0.4935  0.7040
 7652SOL    HW134418   0.650   1.741   8.044  0.0282 -0.3467  0.9065
 7652SOL    HW234419   0.564   1.668   8.128 -0.1859 -3.4526 -0.8439
 7653SOL     OW34420   3.720   2.030   7.530 -0.0432 -0.4478  0.2538
 7653SOL    HW134421   3.639   1.978   7.537 -0.9250  0.6610 -1.6358
 7653SOL    HW234422   3.705   2.102   7.591  1.6372 -0.5518  0.7698
 7654SOL     OW34423   3.873   4.711  13.127 -0.1090 -0.3418  0.3005
 7654SOL    HW134424   3.862   4.637  13.067  2.4427 -1.9084  1.7824
 7654SOL    HW234425   3.968   4.713  13.139 -0.1337  3.2454  0.0844
 7655SOL     OW34426   2.480   1.871   7.378  0.1362  0.3977 -0.5121
 7655SOL    HW134427   2.410   1.810   7.400  1.2253 -1.2933 -1.6809
 7655SOL    HW234428   2.426   1.948   7.358 -0.7596 -0.3506 -0.9810
 7656SOL     OW34429   4.650   3.105  15.855  0.1757  0.9358  0.0438
 7656SOL    HW134430   4.716   3.149  15.909 -0.7358  0.1131  1.8561
 7656SOL    HW234431   4.707   3.036  15.823 -0.0398  0.4265  0.7633
 7657SOL     OW34432   0.965   3.661   5.609  0.1897 -0.0465  0.1133
 7657SOL    HW134433   0.882   3.617   5.593  1.3930 -1.7538 -1.3923
 7657SOL    HW234434   1.016   3.628   5.535 -3.2715 -0.2704 -2.1515
 7658SOL     OW34435   2.030   0.902   7.995 -0.4424 -0.3387 -0.2425
 7658SOL    HW134436   2.018   0.808   8.012  0.7307 -0.3901  0.3239
 7658SOL    HW234437   2.124   0.899   8.017  0.0834 -0.2972 -2.4995
 7659SOL     OW34438   0.271   0.700   2.479  0.1429  0.3625 -0.7152
 7659SOL    HW134439   0.357   0.687   2.518 -1.4164 -2.1249  1.9051
 7659SOL    HW234440   0.231   0.771   2.529 -1.5849 -0.7738 -0.4713
 7660SOL     OW34441   0.671   2.568  14.940 -0.0976  0.4095 -0.1441
 7660SOL    HW134442   0.595   2.560  14.997  0.9591  2.3619  1.5071
 7660SOL    HW234443   0.740   2.548  15.003  1.3385  0.4654 -1.6868
 7661SOL     OW34444   1.427   2.381  16.829  0.1901  0.4245  0.2478
 7661SOL    HW134445   1.357   2.399  16.892 -0.5283 -0.9038 -0.1930
 7661SOL    HW234446   1.436   2.287  16.839  1.7615  0.3886 -1.5502
 7662SOL     OW34447   1.873   4.659  14.270  0.1702 -0.1632  0.3435
 7662SOL    HW134448   1.837   0.026  14.290 -0.4322  0.1444 -2.1712
 7662SOL    HW234449   1.894   4.672  14.178 -2.5252 -0.5386 -0.3336
 7663SOL     OW34450   0.654   1.313   8.501  0.0430  0.7955 -0.5582
 7663SOL    HW134451   0.634   1.403   8.528 -1.2241 -0.2148  1.8747
 7663SOL    HW234452   0.669   1.293   8.409  1.3267 -1.4946  0.1360
 7664SOL     OW34453   2.032   0.648   8.690 -0.0585 -0.1658 -0.0683
 7664SOL    HW134454   2.049   0.735   8.727  0.2412  0.5442 -1.8982
 7664SOL    HW234455   2.018   0.673   8.599  1.3886 -0.9407 -0.4902
 7665SOL     OW34456   2.595   4.124   2.258  0.9923  0.2662 -0.0581
 7665SOL    HW134457   2.564   4.193   2.199  0.4273  0.5972  0.6263
 7665SOL    HW234458   2.567   4.158   2.343 -0.8943  0.4706 -0.7548
 7666SOL     OW34459   2.894   0.895   5.522 -0.3679  0.0823 -0.6564
 7666SOL    HW134460   2.971   0.880   5.577 -0.0312  0.7413 -0.9487
 7666SOL    HW234461   2.904   0.824   5.458  1.1960 -1.4251  1.2159
 7667SOL     OW34462   2.014   4.114   3.447  0.3044  0.1320 -0.5294
 7667SOL    HW134463   1.963   4.187   3.480  0.0690 -0.0298 -0.5300
 7667SOL    HW234464   2.008   4.114   3.351  1.9279 -0.4947 -0.6300
 7668SOL     OW34465   1.431   0.913   9.666  0.2204 -0.5763 -0.1344
 7668SOL    HW134466   1.505   0.974   9.674  0.8352 -1.0038 -2.3965
 7668SOL    HW234467   1.451   0.876   9.752  3.3792  0.6001 -0.3546
 7669SOL     OW34468   3.530   4.707   3.065  0.1197  0.2395  0.2075
 7669SOL    HW134469   3.556   4.621   3.032 -3.1195 -0.5516 -0.2981
 7669SOL    HW234470   3.513   0.027   2.979 -1.1607 -0.6907  0.0428
 7670SOL     OW34471   4.324   0.765   7.504 -0.0927 -0.4545 -0.7787
 7670SOL    HW134472   4.243   0.715   7.510 -0.7469  0.3698 -2.7263
 7670SOL    HW234473   4.307   0.812   7.423  0.3453  0.8184 -0.1309
 7671SOL     OW34474   2.607   1.642   4.987  0.5655  0.5682  0.1822
 7671SOL    HW134475   2.685   1.647   5.042 -0.2736  0.7745  1.3318
 7671SOL    HW234476   2.548   1.677   5.054 -0.5115 -0.0761 -0.4226
 7672SOL     OW34477   0.216   4.587   5.482 -0.2927  0.0599  0.2830
 7672SOL    HW134478   0.288   4.568   5.542 -1.0054 -1.1712  0.7625
 7672SOL    HW234479   0.150   4.573   5.551  3.3376 -1.3967  3.4571
 7673SOL     OW34480   2.324   3.861  10.245 -0.0851  0.1199 -0.2088
 7673SOL    HW134481   2.378   3.901  10.313 -0.8239 -0.0068  0.4617
 7673SOL    HW234482   2.324   3.933  10.182 -1.8921 -0.3245 -0.7368
 7674SOL     OW34483   1.065   1.733   7.287 -0.5237 -0.1152  0.0526
 7674SOL    HW134484   0.997   1.797   7.305 -3.1276 -2.8629 -0.1439
 7674SOL    HW234485   1.047   1.666   7.353 -0.2906  0.8852  1.1372
 7675SOL     OW34486   0.882   2.434  16.202  0.1833  0.0594  0.3445
 7675SOL    HW134487   0.881   2.361  16.140 -0.8041  0.1111  0.3064
 7675SOL    HW234488   0.969   2.471  16.185  0.5306 -0.3707  1.2142
 7676SOL     OW34489   0.640   3.911   5.612  0.4340 -0.6936 -0.0428
 7676SOL    HW134490   0.670   3.926   5.523 -0.6560  0.0679 -0.2821
 7676SOL    HW234491   0.551   3.946   5.609  0.0445 -1.3944  3.5317
 7677SOL     OW34492   0.396   3.433   1.932 -0.0868  0.0713 -0.9712
 7677SOL    HW134493   0.478   3.385   1.946  0.9119  2.5582  1.6945
 7677SOL    HW234494   0.416   3.511   1.984 -2.0948 -1.0491  1.5002
 7678SOL     OW34495   0.581   2.111   5.738  0.5867 -0.5955  0.0301
 7678SOL    HW134496   0.607   2.033   5.688  0.1739  0.9619 -2.6406
 7678SOL    HW234497   0.533   2.071   5.810 -0.3109  0.2819 -0.0874
 7679SOL     OW34498   2.262   1.619  12.892  0.1638 -0.4656 -0.1808
 7679SOL    HW134499   2.280   1.535  12.849  1.2470 -2.1150  3.3980
 7679SOL    HW234500   2.232   1.584  12.977  0.4131  1.0773  0.5393
 7680SOL     OW34501   0.922   4.350   1.711  0.3835  0.3730  0.1273
 7680SOL    HW134502   0.958   4.416   1.770 -0.7952  0.4695  0.7369
 7680SOL    HW234503   0.828   4.370   1.719  0.1373  0.0833 -2.0513
 7681SOL     OW34504   4.218   1.782  14.563  0.5563  0.1098 -0.1260
 7681SOL    HW134505   4.252   1.772  14.474 -1.6835 -1.1399 -0.8442
 7681SOL    HW234506   4.284   1.729  14.608 -1.2179 -3.6316 -2.0156
 7682SOL     OW34507   3.207   1.848   2.065  0.0657  0.2788 -0.3450
 7682SOL    HW134508   3.283   1.794   2.089 -2.1662 -2.2659  1.0372
 7682SOL    HW234509   3.223   1.929   2.113  1.2317  0.1431 -0.5091
 7683SOL     OW34510   0.703   0.265  13.199 -0.1437  0.0354 -0.1035
 7683SOL    HW134511   0.797   0.283  13.197 -0.3200  1.0367  0.6629
 7683SOL    HW234512   0.680   0.296  13.111  1.0394  1.0810 -0.0492
 7684SOL     OW34513   4.121   2.522   7.380 -0.0437 -0.3717  0.2277
 7684SOL    HW134514   4.055   2.580   7.417  0.7150  1.5141 -1.3928
 7684SOL    HW234515   4.075   2.438   7.374  0.6640 -0.9062  2.2216
 7685SOL     OW34516   4.194   3.948   6.074  0.4502 -1.4346 -0.0107
 7685SOL    HW134517   4.253   3.987   6.009 -0.8880  1.2117  0.3742
 7685SOL    HW234518   4.121   3.921   6.019 -2.0301  1.2023  2.0000
 7686SOL     OW34519   1.429   4.455   2.727  0.5265  0.0627 -0.0389
 7686SOL    HW134520   1.488   4.530   2.720 -0.6362  0.9861  0.0720
 7686SOL    HW234521   1.353   4.482   2.675 -0.7077 -0.3053  1.5947
 7687SOL     OW34522   3.093   1.968   5.976  0.2963  0.4601 -0.8120
 7687SOL    HW134523   3.069   1.947   6.066  2.8805 -1.6097 -0.6184
 7687SOL    HW234524   3.159   2.036   5.981  0.0663  0.5495  0.9250
 7688SOL     OW34525   2.103   0.611   7.281  0.2523 -0.7226  0.2667
 7688SOL    HW134526   2.167   0.604   7.352  2.0991 -2.3622 -1.5240
 7688SOL    HW234527   2.157   0.592   7.203 -0.4237 -1.4911 -0.0104
 7689SOL     OW34528   3.795   4.276   5.535  0.0921 -0.3154 -0.1280
 7689SOL    HW134529   3.724   4.274   5.471 -0.6291 -0.4708  0.6725
 7689SOL    HW234530   3.865   4.320   5.487  0.5484 -0.6676  0.2160
 7690SOL     OW34531   4.028   0.277   0.036 -0.5983  0.3952 -0.0663
 7690SOL    HW134532   4.048   0.365   0.069 -0.2654 -0.2718  1.4976
 7690SOL    HW234533   3.969   0.306  17.647 -0.6329 -2.9234 -1.3982
 7691SOL     OW34534   2.179   0.460  16.304  0.2263  0.5637 -0.1131
 7691SOL    HW134535   2.243   0.500  16.245  0.5756  1.2242  0.7205
 7691SOL    HW234536   2.118   0.533  16.314 -1.6841 -1.0052 -0.2847
 7692SOL     OW34537   3.383   2.179  15.748  0.3797 -0.0552 -0.0989
 7692SOL    HW134538   3.422   2.097  15.717  2.5324  1.1571 -0.5559
 7692SOL    HW234539   3.364   2.235  15.672  0.2247  0.4980  0.3481
 7693SOL     OW34540   1.383   3.106  11.581  0.5473  0.5402  0.5485
 7693SOL    HW134541   1.298   3.150  11.573  0.5936  0.0081 -2.5796
 7693SOL    HW234542   1.446   3.175  11.559  0.8271  0.0957 -0.0340
 7694SOL     OW34543   1.325   2.043  10.851  0.2669 -0.0853  0.2458
 7694SOL    HW134544   1.312   2.022  10.943 -2.4673  0.8171  0.0774
 7694SOL    HW234545   1.282   1.964  10.816 -1.3233  0.8604  0.0460
 7695SOL     OW34546   4.041   3.974   5.192  0.1471 -0.2323 -0.1125
 7695SOL    HW134547   4.025   3.986   5.286  0.0555 -3.1426  0.2462
 7695SOL    HW234548   4.098   4.050   5.187  0.9469 -0.8348 -0.1961
 7696SOL     OW34549   0.851   1.505  10.318  0.8008  0.0057 -0.8662
 7696SOL    HW134550   0.923   1.483  10.377 -0.3713  0.2446  0.6456
 7696SOL    HW234551   0.792   1.438  10.351  0.7042  0.3005 -0.4356
 7697SOL     OW34552   1.159   4.395  10.350 -0.0416  0.5894  0.4217
 7697SOL    HW134553   1.226   4.450  10.309  1.0665  0.1772  1.6503
 7697SOL    HW234554   1.170   4.423  10.441  1.7990 -0.2247  0.4645
 7698SOL     OW34555   2.554   4.276  14.264  0.4449 -0.1260  0.2857
 7698SOL    HW134556   2.522   4.332  14.335  0.9767 -0.0101  0.4286
 7698SOL    HW234557   2.648   4.272  14.279  0.2635 -1.6630  0.9355
 7699SOL     OW34558   3.151   3.578   8.087 -0.2100 -0.0229 -0.6848
 7699SOL    HW134559   3.213   3.647   8.113 -0.9349  0.5576 -0.4953
 7699SOL    HW234560   3.075   3.633   8.066 -0.7342 -0.8310 -0.8982
 7700SOL     OW34561   0.135   3.450   1.875  0.2400 -0.1867  0.0049
 7700SOL    HW134562   0.115   3.487   1.961 -0.2371 -0.0215 -0.1782
 7700SOL    HW234563   0.228   3.447   1.894 -0.0815  1.3657  1.8023
 7701SOL     OW34564   1.640   2.612  16.917  0.5248 -0.2009 -0.2102
 7701SOL    HW134565   1.714   2.654  16.872 -0.8358  2.5593  0.1518
 7701SOL    HW234566   1.578   2.618  16.845  1.5280 -0.1305 -1.0665
 7702SOL     OW34567   3.184   4.259  15.302  0.2303 -0.1099  0.5680
 7702SOL    HW134568   3.102   4.303  15.281 -1.3617 -3.5774 -0.5496
 7702SOL    HW234569   3.203   4.294  15.389  2.7853 -1.1230  0.4189
 7703SOL     OW34570   2.650   2.782   6.012  0.1146  0.1329  0.0146
 7703SOL    HW134571   2.671   2.863   6.061  0.2043 -0.5626  1.1311
 7703SOL    HW234572   2.672   2.806   5.922  0.1587  1.3062  0.3381
 7704SOL     OW34573   2.999   3.971   5.387  0.5341  0.4060  0.0029
 7704SOL    HW134574   2.993   4.028   5.311  0.1234  0.7209  0.2731
 7704SOL    HW234575   2.909   3.940   5.402  0.3328  0.1377 -1.7522
 7705SOL     OW34576   4.330   1.995  11.427  0.0483 -0.4919  0.2291
 7705SOL    HW134577   4.320   1.900  11.427  1.7963 -0.6772  0.5354
 7705SOL    HW234578   4.329   2.009  11.332 -0.5122 -0.1549  0.2818
 7706SOL     OW34579   1.240   2.518  12.217 -0.8710  0.3613 -0.0716
 7706SOL    HW134580   1.199   2.511  12.131  0.2706  1.5439 -0.7087
 7706SOL    HW234581   1.248   2.426  12.240 -0.6515 -0.1025 -1.9678
 7707SOL     OW34582   0.133   4.388   6.611 -0.3043 -0.6283 -0.3267
 7707SOL    HW134583   0.135   4.311   6.554 -3.2193 -1.4692  0.7112
 7707SOL    HW234584   0.112   4.348   6.695  2.1917 -1.9827 -0.3657
 7708SOL     OW34585   0.606   1.241   9.001 -0.2124 -0.3148 -0.2571
 7708SOL    HW134586   0.555   1.305   9.050  0.8703  0.7926 -0.5812
 7708SOL    HW234587   0.565   1.229   8.915  0.6297  1.6410 -0.9338
 7709SOL     OW34588   0.235   2.310   5.722  0.0614  0.0312 -0.2688
 7709SOL    HW134589   0.177   2.382   5.744 -0.1940 -0.1627 -0.3151
 7709SOL    HW234590   0.295   2.310   5.797  0.4377 -1.8793 -0.5545
 7710SOL     OW34591   1.033   2.152  17.078 -0.0876 -0.6959  0.2285
 7710SOL    HW134592   0.985   2.154  16.995  1.6381 -0.2817 -0.7565
 7710SOL    HW234593   1.009   2.069  17.119 -2.1664  0.3895  1.2085
 7711SOL     OW34594   1.932   2.533   8.399  0.0423  0.2551 -0.0310
 7711SOL    HW134595   2.019   2.517   8.437  0.1635  1.6421  0.2712
 7711SOL    HW234596   1.878   2.546   8.477  0.1294 -0.2189  0.1083
 7712SOL     OW34597   4.553   0.141   4.469 -0.3738 -0.4293 -0.0118
 7712SOL    HW134598   4.546   0.215   4.529  0.4075  0.2258 -0.7313
 7712SOL    HW234599   4.641   0.108   4.486 -0.6487 -0.9227  0.4555
 7713SOL     OW34600   0.368   4.452   0.435  0.5003  0.4408 -0.4172
 7713SOL    HW134601   0.371   4.372   0.383  2.2169 -2.3573  4.0207
 7713SOL    HW234602   0.423   4.432   0.511 -0.4984  1.2079  0.5197
 7714SOL     OW34603   3.584   1.871   7.795 -0.6022  0.4105 -0.1263
 7714SOL    HW134604   3.665   1.822   7.789  0.3862  1.9309  0.6810
 7714SOL    HW234605   3.540   1.864   7.710  0.1280  1.9672 -0.6453
 7715SOL     OW34606   2.043   4.542   7.698 -0.6087 -0.7501 -0.4242
 7715SOL    HW134607   1.993   4.460   7.697  1.1434 -1.8159 -2.1512
 7715SOL    HW234608   2.127   4.519   7.737 -0.1463  1.1991 -0.2646
 7716SOL     OW34609   2.514   4.471   7.660 -0.2474  0.0868 -0.2158
 7716SOL    HW134610   2.442   4.472   7.724  0.2717  0.4434  0.3590
 7716SOL    HW234611   2.543   4.562   7.666  0.9617 -0.2743 -0.7661
 7717SOL     OW34612   0.407   4.669   5.276 -0.1705 -0.2159  0.2599
 7717SOL    HW134613   0.454   4.593   5.242  0.4682  0.7091 -0.9135
 7717SOL    HW234614   0.347   4.635   5.343 -2.7319  3.0504 -0.3977
 7718SOL     OW34615   1.102   2.628  12.420  0.0575 -0.0773 -0.4405
 7718SOL    HW134616   1.054   2.705  12.393 -0.9814  0.2417  2.3030
 7718SOL    HW234617   1.147   2.596  12.342  0.2552 -1.1930  0.1301
 7719SOL     OW34618   3.616   3.617   6.405 -0.2179  0.7727  0.0128
 7719SOL    HW134619   3.605   3.680   6.477  0.3096  0.4913  0.3421
 7719SOL    HW234620   3.527   3.589   6.389 -1.0614  3.6861 -0.5046
 7720SOL     OW34621   1.853   1.906   3.640 -0.2435 -0.3453  0.2598
 7720SOL    HW134622   1.908   1.853   3.582 -0.9304  0.3805 -1.0761
 7720SOL    HW234623   1.802   1.847   3.695  2.1983 -1.4035  1.3956
 7721SOL     OW34624   4.557   4.053   8.317  0.0668  0.0707 -0.5646
 7721SOL    HW134625   4.489   4.069   8.252  0.3957  0.2561 -0.8597
 7721SOL    HW234626   4.615   3.985   8.283 -0.9377 -1.1358  0.1251
 7722SOL     OW34627   2.812   1.331   8.080  0.2304 -0.4991 -0.3776
 7722SOL    HW134628   2.821   1.328   7.984  0.1351  0.6261 -0.4204
 7722SOL    HW234629   2.854   1.416   8.095 -1.0577  0.2653 -0.9996
 7723SOL     OW34630   1.519   0.363   8.843  0.3901  0.6291  0.6808
 7723SOL    HW134631   1.505   0.427   8.913 -0.5446 -0.4873  1.5071
 7723SOL    HW234632   1.494   0.414   8.766  0.5218 -0.6132 -0.1812
 7724SOL     OW34633   2.299   3.538   6.003  0.5166  0.0685 -0.4600
 7724SOL    HW134634   2.276   3.517   5.912  1.5825  2.8880 -1.3979
 7724SOL    HW234635   2.269   3.628   6.012  0.7858  0.0108  1.0061
 7725SOL     OW34636   1.932   4.287   1.070 -0.2956 -0.6063 -0.6154
 7725SOL    HW134637   1.900   4.250   0.988 -0.6700 -1.2949 -0.1533
 7725SOL    HW234638   2.024   4.308   1.053 -0.2795  0.9793  1.3794
 7726SOL     OW34639   4.462   4.350   9.772 -0.2031 -0.3213  0.1217
 7726SOL    HW134640   4.399   4.310   9.712  1.2598 -0.7777 -1.1250
 7726SOL    HW234641   4.427   4.432   9.804 -0.9609  0.0456 -1.6445
 7727SOL     OW34642   2.316   2.784   7.450 -0.1503 -0.1660  0.3870
 7727SOL    HW134643   2.280   2.756   7.367  1.3874 -1.7431  0.2413
 7727SOL    HW234644   2.241   2.765   7.507 -2.5451  1.8250 -2.1506
 7728SOL     OW34645   1.812   3.495  14.181  0.2015 -0.5515 -0.5299
 7728SOL    HW134646   1.768   3.414  14.158 -1.7739 -0.2606  2.3157
 7728SOL    HW234647   1.747   3.519  14.247  1.1340 -0.6994  0.4413
 7729SOL     OW34648   2.454   1.179   3.227  0.0438  0.4501 -0.1023
 7729SOL    HW134649   2.463   1.139   3.141 -0.7502  0.7592 -0.3290
 7729SOL    HW234650   2.512   1.254   3.215 -0.1421  0.8907  1.6503
 7730SOL     OW34651   1.497   1.317   7.791 -0.2150  0.3021 -0.0391
 7730SOL    HW134652   1.560   1.321   7.863 -0.5182  1.8131  0.1527
 7730SOL    HW234653   1.475   1.224   7.790  0.4998  0.1473 -1.7989
 7731SOL     OW34654   3.978   4.277   7.457 -0.2798 -0.5887  0.2168
 7731SOL    HW134655   3.967   4.225   7.537  1.7819  0.6287  1.2719
 7731SOL    HW234656   3.920   4.352   7.473  1.1333  0.7491 -0.9237
 7732SOL     OW34657   3.436   4.469   9.130  0.3202 -0.0486  0.0724
 7732SOL    HW134658   3.498   4.400   9.153  2.3119  1.5940 -0.4638
 7732SOL    HW234659   3.356   4.430   9.166 -0.4530  1.0390 -0.4710
 7733SOL     OW34660   3.633   0.243   5.616 -0.7004  0.0310 -0.4533
 7733SOL    HW134661   3.577   0.300   5.563 -0.5219  2.8975  2.3970
 7733SOL    HW234662   3.644   0.307   5.687 -2.0817  1.9061 -1.9272
 7734SOL     OW34663   0.201   2.020  14.385  0.5132  0.7113 -0.5435
 7734SOL    HW134664   0.173   2.024  14.294  0.2720 -2.4614 -0.6338
 7734SOL    HW234665   0.194   2.110  14.416  0.7529 -0.0730  1.7902
 7735SOL     OW34666   3.195   3.686  17.207  0.3797  0.6237  0.1144
 7735SOL    HW134667   3.285   3.671  17.236  0.3793  0.1515 -0.1436
 7735SOL    HW234668   3.205   3.739  17.128 -1.1170  0.4361 -0.2053
 7736SOL     OW34669   2.858   1.373  14.979  0.0795  0.1659 -0.3401
 7736SOL    HW134670   2.879   1.464  15.000  0.8793  0.0337 -0.5401
 7736SOL    HW234671   2.938   1.335  15.016 -0.3678 -2.0569 -1.6414
 7737SOL     OW34672   3.960   2.392   3.291 -0.5464  0.1011  0.0147
 7737SOL    HW134673   3.899   2.326   3.323  0.7434 -1.6413 -1.0929
 7737SOL    HW234674   3.919   2.431   3.214 -1.5216 -0.1954  0.3905
 7738SOL     OW34675   1.304   3.070   3.730  0.1160  0.2187  0.3044
 7738SOL    HW134676   1.390   3.031   3.712 -0.7837 -0.8867 -1.4959
 7738SOL    HW234677   1.289   3.039   3.820 -0.4578 -0.6541 -0.0989
 7739SOL     OW34678   1.869   1.277   6.237  0.5806 -0.5691 -0.6154
 7739SOL    HW134679   1.889   1.357   6.189  2.5983 -2.1978 -2.4688
 7739SOL    HW234680   1.843   1.316   6.321  1.0125  0.6635 -1.0590
 7740SOL     OW34681   2.259   0.026   6.106 -0.5570 -0.4512  0.2987
 7740SOL    HW134682   2.296   0.016   6.194 -0.9128  2.4945  0.7897
 7740SOL    HW234683   2.242   0.119   6.118  1.7161  0.4774 -3.6973
 7741SOL     OW34684   0.475   3.631   2.090 -0.2453  0.4166  0.1833
 7741SOL    HW134685   0.566   3.641   2.118  0.2424 -0.7477 -0.9549
 7741SOL    HW234686   0.455   3.724   2.080 -2.7350 -0.2463 -0.9846
 7742SOL     OW34687   4.384   0.316   5.546  0.1340  0.1820  0.5131
 7742SOL    HW134688   4.314   0.256   5.520  0.7564 -1.0460  1.6324
 7742SOL    HW234689   4.464   0.265   5.529 -2.0382 -1.4594 -4.8540
 7743SOL     OW34690   2.193   3.216   8.143 -0.4394 -0.0067  0.3518
 7743SOL    HW134691   2.280   3.227   8.179 -1.8586  0.5151  3.6355
 7743SOL    HW234692   2.210   3.184   8.055  1.1417  0.0848  0.6236
 7744SOL     OW34693   0.502   3.124   8.749 -0.1907  0.1159  0.3376
 7744SOL    HW134694   0.529   3.180   8.823  0.1168 -0.6765  0.8268
 7744SOL    HW234695   0.572   3.059   8.752 -0.7898 -0.4731  1.6324
 7745SOL     OW34696   4.718   0.039   6.611 -0.3193 -0.1792  0.2291
 7745SOL    HW134697   0.064   0.088   6.561 -0.9824 -0.8455 -1.2839
 7745SOL    HW234698   4.648   0.104   6.624 -2.0980 -2.3503  1.4487
 7746SOL     OW34699   4.282   3.302   9.927 -0.1899  0.5560  0.0968
 7746SOL    HW134700   4.309   3.258  10.007  1.7002  0.4330 -0.5989
 7746SOL    HW234701   4.190   3.283   9.910 -0.0171 -0.0329 -0.1789
 7747SOL     OW34702   1.095   0.307   9.738  0.3943  0.0980 -0.2571
 7747SOL    HW134703   1.059   0.219   9.741 -1.5312  0.8021 -2.3966
 7747SOL    HW234704   1.028   0.361   9.780  2.6779  1.2484  1.8836
 7748SOL     OW34705   2.207   2.504   6.900  0.1060  0.3311 -1.0306
 7748SOL    HW134706   2.175   2.561   6.830  1.4403  1.2393 -0.9146
 7748SOL    HW234707   2.122   2.482   6.936  1.3441 -1.9492  0.5226
 7749SOL     OW34708   1.294   1.223  14.252 -0.1277  0.5869 -0.7851
 7749SOL    HW134709   1.218   1.195  14.303 -1.5888  1.7821 -2.2961
 7749SOL    HW234710   1.353   1.246  14.323 -2.2785 -0.3537  1.3060
 7750SOL     OW34711   3.628   1.482   2.140 -0.0554 -0.0448  0.1551
 7750SOL    HW134712   3.560   1.418   2.160 -0.5612 -0.1015 -1.8019
 7750SOL    HW234713   3.688   1.467   2.213  0.4562 -1.4159 -0.5651
 7751SOL     OW34714   4.425   2.085   6.730 -0.1915 -0.0954  0.2908
 7751SOL    HW134715   4.353   2.144   6.709 -0.5499  0.5225  3.2654
 7751SOL    HW234716   4.379   2.025   6.788 -1.6482 -1.2817 -2.1205
 7752SOL     OW34717   3.235   2.466  11.192  0.1592  0.3046 -0.4509
 7752SOL    HW134718   3.258   2.533  11.127 -1.2741  0.4510 -0.7944
 7752SOL    HW234719   3.202   2.389  11.146  2.5325  0.0714 -1.7634
 7753SOL     OW34720   0.795   3.617   4.917  0.3478  0.3610  0.4342
 7753SOL    HW134721   0.881   3.646   4.885  0.4658  1.1601  1.4710
 7753SOL    HW234722   0.791   3.649   5.007  0.3902  1.3338  0.0983
 7754SOL     OW34723   1.350   4.685   4.430 -0.9251 -0.3592 -0.6354
 7754SOL    HW134724   1.366   4.641   4.514  0.1242 -1.8389 -1.6012
 7754SOL    HW234725   1.307   0.048   4.451 -0.2369 -0.8603  2.7872
 7755SOL     OW34726   4.690   4.610   3.870 -0.3665 -0.7302 -0.2231
 7755SOL    HW134727   4.686   4.611   3.774  2.3544 -0.0319 -0.3156
 7755SOL    HW234728   4.600   4.580   3.887 -0.7639  0.8342  0.3922
 7756SOL     OW34729   4.040   3.268   0.223  0.3321 -0.3862  0.5118
 7756SOL    HW134730   4.066   3.337   0.163 -0.6383 -1.4864 -1.1614
 7756SOL    HW234731   3.987   3.316   0.287 -0.4611  0.0002 -0.4461
 7757SOL     OW34732   4.017   0.887   8.117 -0.1074  0.2300  0.2719
 7757SOL    HW134733   3.985   0.845   8.197 -0.9919 -0.6154 -0.5224
 7757SOL    HW234734   4.022   0.819   8.050  0.9098 -1.1325  1.7175
 7758SOL     OW34735   1.551   2.768   5.993 -0.8815  0.2966 -0.0037
 7758SOL    HW134736   1.638   2.803   5.973 -1.0464  0.3238 -0.6729
 7758SOL    HW234737   1.559   2.683   5.950 -3.1659  0.2750 -0.4265
 7759SOL     OW34738   2.973   1.386  16.068 -0.1008  0.4003 -0.6240
 7759SOL    HW134739   2.970   1.409  15.975  1.9464  1.8556 -0.3334
 7759SOL    HW234740   3.035   1.452  16.099  0.7776  0.0236 -1.5782
 7760SOL     OW34741   2.401   4.653   6.642  0.0851  0.3903 -0.1656
 7760SOL    HW134742   2.426   4.617   6.727  1.7286  0.7190 -0.5181
 7760SOL    HW234743   2.483   4.668   6.596  1.9850  1.7005  3.5894
 7761SOL     OW34744   0.671   1.842   6.456 -0.1835  1.4769  0.0808
 7761SOL    HW134745   0.671   1.868   6.548 -1.0224  1.2723  0.1390
 7761SOL    HW234746   0.671   1.925   6.408 -0.3616  1.2183 -0.3683
 7762SOL     OW34747   4.712   4.691   6.282 -0.4048 -0.3539 -0.8469
 7762SOL    HW134748   0.028   0.003   6.199  3.6107 -0.0843  0.9553
 7762SOL    HW234749   0.069   4.639   6.308 -1.2976 -0.5634  1.3176
 7763SOL     OW34750   0.305   1.369   9.486  0.5721  0.0315 -0.0886
 7763SOL    HW134751   0.396   1.344   9.503  0.7059 -0.4493 -1.5061
 7763SOL    HW234752   0.260   1.297   9.531 -4.1506  2.7223 -0.4658
 7764SOL     OW34753   1.311   2.534   5.214  0.2532 -0.1102 -0.1584
 7764SOL    HW134754   1.229   2.518   5.167  0.6513 -2.2163 -0.1309
 7764SOL    HW234755   1.372   2.488   5.156 -0.9426  0.4436 -1.8660
 7765SOL     OW34756   2.574   2.825  15.891 -0.3086 -0.1564  0.2750
 7765SOL    HW134757   2.526   2.884  15.949 -0.7206 -0.6407  0.4336
 7765SOL    HW234758   2.529   2.845  15.809  2.0109  0.9557 -0.7087
 7766SOL     OW34759   3.938   0.309   8.920  0.0296 -0.4122 -0.0269
 7766SOL    HW134760   3.945   0.215   8.905  0.2719 -0.4912  0.5946
 7766SOL    HW234761   4.000   0.321   8.991 -1.3606  0.0097  1.0983
 7767SOL     OW34762   1.587   1.082  14.013 -0.3001 -0.0065 -0.4533
 7767SOL    HW134763   1.548   1.006  13.969 -0.2684 -1.7163  2.4254
 7767SOL    HW234764   1.586   1.045  14.102 -2.9162 -0.0880 -0.5337
 7768SOL     OW34765   1.277   4.062   6.814 -0.2678 -0.2548  0.0410
 7768SOL    HW134766   1.365   4.100   6.823  0.2835 -1.0672 -1.9115
 7768SOL    HW234767   1.291   3.974   6.781  1.2965  0.1040 -0.2558
 7769SOL     OW34768   3.469   2.593  15.699 -0.7334 -0.1238 -0.4791
 7769SOL    HW134769   3.490   2.509  15.657  0.6874 -0.2699  0.5037
 7769SOL    HW234770   3.374   2.600  15.698 -0.5726  2.0600  0.1533
 7770SOL     OW34771   2.848   0.670   7.651 -0.2397  0.2513 -0.0396
 7770SOL    HW134772   2.929   0.662   7.702 -0.5391 -0.5395  0.3253
 7770SOL    HW234773   2.784   0.681   7.722 -1.4108  0.0500 -1.0710
 7771SOL     OW34774   1.688   2.964   6.316  0.4427  0.5777 -0.1497
 7771SOL    HW134775   1.637   2.933   6.391 -0.1434  0.1349 -0.7330
 7771SOL    HW234776   1.631   3.028   6.275 -0.0469  0.9785  1.1449
 7772SOL     OW34777   3.164   4.647   1.670 -0.0836 -0.8793  0.2794
 7772SOL    HW134778   3.171   4.651   1.766  0.6623 -2.1509  0.2895
 7772SOL    HW234779   3.215   4.566   1.659  2.2501  0.7244 -0.7729
 7773SOL     OW34780   0.710   0.739   6.652 -0.6707  0.1611  0.3134
 7773SOL    HW134781   0.805   0.734   6.643 -0.9020 -0.9155 -1.5848
 7773SOL    HW234782   0.699   0.754   6.745  0.0346 -2.8874  0.8923
 7774SOL     OW34783   1.760   0.356  16.299 -0.0294 -0.5816  0.5049
 7774SOL    HW134784   1.695   0.288  16.281  1.0931 -2.0100  1.8677
 7774SOL    HW234785   1.706   0.434  16.287  0.7029  0.3654  3.3105
 7775SOL     OW34786   4.139   4.572   8.742  0.7172  0.0380 -0.1920
 7775SOL    HW134787   4.056   4.529   8.759 -0.2610  2.9956  2.3187
 7775SOL    HW234788   4.147   4.542   8.651 -2.8746  1.1374 -0.8737
 7776SOL     OW34789   0.607   2.949   7.608  0.4869 -0.3508 -0.4151
 7776SOL    HW134790   0.610   2.924   7.516 -1.1862  0.4737 -0.6850
 7776SOL    HW234791   0.525   2.996   7.622  0.6100 -0.3797  0.4118
 7777SOL     OW34792   3.040   3.407  12.871 -0.2662 -0.0589  0.1107
 7777SOL    HW134793   3.055   3.315  12.893 -1.8984 -0.3566 -0.0582
 7777SOL    HW234794   2.984   3.435  12.943 -0.2501 -0.7255  0.3825
 7778SOL     OW34795   1.500   0.096  15.928 -0.1003 -0.4607  0.0830
 7778SOL    HW134796   1.469   0.140  16.008  1.4012  0.7609  0.0076
 7778SOL    HW234797   1.428   0.115  15.868 -0.6597 -1.5047  0.4247
 7779SOL     OW34798   1.457   2.256  12.623 -0.0675  0.0179  1.2106
 7779SOL    HW134799   1.384   2.301  12.580 -0.0236 -1.0781  0.0025
 7779SOL    HW234800   1.439   2.267  12.717  0.3631  1.7168  1.0983
 7780SOL     OW34801   0.250   3.995   7.868 -0.5096  0.5618 -0.8418
 7780SOL    HW134802   0.277   4.025   7.954 -0.3440  1.3480 -1.1624
 7780SOL    HW234803   0.327   3.946   7.840 -1.1288 -0.5261 -0.6531
 7781SOL     OW34804   3.956   0.442   8.440  0.3308  0.2705 -0.8257
 7781SOL    HW134805   4.001   0.457   8.523 -1.8955  0.6008  0.3321
 7781SOL    HW234806   4.027   0.423   8.379 -1.2611  0.7365 -2.8132
 7782SOL     OW34807   1.102   0.744  12.256  0.3809  0.2670 -0.2772
 7782SOL    HW134808   1.095   0.649  12.242  0.8812  0.1424  0.3159
 7782SOL    HW234809   1.021   0.777  12.216 -0.3863 -1.1365  0.1201
 7783SOL     OW34810   0.846   3.172   7.108  0.1095 -0.1579  0.1127
 7783SOL    HW134811   0.897   3.210   7.037  0.9356 -1.2532  0.1248
 7783SOL    HW234812   0.888   3.086   7.112  0.8266  0.2553  1.5920
 7784SOL     OW34813   2.330   4.394   7.463  0.3484  0.2026  0.2989
 7784SOL    HW134814   2.401   4.345   7.421 -0.4705 -1.2661  0.6139
 7784SOL    HW234815   2.385   4.451   7.516  0.5498  1.2575 -1.0398
 7785SOL     OW34816   1.673   1.226   8.208 -0.1646 -0.1465 -0.0821
 7785SOL    HW134817   1.658   1.147   8.261  4.0837 -0.5159  0.6339
 7785SOL    HW234818   1.755   1.201   8.165 -0.7786 -0.6879 -0.9222
 7786SOL     OW34819   2.257   1.590   4.566 -0.0813 -0.0143  0.6364
 7786SOL    HW134820   2.221   1.644   4.497  0.5626  0.2077  0.4741
 7786SOL    HW234821   2.328   1.539   4.527 -0.5523  0.0919 -0.3563
 7787SOL     OW34822   0.375   2.123   0.061  0.1464 -0.2454  0.6342
 7787SOL    HW134823   0.340   2.129   0.150  0.2947  1.4278  0.5734
 7787SOL    HW234824   0.294   2.123   0.010  1.7801  1.4054 -1.9487
 7788SOL     OW34825   3.869   2.397   8.430  0.1405  0.4331  0.0646
 7788SOL    HW134826   3.801   2.367   8.489  0.2629  0.4154  0.1979
 7788SOL    HW234827   3.845   2.350   8.350  1.2874 -0.8919  0.4813
 7789SOL     OW34828   3.785   0.448   7.785  0.0863 -0.8285  0.0220
 7789SOL    HW134829   3.826   0.533   7.768  0.2475 -1.3951 -2.4572
 7789SOL    HW234830   3.794   0.453   7.880  1.3175 -1.7543 -0.0531
 7790SOL     OW34831   4.143   3.192   7.939 -0.1186 -0.3533 -0.4547
 7790SOL    HW134832   4.127   3.238   8.021  1.3378 -0.9657  0.1752
 7790SOL    HW234833   4.068   3.133   7.929 -0.6742 -0.2759  3.3055
 7791SOL     OW34834   0.420   2.708   5.052  0.2658  0.0358  0.1162
 7791SOL    HW134835   0.416   2.663   5.137  2.0768  0.8155  0.6130
 7791SOL    HW234836   0.509   2.691   5.021  1.1278  2.0905  1.4995
 7792SOL     OW34837   0.597   3.571  16.573  0.0733 -0.0765 -0.5222
 7792SOL    HW134838   0.639   3.553  16.656 -1.6699 -0.8705  0.1897
 7792SOL    HW234839   0.515   3.605  16.610  0.1590  0.6918 -1.0345
 7793SOL     OW34840   2.356   1.760   9.204  0.3665 -1.1322  0.2583
 7793SOL    HW134841   2.287   1.727   9.147  2.1312 -1.9983 -1.3740
 7793SOL    HW234842   2.307   1.774   9.285  1.0637  1.1441  0.3155
 7794SOL     OW34843   1.518   4.458   4.595  0.2981  0.3689  0.1929
 7794SOL    HW134844   1.494   4.390   4.533  0.9389  0.4743 -0.1680
 7794SOL    HW234845   1.600   4.491   4.559  1.5050 -1.8941  0.9123
 7795SOL     OW34846   3.049   3.380   5.216 -0.7911 -0.6667 -0.2527
 7795SOL    HW134847   3.122   3.318   5.223 -1.3790 -0.9709  3.0930
 7795SOL    HW234848   3.043   3.404   5.124 -0.9165 -3.1416 -0.9041
 7796SOL     OW34849   1.788   4.255   8.265 -0.3161  0.1366 -0.1460
 7796SOL    HW134850   1.869   4.209   8.241  0.2820  0.5083  1.1721
 7796SOL    HW234851   1.769   4.214   8.349  0.6615 -0.9707 -0.4554
 7797SOL     OW34852   4.109   0.752   4.990  0.2392 -0.3529 -0.7601
 7797SOL    HW134853   4.163   0.794   4.922 -0.4132 -0.5478 -1.3950
 7797SOL    HW234854   4.024   0.790   4.969  0.7556  0.4082 -1.4710
 7798SOL     OW34855   4.600   3.092   4.896 -0.0575  0.5177  0.1887
 7798SOL    HW134856   4.588   3.068   4.804 -0.4787  2.5131 -0.2738
 7798SOL    HW234857   4.519   3.141   4.913 -0.7183 -0.2981 -0.6394
 7799SOL     OW34858   2.615   3.760   7.803  0.5192 -0.1216  0.0251
 7799SOL    HW134859   2.548   3.702   7.839 -1.2346  1.9053  0.0533
 7799SOL    HW234860   2.577   3.807   7.728 -0.7427 -1.1687  0.0103
 7800SOL     OW34861   4.216   2.431   5.368 -0.0088  0.5025 -0.0795
 7800SOL    HW134862   4.128   2.464   5.387 -0.0169  1.4456 -1.7108
 7800SOL    HW234863   4.260   2.506   5.328  0.8572  0.5453  0.9698
 7801SOL     OW34864   0.841   3.426   7.693 -0.4568 -0.2437 -0.4642
 7801SOL    HW134865   0.796   3.489   7.750 -0.6715  1.4122 -2.4752
 7801SOL    HW234866   0.924   3.405   7.736 -0.4523 -1.7019 -1.2086
 7802SOL     OW34867   4.638   2.828   2.128  0.5915  0.4348  0.6171
 7802SOL    HW134868   4.550   2.790   2.129  0.9309 -0.4074 -2.9191
 7802SOL    HW234869   4.626   2.902   2.189  0.7228  0.0713  1.0860
 7803SOL     OW34870   0.900   2.477  13.450  0.3721 -0.3073 -0.7484
 7803SOL    HW134871   0.915   2.471  13.355 -0.0473 -3.0475 -0.6461
 7803SOL    HW234872   0.966   2.414  13.479  0.1145 -0.2852 -0.1229
 7804SOL     OW34873   3.434   4.523   7.481 -0.0467  0.3527 -0.3529
 7804SOL    HW134874   3.418   4.573   7.561  2.2667  0.3442  0.1136
 7804SOL    HW234875   3.399   4.439   7.510  1.8350  0.1275  1.2815
 7805SOL     OW34876   4.032   0.325   1.234 -0.6091 -0.3174 -0.0138
 7805SOL    HW134877   4.063   0.412   1.211 -2.8851  0.3970 -0.3738
 7805SOL    HW234878   3.941   0.342   1.259 -0.4941  0.9374 -0.4373
 7806SOL     OW34879   2.810   2.261   6.186  0.3115 -0.6417 -0.1846
 7806SOL    HW134880   2.749   2.296   6.122 -0.2275 -0.8958  0.1945
 7806SOL    HW234881   2.761   2.272   6.267  1.5911 -1.6119  0.7362
 7807SOL     OW34882   2.632   1.044   2.632  0.2923 -0.2588 -0.1839
 7807SOL    HW134883   2.699   1.092   2.583  0.5136 -0.9345 -0.5460
 7807SOL    HW234884   2.657   1.077   2.718 -0.4794  0.9764 -0.4382
 7808SOL     OW34885   4.120   2.192   4.131 -0.2496 -0.2784 -0.2694
 7808SOL    HW134886   4.036   2.179   4.085 -1.1787  1.7616  0.8721
 7808SOL    HW234887   4.102   2.173   4.223  2.1536  1.0046  0.4457
 7809SOL     OW34888   4.580   2.849  15.232  0.4998  0.4058  0.1255
 7809SOL    HW134889   4.575   2.937  15.196 -0.2176  1.3806  2.6024
 7809SOL    HW234890   4.512   2.852  15.299 -0.9339 -0.0818 -1.3111
 7810SOL     OW34891   1.357   1.108   1.577  0.3320  0.1358  0.4636
 7810SOL    HW134892   1.300   1.175   1.615 -2.4858 -0.5929 -2.3632
 7810SOL    HW234893   1.432   1.117   1.636  0.4520  0.2922  0.2870
 7811SOL     OW34894   1.481   1.577   6.986 -0.5283  0.3889  0.1354
 7811SOL    HW134895   1.464   1.483   6.990  1.6668  0.0194  0.5238
 7811SOL    HW234896   1.418   1.617   7.046  0.0023 -0.1165  1.0210
 7812SOL     OW34897   1.452   3.110   5.042 -0.2501  0.0069 -0.4247
 7812SOL    HW134898   1.402   3.169   5.098  1.8858  1.3759  0.0546
 7812SOL    HW234899   1.382   3.096   4.978 -0.5226  0.5030 -0.2261
 7813SOL     OW34900   2.931   0.108   7.555 -0.0208  0.5309  0.0762
 7813SOL    HW134901   2.904   0.094   7.646 -2.3603 -1.6847 -0.9465
 7813SOL    HW234902   2.863   0.174   7.545  0.2556  0.1731 -4.1505
 7814SOL     OW34903   2.046   1.124   6.070 -0.0931  0.2710 -0.0748
 7814SOL    HW134904   1.960   1.112   6.029 -0.6265  0.9141  0.8485
 7814SOL    HW234905   2.011   1.153   6.154 -2.8029  0.6001 -1.3055
 7815SOL     OW34906   2.279   1.204   3.751  0.1894 -0.3634 -0.0364
 7815SOL    HW134907   2.200   1.182   3.701  0.0118  2.5289 -1.0158
 7815SOL    HW234908   2.262   1.150   3.828 -0.9787 -0.5976 -0.4562
 7816SOL     OW34909   1.591   1.925   6.292  0.5462  0.2747 -0.0304
 7816SOL    HW134910   1.686   1.933   6.283  0.4239 -1.1280 -2.3190
 7816SOL    HW234911   1.560   2.015   6.304 -0.1913 -0.1038  0.9096
 7817SOL     OW34912   1.367   0.950   1.925 -0.3897  0.2996 -0.3790
 7817SOL    HW134913   1.324   0.997   1.853  4.4381  1.7109 -2.3384
 7817SOL    HW234914   1.311   0.975   1.999 -2.2013 -2.5110 -0.8149
 7818SOL     OW34915   0.544   2.671  16.828  0.9499 -0.2652 -0.0693
 7818SOL    HW134916   0.526   2.646  16.738  3.0257  1.4352 -0.9619
 7818SOL    HW234917   0.609   2.739  16.811 -0.1381  1.0848  1.1770
 7819SOL     OW34918   1.775   0.623  10.266 -0.0161 -0.6907  0.7957
 7819SOL    HW134919   1.720   0.545  10.268 -0.7331 -0.2671 -3.7316
 7819SOL    HW234920   1.814   0.616  10.179 -0.4756  1.3681  0.4453
 7820SOL     OW34921   2.836   1.293  14.410 -0.0026 -0.3283  0.0787
 7820SOL    HW134922   2.782   1.266  14.336 -0.7315 -1.4410  1.0254
 7820SOL    HW234923   2.772   1.321  14.475 -1.2110 -1.0337 -0.8195
 7821SOL     OW34924   0.225   1.587   6.375  0.2133 -0.3368 -0.4592
 7821SOL    HW134925   0.316   1.619   6.371 -0.3722  1.1401 -2.3934
 7821SOL    HW234926   0.234   1.494   6.356 -1.0120 -1.2112  3.4007
 7822SOL     OW34927   1.756   2.986   7.571  0.0150 -0.0907 -0.3696
 7822SOL    HW134928   1.719   3.074   7.564  1.0446  0.3123 -0.7831
 7822SOL    HW234929   1.850   3.005   7.580  0.2551 -1.3754 -0.1656
 7823SOL     OW34930   3.308   4.073  17.677  0.0088 -0.0424 -0.2385
 7823SOL    HW134931   3.264   4.149  17.638  0.1470  0.3735  0.4253
 7823SOL    HW234932   3.270   3.994  17.638  0.4753  0.0108 -0.7978
 7824SOL     OW34933   3.675   2.991  15.687 -0.0711 -0.2095  0.0305
 7824SOL    HW134934   3.635   2.915  15.729 -0.9209 -0.2152 -0.7919
 7824SOL    HW234935   3.727   2.955  15.614  0.1450  1.1724 -0.5033
 7825SOL     OW34936   4.396   1.073   5.489  0.2577  0.1792 -0.1161
 7825SOL    HW134937   4.398   1.155   5.439  1.0873  0.9997  1.2630
 7825SOL    HW234938   4.326   1.025   5.444  1.1977  0.3889 -1.7834
 7826SOL     OW34939   2.181   0.607   8.244 -0.2583 -0.4074 -0.1187
 7826SOL    HW134940   2.241   0.636   8.174 -0.7266  1.9946  0.4855
 7826SOL    HW234941   2.193   0.677   8.308 -0.5992  0.2902 -0.8165
 7827SOL     OW34942   3.702   4.416   1.231 -0.1373  0.0616 -0.3345
 7827SOL    HW134943   3.716   4.328   1.196  0.5325  0.1660 -0.3336
 7827SOL    HW234944   3.791   4.449   1.240  0.7387 -2.8227  1.7603
 7828SOL     OW34945   3.161   3.762   3.238  0.4171 -0.1448  0.2430
 7828SOL    HW134946   3.104   3.810   3.298 -0.0647 -0.3615 -0.0388
 7828SOL    HW234947   3.231   3.737   3.297 -0.3546 -2.5686  0.1068
 7829SOL     OW34948   1.709   0.145   0.271 -0.7439 -0.2376  0.0335
 7829SOL    HW134949   1.763   0.135   0.193  0.9497 -4.4245  1.7680
 7829SOL    HW234950   1.657   0.225   0.257  0.8962  0.9338  0.6441
 7830SOL     OW34951   2.675   1.955   7.192  0.0803 -0.1356 -0.1498
 7830SOL    HW134952   2.620   1.915   7.259 -0.4692  0.7074 -0.0904
 7830SOL    HW234953   2.759   1.965   7.236 -0.1854  1.1873  0.0635
 7831SOL     OW34954   4.016   2.927   3.410  0.3457  0.0600  0.5185
 7831SOL    HW134955   3.953   2.857   3.427  1.6426 -1.1621  0.3052
 7831SOL    HW234956   3.994   2.938   3.317  1.6811 -0.6083  0.1162
 7832SOL     OW34957   0.436   1.520   6.078 -0.3550 -0.9893  0.5223
 7832SOL    HW134958   0.458   1.564   6.159  0.0121 -0.6236  0.2239
 7832SOL    HW234959   0.356   1.471   6.098 -1.3284  0.7120  0.8072
 7833SOL     OW34960   3.744   2.402   6.274 -0.4253 -0.2892  0.1091
 7833SOL    HW134961   3.775   2.415   6.363 -2.0416  0.5577  0.5685
 7833SOL    HW234962   3.799   2.325   6.265 -0.3179 -0.7107  4.6314
 7834SOL     OW34963   4.344   1.591  16.727  0.9216  0.0943  0.4235
 7834SOL    HW134964   4.297   1.606  16.645 -0.1075  2.1527  1.3876
 7834SOL    HW234965   4.431   1.564  16.697  1.3985  0.1059  1.8102
 7835SOL     OW34966   4.256   0.123   8.260  0.1255 -0.1637  0.1652
 7835SOL    HW134967   4.267   0.060   8.332  1.1555 -0.7089 -0.4646
 7835SOL    HW234968   4.344   0.128   8.223  0.1915 -2.0408  0.0642
 7836SOL     OW34969   1.445   2.128   2.632  0.6338 -0.4171 -0.5649
 7836SOL    HW134970   1.519   2.114   2.574  0.6601  0.3800 -0.7161
 7836SOL    HW234971   1.472   2.193   2.697 -0.0804  0.2119 -0.8992
 7837SOL     OW34972   2.269   3.680  13.587 -0.3096  0.0063  0.1664
 7837SOL    HW134973   2.258   3.711  13.677  2.6894 -3.1563  1.6572
 7837SOL    HW234974   2.197   3.617  13.593  1.6621 -2.0923  2.1190
 7838SOL     OW34975   2.822   1.112  16.893 -0.4134 -0.5199  0.0183
 7838SOL    HW134976   2.792   1.192  16.935 -1.7382 -0.4820 -0.9817
 7838SOL    HW234977   2.830   1.050  16.965  2.0172  0.8180  0.9068
 7839SOL     OW34978   2.918   1.314   2.174 -0.1208 -0.0556 -0.1787
 7839SOL    HW134979   2.883   1.352   2.255  0.1138 -0.7461  0.2457
 7839SOL    HW234980   3.012   1.327   2.182 -0.3496 -0.4508  3.2330
 7840SOL     OW34981   0.898   2.492  16.864  0.1462 -0.5592 -0.8740
 7840SOL    HW134982   0.852   2.462  16.942 -1.1263  1.6979 -0.7579
 7840SOL    HW234983   0.938   2.408  16.844 -2.3946 -1.9416 -0.0671
 7841SOL     OW34984   2.061   3.154   3.624  0.6817 -0.0737  0.5821
 7841SOL    HW134985   2.122   3.082   3.608 -0.0819 -0.5738 -0.0937
 7841SOL    HW234986   2.126   3.223   3.634  0.4893  0.3031 -0.7610
 7842SOL     OW34987   4.578   4.212   4.385 -0.1771  0.1461 -0.0632
 7842SOL    HW134988   4.552   4.191   4.295 -0.0571  4.1426 -0.9934
 7842SOL    HW234989   4.672   4.193   4.390 -0.4497 -0.8986  1.0644
 7843SOL     OW34990   3.055   3.816  10.087  0.1974 -0.4505 -0.0419
 7843SOL    HW134991   3.090   3.729  10.106  0.3099 -0.2799  0.5284
 7843SOL    HW234992   2.969   3.831  10.127  0.4395 -0.2326  0.3943
 7844SOL     OW34993   3.066   4.017  15.290  0.0086  0.4055 -0.0754
 7844SOL    HW134994   3.096   4.107  15.297 -0.2168  0.6146 -1.6537
 7844SOL    HW234995   3.137   3.980  15.238 -0.7636 -0.4102 -0.5486
 7845SOL     OW34996   2.154   1.139  15.539  0.1600  0.3529  0.7325
 7845SOL    HW134997   2.124   1.180  15.458  1.1234  0.3423  0.3634
 7845SOL    HW234998   2.118   1.051  15.538  2.0104 -0.3987  0.6829
 7846SOL     OW34999   1.195   1.631   0.391  0.1532  0.3894 -0.3137
 7846SOL    HW135000   1.184   1.716   0.348 -2.1979  0.8774  1.2582
 7846SOL    HW235001   1.132   1.637   0.463  0.4952  0.3764 -0.0129
 7847SOL     OW35002   2.685   2.865   2.926  0.3559 -0.0106 -0.1352
 7847SOL    HW135003   2.690   2.823   3.012 -2.1719 -1.4925 -0.7063
 7847SOL    HW235004   2.762   2.826   2.884  0.4646 -1.1191  1.0957
 7848SOL     OW35005   2.322   1.599   6.642  0.1645  0.5868  0.3992
 7848SOL    HW135006   2.261   1.613   6.714 -0.8685 -0.7476 -0.2118
 7848SOL    HW235007   2.380   1.534   6.682  0.2943 -0.5336 -1.5575
 7849SOL     OW35008   0.612   3.770   4.754  0.2143  0.4057  0.0041
 7849SOL    HW135009   0.560   3.705   4.707  0.2930  1.1641 -1.1403
 7849SOL    HW235010   0.680   3.715   4.792  1.2180  1.1431 -0.7175
 7850SOL     OW35011   3.266   3.914  15.138  0.2970  0.1165  0.2141
 7850SOL    HW135012   3.328   3.987  15.138 -0.5738  0.8483 -0.4608
 7850SOL    HW235013   3.311   3.851  15.194  0.2248 -0.6121 -0.5496
 7851SOL     OW35014   1.943   4.522   4.812  0.3241  0.0189  0.1188
 7851SOL    HW135015   1.912   4.433   4.829  1.0619 -0.2800 -0.1138
 7851SOL    HW235016   2.022   4.496   4.764  1.5920  1.7841  1.2659
 7852SOL     OW35017   2.047   3.459   3.172 -0.4211 -0.1622 -0.3898
 7852SOL    HW135018   2.092   3.377   3.192  1.2091  0.5883 -1.0339
 7852SOL    HW235019   1.986   3.429   3.104 -2.3816 -0.7050  1.6176
 7853SOL     OW35020   1.235   4.573  12.051 -0.1524 -0.4066 -0.3378
 7853SOL    HW135021   1.237   4.511  12.124  1.5813  0.5850  0.4522
 7853SOL    HW235022   1.203   4.647  12.101 -1.7657 -0.6695 -0.9852
 7854SOL     OW35023   1.345   1.470   3.395 -0.3328 -0.1807  0.4142
 7854SOL    HW135024   1.290   1.432   3.326 -0.8325  1.9996 -0.3971
 7854SOL    HW235025   1.373   1.549   3.348  1.1849 -1.0274 -0.1098
 7855SOL     OW35026   0.608   1.116   5.521 -0.4755  0.0114  0.3384
 7855SOL    HW135027   0.594   1.210   5.532 -2.7590 -0.0917 -1.8464
 7855SOL    HW235028   0.622   1.114   5.426  0.1770  0.6625  0.4215
 7856SOL     OW35029   0.450   4.622  10.243 -0.1321 -0.6644  0.6369
 7856SOL    HW135030   0.533   4.666  10.223 -0.3357 -0.1107  0.9946
 7856SOL    HW235031   0.477   4.595  10.330 -3.4422 -0.8044  1.6355
 7857SOL     OW35032   2.279   2.073   4.237 -1.5796  0.1232  0.2029
 7857SOL    HW135033   2.320   2.038   4.158  0.8097  0.6668  1.2102
 7857SOL    HW235034   2.301   2.165   4.228  4.2532 -1.4042 -0.7996
 7858SOL     OW35035   0.643   0.996  12.833  0.0574  0.6036  0.1528
 7858SOL    HW135036   0.731   1.023  12.858  0.3894  0.1840 -0.5626
 7858SOL    HW235037   0.593   1.016  12.912 -1.0620  0.0570 -0.4059
 7859SOL     OW35038   1.914   4.603   0.850  0.0031  0.0447  0.0303
 7859SOL    HW135039   1.820   4.585   0.845  0.3327 -1.3062 -1.1099
 7859SOL    HW235040   1.903   4.663   0.924 -0.1038 -0.4486  0.4133
 7860SOL     OW35041   0.421   0.020   7.804 -0.5149  0.4724  0.7191
 7860SOL    HW135042   0.434   4.648   7.780 -2.2782  0.8485 -1.7138
 7860SOL    HW235043   0.351   0.009   7.867 -0.9256 -2.4154 -0.2391
 7861SOL     OW35044   4.116   4.040   3.897 -0.0296  0.0962  0.2003
 7861SOL    HW135045   4.198   3.992   3.906 -0.6687 -0.8059  1.1724
 7861SOL    HW235046   4.089   4.015   3.808 -0.4788  2.2916 -0.2814
 7862SOL     OW35047   4.529   2.942  16.923  0.0088 -0.3218  0.3482
 7862SOL    HW135048   4.460   2.936  16.856  0.3678 -1.1950  0.0533
 7862SOL    HW235049   4.606   2.906  16.878 -0.5260 -0.6720 -0.2804
 7863SOL     OW35050   3.386   0.977   2.956 -0.2984 -0.5645 -0.2148
 7863SOL    HW135051   3.323   0.986   2.884 -1.3031 -2.7007  0.3891
 7863SOL    HW235052   3.466   1.002   2.910  1.2511 -3.2725  1.0313
 7864SOL     OW35053   2.543   4.467  11.618  0.5355 -0.5001 -0.0339
 7864SOL    HW135054   2.560   4.542  11.674  0.5033  0.9357 -1.9317
 7864SOL    HW235055   2.622   4.413  11.622  1.3903  0.7180 -0.4720
 7865SOL     OW35056   1.420   2.395   2.787  0.7627  0.0941  0.1938
 7865SOL    HW135057   1.455   2.475   2.749  2.1086 -1.1075 -1.0883
 7865SOL    HW235058   1.381   2.417   2.872 -2.1227 -3.3630 -0.2164
 7866SOL     OW35059   0.319   3.767   5.451  0.8064 -0.1721  0.2921
 7866SOL    HW135060   0.397   3.782   5.397 -0.6565  0.8784 -1.5336
 7866SOL    HW235061   0.249   3.801   5.395  0.9629 -0.0626  0.1637
 7867SOL     OW35062   0.472   4.228   5.208  0.1758 -0.2321  0.8732
 7867SOL    HW135063   0.380   4.254   5.209  0.4735  0.8641  0.0717
 7867SOL    HW235064   0.510   4.314   5.194  0.7440 -0.5349  0.5412
 7868SOL     OW35065   3.389   2.668  16.921  0.1020 -0.3998  0.0579
 7868SOL    HW135066   3.415   2.719  16.844  1.4986 -0.3133  0.5769
 7868SOL    HW235067   3.454   2.599  16.934  0.8887  0.6891  1.9145
 7869SOL     OW35068   1.749   0.669   9.930  0.0679 -0.3131 -0.3120
 7869SOL    HW135069   1.771   0.590   9.981  0.0659 -0.5032 -0.6066
 7869SOL    HW235070   1.833   0.695   9.891  0.9626 -1.9436  0.5148
 7870SOL     OW35071   3.185   0.197   7.503  0.0694 -0.0840 -0.1323
 7870SOL    HW135072   3.214   0.189   7.594 -1.2608  0.0859  0.3013
 7870SOL    HW235073   3.106   0.143   7.508  0.6128 -0.7752  0.9238
 7871SOL     OW35074   1.753   4.295   4.861  0.6801  0.3353 -0.2454
 7871SOL    HW135075   1.707   4.260   4.785  0.6991  0.8168 -0.4798
 7871SOL    HW235076   1.722   4.242   4.934  1.9171  0.6004  0.4609
 7872SOL     OW35077   2.997   2.400   1.948  0.2746  0.6389  0.2595
 7872SOL    HW135078   2.921   2.436   1.993  0.7028  1.4029  0.3761
 7872SOL    HW235079   3.054   2.476   1.936 -0.3064  0.7901 -1.4383
 7873SOL     OW35080   1.979   0.259   6.830 -0.1336  0.1020  0.2923
 7873SOL    HW135081   1.963   0.165   6.823  0.6124  0.0003 -0.0633
 7873SOL    HW235082   2.054   0.279   6.774  0.4088 -0.1751  0.9190
 7874SOL     OW35083   4.392   1.085   3.395 -0.5467 -0.5463 -0.7204
 7874SOL    HW135084   4.485   1.067   3.392 -0.4134  0.4355 -2.3131
 7874SOL    HW235085   4.386   1.167   3.346  0.5465 -1.1066 -1.7670
 7875SOL     OW35086   4.649   2.351  13.067 -0.3551  0.4249  0.2455
 7875SOL    HW135087   4.557   2.374  13.055  0.2475  1.6419 -2.2124
 7875SOL    HW235088   4.633   2.261  13.095  1.8634 -0.5108 -1.5194
 7876SOL     OW35089   0.432   4.277   2.292 -0.3135 -0.4714  0.3760
 7876SOL    HW135090   0.347   4.284   2.248  0.6964  1.2220 -1.3305
 7876SOL    HW235091   0.452   4.368   2.315 -1.1449 -0.2509  0.2515
 7877SOL     OW35092   3.685   4.192   4.381 -0.5187 -0.4802  0.2958
 7877SOL    HW135093   3.739   4.271   4.375 -0.3942 -0.5539  0.4356
 7877SOL    HW235094   3.628   4.212   4.307  0.3408  0.8366 -0.0034
 7878SOL     OW35095   3.037   1.054   6.860 -0.1153  0.0125 -0.4714
 7878SOL    HW135096   3.102   1.121   6.835 -0.1565  0.3054  0.1849
 7878SOL    HW235097   2.986   1.039   6.781 -0.0354 -0.5339 -0.4148
 7879SOL     OW35098   0.302   0.193   7.498  0.3177 -0.1705 -0.6127
 7879SOL    HW135099   0.226   0.221   7.548  1.4800 -0.6352  1.4220
 7879SOL    HW235100   0.256   0.128   7.445  0.3065 -0.7727  0.1281
 7880SOL     OW35101   3.340   1.745   4.878 -0.4600 -0.4450  0.5054
 7880SOL    HW135102   3.251   1.740   4.845  0.1950  2.3519 -1.6449
 7880SOL    HW235103   3.364   1.653   4.866 -0.8306 -0.5187  0.3259
 7881SOL     OW35104   4.259   0.090  10.755  0.1599  0.1446 -0.2827
 7881SOL    HW135105   4.338   0.144  10.758 -0.2126  0.8286 -2.3266
 7881SOL    HW235106   4.283   0.014  10.807 -2.8469 -0.4761  0.2222
 7882SOL     OW35107   2.705   4.247  12.487 -0.3902  0.1959  0.5441
 7882SOL    HW135108   2.775   4.296  12.529  0.6087  0.4546 -1.4338
 7882SOL    HW235109   2.667   4.308  12.424  0.2158 -0.2368 -0.2411
 7883SOL     OW35110   4.715   0.199   3.171  0.1604  0.1758  0.6595
 7883SOL    HW135111   4.701   0.160   3.257 -0.4734  2.2871  1.5232
 7883SOL    HW235112   4.676   0.132   3.116 -0.0693  2.1395 -1.5760
 7884SOL     OW35113   3.206   4.232   6.436  0.5883 -0.4238  0.8214
 7884SOL    HW135114   3.162   4.289   6.498  0.6711  0.1848  0.3238
 7884SOL    HW235115   3.283   4.207   6.488 -0.8293 -0.1628  3.0195
 7885SOL     OW35116   2.663   0.198  15.263 -0.4866 -0.2013  0.2185
 7885SOL    HW135117   2.592   0.140  15.237 -0.5895 -1.4847  3.3909
 7885SOL    HW235118   2.669   0.256  15.187 -1.7587 -1.2187 -0.6541
 7886SOL     OW35119   1.632   3.531   3.089  0.5841 -0.2015 -0.6944
 7886SOL    HW135120   1.674   3.568   3.011 -0.1795  3.0391  0.4071
 7886SOL    HW235121   1.540   3.557   3.080  0.8863  2.3074  3.2317
 7887SOL     OW35122   0.374   1.330  13.502 -0.5219  0.0855 -0.5584
 7887SOL    HW135123   0.334   1.279  13.572  0.2687 -0.3429 -0.4230
 7887SOL    HW235124   0.318   1.408  13.494 -0.7157  0.0670  0.5935
 7888SOL     OW35125   4.679   3.425   0.643  0.2726  0.1067  0.2432
 7888SOL    HW135126   4.668   3.352   0.582 -3.2684 -0.2685  1.3281
 7888SOL    HW235127   4.663   3.376   0.723  1.3924  0.8207  0.8964
 7889SOL     OW35128   2.617   0.295   2.502  0.8342  0.1248 -0.8466
 7889SOL    HW135129   2.582   0.368   2.554  0.6290 -0.0598 -0.7271
 7889SOL    HW235130   2.546   0.283   2.440 -1.1019 -0.9837  1.5704
 7890SOL     OW35131   2.642   3.229   6.234  0.2454 -0.2909 -0.0542
 7890SOL    HW135132   2.565   3.174   6.246 -0.4016  0.8424  0.9520
 7890SOL    HW235133   2.663   3.232   6.327  1.3309  1.6589 -0.3398
 7891SOL     OW35134   0.603   1.518   7.674 -0.3235  0.4614  0.0328
 7891SOL    HW135135   0.661   1.442   7.682 -1.2862 -0.4308 -1.4236
 7891SOL    HW235136   0.549   1.517   7.753  0.5855 -0.7858  0.6431
 7892SOL     OW35137   2.030   2.812   8.724  0.0939  0.3371 -0.3755
 7892SOL    HW135138   2.116   2.789   8.761  0.9826  0.6346 -2.2728
 7892SOL    HW235139   1.983   2.730   8.735  1.7849 -0.6982 -0.8957
 7893SOL     OW35140   1.594   2.581   8.996 -0.6539  0.4536 -0.2711
 7893SOL    HW135141   1.606   2.664   9.041 -0.7810  1.8999 -2.8702
 7893SOL    HW235142   1.617   2.522   9.067 -1.7195 -1.1204 -1.2306
 7894SOL     OW35143   1.120   2.336   1.816  0.8949  0.1475 -0.1889
 7894SOL    HW135144   1.111   2.242   1.803  2.4570 -0.1741  0.9834
 7894SOL    HW235145   1.077   2.344   1.901 -0.5068 -1.1768 -0.7811
 7895SOL     OW35146   0.617   2.537  16.228  0.1444 -0.2473 -0.1809
 7895SOL    HW135147   0.606   2.630  16.252  0.9684 -0.7882  2.2693
 7895SOL    HW235148   0.711   2.530  16.217  0.4860  1.0665  1.8066
 7896SOL     OW35149   0.347   2.195   5.216 -0.5646  0.2516  0.4630
 7896SOL    HW135150   0.321   2.255   5.146  2.8681 -0.0690 -1.1252
 7896SOL    HW235151   0.429   2.237   5.245 -0.4966 -0.8087  1.7965
 7897SOL     OW35152   0.401   2.179  11.230  0.0795  0.2573 -0.1407
 7897SOL    HW135153   0.391   2.102  11.173  1.9330  0.9062 -1.3386
 7897SOL    HW235154   0.346   2.152  11.303 -0.9818  1.9720 -0.2925
 7898SOL     OW35155   2.053   0.217   1.208  0.5056 -0.4910 -1.0771
 7898SOL    HW135156   2.089   0.303   1.231  0.4339 -0.0628 -2.6256
 7898SOL    HW235157   2.127   0.172   1.167 -0.5025 -1.5838 -1.7058
 7899SOL     OW35158   0.581   0.161   4.812  0.2589 -0.1297  0.1353
 7899SOL    HW135159   0.559   0.141   4.903  0.9271  2.6916  0.9262
 7899SOL    HW235160   0.657   0.219   4.822  0.0684  0.6864 -3.2239
 7900SOL     OW35161   4.374   1.075   2.336  0.3469 -0.3501  0.2700
 7900SOL    HW135162   4.299   1.031   2.375 -0.7607 -0.5846 -2.1825
 7900SOL    HW235163   4.409   1.131   2.406 -2.0194 -1.3805  2.2753
 7901SOL     OW35164   2.757   4.698  14.354 -0.0892  0.1055 -0.1826
 7901SOL    HW135165   2.668   4.684  14.387  0.5078  1.0621  1.8521
 7901SOL    HW235166   2.787   4.610  14.333 -1.0265 -0.2664  0.0436
 7902SOL     OW35167   4.224   1.039   7.778 -0.2532 -0.2831  0.1528
 7902SOL    HW135168   4.305   0.996   7.748 -0.5755 -2.1614  1.9291
 7902SOL    HW235169   4.185   0.964   7.824 -1.9271  0.6815  0.2767
 7903SOL     OW35170   2.966   2.630  11.157  0.3564  0.1253 -0.6840
 7903SOL    HW135171   2.879   2.616  11.196  0.2120  0.5272 -0.8552
 7903SOL    HW235172   2.977   2.552  11.103  1.1385 -1.2973  1.5382
 7904SOL     OW35173   3.184   1.688   8.478  0.1220 -0.0699  0.4608
 7904SOL    HW135174   3.255   1.662   8.419 -0.1547 -2.0295  0.9997
 7904SOL    HW235175   3.117   1.622   8.460  0.4344 -0.0451 -0.7840
 7905SOL     OW35176   1.086   4.580   5.538  0.1174 -0.8479  0.0610
 7905SOL    HW135177   1.011   4.639   5.540 -0.5739 -1.7198 -0.3626
 7905SOL    HW235178   1.099   4.593   5.444  0.4249  1.9841  0.4866
 7906SOL     OW35179   2.811   1.432   3.005 -0.1203  0.4826 -0.3062
 7906SOL    HW135180   2.835   1.445   2.913  1.7875  1.1679  0.2936
 7906SOL    HW235181   2.884   1.380   3.038 -0.7693  0.4372  1.0518
 7907SOL     OW35182   2.472   1.660  11.160 -0.3956  0.0827 -0.2046
 7907SOL    HW135183   2.547   1.629  11.110 -1.4274  1.4387 -2.5924
 7907SOL    HW235184   2.407   1.674  11.091 -0.1305 -1.3380 -0.7303
 7908SOL     OW35185   0.360   0.381   7.062 -0.3590  0.2821  0.2883
 7908SOL    HW135186   0.290   0.348   7.005 -0.2035 -2.2677  1.5792
 7908SOL    HW235187   0.420   0.307   7.051 -1.3562 -0.2988 -1.3742
 7909SOL     OW35188   2.704   1.364   1.610 -0.5732  0.4118 -0.0635
 7909SOL    HW135189   2.791   1.374   1.571 -0.2032  2.4113  1.2867
 7909SOL    HW235190   2.681   1.272   1.600 -2.3688  0.7583  0.8480
 7910SOL     OW35191   3.229   4.105  13.875 -0.0952 -0.0392 -0.6174
 7910SOL    HW135192   3.307   4.137  13.829  0.8693 -2.1848 -0.4495
 7910SOL    HW235193   3.151   4.131  13.826 -1.2969 -0.0172  1.3118
 7911SOL     OW35194   1.847   0.332   2.500  0.0855 -0.3242  0.2830
 7911SOL    HW135195   1.897   0.345   2.419 -1.1137  1.4670 -0.1732
 7911SOL    HW235196   1.876   0.252   2.543 -0.2589 -0.1616  0.8207
 7912SOL     OW35197   0.107   3.899   1.835  0.0642  0.0512  0.0494
 7912SOL    HW135198   0.090   3.820   1.783 -1.1811  1.6305 -1.9429
 7912SOL    HW235199   0.029   3.951   1.815  1.4675  1.7496 -1.0575
 7913SOL     OW35200   3.566   1.482  10.075 -0.6255 -0.4757 -0.9442
 7913SOL    HW135201   3.573   1.460  10.168  1.8853 -0.0919 -1.0253
 7913SOL    HW235202   3.478   1.448  10.058 -0.6101 -0.4326 -1.1090
 7914SOL     OW35203   2.991   3.456   6.241  0.2651  0.2525  0.0784
 7914SOL    HW135204   2.916   3.406   6.208  1.0844 -1.1097  0.2733
 7914SOL    HW235205   2.982   3.543   6.202  0.1657 -0.2416 -1.0031
 7915SOL     OW35206   0.515   2.591   5.856  0.2520 -0.2567 -0.2979
 7915SOL    HW135207   0.484   2.510   5.896 -1.8061  0.4231 -0.5141
 7915SOL    HW235208   0.575   2.541   5.802  0.4313  0.5201 -0.8262
 7916SOL     OW35209   1.209   2.580   7.456 -0.4868  0.4534  0.0879
 7916SOL    HW135210   1.237   2.593   7.547  1.6998  2.4054 -0.8845
 7916SOL    HW235211   1.289   2.604   7.411 -1.7424 -0.6969 -2.7350
 7917SOL     OW35212   4.515   0.245  10.121 -0.2909  0.2918 -0.2580
 7917SOL    HW135213   4.602   0.248  10.162 -0.7364  1.6263  0.5645
 7917SOL    HW235214   4.487   0.336  10.124  1.2099  0.8187 -2.0532
 7918SOL     OW35215   3.496   3.213   3.563 -0.0023  0.1464  0.5414
 7918SOL    HW135216   3.473   3.280   3.627  2.6618  1.1316  0.5030
 7918SOL    HW235217   3.501   3.135   3.619 -0.3461 -1.4571 -1.6429
 7919SOL     OW35218   4.092   4.015  17.008  0.3325  0.2642 -0.2635
 7919SOL    HW135219   4.097   4.110  17.000 -0.0636  0.1412 -2.1217
 7919SOL    HW235220   4.169   3.993  16.955 -0.1155 -1.5244 -0.1460
 7920SOL     OW35221   3.655   1.423   4.061 -0.4480  0.0279 -0.0470
 7920SOL    HW135222   3.627   1.496   4.005  2.7838  1.8541  0.7258
 7920SOL    HW235223   3.744   1.408   4.030 -1.7005 -0.6543 -3.3446
 7921SOL     OW35224   4.498   4.260   8.044  0.5803 -0.3336 -0.4004
 7921SOL    HW135225   4.427   4.265   7.980 -0.0686 -0.1894  0.3150
 7921SOL    HW235226   4.451   4.199   8.101  2.0870 -2.3335 -1.3097
 7922SOL     OW35227   2.309   1.727  11.370  0.2653  0.1543  0.2124
 7922SOL    HW135228   2.367   1.696  11.301 -0.7796  3.9850 -2.3758
 7922SOL    HW235229   2.376   1.772  11.423  0.2356 -1.1880  1.3806
 7923SOL     OW35230   2.596   0.007   8.050  0.2033 -0.3135 -0.5133
 7923SOL    HW135231   2.501   0.018   8.053  0.1106 -1.9259  2.2825
 7923SOL    HW235232   2.597   4.715   7.955  0.0671  1.2863 -0.6987
 7924SOL     OW35233   1.048   0.228  12.841 -0.1688  0.0667 -0.1722
 7924SOL    HW135234   1.133   0.194  12.870 -1.1000 -2.9435 -0.9777
 7924SOL    HW235235   1.077   0.318  12.827 -1.6441  0.8558  1.9967
 7925SOL     OW35236   2.633   1.374   3.243 -0.1650  0.3440 -0.5248
 7925SOL    HW135237   2.693   1.392   3.171  1.9953 -1.2523  0.8503
 7925SOL    HW235238   2.657   1.449   3.298  1.0375 -1.3116  1.2224
 7926SOL     OW35239   0.838   0.828   8.588  0.4956  0.8029  0.2694
 7926SOL    HW135240   0.811   0.883   8.661 -0.0252  0.3763  0.3954
 7926SOL    HW235241   0.932   0.816   8.596  0.4783 -1.4328 -2.6401
 7927SOL     OW35242   3.032   3.410   5.949  0.9510 -0.5646  0.2358
 7927SOL    HW135243   2.945   3.407   5.989  0.7330 -1.8536 -0.3466
 7927SOL    HW235244   3.017   3.455   5.865  0.2428  0.3922  0.8798
 7928SOL     OW35245   3.425   0.366  15.436 -0.3741 -0.0479  0.5452
 7928SOL    HW135246   3.444   0.327  15.521 -1.0238 -1.8023 -0.1133
 7928SOL    HW235247   3.373   0.438  15.472  0.8039  2.1890 -2.2415
 7929SOL     OW35248   0.533   3.339  11.321 -0.7162  0.5002 -0.1435
 7929SOL    HW135249   0.569   3.288  11.394  0.4920  3.5443  1.3636
 7929SOL    HW235250   0.439   3.341  11.341 -0.7787  1.9902 -0.5853
 7930SOL     OW35251   3.928   0.897  11.226  0.0099 -0.4249 -0.1836
 7930SOL    HW135252   3.875   0.830  11.182 -0.8138  0.3018 -0.3010
 7930SOL    HW235253   4.018   0.868  11.213  0.9707  2.9281 -0.8132
 7931SOL     OW35254   2.218   1.557   2.243 -0.4842  0.2264 -0.1191
 7931SOL    HW135255   2.211   1.600   2.328  1.4063 -4.5712  2.4710
 7931SOL    HW235256   2.205   1.464   2.257  0.4085  0.1688  0.3351
 7932SOL     OW35257   1.261   0.916  14.250  0.0744 -0.3951 -0.0692
 7932SOL    HW135258   1.204   0.843  14.227 -1.5704  0.6373  0.7699
 7932SOL    HW235259   1.209   0.947  14.324  0.8393  0.4608  0.1192
 7933SOL     OW35260   2.592   3.132  10.575 -0.3380 -0.5608  1.0199
 7933SOL    HW135261   2.535   3.163  10.505  2.4671 -1.8790 -1.8170
 7933SOL    HW235262   2.632   3.211  10.610  0.7246 -1.1337  1.0847
 7934SOL     OW35263   4.523   3.548   8.358 -0.1338  0.1327  0.0742
 7934SOL    HW135264   4.562   3.473   8.315  2.6816  0.7682  1.5171
 7934SOL    HW235265   4.477   3.514   8.435 -1.0066 -0.3561 -0.6610
 7935SOL     OW35266   3.797   4.131   0.797 -0.3551 -0.0823  0.1259
 7935SOL    HW135267   3.778   4.146   0.890 -0.5385 -0.6878  0.1818
 7935SOL    HW235268   3.839   4.214   0.775  0.1510 -0.9773 -2.2097
 7936SOL     OW35269   1.823   3.538  17.354 -0.2034 -0.0359 -0.5965
 7936SOL    HW135270   1.727   3.540  17.351 -0.1336  2.5046 -0.6044
 7936SOL    HW235271   1.856   3.627  17.365 -0.5484  0.1079 -0.7304
 7937SOL     OW35272   3.504   4.715  15.156 -0.2831  0.3474 -0.5615
 7937SOL    HW135273   3.514   0.003  15.061 -0.2017  1.4762 -0.4597
 7937SOL    HW235274   3.488   4.621  15.158 -1.2471  0.5352  0.3456
 7938SOL     OW35275   2.315   3.049   0.751 -0.4948 -0.0808  0.0041
 7938SOL    HW135276   2.289   3.023   0.662  2.2222 -1.4511 -0.3989
 7938SOL    HW235277   2.272   3.134   0.751 -0.5144 -0.0964  1.6718
 7939SOL     OW35278   1.494   2.488  11.242  0.7000  0.1470 -0.2029
 7939SOL    HW135279   1.435   2.432  11.191  0.8332 -1.9709  1.9250
 7939SOL    HW235280   1.490   2.579  11.212 -2.3911  0.1304  0.1580
 7940SOL     OW35281   0.660   2.752   8.521  0.5184 -0.6739 -0.0729
 7940SOL    HW135282   0.619   2.670   8.495 -0.2871 -1.1162  2.6599
 7940SOL    HW235283   0.736   2.766   8.464 -0.1483  1.8310 -0.3259
 7941SOL     OW35284   2.737   0.881   3.472 -0.4973  0.5855  0.5086
 7941SOL    HW135285   2.715   0.841   3.556  0.0188 -1.3542 -0.2734
 7941SOL    HW235286   2.700   0.969   3.475 -0.7658  0.4485  1.1507
 7942SOL     OW35287   3.562   2.666  15.069  0.7550 -0.4051  0.0934
 7942SOL    HW135288   3.645   2.686  15.025  1.8930 -2.1817  1.4243
 7942SOL    HW235289   3.504   2.658  14.994 -1.2318 -2.0174  1.8196
 7943SOL     OW35290   2.900   1.396   8.568  0.1446 -0.4790 -0.1015
 7943SOL    HW135291   2.984   1.386   8.614 -0.2991  0.8964  1.0073
 7943SOL    HW235292   2.864   1.310   8.588 -1.4110  0.2432  0.2007
 7944SOL     OW35293   3.057   2.602   0.331  0.4192 -0.2199 -0.4792
 7944SOL    HW135294   3.121   2.672   0.319  0.9035 -0.9669 -2.2293
 7944SOL    HW235295   3.032   2.614   0.423 -1.2375  0.9364 -1.0756
 7945SOL     OW35296   0.951   3.710   7.189  0.1035 -0.1425  0.4018
 7945SOL    HW135297   1.040   3.719   7.155  0.3192  2.1502  1.5318
 7945SOL    HW235298   0.982   3.687   7.277  1.7695  1.8111  0.3132
 7946SOL     OW35299   0.738   4.292   4.119 -0.3868  0.6008  0.2361
 7946SOL    HW135300   0.833   4.280   4.118 -0.3080  1.2173  0.4068
 7946SOL    HW235301   0.723   4.351   4.045  2.2903  0.4516 -0.4217
 7947SOL     OW35302   4.671   2.718   4.406  0.8274  0.0132  0.2610
 7947SOL    HW135303   4.614   2.646   4.379  0.2414  0.1538  1.1157
 7947SOL    HW235304   0.011   2.659   4.451 -0.4455 -0.5438  1.2226
 7948SOL     OW35305   1.821   3.819   4.722 -0.0329  0.3274  0.2988
 7948SOL    HW135306   1.908   3.804   4.687 -0.5276 -2.2961  0.2091
 7948SOL    HW235307   1.765   3.797   4.648 -0.4037  0.2727  0.5956
 7949SOL     OW35308   2.366   4.235   8.377 -0.6501 -0.5551 -0.1837
 7949SOL    HW135309   2.389   4.324   8.405 -1.3368 -0.4045 -0.0831
 7949SOL    HW235310   2.434   4.208   8.317  1.2371 -1.1559  2.2510
 7950SOL     OW35311   0.836   4.017   3.182  0.0191 -0.0381 -0.0381
 7950SOL    HW135312   0.755   3.973   3.207 -0.3311  0.3625 -0.4753
 7950SOL    HW235313   0.818   4.043   3.092 -3.1451 -0.4811  0.4932
 7951SOL     OW35314   1.374   3.061   4.540  0.8391  0.5710  0.7702
 7951SOL    HW135315   1.302   3.101   4.492  1.1061 -1.9265 -1.7772
 7951SOL    HW235316   1.328   3.047   4.623  0.1663 -1.8615  0.0016
 7952SOL     OW35317   4.674   2.699   8.433 -0.1104 -0.1107 -0.1194
 7952SOL    HW135318   4.616   2.751   8.489 -1.1906 -0.0699 -1.2815
 7952SOL    HW235319   0.013   2.653   8.494 -0.5855 -2.3314 -1.3613
 7953SOL     OW35320   2.738   1.375  12.360 -0.1141 -0.1144 -0.0601
 7953SOL    HW135321   2.655   1.361  12.313  1.3054  1.1251 -2.9614
 7953SOL    HW235322   2.794   1.306  12.324 -0.0974 -0.1254 -0.0130
 7954SOL     OW35323   1.439   2.035  12.207 -0.0499 -0.0459  0.5670
 7954SOL    HW135324   1.504   2.010  12.272 -0.2251 -0.5415  0.5514
 7954SOL    HW235325   1.455   1.983  12.129 -0.8241 -1.4270  1.3037
 7955SOL     OW35326   2.308   3.891   0.886 -1.0097 -0.1428  0.0098
 7955SOL    HW135327   2.335   3.875   0.795 -3.4344  2.1110 -1.0965
 7955SOL    HW235328   2.312   3.986   0.877 -0.6195 -0.2931 -1.5604
 7956SOL     OW35329   1.719   3.625   2.830  0.7164 -0.1464  0.2285
 7956SOL    HW135330   1.783   3.638   2.761  1.4950 -3.6226  0.2901
 7956SOL    HW235331   1.680   3.712   2.831  2.0097  0.4531 -1.3337
 7957SOL     OW35332   3.519   4.663  11.599 -0.5286 -0.0079  0.2532
 7957SOL    HW135333   3.557   4.594  11.545 -1.3956  0.3282 -0.7875
 7957SOL    HW235334   3.491   0.010  11.536 -0.4898 -0.1809  0.0536
 7958SOL     OW35335   2.062   0.884  15.558  0.0684 -0.3760 -0.0003
 7958SOL    HW135336   1.984   0.831  15.579  0.6305 -0.9957  0.5294
 7958SOL    HW235337   2.131   0.822  15.583 -1.8568 -1.3269  2.9810
 7959SOL     OW35338   0.315   4.201  11.969 -0.8186  0.7689  0.0152
 7959SOL    HW135339   0.374   4.235  11.901 -1.6879  2.2338 -0.0136
 7959SOL    HW235340   0.372   4.196  12.046 -1.3840 -1.1747  0.2971
 7960SOL     OW35341   3.031   0.104   3.124  0.5189  0.1849 -0.2500
 7960SOL    HW135342   3.054   0.088   3.032 -0.7605  2.0190 -0.8812
 7960SOL    HW235343   2.989   0.190   3.122  1.4946  0.6263 -1.8439
 7961SOL     OW35344   3.198   0.246   8.035 -0.0428  0.0753 -0.2798
 7961SOL    HW135345   3.122   0.255   7.977 -0.5060  2.7353  0.7432
 7961SOL    HW235346   3.166   0.284   8.116 -0.0611  0.6835 -0.5723
 7962SOL     OW35347   0.213   0.203   2.801 -0.1136 -0.1692  0.2538
 7962SOL    HW135348   0.154   0.275   2.778  1.7469  1.2090 -0.2495
 7962SOL    HW235349   0.295   0.252   2.808  1.3629 -2.1390 -3.0890
 7963SOL     OW35350   0.947   3.284   3.988  0.0624 -0.0362 -0.4093
 7963SOL    HW135351   0.865   3.271   4.037  0.5666 -2.1573 -0.1269
 7963SOL    HW235352   0.980   3.369   4.018 -0.3070 -0.5049  1.3098
 7964SOL     OW35353   1.606   0.379   5.062 -0.5734  0.4784 -0.9318
 7964SOL    HW135354   1.620   0.452   5.001 -2.9686  1.1164 -0.6951
 7964SOL    HW235355   1.570   0.421   5.140  1.9186  1.9407 -0.5489
 7965SOL     OW35356   3.185   0.350   4.105  0.5199 -0.4646  0.3286
 7965SOL    HW135357   3.230   0.276   4.064  0.3908  0.5528 -1.6298
 7965SOL    HW235358   3.257   0.396   4.148  2.8025 -3.5533 -0.1295
 7966SOL     OW35359   0.369   4.238   1.305  0.2881 -0.2530 -0.6847
 7966SOL    HW135360   0.429   4.181   1.354 -0.9301 -0.6603  0.3340
 7966SOL    HW235361   0.417   4.319   1.291 -0.0335  0.0793  0.1342
 7967SOL     OW35362   3.094   0.013   6.636 -0.1443 -0.1180 -0.1367
 7967SOL    HW135363   3.055   4.704   6.719 -1.7632  1.3454 -0.3859
 7967SOL    HW235364   3.179   4.691   6.628 -0.1437 -0.3925  1.3060
 7968SOL     OW35365   0.818   1.715  16.637 -0.2202 -0.0355  0.0200
 7968SOL    HW135366   0.744   1.751  16.684  0.1327  1.2282 -0.3986
 7968SOL    HW235367   0.885   1.756  16.692 -1.4578 -0.5353  1.8949
 7969SOL     OW35368   2.938   4.540  15.364 -0.6187  0.2166 -0.1383
 7969SOL    HW135369   2.931   4.626  15.405 -0.9464 -0.4655  1.2381
 7969SOL    HW235370   3.029   4.511  15.375 -0.9139 -1.4473 -1.9896
 7970SOL     OW35371   0.794   1.655   3.591  0.1003  0.0123 -0.3519
 7970SOL    HW135372   0.825   1.725   3.533  1.3622  0.3211  0.6836
 7970SOL    HW235373   0.746   1.601   3.528 -1.0101  1.0287 -0.3855
 7971SOL     OW35374   2.315   2.940   8.405  0.6353 -0.3018 -0.1615
 7971SOL    HW135375   2.328   2.845   8.411 -1.1556 -0.6596 -2.3934
 7971SOL    HW235376   2.402   2.960   8.370 -0.0686  3.1340  0.0632
 7972SOL     OW35377   0.643   4.695   5.837  0.6274  0.4139 -0.3838
 7972SOL    HW135378   0.588   0.037   5.885 -0.8362 -1.0099 -0.2160
 7972SOL    HW235379   0.719   0.032   5.825  1.6569 -1.1331 -1.2429
 7973SOL     OW35380   3.077   0.663   7.799  0.3385 -0.3497 -0.3641
 7973SOL    HW135381   3.130   0.736   7.768 -0.1676 -0.1441 -0.7308
 7973SOL    HW235382   3.146   0.597   7.793  1.9760  1.5094 -1.9807
 7974SOL     OW35383   0.814   4.124   5.107 -0.9323  0.3224  0.1914
 7974SOL    HW135384   0.876   4.188   5.141 -0.6012 -1.1535  2.3879
 7974SOL    HW235385   0.874   4.069   5.056 -1.9042 -0.0796 -0.5146
 7975SOL     OW35386   2.515   3.542  13.443 -0.1893  0.3710  0.6254
 7975SOL    HW135387   2.474   3.614  13.396 -0.0295 -0.2198 -0.4087
 7975SOL    HW235388   2.459   3.538  13.521  0.0791 -0.0399  0.8020
 7976SOL     OW35389   3.060   0.027   0.898  0.2326 -0.5502  0.1846
 7976SOL    HW135390   3.144   0.072   0.886 -0.2524  0.2380 -0.2472
 7976SOL    HW235391   3.076   4.657   0.866  2.5959  0.1139 -0.4612
 7977SOL     OW35392   2.867   3.759   0.520  0.5566 -0.3410  0.2581
 7977SOL    HW135393   2.897   3.827   0.580 -0.9954 -0.6616  1.4168
 7977SOL    HW235394   2.810   3.815   0.468  1.3626 -1.4836 -1.8431
 7978SOL     OW35395   1.606   2.513   5.909 -0.1233 -0.3187 -0.4636
 7978SOL    HW135396   1.590   2.423   5.881  0.8571 -0.9664  1.0652
 7978SOL    HW235397   1.632   2.542   5.821  0.7253  2.0580  0.5814
 7979SOL     OW35398   0.181   0.324   4.132 -0.1862 -0.1578  0.6147
 7979SOL    HW135399   0.159   0.237   4.163 -0.4469 -1.0445 -2.1046
 7979SOL    HW235400   0.276   0.316   4.145 -0.2006  1.1247  1.6054
 7980SOL     OW35401   1.708   0.144   7.062  0.3508  0.0374 -0.2912
 7980SOL    HW135402   1.800   0.144   7.036  1.0743 -2.1465  2.2067
 7980SOL    HW235403   1.676   0.076   7.003  0.8459 -0.7887  0.3855
 7981SOL     OW35404   4.073   4.368   4.604 -0.2807 -0.3361  0.0452
 7981SOL    HW135405   4.033   4.423   4.536 -0.1069 -0.3496 -0.0670
 7981SOL    HW235406   4.145   4.338   4.548  2.4433  3.0429  1.7558
 7982SOL     OW35407   0.105   2.720   2.371 -0.1917 -0.4485 -0.3074
 7982SOL    HW135408   0.182   2.663   2.372  1.8679  2.3435 -0.1137
 7982SOL    HW235409   0.102   2.747   2.280  2.2237 -0.3286 -0.3718
 7983SOL     OW35410   0.799   1.419  12.833 -0.1036 -0.4870  0.8516
 7983SOL    HW135411   0.770   1.470  12.758  1.1298  0.5553  1.0968
 7983SOL    HW235412   0.887   1.393  12.807 -1.0824 -2.5429 -0.3676
 7984SOL     OW35413   3.841   1.620  14.759 -0.2866  0.6575  0.1780
 7984SOL    HW135414   3.816   1.567  14.835 -1.9977  0.4964 -0.4968
 7984SOL    HW235415   3.905   1.558  14.722 -1.1678 -0.1722  0.0489
 7985SOL     OW35416   1.442   1.733  12.458 -0.6531  0.1510  0.1422
 7985SOL    HW135417   1.416   1.654  12.412 -3.6908 -0.1527  2.3749
 7985SOL    HW235418   1.517   1.753  12.401 -1.1772  0.3324 -0.4842
 7986SOL     OW35419   1.470   1.582  12.234 -0.4713 -0.2715 -0.4535
 7986SOL    HW135420   1.511   1.555  12.152  1.4531 -0.6534  0.6311
 7986SOL    HW235421   1.477   1.499  12.280 -0.8669 -0.0451  0.0201
 7987SOL     OW35422   1.710   3.913   0.977 -0.3640  0.1808 -0.2427
 7987SOL    HW135423   1.615   3.915   0.972 -0.4571 -0.9892  0.9799
 7987SOL    HW235424   1.738   3.963   0.900  0.0515  0.4017  0.0512
 7988SOL     OW35425   3.914   1.031   5.960 -0.7486 -0.5042 -0.1451
 7988SOL    HW135426   3.922   1.118   5.920  2.4410 -1.0199 -0.6455
 7988SOL    HW235427   4.005   1.004   5.954 -0.4333  0.4613  0.3467
 7989SOL     OW35428   2.929   3.553   3.978  0.2117  0.1418 -0.6002
 7989SOL    HW135429   2.844   3.557   4.023  0.3251  0.7840 -0.4442
 7989SOL    HW235430   2.906   3.591   3.893  0.2044  0.9534 -0.2327
 7990SOL     OW35431   2.775   2.652   3.957 -0.0118 -0.3230  0.4913
 7990SOL    HW135432   2.680   2.646   3.970  0.2778 -0.7400  2.4451
 7990SOL    HW235433   2.805   2.678   4.044  0.5730  2.1566 -0.4703
 7991SOL     OW35434   3.400   0.193   9.350 -0.6278 -0.7264 -0.1158
 7991SOL    HW135435   3.404   0.272   9.296 -1.1005 -0.6952 -0.1057
 7991SOL    HW235436   3.421   0.129   9.282  1.9405 -3.7829  3.5755
 7992SOL     OW35437   0.476   1.979   4.569  0.4940 -0.4402 -0.3633
 7992SOL    HW135438   0.566   2.001   4.545  1.1781 -0.7908  1.9063
 7992SOL    HW235439   0.460   1.890   4.539  0.2552 -0.3806 -0.4125
 7993SOL     OW35440   2.371   0.382   4.683 -0.4161 -0.4484  0.2563
 7993SOL    HW135441   2.442   0.327   4.650 -0.8025  0.0956 -1.4678
 7993SOL    HW235442   2.347   0.435   4.607  1.7115  2.2189  1.4437
 7994SOL     OW35443   1.020   2.685  13.042 -0.1014 -0.0119  0.2869
 7994SOL    HW135444   0.944   2.643  13.081  1.1392 -1.8420  0.7175
 7994SOL    HW235445   1.071   2.698  13.122  0.5470 -1.9943  0.1888
 7995SOL     OW35446   0.406   1.384   8.710 -0.2689 -0.2333  0.3567
 7995SOL    HW135447   0.327   1.379   8.656 -1.4594 -1.8447  2.2335
 7995SOL    HW235448   0.378   1.447   8.776 -0.8708 -0.0715 -0.0502
 7996SOL     OW35449   3.800   2.312   2.130 -0.4277  0.4216 -0.0141
 7996SOL    HW135450   3.843   2.397   2.116  1.3987 -0.1843  1.9078
 7996SOL    HW235451   3.730   2.319   2.065  0.0528  3.6300 -0.2167
 7997SOL     OW35452   2.086   0.290   7.104 -0.1789 -0.0197 -0.3248
 7997SOL    HW135453   2.038   0.277   7.023 -0.2288 -1.1868 -0.0981
 7997SOL    HW235454   2.142   0.213   7.092 -0.0778  0.2122 -1.2961
 7998SOL     OW35455   1.366   3.885  11.931 -0.0835  0.2449 -0.5393
 7998SOL    HW135456   1.342   3.872  11.839  0.6564 -1.9747 -0.4165
 7998SOL    HW235457   1.420   3.963  11.919  1.5997 -0.7084  0.8437
 7999SOL     OW35458   3.608   2.361   0.243  0.1760  0.4704  0.0463
 7999SOL    HW135459   3.645   2.325   0.162  0.3933  0.9368 -0.0649
 7999SOL    HW235460   3.672   2.325   0.304 -1.5530 -1.9079  0.4469
 8000SOL     OW35461   2.452   0.913   3.667 -0.1784 -0.2010 -0.2593
 8000SOL    HW135462   2.423   0.965   3.742 -0.7409  0.3616 -0.8676
 8000SOL    HW235463   2.428   0.959   3.587  1.4965 -0.2161 -0.7776
 8001SOL     OW35464   2.884   0.226   2.597 -0.6193 -0.2445  0.0144
 8001SOL    HW135465   2.880   0.290   2.668  0.7296 -0.3376  0.1718
 8001SOL    HW235466   2.822   0.263   2.534 -0.7639 -1.1011 -0.3500
 8002SOL     OW35467   2.490   1.082   9.563  0.2834  0.2650  0.5262
 8002SOL    HW135468   2.482   1.081   9.658 -0.2143 -2.1930  0.4577
 8002SOL    HW235469   2.556   1.152   9.556 -1.2674  1.5566 -1.0429
 8003SOL     OW35470   3.005   1.919   0.518  0.3452 -0.1602  0.7813
 8003SOL    HW135471   3.098   1.897   0.525  0.0165 -1.4812  1.0382
 8003SOL    HW235472   3.009   1.972   0.438  2.0700 -1.6629 -0.1423
 8004SOL     OW35473   4.546   0.272  11.787  0.4667  0.1271 -0.0681
 8004SOL    HW135474   4.533   0.190  11.834  2.0920 -1.0662 -1.7186
 8004SOL    HW235475   4.511   0.252  11.700  2.0356 -0.3606 -0.5793
 8005SOL     OW35476   1.309   1.942   3.664  0.0613  0.2206 -0.0757
 8005SOL    HW135477   1.371   2.005   3.627  0.9976 -1.6717 -1.7087
 8005SOL    HW235478   1.232   1.995   3.643  0.3637  1.1557  1.2124
 8006SOL     OW35479   4.147   1.850  15.305 -0.1430  0.2615 -0.5042
 8006SOL    HW135480   4.196   1.867  15.225 -0.9868 -2.7165 -1.6827
 8006SOL    HW235481   4.065   1.888  15.274 -0.1450  0.0506 -0.7541
 8007SOL     OW35482   2.284   4.247  14.724  0.1390  0.1893 -0.6954
 8007SOL    HW135483   2.373   4.272  14.746 -1.0656  1.3135  2.9440
 8007SOL    HW235484   2.293   4.194  14.645  2.4763 -0.4805  0.0154
 8008SOL     OW35485   3.356   4.483   4.555  0.1015 -0.5649  0.2462
 8008SOL    HW135486   3.433   4.524   4.516 -1.4387  0.7567 -1.3965
 8008SOL    HW235487   3.282   4.533   4.521  0.0334 -0.3653  0.6910
 8009SOL     OW35488   1.332   4.595  10.284  0.2178 -0.5490 -0.0825
 8009SOL    HW135489   1.343   4.630  10.196  0.5320 -0.6708 -0.0915
 8009SOL    HW235490   1.372   4.659  10.343 -1.1379  1.7979 -1.7644
 8010SOL     OW35491   3.550   3.873   5.629  0.0592 -0.2312 -0.1641
 8010SOL    HW135492   3.562   3.850   5.536  0.6967 -0.5913  0.0093
 8010SOL    HW235493   3.512   3.959   5.615  0.1559 -0.1961 -0.2077
 8011SOL     OW35494   4.077   2.909   7.544 -0.0266 -0.0565 -0.2222
 8011SOL    HW135495   4.045   2.979   7.601  1.5084  0.1012  0.4569
 8011SOL    HW235496   4.168   2.936   7.538  0.5628 -2.0555 -0.3153
 8012SOL     OW35497   3.265   2.504   3.722 -0.4695 -0.2335  0.0285
 8012SOL    HW135498   3.300   2.452   3.794 -0.6776  0.9955  1.0130
 8012SOL    HW235499   3.173   2.518   3.744 -0.3153  2.4539 -0.9741
 8013SOL     OW35500   4.268   3.017   8.812 -0.4239  0.2020  0.1924
 8013SOL    HW135501   4.266   2.949   8.879 -1.9301 -0.4855 -0.5358
 8013SOL    HW235502   4.358   3.014   8.781 -0.8426 -0.9434 -0.9189
 8014SOL     OW35503   1.549   2.690   9.775  0.5846 -0.1266 -0.1952
 8014SOL    HW135504   1.577   2.601   9.799 -0.2386 -0.2072  0.4699
 8014SOL    HW235505   1.629   2.739   9.794  0.7795  0.4162 -2.4556
 8015SOL     OW35506   0.749   3.520   8.650  0.4196  0.6939  0.2945
 8015SOL    HW135507   0.710   3.591   8.598 -1.2022 -1.8902 -1.9883
 8015SOL    HW235508   0.716   3.439   8.611  0.3497  0.8803 -0.0310
 8016SOL     OW35509   0.974   3.167   0.918  0.7627 -0.3854 -0.2455
 8016SOL    HW135510   0.945   3.090   0.869 -1.8243 -0.8336  1.9862
 8016SOL    HW235511   0.948   3.149   1.008 -1.5886 -2.2401 -1.2968
 8017SOL     OW35512   3.924   3.509   6.899  0.6157  0.9215  0.2169
 8017SOL    HW135513   3.961   3.530   6.985 -0.2386  1.5789  0.4225
 8017SOL    HW235514   3.905   3.599   6.872  0.1523  0.5548 -0.6886
 8018SOL     OW35515   2.350   0.966   5.785  0.1502  0.2269 -0.0637
 8018SOL    HW135516   2.398   0.951   5.866 -0.2897 -0.2937  0.0995
 8018SOL    HW235517   2.377   1.057   5.776 -0.1474  0.1863 -1.4272
 8019SOL     OW35518   0.155   0.305   8.419 -0.5860  0.3561  0.4187
 8019SOL    HW135519   0.060   0.316   8.428 -0.6073  0.8551 -0.3904
 8019SOL    HW235520   0.168   0.214   8.448  1.0020  0.4132 -0.0822
 8020SOL     OW35521   4.509   3.526   9.033 -0.0705 -0.1406 -0.3330
 8020SOL    HW135522   4.479   3.439   9.006 -3.8308  0.2292  2.6043
 8020SOL    HW235523   4.575   3.504   9.099 -0.1392  2.8770  0.7137
 8021SOL     OW35524   1.570   0.691   4.213 -0.0867 -0.7331 -0.3126
 8021SOL    HW135525   1.521   0.758   4.261 -1.2431 -0.5711 -1.7242
 8021SOL    HW235526   1.598   0.629   4.281  0.4178  0.3895  0.5134
 8022SOL     OW35527   4.400   0.838   9.622 -0.0814 -0.5377  1.1788
 8022SOL    HW135528   4.355   0.900   9.680  0.4036 -0.8906  1.9348
 8022SOL    HW235529   4.488   0.839   9.657 -0.5399  0.7361  2.2870
 8023SOL     OW35530   1.233   4.100   1.330 -0.1173 -0.0052 -0.2014
 8023SOL    HW135531   1.168   4.042   1.290  0.2125  0.0753 -0.8570
 8023SOL    HW235532   1.165   4.142   1.382  1.3842  1.8061  0.2928
 8024SOL     OW35533   3.140   1.724   2.654 -0.6827 -0.3764 -0.2213
 8024SOL    HW135534   3.198   1.784   2.607  1.6997 -2.3565  0.1906
 8024SOL    HW235535   3.144   1.757   2.744 -1.4254 -0.7364 -0.0621
 8025SOL     OW35536   3.329   3.416  17.509  0.0352 -0.2671 -0.0691
 8025SOL    HW135537   3.421   3.409  17.533  0.4697  0.6139 -1.4732
 8025SOL    HW235538   3.351   3.484  17.446 -0.8047  0.5121  0.4725
 8026SOL     OW35539   1.889   1.363   1.583 -0.2102 -0.2337 -0.3928
 8026SOL    HW135540   1.837   1.282   1.585 -1.0858  0.3163 -0.9625
 8026SOL    HW235541   1.839   1.419   1.643  2.5222  1.9321 -0.1204
 8027SOL     OW35542   4.291   4.298  16.118 -0.3542 -0.0898 -0.7461
 8027SOL    HW135543   4.268   4.350  16.041  2.1128  1.0682 -0.6989
 8027SOL    HW235544   4.290   4.210  16.080 -2.2023 -0.3527 -0.0988
 8028SOL     OW35545   1.076   0.544   7.832 -0.2009  0.5423  0.8219
 8028SOL    HW135546   0.985   0.514   7.829 -0.0724  0.3718 -1.3694
 8028SOL    HW235547   1.059   0.614   7.894 -0.8847  0.9167  0.2065
 8029SOL     OW35548   1.125   2.268  10.601  0.3249  0.6516  0.4693
 8029SOL    HW135549   1.208   2.233  10.569  0.3118  1.5416 -0.5213
 8029SOL    HW235550   1.102   2.331  10.533 -1.1294  0.6730  0.9802
 8030SOL     OW35551   4.429   0.394  13.063  0.8385  0.2445  0.1226
 8030SOL    HW135552   4.363   0.445  13.016  0.3920  0.1331  0.6283
 8030SOL    HW235553   4.416   0.307  13.024 -1.0935  0.8893 -0.6288
 8031SOL     OW35554   2.874   1.602   7.767 -0.1761  0.3129  0.3130
 8031SOL    HW135555   2.874   1.662   7.842  0.1715 -0.4833  0.9588
 8031SOL    HW235556   2.952   1.553   7.794 -0.3404  0.5431  1.2276
 8032SOL     OW35557   3.770   3.165  17.242 -0.2436 -0.0608  0.0910
 8032SOL    HW135558   3.696   3.165  17.180 -0.3339 -0.1342  0.1981
 8032SOL    HW235559   3.719   3.127  17.314 -0.5840 -0.8434 -0.5619
 8033SOL     OW35560   2.596   3.797   4.405  0.0654  0.0661  0.3128
 8033SOL    HW135561   2.563   3.862   4.344  0.0141 -2.2639 -2.1519
 8033SOL    HW235562   2.678   3.833   4.440  0.5331  0.7939 -1.5551
 8034SOL     OW35563   4.463   1.811  12.567 -0.7736  0.8763 -0.0908
 8034SOL    HW135564   4.467   1.719  12.538 -0.9520  0.4150  1.3489
 8034SOL    HW235565   4.530   1.843  12.506 -0.5292 -0.9859 -0.8056
 8035SOL     OW35566   4.419   2.213   4.404  0.3895 -0.0701  0.3881
 8035SOL    HW135567   4.328   2.230   4.428  0.0113  0.8402 -1.7210
 8035SOL    HW235568   4.420   2.196   4.310 -2.4624  1.3057  0.0902
 8036SOL     OW35569   0.245   0.779  11.213 -0.1454  0.9925 -0.0666
 8036SOL    HW135570   0.205   0.821  11.137  0.3571  0.9566 -0.3488
 8036SOL    HW235571   0.315   0.841  11.233  0.7053  0.1550 -0.3961
 8037SOL     OW35572   0.183   2.458   4.321  0.3145 -0.1248  0.4101
 8037SOL    HW135573   0.142   2.371   4.325  2.6264 -1.2796 -1.6983
 8037SOL    HW235574   0.168   2.499   4.407  1.6608 -0.7597  0.9340
 8038SOL     OW35575   0.521   3.640  11.870 -0.1281  0.1851  0.4460
 8038SOL    HW135576   0.526   3.728  11.908  1.2962 -0.6725  2.2451
 8038SOL    HW235577   0.615   3.626  11.856 -0.6498 -0.5044 -2.2572
 8039SOL     OW35578   2.050   3.953   7.040  0.2792 -0.3681  0.1488
 8039SOL    HW135579   2.009   3.928   6.957 -1.7672  2.2345  0.3858
 8039SOL    HW235580   2.131   3.902   7.036 -1.2653 -2.8388  0.7021
 8040SOL     OW35581   3.434   1.539  13.424  0.6246 -0.2992 -0.6720
 8040SOL    HW135582   3.435   1.604  13.495  1.2883 -1.6895  0.5860
 8040SOL    HW235583   3.398   1.460  13.464  0.0680  1.1449  1.7289
 8041SOL     OW35584   3.061   0.608   0.078 -0.0740 -0.1108  0.6916
 8041SOL    HW135585   3.136   0.597   0.137  0.2405 -1.1981  0.0870
 8041SOL    HW235586   3.094   0.553   0.007 -0.6016 -0.7290  0.9161
 8042SOL     OW35587   1.949   0.368   7.384  0.1980  0.4946  0.5458
 8042SOL    HW135588   2.019   0.399   7.327  1.2149 -2.9750 -0.0970
 8042SOL    HW235589   1.872   0.370   7.327  0.4514  2.2424  0.2851
 8043SOL     OW35590   1.359   4.298  11.692 -0.1078  0.0911  0.4798
 8043SOL    HW135591   1.295   4.293  11.621 -0.8596  1.1249  1.0922
 8043SOL    HW235592   1.305   4.343  11.757 -2.5736  1.3532 -2.4777
 8044SOL     OW35593   0.598   3.938   7.678  0.6224  0.4856  0.6492
 8044SOL    HW135594   0.588   4.027   7.711 -0.2430  0.4353  0.5303
 8044SOL    HW235595   0.677   3.953   7.626  0.9315  2.3795  1.6778
 8045SOL     OW35596   3.251   0.038   4.189  0.0155 -0.0078  0.1437
 8045SOL    HW135597   3.223   4.674   4.228 -2.2397  2.1083  3.1122
 8045SOL    HW235598   3.204   0.035   4.106 -1.0711  1.5372  0.7120
 8046SOL     OW35599   1.456   1.102   2.580 -0.2157 -0.0613  0.2078
 8046SOL    HW135600   1.415   1.147   2.654  0.2104  0.2981  0.2255
 8046SOL    HW235601   1.473   1.180   2.527  0.6275  0.7256  1.6354
 8047SOL     OW35602   0.749   4.435   0.721  0.0837 -0.0317 -0.4373
 8047SOL    HW135603   0.774   4.511   0.669  1.4316 -0.6075 -0.6402
 8047SOL    HW235604   0.829   4.384   0.707  0.0740  0.0114 -0.6494
 8048SOL     OW35605   1.148   2.544   0.305 -0.1715  0.1535  0.5906
 8048SOL    HW135606   1.115   2.572   0.391 -2.7579  0.0491 -0.3660
 8048SOL    HW235607   1.214   2.613   0.291 -2.0008  1.8849  0.4217
 8049SOL     OW35608   4.194   2.490   7.855  0.1021 -0.5051 -0.7979
 8049SOL    HW135609   4.160   2.527   7.774 -0.6939  0.2469 -0.1237
 8049SOL    HW235610   4.287   2.471   7.847  0.0598 -0.8561 -0.5057
 8050SOL     OW35611   2.217   1.416   7.469 -0.2503 -0.0497 -0.3467
 8050SOL    HW135612   2.161   1.435   7.393  1.2442 -2.2276 -2.0000
 8050SOL    HW235613   2.307   1.398   7.440 -0.1123  0.8240 -0.4574
 8051SOL     OW35614   4.482   0.792  16.586  0.3450 -0.4825 -0.0092
 8051SOL    HW135615   4.555   0.829  16.636  0.9750  0.2558 -1.4653
 8051SOL    HW235616   4.523   0.792  16.499 -0.9315  1.4176 -0.6094
 8052SOL     OW35617   4.682   1.319   4.847 -0.2840 -0.7425 -0.0320
 8052SOL    HW135618   4.613   1.351   4.905 -1.2943 -0.3085 -1.4675
 8052SOL    HW235619   4.639   1.279   4.771  0.0995 -0.3928 -0.4351
 8053SOL     OW35620   3.107   1.224   9.848 -0.3705 -0.6322 -0.1198
 8053SOL    HW135621   3.177   1.262   9.901 -3.0333 -0.0508  3.0408
 8053SOL    HW235622   3.120   1.131   9.865 -0.6150 -0.6903 -0.2559
 8054SOL     OW35623   3.086   0.067   1.917  0.3896  0.4311  0.1658
 8054SOL    HW135624   3.124   0.154   1.906  0.0475  0.3912 -1.2687
 8054SOL    HW235625   3.088   0.057   2.012  2.3191 -0.7902 -0.0201
 8055SOL     OW35626   4.648   3.079   6.468  0.3892  0.2670  0.0497
 8055SOL    HW135627   4.616   2.996   6.431  2.4596 -0.9550  1.0277
 8055SOL    HW235628   4.665   3.128   6.388  2.9245  1.0467  1.0921
 8056SOL     OW35629   2.488   0.318   3.829  0.2955 -0.5172 -0.6738
 8056SOL    HW135630   2.571   0.302   3.873 -0.0872 -1.7494 -0.4066
 8056SOL    HW235631   2.477   0.413   3.837  0.1035 -0.4349 -1.9285
 8057SOL     OW35632   3.913   3.679   4.276 -0.2915  0.3184 -0.4288
 8057SOL    HW135633   3.865   3.602   4.307  0.0001  0.4260  0.2778
 8057SOL    HW235634   3.864   3.745   4.325 -0.8706 -0.3840 -0.0566
 8058SOL     OW35635   2.261   2.889  10.906  0.0945  0.2470  0.2799
 8058SOL    HW135636   2.221   2.976  10.896  2.4711  1.4759  1.5652
 8058SOL    HW235637   2.317   2.893  10.829  0.7696  0.5819  0.7807
 8059SOL     OW35638   3.318   0.416   8.475 -0.2630  0.5362  0.3497
 8059SOL    HW135639   3.389   0.453   8.527  0.0857  1.3433 -0.7126
 8059SOL    HW235640   3.366   0.369   8.406 -1.5617  1.7633 -1.3774
 8060SOL     OW35641   1.304   0.176   5.200 -0.5260 -0.2804  0.5252
 8060SOL    HW135642   1.386   0.132   5.226 -0.5574  0.0122  1.0977
 8060SOL    HW235643   1.335   0.264   5.182 -0.2126  0.1523  3.3162
 8061SOL     OW35644   2.133   4.189   5.169 -0.2974 -0.6323  0.4632
 8061SOL    HW135645   2.107   4.186   5.261  1.4346  2.3699  1.0612
 8061SOL    HW235646   2.150   4.283   5.156 -1.0160 -0.9067 -2.4751
 8062SOL     OW35647   3.726   4.705   2.684  0.2944  0.1042  0.0453
 8062SOL    HW135648   3.708   4.658   2.766 -1.2031 -0.9714 -0.9048
 8062SOL    HW235649   3.685   4.646   2.621  1.3392  0.9816 -1.4499
 8063SOL     OW35650   0.262   0.797  16.605  0.2936  0.1258  0.0612
 8063SOL    HW135651   0.192   0.816  16.667  0.0928 -1.6167  0.3607
 8063SOL    HW235652   0.330   0.826  16.667  1.5256  0.3734 -1.4023
 8064SOL     OW35653   3.854   1.784   7.715  0.4165  0.3478  0.5165
 8064SOL    HW135654   3.888   1.867   7.748  1.6306  0.6118 -1.3517
 8064SOL    HW235655   3.899   1.718   7.768 -1.0749 -0.3764  0.8567
 8065SOL     OW35656   1.017   2.778   1.355  0.0660  0.0049 -0.3598
 8065SOL    HW135657   0.979   2.758   1.269 -0.4990 -2.2662  0.4122
 8065SOL    HW235658   0.974   2.855   1.390  1.7953  1.2485 -0.9450
 8066SOL     OW35659   0.492   4.193   7.854  0.2885  0.4750  0.2497
 8066SOL    HW135660   0.526   4.142   7.927 -0.0967 -1.1084 -0.6800
 8066SOL    HW235661   0.411   4.228   7.890 -1.0719 -1.6169 -0.7448
 8067SOL     OW35662   2.055   3.144  17.242  0.3316 -0.7143  0.2363
 8067SOL    HW135663   2.118   3.162  17.172 -1.5158  1.0198 -0.9420
 8067SOL    HW235664   1.994   3.213  17.219  2.1698  1.0399  0.6439
 8068SOL     OW35665   3.876   2.921   8.016  0.0977  0.0105  0.3319
 8068SOL    HW135666   3.785   2.891   8.010  0.4175 -0.5151 -2.1568
 8068SOL    HW235667   3.895   2.957   8.102 -2.1806 -1.0686  1.3049
 8069SOL     OW35668   0.505   1.738   4.082 -0.4681  0.3155 -0.3716
 8069SOL    HW135669   0.477   1.659   4.127  0.5134  0.1180 -0.1126
 8069SOL    HW235670   0.562   1.784   4.144 -1.0570 -1.4871  1.5146
 8070SOL     OW35671   3.120   1.876   5.562  0.0372  0.0000  0.6945
 8070SOL    HW135672   3.037   1.911   5.530  0.4201  0.0899 -0.1928
 8070SOL    HW235673   3.088   1.834   5.642 -1.5736 -1.2513 -0.6132
 8071SOL     OW35674   1.828   1.750   2.680  0.1124  0.1809  0.3120
 8071SOL    HW135675   1.834   1.798   2.763 -0.2511 -1.1854  1.1182
 8071SOL    HW235676   1.921   1.727   2.677  0.4559  1.7206 -1.2499
 8072SOL     OW35677   1.022   4.107   6.058  0.4124  0.1983 -1.0106
 8072SOL    HW135678   1.067   4.177   6.106  0.0125  1.0169 -1.8089
 8072SOL    HW235679   0.944   4.149   6.022  0.3851  0.9833 -0.0497
 8073SOL     OW35680   1.434   0.883   5.245  0.4060 -0.0958  0.4102
 8073SOL    HW135681   1.408   0.876   5.153  0.4290  0.4125  0.3610
 8073SOL    HW235682   1.528   0.866   5.233  0.6887  1.6611  0.0393
 8074SOL     OW35683   2.409   1.148  12.678 -0.4333  0.0878 -0.4259
 8074SOL    HW135684   2.398   1.108  12.764 -2.3149  0.8452 -0.2987
 8074SOL    HW235685   2.498   1.182  12.673 -0.8876  1.1646 -1.2488
 8075SOL     OW35686   1.743   2.137   2.815  0.1297  0.1606  0.0398
 8075SOL    HW135687   1.760   2.231   2.824 -1.2078  0.2096  1.9225
 8075SOL    HW235688   1.764   2.134   2.721 -1.5566 -0.7673 -0.3091
 8076SOL     OW35689   1.607   4.347   1.398 -0.0322 -0.0067 -0.4990
 8076SOL    HW135690   1.632   4.254   1.398  1.3172  0.3650  1.8982
 8076SOL    HW235691   1.522   4.349   1.442  1.1365  2.1491  1.5993
 8077SOL     OW35692   1.509   2.033   4.111  0.5692  0.8633 -0.5962
 8077SOL    HW135693   1.541   2.065   4.195 -2.2965 -0.0309  0.8517
 8077SOL    HW235694   1.493   2.116   4.066  0.6298  0.1815 -1.8791
 8078SOL     OW35695   0.592   1.507   3.448  0.4230  0.1467 -0.3207
 8078SOL    HW135696   0.524   1.572   3.465  0.9472  0.5425  0.2791
 8078SOL    HW235697   0.549   1.432   3.487  1.8630  0.0485  1.1096
 8079SOL     OW35698   3.689   2.406  13.857  0.2334  0.6369  0.2236
 8079SOL    HW135699   3.605   2.444  13.883  0.4263  1.4422 -0.3483
 8079SOL    HW235700   3.702   2.430  13.766  0.9422 -0.1959  0.1002
 8080SOL     OW35701   0.875   2.769   1.117  0.1173 -0.4846 -0.7070
 8080SOL    HW135702   0.883   2.698   1.054 -0.2411  1.5723 -3.0809
 8080SOL    HW235703   0.786   2.797   1.094 -0.1639 -2.1229 -1.5877
 8081SOL     OW35704   4.562   4.219   6.253  0.1581 -0.7018  0.1162
 8081SOL    HW135705   4.575   4.302   6.299 -0.6082 -1.8045  2.3271
 8081SOL    HW235706   4.653   4.190   6.253  0.6726  0.8937 -0.2488
 8082SOL     OW35707   4.466   4.406  11.399 -0.8757 -0.2932  0.6884
 8082SOL    HW135708   4.399   4.443  11.457 -2.2614 -1.8478  0.0887
 8082SOL    HW235709   4.515   4.365  11.469 -0.1078 -0.2241  0.1921
 8083SOL     OW35710   2.396   3.765   1.360  0.4278  0.3231  0.3508
 8083SOL    HW135711   2.445   3.795   1.283  0.6910  3.3705  1.6766
 8083SOL    HW235712   2.382   3.848   1.406  0.1921 -0.3829  1.5572
 8084SOL     OW35713   3.577   1.551  14.661  0.6907 -0.2281  0.0441
 8084SOL    HW135714   3.664   1.583  14.683  0.8377  0.0802 -0.9733
 8084SOL    HW235715   3.509   1.599  14.708  0.1540 -0.8920 -0.0460
 8085SOL     OW35716   1.380   2.186   3.283 -0.1720  0.4407  0.6160
 8085SOL    HW135717   1.329   2.144   3.214  0.2506 -1.5125  1.4913
 8085SOL    HW235718   1.312   2.226   3.338  1.1704  0.2836  2.4139
 8086SOL     OW35719   0.147   0.862   4.317 -0.0868  0.1675  0.2015
 8086SOL    HW135720   0.202   0.821   4.383  0.5928  0.3013 -0.2870
 8086SOL    HW235721   0.195   0.942   4.295  1.7606 -0.9066  0.3830
 8087SOL     OW35722   1.246   1.063   7.904 -0.3098  0.9906  0.5487
 8087SOL    HW135723   1.314   1.053   7.837 -1.2364 -1.8396  0.0021
 8087SOL    HW235724   1.238   0.980   7.952  0.4104 -0.1017 -1.2222
 8088SOL     OW35725   4.331   1.875   5.636  0.6709 -0.1194  0.4772
 8088SOL    HW135726   4.399   1.813   5.664 -0.0211 -1.0517  0.1303
 8088SOL    HW235727   4.347   1.879   5.541  0.0451 -1.7837  0.2991
 8089SOL     OW35728   4.460   3.533   1.788  0.1252 -0.3173 -0.5359
 8089SOL    HW135729   4.385   3.589   1.805 -0.2760 -1.9072  3.0543
 8089SOL    HW235730   4.456   3.523   1.693 -1.2568  1.2999 -0.6405
 8090SOL     OW35731   0.158   2.463   7.546  0.1439 -0.4187 -0.0776
 8090SOL    HW135732   0.137   2.551   7.514 -1.1614 -1.4741 -2.1015
 8090SOL    HW235733   0.153   2.476   7.641  3.2047  0.8103 -0.0960
 8091SOL     OW35734   2.056   0.596   2.345 -0.2368 -0.3919  0.3045
 8091SOL    HW135735   2.042   0.503   2.324  0.4672 -0.3301 -0.4480
 8091SOL    HW235736   1.971   0.633   2.320  0.3395  0.9402  0.3199
 8092SOL     OW35737   2.012   0.808   3.569  0.5403  0.1390 -0.4010
 8092SOL    HW135738   2.042   0.761   3.648  0.9996  0.5078 -0.3542
 8092SOL    HW235739   1.918   0.793   3.569  0.4595  0.6242  0.9844
 8093SOL     OW35740   1.888   0.433   5.994 -0.1141 -0.0292  0.0965
 8093SOL    HW135741   1.883   0.372   6.068  0.4179  0.0293  0.1799
 8093SOL    HW235742   1.982   0.444   5.976  0.2702 -0.6512  1.6308
 8094SOL     OW35743   2.946   4.547   1.524 -0.0873 -0.3272  0.5178
 8094SOL    HW135744   3.032   4.577   1.553  0.2241  0.8287 -1.6495
 8094SOL    HW235745   2.903   4.620   1.480 -1.7002 -0.6314  1.5818
 8095SOL     OW35746   0.980   0.064   9.840  0.4051 -0.0463  0.0984
 8095SOL    HW135747   1.056   0.011   9.819 -0.1434 -0.1115 -1.6588
 8095SOL    HW235748   0.915   4.715   9.857  1.7210 -0.5033  3.2571
 8096SOL     OW35749   1.093   4.715   4.085 -0.4929 -0.0044 -0.6431
 8096SOL    HW135750   1.050   0.066   4.133  0.7114 -0.0869  0.5621
 8096SOL    HW235751   1.017   4.675   4.042 -1.1579  1.5544 -0.9250
 8097SOL     OW35752   3.405   4.333  16.969 -0.5408  0.1446 -0.6456
 8097SOL    HW135753   3.402   4.266  16.901 -1.4264 -1.0135  0.5230
 8097SOL    HW235754   3.397   4.417  16.924  3.5826  2.3462  2.7376
 8098SOL     OW35755   4.528   3.305   5.497  0.0714 -0.0142  0.3504
 8098SOL    HW135756   4.435   3.330   5.502 -0.2741 -0.6707 -2.5522
 8098SOL    HW235757   4.573   3.360   5.561  0.7816 -0.2327  0.0352
 8099SOL     OW35758   0.200   0.639   7.502 -0.1748  0.1550  0.2592
 8099SOL    HW135759   0.113   0.618   7.537  0.5506 -1.4009  1.1155
 8099SOL    HW235760   0.180   0.614   7.412 -1.4234 -0.1279  0.6149
 8100SOL     OW35761   0.658   4.260  10.225  0.4490 -0.6140  0.0482
 8100SOL    HW135762   0.664   4.224  10.137 -3.3098  0.2452 -0.5551
 8100SOL    HW235763   0.657   4.184  10.283 -0.9827 -1.3022 -0.8760
 8101SOL     OW35764   3.127   1.773  13.562  0.6491 -0.1115 -0.4321
 8101SOL    HW135765   3.088   1.737  13.642 -1.7567 -1.4310 -2.2118
 8101SOL    HW235766   3.062   1.743  13.498 -0.9207  1.0669  0.6025
 8102SOL     OW35767   0.656   0.316   3.639 -0.3790 -0.4850  0.6649
 8102SOL    HW135768   0.612   0.379   3.584  2.1254  0.5120 -0.2019
 8102SOL    HW235769   0.744   0.352   3.631 -0.3027 -1.0352 -0.9105
 8103SOL     OW35770   3.592   4.276   0.049  0.2179 -0.3315  0.0701
 8103SOL    HW135771   3.643   4.354   0.026  0.0405 -0.6874 -1.5142
 8103SOL    HW235772   3.513   4.317   0.085  0.4958  1.5170 -1.4453
 8104SOL     OW35773   0.273   3.018   4.628  0.1089  0.4739  0.4042
 8104SOL    HW135774   0.197   3.037   4.682  0.4351  1.5894  0.4651
 8104SOL    HW235775   0.345   3.032   4.689  0.8879  0.7954 -0.5931
 8105SOL     OW35776   2.547   0.983   6.664  0.2635 -0.4887 -0.1151
 8105SOL    HW135777   2.591   0.899   6.652 -1.2078 -1.2689 -0.1039
 8105SOL    HW235778   2.481   0.982   6.595 -0.2846  0.9115  0.3816
 8106SOL     OW35779   0.847   4.566   9.499 -0.1364  0.2026  0.1485
 8106SOL    HW135780   0.828   4.652   9.536 -0.9218 -0.2170  0.7251
 8106SOL    HW235781   0.863   4.581   9.406 -0.0773  1.7162  0.4016
 8107SOL     OW35782   1.811   0.708   9.231  0.0825 -0.3723  0.0570
 8107SOL    HW135783   1.762   0.789   9.246  0.4752 -0.2025  0.4061
 8107SOL    HW235784   1.850   0.723   9.145  0.2801 -0.7181  0.0838
 8108SOL     OW35785   3.416   1.736   8.007  0.2021  0.5030  0.1717
 8108SOL    HW135786   3.433   1.647   7.976 -2.4777  0.2498 -0.6115
 8108SOL    HW235787   3.472   1.794   7.956  2.5436  0.4544  2.6688
 8109SOL     OW35788   3.322   2.883   3.087 -0.0844  0.3136  0.4118
 8109SOL    HW135789   3.300   2.911   2.998 -0.9339 -1.7518 -0.0113
 8109SOL    HW235790   3.350   2.792   3.079  0.5287  0.5673 -0.2688
 8110SOL     OW35791   0.196   1.481   3.023 -0.0641 -0.2135  0.2252
 8110SOL    HW135792   0.121   1.451   2.971  0.2907  1.7363 -1.3849
 8110SOL    HW235793   0.154   1.474   3.108 -2.3660  3.9218 -0.5837
 8111SOL     OW35794   1.437   1.855  13.120 -0.4197  0.5390  0.3178
 8111SOL    HW135795   1.440   1.945  13.150 -0.5082  1.2007 -1.6665
 8111SOL    HW235796   1.351   1.834  13.156 -0.3711  0.3638  0.3324
 8112SOL     OW35797   0.713   0.507   8.625 -0.5591  0.2707  0.5903
 8112SOL    HW135798   0.723   0.436   8.688 -0.6570 -0.6691 -0.4369
 8112SOL    HW235799   0.768   0.578   8.658  0.6051 -1.2720  1.9733
 8113SOL     OW35800   4.658   4.599  11.087 -0.2320  0.0860  0.1951
 8113SOL    HW135801   4.706   4.523  11.056  0.3044  0.4086  0.2335
 8113SOL    HW235802   0.007   4.665  11.075 -0.0558  0.1734  1.7704
 8114SOL     OW35803   1.552   0.808   4.769  0.1784 -0.6848 -0.1249
 8114SOL    HW135804   1.634   0.769   4.738  1.6820  2.5937 -0.2803
 8114SOL    HW235805   1.584   0.898   4.778 -1.0709 -0.3144  0.5005
 8115SOL     OW35806   4.329   0.304   7.828  0.5713 -0.2396 -0.4442
 8115SOL    HW135807   4.332   0.219   7.873 -0.3104  0.2064  0.4488
 8115SOL    HW235808   4.419   0.336   7.832  0.8006 -0.7111 -1.9964
 8116SOL     OW35809   0.302   2.656   6.071  0.3026  0.1973  0.2172
 8116SOL    HW135810   0.390   2.670   6.035  0.1340  0.9197  0.0698
 8116SOL    HW235811   0.333   2.615   6.152 -1.0046 -1.2408 -0.0224
 8117SOL     OW35812   4.492   2.158   6.140 -0.2080  0.3941  0.2458
 8117SOL    HW135813   4.458   2.081   6.185 -0.1418 -0.1026 -0.5522
 8117SOL    HW235814   4.584   2.131   6.142 -1.2602 -3.2195 -0.8443
 8118SOL     OW35815   3.181   1.154   5.586 -0.0738 -0.5458  0.0319
 8118SOL    HW135816   3.173   1.248   5.600  0.4373 -0.3153 -1.1956
 8118SOL    HW235817   3.094   1.116   5.594  0.7814 -2.5547 -0.2984
 8119SOL     OW35818   2.186   1.819   9.958 -0.0295  0.1661 -0.5549
 8119SOL    HW135819   2.155   1.831   9.868  2.0831 -0.4075 -1.3687
 8119SOL    HW235820   2.195   1.723   9.959  1.0152  0.2919  0.8111
 8120SOL     OW35821   3.568   2.307  12.897  0.1328  1.0679  0.3302
 8120SOL    HW135822   3.524   2.343  12.820  0.3477  1.4099  0.3670
 8120SOL    HW235823   3.540   2.360  12.972 -0.3841  0.1830  0.7569
 8121SOL     OW35824   4.089   1.387   3.269  0.2538 -0.0547  0.6863
 8121SOL    HW135825   3.997   1.396   3.292 -0.4736 -1.1941 -1.8479
 8121SOL    HW235826   4.126   1.464   3.313 -1.1142  1.7626 -1.3742
 8122SOL     OW35827   1.752   1.190   2.626  0.1501 -0.2282  0.6046
 8122SOL    HW135828   1.705   1.184   2.543 -0.5738 -0.9264  1.0663
 8122SOL    HW235829   1.697   1.159   2.698  0.5106 -1.2391  0.4513
 8123SOL     OW35830   2.851   1.676   5.190  0.1657  0.2672 -0.1944
 8123SOL    HW135831   2.908   1.614   5.236 -1.1611  0.7200  2.0472
 8123SOL    HW235832   2.922   1.717   5.141  1.1672 -0.4624  0.6371
 8124SOL     OW35833   3.497   1.407   9.279  0.4080 -0.2323 -0.2325
 8124SOL    HW135834   3.548   1.487   9.284  0.1816 -0.0379 -1.1001
 8124SOL    HW235835   3.507   1.386   9.186  2.2469 -0.8331  0.0970
 8125SOL     OW35836   0.680   3.234  12.617 -0.0790 -0.0570 -0.1195
 8125SOL    HW135837   0.713   3.306  12.562 -1.4926 -0.0358 -0.9269
 8125SOL    HW235838   0.603   3.272  12.660  0.2057  0.9810 -0.5140
 8126SOL     OW35839   3.378   1.090   8.831 -0.1556 -0.1478 -0.4753
 8126SOL    HW135840   3.463   1.108   8.871 -0.8618  2.6677 -0.2420
 8126SOL    HW235841   3.387   1.091   8.736 -3.0494  1.5494 -0.7539
 8127SOL     OW35842   3.179   2.216   5.922 -0.1958 -0.9650 -0.3198
 8127SOL    HW135843   3.261   2.181   5.888  0.1210  0.0144 -0.5716
 8127SOL    HW235844   3.125   2.225   5.843  0.4472  0.4894 -0.6030
 8128SOL     OW35845   4.218   4.646   4.944 -0.6531 -0.1896  0.2296
 8128SOL    HW135846   4.148   4.703   4.978 -0.2112 -0.4683  1.6048
 8128SOL    HW235847   4.209   4.651   4.849  2.5578 -2.5586 -0.1952
 8129SOL     OW35848   0.347   3.319   4.919 -0.1213 -0.4354  0.2625
 8129SOL    HW135849   0.271   3.265   4.900  0.0514 -0.7519  0.4712
 8129SOL    HW235850   0.365   3.355   4.832 -1.7375 -0.6478 -0.1600
 8130SOL     OW35851   3.365   4.206   7.201  0.6899  0.3533 -0.4372
 8130SOL    HW135852   3.374   4.111   7.196  0.7629  0.4781 -2.5794
 8130SOL    HW235853   3.314   4.225   7.280  0.8166 -2.2181  0.2843
 8131SOL     OW35854   0.246   2.087  11.461 -0.3528 -0.2865 -0.0035
 8131SOL    HW135855   0.271   2.045  11.543 -0.6301  0.7727  0.6223
 8131SOL    HW235856   0.209   2.013  11.413  0.3606 -1.2599  0.9452
 8132SOL     OW35857   2.204   2.625  12.533 -0.0062  0.5068  0.3526
 8132SOL    HW135858   2.166   2.713  12.539  0.0874  0.7343 -2.4527
 8132SOL    HW235859   2.254   2.616  12.614  0.1868 -0.6916  0.0989
 8133SOL     OW35860   2.063   1.210   6.521 -0.0481 -0.0506  0.1336
 8133SOL    HW135861   2.080   1.301   6.496 -1.4542  0.0425 -0.5044
 8133SOL    HW235862   2.042   1.167   6.437  0.1732  0.7380 -0.3203
 8134SOL     OW35863   3.182   0.110  16.060  0.3493 -0.7597  0.4010
 8134SOL    HW135864   3.165   0.160  15.980  1.0881 -3.3831 -1.4073
 8134SOL    HW235865   3.114   0.042  16.059  0.0429 -0.4484 -0.5572
 8135SOL     OW35866   3.899   1.519   4.278  0.0474 -0.2344 -0.4592
 8135SOL    HW135867   3.954   1.472   4.216 -1.2822 -0.6649 -1.3007
 8135SOL    HW235868   3.892   1.606   4.239 -0.8839  0.0082  0.2408
 8136SOL     OW35869   3.731   3.211   6.283 -0.1326  0.1429  0.2464
 8136SOL    HW135870   3.712   3.283   6.223 -1.1316 -0.3305 -0.0069
 8136SOL    HW235871   3.779   3.264   6.346  0.5878 -1.1199  0.7697
 8137SOL     OW35872   4.569   1.750   6.918  0.1402 -0.1867  0.1534
 8137SOL    HW135873   4.567   1.845   6.921 -1.0809 -0.2901  2.7469
 8137SOL    HW235874   4.596   1.737   7.008  0.6569  1.4425  0.2246
 8138SOL     OW35875   0.668   0.027   9.185  0.5668  0.1974  0.2230
 8138SOL    HW135876   0.709   4.669   9.222  0.2471 -0.2255 -0.3089
 8138SOL    HW235877   0.574   0.013   9.200  0.5729 -2.9062 -2.7471
 8139SOL     OW35878   1.178   3.764  13.969  0.6744  0.2298  0.4389
 8139SOL    HW135879   1.185   3.857  13.945 -1.0572  0.1856 -0.2380
 8139SOL    HW235880   1.144   3.765  14.058  1.4583 -1.2443  0.7436
 8140SOL     OW35881   0.558   0.774  15.037  0.3819 -0.4877 -0.2894
 8140SOL    HW135882   0.466   0.762  15.064 -0.0311  3.5895  0.1315
 8140SOL    HW235883   0.579   0.859  15.075  0.1513 -0.8516  0.6552
 8141SOL     OW35884   3.934   0.433   4.007  0.5505  0.0425 -0.3004
 8141SOL    HW135885   3.965   0.463   4.093  1.7251 -0.5211 -0.5224
 8141SOL    HW235886   3.878   0.510   4.000  0.7516  0.1024 -1.2075
 8142SOL     OW35887   1.186   3.454   9.014  0.0443  0.0817  0.1418
 8142SOL    HW135888   1.176   3.427   9.105 -0.5861  0.9534  0.3309
 8142SOL    HW235889   1.141   3.386   8.965 -1.0200  1.5833 -0.9695
 8143SOL     OW35890   2.515   3.274  10.878 -0.2902 -0.1134  0.0058
 8143SOL    HW135891   2.451   3.343  10.858 -0.6888 -1.1893 -2.4724
 8143SOL    HW235892   2.576   3.322  10.933 -0.3442 -0.9623  0.7947
 8144SOL     OW35893   4.334   3.426   5.720  0.3936  0.3250 -0.0357
 8144SOL    HW135894   4.247   3.417   5.683  1.5279 -1.7125 -2.1832
 8144SOL    HW235895   4.365   3.509   5.682  0.5738  0.8950  1.3111
 8145SOL     OW35896   1.733   3.633   0.335 -0.3833  0.1765  0.1036
 8145SOL    HW135897   1.705   3.678   0.415 -0.4408  0.0525  0.1531
 8145SOL    HW235898   1.800   3.695   0.305 -0.0568 -0.2089  0.0251
 8146SOL     OW35899   2.676   0.525   1.891 -0.2750 -0.0962  0.4733
 8146SOL    HW135900   2.713   0.606   1.926  1.4883 -0.7572  0.1366
 8146SOL    HW235901   2.638   0.493   1.973 -2.2627  2.1922  0.4483
 8147SOL     OW35902   0.552   3.141   0.014 -0.4573 -0.3591 -0.7856
 8147SOL    HW135903   0.462   3.124   0.040 -0.6961  0.1150 -1.2924
 8147SOL    HW235904   0.554   3.126  17.600 -4.5104  2.8889 -1.3419
 8148SOL     OW35905   4.037   1.335   2.705 -0.5066  0.2255  0.1142
 8148SOL    HW135906   4.086   1.417   2.710 -2.0801  1.2673 -1.5769
 8148SOL    HW235907   3.957   1.374   2.668 -0.4835 -0.0097 -0.1832
 8149SOL     OW35908   0.575   2.837   1.723  0.2114 -0.0513  0.3352
 8149SOL    HW135909   0.570   2.922   1.765 -0.1857 -0.0237  0.2319
 8149SOL    HW235910   0.612   2.784   1.793  1.2936  0.7704  0.3761
 8150SOL     OW35911   4.629   0.203   4.992  0.3108  0.0414 -0.2759
 8150SOL    HW135912   4.647   0.245   5.076 -1.9711 -3.6503  2.0509
 8150SOL    HW235913   4.660   0.113   5.003 -2.1288 -1.0542 -2.4862
 8151SOL     OW35914   1.786   0.221   8.909 -0.0681  0.3556  0.3079
 8151SOL    HW135915   1.828   0.282   8.848  1.3684 -1.7391 -0.8064
 8151SOL    HW235916   1.704   0.267   8.927 -0.2217 -0.1018  0.7664
 8152SOL     OW35917   3.026   3.825   6.728 -0.2575  0.1195  0.6437
 8152SOL    HW135918   2.966   3.751   6.733  1.4033 -1.3261 -0.9900
 8152SOL    HW235919   3.037   3.838   6.634 -1.3419 -2.2294  0.1974
 8153SOL     OW35920   4.071   3.602   1.754  0.8912  0.7581 -0.4315
 8153SOL    HW135921   4.034   3.516   1.736  0.6975  0.6856  0.3204
 8153SOL    HW235922   4.001   3.661   1.726 -0.1346 -1.0871 -1.7108
 8154SOL     OW35923   4.297   0.587  16.583  0.2712 -0.5548 -0.0743
 8154SOL    HW135924   4.348   0.667  16.589  1.3287 -1.2876  0.6319
 8154SOL    HW235925   4.350   0.551  16.512  0.0501  0.1338 -0.5870
 8155SOL     OW35926   3.687   0.596   2.164 -0.6907 -0.5619 -0.5895
 8155SOL    HW135927   3.775   0.635   2.170 -0.1310 -1.6788 -1.4427
 8155SOL    HW235928   3.646   0.646   2.093 -2.3918 -0.2192  0.6460
 8156SOL     OW35929   1.173   3.630  13.735  0.4566  0.3008  0.3989
 8156SOL    HW135930   1.264   3.600  13.737  0.6158  0.8413  1.6990
 8156SOL    HW235931   1.174   3.681  13.816 -0.5256 -0.1971  0.7367
 8157SOL     OW35932   4.375   1.680   4.349  0.3909 -0.3731  0.1554
 8157SOL    HW135933   4.338   1.597   4.379 -0.8539  0.5107  1.1157
 8157SOL    HW235934   4.333   1.741   4.410  1.7024 -0.5514  1.2420
 8158SOL     OW35935   4.281   1.234   3.645 -0.0670 -0.3513 -0.1560
 8158SOL    HW135936   4.354   1.286   3.678  0.6146 -0.9683 -0.6921
 8158SOL    HW235937   4.246   1.287   3.573 -0.1653  0.0820  0.2096
 8159SOL     OW35938   1.765   2.881   4.217  1.0796 -0.0896 -0.4784
 8159SOL    HW135939   1.683   2.915   4.254  2.2197  0.1499  1.8561
 8159SOL    HW235940   1.759   2.923   4.131 -0.6309 -1.5971 -1.0841
 8160SOL     OW35941   1.286   4.666  16.927 -0.1657  0.1075  0.0523
 8160SOL    HW135942   1.367   4.712  16.945 -0.8064  1.0992  0.3897
 8160SOL    HW235943   1.303   4.573  16.944  1.3157  0.1575 -1.1862
 8161SOL     OW35944   3.160   0.453   3.782 -0.2760  0.1373  0.1958
 8161SOL    HW135945   3.204   0.510   3.845  0.0775  1.2869 -1.1126
 8161SOL    HW235946   3.068   0.468   3.803 -0.0434  2.7327 -0.6565
 8162SOL     OW35947   3.393   0.383  12.611 -0.4095  0.1734  0.5791
 8162SOL    HW135948   3.473   0.330  12.602  0.6532  1.7945  0.5367
 8162SOL    HW235949   3.382   0.409  12.520  0.9703 -0.9629  0.0902
 8163SOL     OW35950   2.249   3.843   2.705 -0.8057  0.0496 -0.4158
 8163SOL    HW135951   2.180   3.900   2.740  2.8262  2.0784  3.4753
 8163SOL    HW235952   2.331   3.893   2.697 -2.5688  2.8443 -1.0583
 8164SOL     OW35953   3.436   2.634  16.570  0.5745 -0.5854 -0.1780
 8164SOL    HW135954   3.366   2.577  16.601  1.2318 -0.4885  1.4728
 8164SOL    HW235955   3.402   2.724  16.578 -0.6059 -1.0298 -0.1675
 8165SOL     OW35956   3.326   0.700   2.999  0.1810  0.1598  0.2358
 8165SOL    HW135957   3.365   0.785   2.982 -0.6620  0.4664 -0.1720
 8165SOL    HW235958   3.249   0.703   2.943  0.7867  0.1677 -0.5940
 8166SOL     OW35959   0.749   3.532   5.532 -0.0483  0.0813 -0.5273
 8166SOL    HW135960   0.709   3.462   5.583  1.9259  2.0264  3.6938
 8166SOL    HW235961   0.700   3.522   5.451 -1.5905 -0.5812  0.4899
 8167SOL     OW35962   3.812   1.290   9.217  0.3605 -0.0340  0.0196
 8167SOL    HW135963   3.908   1.291   9.210  0.1368  2.1005 -3.1799
 8167SOL    HW235964   3.793   1.315   9.307  0.7744 -1.0968  0.4033
 8168SOL     OW35965   2.129   1.318   4.413  0.3871  0.0169 -0.3310
 8168SOL    HW135966   2.221   1.339   4.400  0.1927 -0.0460 -1.7591
 8168SOL    HW235967   2.101   1.311   4.322 -0.4450  0.6108 -0.1285
 8169SOL     OW35968   3.499   1.204   4.130  0.8334 -1.1744  0.3511
 8169SOL    HW135969   3.551   1.284   4.122  0.7359 -1.3871 -2.3227
 8169SOL    HW235970   3.485   1.197   4.224  2.1515  1.3393  0.7340
 8170SOL     OW35971   0.201   0.692   0.712  0.3881 -0.2291  0.2690
 8170SOL    HW135972   0.141   0.618   0.702 -0.3253  0.6578 -1.8560
 8170SOL    HW235973   0.149   0.732   0.783  0.8639  0.0826  0.4416
 8171SOL     OW35974   2.138   4.217   7.554 -0.3488  0.3246 -0.3216
 8171SOL    HW135975   2.067   4.260   7.507  0.4879  0.7236 -1.2318
 8171SOL    HW235976   2.211   4.277   7.535 -0.5228  0.8130  0.5840
 8172SOL     OW35977   1.089   2.195   7.805 -0.3495  0.3132  0.1206
 8172SOL    HW135978   1.068   2.117   7.857  0.8079 -0.0005  0.1102
 8172SOL    HW235979   1.005   2.239   7.796 -0.9049 -0.8098 -0.2585
 8173SOL     OW35980   4.317   1.956  13.142 -0.5288 -0.1958  0.0890
 8173SOL    HW135981   4.329   1.862  13.160  4.3699  0.4174 -0.1022
 8173SOL    HW235982   4.224   1.956  13.120 -0.9009  1.1530  1.6263
 8174SOL     OW35983   1.139   4.273  15.568 -0.3290 -0.7080 -0.8978
 8174SOL    HW135984   1.073   4.267  15.637  1.0301 -1.5698  0.2984
 8174SOL    HW235985   1.186   4.194  15.593  2.5486  1.3564  0.2858
 8175SOL     OW35986   1.557   4.625   7.638  0.4120 -0.2272  0.0022
 8175SOL    HW135987   1.622   4.604   7.706  0.1390 -0.0222  0.3270
 8175SOL    HW235988   1.617   4.619   7.564 -0.8752 -0.2673 -1.0306
 8176SOL     OW35989   1.012   3.374   4.802 -0.0820  0.2296 -0.4998
 8176SOL    HW135990   0.956   3.450   4.814  1.4584  1.7848 -3.0035
 8176SOL    HW235991   0.983   3.346   4.716 -0.5644  1.0943 -0.6169
 8177SOL     OW35992   2.274   4.395  12.061 -0.0389 -0.0266 -0.1894
 8177SOL    HW135993   2.261   4.352  11.977  1.8805  0.6878 -0.8566
 8177SOL    HW235994   2.215   4.469  12.049 -0.5408 -0.1566  1.4663
 8178SOL     OW35995   3.613   4.029   2.869 -0.3736 -0.2171 -0.4072
 8178SOL    HW135996   3.631   3.984   2.787  0.9277 -0.0816 -0.1992
 8178SOL    HW235997   3.655   3.977   2.937  0.3774  1.1050  0.1469
 8179SOL     OW35998   0.385   1.262   8.314 -0.0323  0.6484 -0.3122
 8179SOL    HW135999   0.468   1.292   8.279  0.0572  2.0661  1.1227
 8179SOL    HW236000   0.406   1.169   8.323 -1.9410  0.4678  2.2914
 8180SOL     OW36001   2.335   2.975   5.379 -0.2830  0.2566  0.4711
 8180SOL    HW136002   2.335   3.062   5.339 -0.8684  0.5362  1.0794
 8180SOL    HW236003   2.272   2.987   5.450 -1.5271 -0.6678 -0.5037
 8181SOL     OW36004   1.127   1.759   4.547 -0.5524 -0.3125  0.4891
 8181SOL    HW136005   1.138   1.703   4.470 -0.7586 -1.9507  1.6477
 8181SOL    HW236006   1.165   1.842   4.517 -0.7612 -0.6874 -0.8220
 8182SOL     OW36007   3.158   3.944  11.659 -0.3549  0.2957  0.1823
 8182SOL    HW136008   3.104   3.887  11.604  0.8911  0.8667 -1.5975
 8182SOL    HW236009   3.241   3.958  11.613  0.2815 -0.8430  1.0024
 8183SOL     OW36010   3.916   3.339   6.472 -0.0969 -0.1872  0.2750
 8183SOL    HW136011   3.889   3.423   6.510  0.7555 -0.8739  2.3848
 8183SOL    HW236012   3.944   3.298   6.554  1.1580  0.6661  0.2720
 8184SOL     OW36013   4.400   3.135   7.786 -0.1622 -0.4763 -0.3803
 8184SOL    HW136014   4.338   3.161   7.854 -0.5015 -0.6628 -0.6205
 8184SOL    HW236015   4.339   3.124   7.714 -1.5789  1.8147  0.4717
 8185SOL     OW36016   2.378   0.318  13.369  0.1113 -0.2814 -0.6721
 8185SOL    HW136017   2.383   0.396  13.313 -0.0446  1.4075  1.7021
 8185SOL    HW236018   2.412   0.264  13.298  0.4864 -1.3910  0.3592
 8186SOL     OW36019   1.369   2.108   2.206 -0.2412  0.1353  0.0748
 8186SOL    HW136020   1.414   2.028   2.179  0.2063  0.4709 -0.1844
 8186SOL    HW236021   1.285   2.084   2.246 -0.7012 -0.7439 -1.3964
 8187SOL     OW36022   2.974   4.082   2.337 -0.2973 -0.3515  0.1236
 8187SOL    HW136023   2.886   4.061   2.305  0.1041  1.8173 -2.4037
 8187SOL    HW236024   3.023   4.079   2.255  0.0313  2.8282  0.2023
 8188SOL     OW36025   0.408   4.682   9.242  0.1778  0.2794  0.4544
 8188SOL    HW136026   0.342   0.018   9.283  0.6531  0.2488  1.2438
 8188SOL    HW236027   0.421   4.619   9.313  2.2475 -0.1821 -0.3345
 8189SOL     OW36028   1.755   3.347   4.985 -0.2259  0.6735  0.3485
 8189SOL    HW136029   1.789   3.320   4.900  0.7361 -3.3812  2.0448
 8189SOL    HW236030   1.740   3.440   4.967 -0.9072  0.4641 -0.1913
 8190SOL     OW36031   2.368   2.529  10.805 -0.0869  0.6392  0.0874
 8190SOL    HW136032   2.294   2.565  10.854 -0.1313  1.0172 -0.2611
 8190SOL    HW236033   2.373   2.602  10.744  1.8107  1.0211  0.6788
 8191SOL     OW36034   0.697   0.698   5.058  0.8544  0.7503  0.3575
 8191SOL    HW136035   0.682   0.752   4.980 -0.8300 -0.5493 -0.1925
 8191SOL    HW236036   0.770   0.748   5.097  1.0184 -0.4540  1.5858
 8192SOL     OW36037   1.793   1.329   7.907 -0.2805  0.2145  0.5687
 8192SOL    HW136038   1.859   1.388   7.943  0.2858 -0.3967  0.5428
 8192SOL    HW236039   1.815   1.252   7.959 -0.8034  0.3977  1.0635
 8193SOL     OW36040   4.699   4.624   1.097  0.1884 -0.2272 -0.3444
 8193SOL    HW136041   4.612   4.622   1.056 -0.4813 -0.7251  1.1019
 8193SOL    HW236042   4.682   4.668   1.180  1.2531 -1.1323  0.3422
 8194SOL     OW36043   2.373   2.457   6.119 -0.3772  0.7800  0.7657
 8194SOL    HW136044   2.337   2.449   6.207  1.3983  2.4843  1.6474
 8194SOL    HW236045   2.308   2.404   6.073 -0.1539  0.4870  0.7886
 8195SOL     OW36046   3.458   3.720   4.614  0.4247 -0.7658  0.2358
 8195SOL    HW136047   3.416   3.757   4.537  1.6402 -0.6790 -0.3976
 8195SOL    HW236048   3.403   3.757   4.683 -0.8096  0.6605 -1.5179
 8196SOL     OW36049   3.804   2.804   5.364  0.6322  0.2316  0.1295
 8196SOL    HW136050   3.729   2.829   5.309  0.9866 -0.6761 -0.7609
 8196SOL    HW236051   3.869   2.858   5.320 -0.8665  0.4270 -1.8418
 8197SOL     OW36052   2.408   0.056  14.990  0.5171 -0.2276  0.0596
 8197SOL    HW136053   2.420   4.682  15.004 -1.1297 -0.4344  0.0095
 8197SOL    HW236054   2.500   0.073  14.969  0.0250 -1.4255 -3.0367
 8198SOL     OW36055   1.290   3.685   9.693  0.0071  0.5164  0.2193
 8198SOL    HW136056   1.200   3.663   9.714 -0.1460  1.0575  0.1365
 8198SOL    HW236057   1.316   3.729   9.773 -0.2543  1.9306 -0.4745
 8199SOL     OW36058   2.122   2.945   6.493 -0.4027  0.1715  0.2037
 8199SOL    HW136059   2.188   2.910   6.433 -0.7444 -1.2522  0.6528
 8199SOL    HW236060   2.060   2.969   6.423 -0.7905  0.8028  0.7675
 8200SOL     OW36061   2.198   1.268   2.202  0.6124 -0.4142  1.0671
 8200SOL    HW136062   2.287   1.237   2.218  1.5327  1.9986  0.6479
 8200SOL    HW236063   2.170   1.206   2.135 -0.6828  0.2739  0.9738
 8201SOL     OW36064   3.460   3.592   2.639 -0.0245  0.2195 -0.1447
 8201SOL    HW136065   3.387   3.566   2.695 -0.5817 -0.0264 -0.9732
 8201SOL    HW236066   3.526   3.523   2.652 -0.3563 -0.5031 -2.1504
 8202SOL     OW36067   0.492   2.272   9.565  0.2489 -0.3903  0.4643
 8202SOL    HW136068   0.438   2.309   9.495  0.7224  0.3746  0.5101
 8202SOL    HW236069   0.504   2.349   9.619 -0.8498  0.8613 -1.0796
 8203SOL     OW36070   2.895   1.624  15.089 -0.1154  0.2318 -0.2954
 8203SOL    HW136071   2.847   1.706  15.085 -0.4861  0.1434  1.9889
 8203SOL    HW236072   2.833   1.570  15.138 -0.7390  1.4013  0.1952
 8204SOL     OW36073   0.409   3.280   3.652  0.5744  0.4140 -0.2986
 8204SOL    HW136074   0.367   3.336   3.718 -2.1403 -0.9403 -0.8755
 8204SOL    HW236075   0.387   3.324   3.570 -0.2537 -1.2461 -0.9817
 8205SOL     OW36076   2.488   1.292   6.557 -0.2200  0.0653  0.5566
 8205SOL    HW136077   2.434   1.232   6.609 -0.2073  0.5416  1.1110
 8205SOL    HW236078   2.558   1.231   6.534 -0.3196  0.7924 -1.6527
 8206SOL     OW36079   1.611   0.464   6.057  0.1988 -0.5401 -0.2834
 8206SOL    HW136080   1.697   0.475   6.017 -0.8253 -0.5380 -2.4844
 8206SOL    HW236081   1.597   0.371   6.040  1.1107 -0.4038 -1.7384
 8207SOL     OW36082   2.450   0.847   7.840 -0.1137 -0.5156 -0.1389
 8207SOL    HW136083   2.510   0.918   7.863 -0.1044 -0.7946  0.7065
 8207SOL    HW236084   2.475   0.827   7.749 -1.0333 -2.2291 -0.0040
 8208SOL     OW36085   1.994   2.982   9.283 -0.5017  0.4482  0.0105
 8208SOL    HW136086   2.037   2.931   9.214 -1.6877 -2.0671  1.1286
 8208SOL    HW236087   1.933   3.047   9.249 -2.2696 -0.6521  1.0448
 8209SOL     OW36088   4.019   1.688  15.479 -0.2179  0.4870 -0.9404
 8209SOL    HW136089   4.016   1.614  15.419  3.8497  0.6729 -1.3536
 8209SOL    HW236090   4.065   1.750  15.423  1.4023 -1.1763 -1.4222
 8210SOL     OW36091   1.545   2.026   2.960  0.3618 -0.0287  0.2801
 8210SOL    HW136092   1.562   2.022   3.054  2.4846  1.5759 -0.0358
 8210SOL    HW236093   1.629   2.052   2.923 -0.5430  4.2081  1.1426
 8211SOL     OW36094   2.943   1.163   1.332  0.1877  0.0692  0.7433
 8211SOL    HW136095   3.036   1.165   1.309  0.1681 -1.6361  0.4681
 8211SOL    HW236096   2.930   1.240   1.386 -1.7523  0.9320 -0.9606
 8212SOL     OW36097   0.025   3.410   4.587  0.4082 -0.0743  0.7692
 8212SOL    HW136098   0.007   3.469   4.514  0.7403  0.5870  1.2252
 8212SOL    HW236099   0.035   3.330   4.535 -0.3272  0.0608  0.4249
 8213SOL     OW36100   1.285   1.342   8.563  0.3133  0.4439 -0.0587
 8213SOL    HW136101   1.219   1.278   8.589  0.0849  1.5164  2.0673
 8213SOL    HW236102   1.324   1.304   8.485  1.3239 -0.1730  0.7458
 8214SOL     OW36103   0.866   0.215   8.679 -0.0216  0.4476 -0.0612
 8214SOL    HW136104   0.925   0.258   8.741 -1.1182  3.1525 -0.9381
 8214SOL    HW236105   0.816   0.172   8.749 -2.7607  0.3598 -2.0418
 8215SOL     OW36106   1.028   0.491  15.895 -0.9071 -0.0195 -0.6386
 8215SOL    HW136107   1.085   0.520  15.824 -0.3289 -1.5973 -0.8351
 8215SOL    HW236108   0.996   0.412  15.852 -1.6792 -0.4892  0.7787
 8216SOL     OW36109   2.872   4.174   1.262 -0.0124  0.4868 -0.1126
 8216SOL    HW136110   2.839   4.124   1.187  2.4572 -0.8216 -0.3206
 8216SOL    HW236111   2.860   4.259   1.218  0.1897  1.2434  1.2942
 8217SOL     OW36112   3.152   3.336   7.869 -0.3736  0.5827 -0.1069
 8217SOL    HW136113   3.114   3.389   7.799 -1.7581  0.0734  0.2569
 8217SOL    HW236114   3.172   3.399   7.939 -0.7994 -1.3607  1.7489
 8218SOL     OW36115   2.727   0.909   8.111 -0.4542 -0.6659  0.0281
 8218SOL    HW136116   2.814   0.950   8.112 -1.2371  0.9932 -0.5680
 8218SOL    HW236117   2.693   0.944   8.029  1.2188 -2.0049 -1.2621
 8219SOL     OW36118   4.110   2.420   5.730 -0.1384 -0.0453 -0.0031
 8219SOL    HW136119   4.186   2.475   5.713  0.8853 -1.2400  0.7767
 8219SOL    HW236120   4.146   2.332   5.733 -1.9531 -0.8212 -0.7782
 8220SOL     OW36121   0.490   0.092  17.377  0.0092  0.3106 -0.1167
 8220SOL    HW136122   0.426   0.129  17.316 -0.5363 -1.5524 -0.6445
 8220SOL    HW236123   0.459   0.004  17.395 -0.0347  0.1125 -1.2195
 8221SOL     OW36124   4.410   4.137   2.623 -0.3691 -0.1669  0.1372
 8221SOL    HW136125   4.404   4.138   2.718  0.4301 -0.4949  0.1979
 8221SOL    HW236126   4.499   4.164   2.597  0.7571 -0.8005  3.4286
 8222SOL     OW36127   0.443   1.919   3.126  0.1491  0.0048  0.2804
 8222SOL    HW136128   0.417   1.828   3.113 -2.1256  0.6345  0.4836
 8222SOL    HW236129   0.363   1.958   3.091  2.2142  0.2317 -4.2092
 8223SOL     OW36130   4.190   2.202   6.044 -0.0773  0.4437 -0.2260
 8223SOL    HW136131   4.278   2.194   6.080 -0.4825 -2.0456  0.1945
 8223SOL    HW236132   4.208   2.183   5.952 -2.1591 -0.6484 -0.3987
 8224SOL     OW36133   0.798   3.675   0.022  0.9781  0.3835 -0.9410
 8224SOL    HW136134   0.875   3.728   0.040  0.9453  0.2444 -0.3568
 8224SOL    HW236135   0.809   3.594   0.072  1.3252  1.8011  1.2866
 8225SOL     OW36136   3.065   2.542   0.064  0.3558 -0.4743 -0.9165
 8225SOL    HW136137   2.973   2.566   0.053  1.5346  3.4003 -2.2399
 8225SOL    HW236138   3.065   2.555   0.159 -0.9074 -1.0492 -0.8399
 8226SOL     OW36139   0.646   2.304  15.264  0.1613 -0.0894  0.3672
 8226SOL    HW136140   0.681   2.227  15.308 -1.0747  0.1789  1.8464
 8226SOL    HW236141   0.573   2.258  15.223 -0.6752  2.0211 -0.5090
 8227SOL     OW36142   4.079   2.148   4.805 -0.1204 -0.1740 -0.4836
 8227SOL    HW136143   4.170   2.176   4.792 -0.3876  1.2375  0.7445
 8227SOL    HW236144   4.081   2.052   4.798  2.3752 -0.1044 -0.7212
 8228SOL     OW36145   2.394   0.336   4.333  0.3421 -0.1649 -0.5696
 8228SOL    HW136146   2.387   0.419   4.286  2.6564  0.3525 -0.0428
 8228SOL    HW236147   2.362   0.276   4.266  0.2108  0.5636 -1.1658
 8229SOL     OW36148   2.788   2.061  14.871 -0.5128 -0.4207  0.2420
 8229SOL    HW136149   2.755   2.129  14.812  1.7086 -0.1390 -0.6722
 8229SOL    HW236150   2.777   1.983  14.816  1.2777  0.0998 -0.8360
 8230SOL     OW36151   1.443   3.313   7.780 -0.1241  0.3151 -0.2308
 8230SOL    HW136152   1.485   3.377   7.838  0.9664 -1.6293  1.1067
 8230SOL    HW236153   1.350   3.333   7.793  0.1249  1.2359  0.1292
 8231SOL     OW36154   0.733   1.610   5.475 -0.0525  0.2156  0.0111
 8231SOL    HW136155   0.816   1.575   5.444 -1.0348 -2.7493  0.7604
 8231SOL    HW236156   0.770   1.668   5.542 -0.5434  2.1250 -1.3637
 8232SOL     OW36157   2.506   2.022   6.022  0.4805  0.2201 -0.4869
 8232SOL    HW136158   2.452   1.996   5.947 -0.5651 -0.4930  0.5038
 8232SOL    HW236159   2.529   2.115   6.015  0.5627  0.2501  0.1947
 8233SOL     OW36160   3.447   0.168   6.419 -0.1956 -0.6206  0.6402
 8233SOL    HW136161   3.431   0.169   6.513 -0.6275 -0.5398  0.5652
 8233SOL    HW236162   3.490   0.082   6.412 -0.5439 -0.9699  2.6938
 8234SOL     OW36163   2.915   3.594   2.048  0.4163 -0.3340  0.0851
 8234SOL    HW136164   2.827   3.561   2.029 -0.2086  0.2789  1.9003
 8234SOL    HW236165   2.924   3.543   2.129 -0.3230 -0.3350  0.1681
 8235SOL     OW36166   3.089   4.712   2.187  0.3042  0.2247 -0.3697
 8235SOL    HW136167   3.113   4.620   2.177  1.8293  0.5569  0.2286
 8235SOL    HW236168   2.999   4.695   2.212  0.4818 -1.0642 -0.6560
 8236SOL     OW36169   4.703   0.116   4.206 -0.7920  0.3519 -0.0298
 8236SOL    HW136170   4.677   0.130   4.115  0.0249  2.1214  0.0142
 8236SOL    HW236171   4.654   0.184   4.253 -1.6279  0.3002 -0.8153
 8237SOL     OW36172   0.144   3.800   1.540 -0.8576 -0.0273  0.5518
 8237SOL    HW136173   0.084   3.731   1.569 -0.0744 -1.3889 -1.0513
 8237SOL    HW236174   0.083   3.866   1.508  0.5339  0.1389 -1.8213
 8238SOL     OW36175   0.511   4.511   1.376  0.1265  0.5348 -0.4197
 8238SOL    HW136176   0.472   4.535   1.292 -3.7083 -0.4989  1.1124
 8238SOL    HW236177   0.433   4.520   1.430  0.9176  0.2844  0.7454
 8239SOL     OW36178   0.212   1.394   3.754  0.2492 -0.5295  0.0820
 8239SOL    HW136179   0.168   1.474   3.780  0.4686 -0.8754  1.4946
 8239SOL    HW236180   0.160   1.346   3.689 -0.3949  0.7312 -0.3244
 8240SOL     OW36181   4.450   2.975  16.636 -0.1265 -0.0845 -0.3756
 8240SOL    HW136182   4.396   3.003  16.561 -0.1386  0.6477 -0.0968
 8240SOL    HW236183   4.538   2.976  16.599  0.5794  0.8382  1.3302
 8241SOL     OW36184   2.012   0.640   0.500 -0.6258  0.4561  0.1641
 8241SOL    HW136185   2.091   0.598   0.464 -1.5704 -0.0376 -1.3251
 8241SOL    HW236186   1.973   0.563   0.542 -0.6204  0.7739  0.7577
 8242SOL     OW36187   4.009   3.952   5.866  0.3964  0.2457  0.2935
 8242SOL    HW136188   3.933   3.983   5.915 -0.9898 -2.3758 -0.1990
 8242SOL    HW236189   4.007   4.025   5.803 -0.1706 -1.0820 -1.2382
 8243SOL     OW36190   1.591   3.791   2.528 -0.1563 -0.0700 -0.6599
 8243SOL    HW136191   1.687   3.792   2.530 -0.1522  0.3896 -1.0638
 8243SOL    HW236192   1.570   3.872   2.575 -0.9043 -1.9948  2.3131
 8244SOL     OW36193   3.432   2.607   1.538 -0.2352  0.2736 -0.1364
 8244SOL    HW136194   3.467   2.522   1.564 -0.1884  0.4791  0.4875
 8244SOL    HW236195   3.499   2.669   1.568 -0.7682  0.2251  1.1610
 8245SOL     OW36196   2.434   2.387   8.604  0.3067 -0.3870  0.2506
 8245SOL    HW136197   2.518   2.411   8.564 -0.7436  0.4545 -1.4381
 8245SOL    HW236198   2.439   2.295   8.630 -1.1531 -0.6841 -0.5295
 8246SOL     OW36199   3.928   3.387   3.274  0.5275 -0.0496  0.1663
 8246SOL    HW136200   3.858   3.333   3.309 -0.7069  0.2547 -1.8367
 8246SOL    HW236201   3.981   3.318   3.232  0.3584  0.3214 -0.6651
 8247SOL     OW36202   2.800   4.654   0.763 -0.0287 -0.1680 -0.6002
 8247SOL    HW136203   2.837   4.572   0.795  0.1543  0.4250  0.7169
 8247SOL    HW236204   2.881   4.705   0.760  1.9946 -3.3468  0.8470
 8248SOL     OW36205   3.016   4.414   0.233  0.0485  0.1092  0.3300
 8248SOL    HW136206   3.011   4.364   0.151  1.6169 -2.4612  1.7865
 8248SOL    HW236207   3.101   4.456   0.226 -0.2687  0.7388  0.2726
 8249SOL     OW36208   3.519   0.599   2.372  0.2633 -0.1927  0.1871
 8249SOL    HW136209   3.595   0.580   2.317  1.9550  1.7187  1.8525
 8249SOL    HW236210   3.508   0.693   2.355 -1.3465 -0.1122  1.6987
 8250SOL     OW36211   1.865   0.743   7.209  0.4819 -0.0179  0.6506
 8250SOL    HW136212   1.879   0.754   7.115  0.6346 -1.3870  0.5065
 8250SOL    HW236213   1.928   0.675   7.234 -1.7315 -0.8859  3.8532
 8251SOL     OW36214   4.560   2.374   8.704 -0.2814  0.4373  0.0653
 8251SOL    HW136215   4.541   2.298   8.759  0.5007  1.0920  1.2391
 8251SOL    HW236216   4.641   2.353   8.659 -0.0659  2.9366 -0.6794
 8252SOL     OW36217   3.463   1.892   7.563  0.2697  0.3163 -0.0719
 8252SOL    HW136218   3.463   1.857   7.474  0.3063 -2.4397  1.0047
 8252SOL    HW236219   3.380   1.857   7.597  0.0660 -1.1374 -2.0996
 8253SOL     OW36220   4.358   2.316   3.245  0.8804  0.3909 -0.0827
 8253SOL    HW136221   4.418   2.339   3.174 -2.0145  1.2218 -2.2765
 8253SOL    HW236222   4.296   2.262   3.196  0.2330  0.9688  0.0963
 8254SOL     OW36223   2.604   1.514  15.856 -0.0894  0.3616 -0.2807
 8254SOL    HW136224   2.647   1.578  15.913 -2.3037  0.1968  1.6081
 8254SOL    HW236225   2.526   1.568  15.845 -0.3220 -0.0569 -0.7081
 8255SOL     OW36226   2.078   3.887   7.862  0.4065 -0.0531  0.0322
 8255SOL    HW136227   2.033   3.935   7.793  0.2879 -1.7546 -1.0848
 8255SOL    HW236228   2.057   3.958   7.923 -1.8228 -2.6815  2.3482
 8256SOL     OW36229   2.524   1.346   5.190  0.0475 -0.4933 -0.2009
 8256SOL    HW136230   2.437   1.308   5.204  0.2221 -1.3584 -1.4251
 8256SOL    HW236231   2.551   1.365   5.279 -0.2585  1.4217 -0.5256
 8257SOL     OW36232   1.366   1.780   3.151  0.7085 -0.1809 -0.4804
 8257SOL    HW136233   1.415   1.847   3.103 -0.9065  1.2553 -0.1195
 8257SOL    HW236234   1.426   1.775   3.226 -1.0256  1.0020  0.9833
 8258SOL     OW36235   0.419   0.945   9.300  0.3792  0.3001 -0.9288
 8258SOL    HW136236   0.464   1.017   9.344  0.6590  0.0445 -0.7955
 8258SOL    HW236237   0.369   0.907   9.372 -0.8357  1.3269 -1.2291
 8259SOL     OW36238   0.299   1.343   0.351  1.0882 -0.5184 -0.6516
 8259SOL    HW136239   0.270   1.274   0.411 -0.9578  0.4342 -0.5443
 8259SOL    HW236240   0.381   1.311   0.313  1.3304 -1.1185  0.3928
 8260SOL     OW36241   4.030   2.018  13.650  0.4187 -0.0380  0.2947
 8260SOL    HW136242   4.023   1.990  13.741  0.3047  0.7081  0.5112
 8260SOL    HW236243   4.124   2.029  13.632  0.1643  1.5499 -0.0270
 8261SOL     OW36244   1.805   4.401  13.874  0.2804 -0.5244  0.9756
 8261SOL    HW136245   1.885   4.357  13.843  0.4711  0.8056 -0.4160
 8261SOL    HW236246   1.845   4.462  13.936 -0.4619  0.0656  0.8749
 8262SOL     OW36247   3.856   4.099  17.518  0.3318  0.0031 -0.0880
 8262SOL    HW136248   3.923   4.066  17.459  1.2737  2.8048 -0.5522
 8262SOL    HW236249   3.899   4.170  17.566  2.7984  0.4587 -2.9783
 8263SOL     OW36250   3.632   3.708   6.678 -0.0307  0.2115  0.4985
 8263SOL    HW136251   3.724   3.706   6.703 -0.2170  0.5086  1.2135
 8263SOL    HW236252   3.607   3.779   6.737 -1.2880  0.6780 -0.5925
 8264SOL     OW36253   3.456   1.175   5.713 -0.4533  0.1743 -0.2851
 8264SOL    HW136254   3.432   1.231   5.788 -0.1676 -0.3324  0.1873
 8264SOL    HW236255   3.363   1.179   5.688 -0.4506  3.1718  0.1552
 8265SOL     OW36256   1.411   3.795   9.431  0.7412  0.6513  0.2662
 8265SOL    HW136257   1.487   3.828   9.479  2.2376 -1.4476 -0.6334
 8265SOL    HW236258   1.373   3.741   9.500  1.1464  1.0269  0.7769
 8266SOL     OW36259   3.758   2.721   0.079  0.0461  0.3360 -0.1783
 8266SOL    HW136260   3.712   2.690   0.001 -0.3518 -2.1184  1.0408
 8266SOL    HW236261   3.706   2.796   0.109  0.8074  0.7968  0.0091
 8267SOL     OW36262   4.399   4.037  16.072 -0.1560 -0.4599 -0.1002
 8267SOL    HW136263   4.429   3.959  16.118  0.6921 -0.5660 -0.8272
 8267SOL    HW236264   4.440   4.105  16.125 -1.8139  0.2290  0.2857
 8268SOL     OW36265   1.571   1.311   3.429  0.4655  0.7506 -0.3719
 8268SOL    HW136266   1.504   1.335   3.365 -0.4905 -1.3877 -0.1641
 8268SOL    HW236267   1.601   1.392   3.471  1.0627 -0.1090  0.8574
 8269SOL     OW36268   3.669   1.122   2.343 -0.3616 -0.4277 -0.3549
 8269SOL    HW136269   3.680   1.217   2.349  1.5888 -0.4233 -3.7049
 8269SOL    HW236270   3.706   1.088   2.424  1.5657 -0.9069 -1.4208
 8270SOL     OW36271   3.122   0.251  15.821 -0.1589 -0.0371  0.2347
 8270SOL    HW136272   3.060   0.231  15.751  0.5764  1.2262 -0.7800
 8270SOL    HW236273   3.126   0.347  15.819 -1.2701  0.0753  2.1875
 8271SOL     OW36274   2.382   1.482   8.940  0.4206  0.2622 -0.7639
 8271SOL    HW136275   2.439   1.486   9.018  0.8354 -0.1721 -1.0465
 8271SOL    HW236276   2.447   1.524   8.883  1.5867  1.0075  1.1013
 8272SOL     OW36277   2.800   1.579   6.594  0.3584 -0.5111  0.5026
 8272SOL    HW136278   2.820   1.668   6.623 -1.2281  0.3994 -1.2346
 8272SOL    HW236279   2.875   1.531   6.630 -0.1895  0.1047  2.4987
 8273SOL     OW36280   2.013   2.595  10.161 -0.0542  0.3955 -0.2715
 8273SOL    HW136281   2.085   2.616  10.221 -0.3376 -0.5169  0.3846
 8273SOL    HW236282   2.074   2.561  10.095  0.1773  0.2432  0.0230
 8274SOL     OW36283   4.457   3.336   1.363 -0.0351 -0.6845  0.7583
 8274SOL    HW136284   4.424   3.336   1.273 -0.0074 -1.0665  0.7487
 8274SOL    HW236285   4.411   3.267   1.409 -1.8715 -1.4140 -2.1498
 8275SOL     OW36286   0.414   3.221   5.686  0.5187 -0.2270  0.4676
 8275SOL    HW136287   0.386   3.179   5.767 -1.8514  1.3009  0.4228
 8275SOL    HW236288   0.357   3.297   5.688  2.2586  1.0190  2.1091
 8276SOL     OW36289   4.337   3.369  15.708  0.1319 -0.3036 -0.0276
 8276SOL    HW136290   4.288   3.433  15.656 -0.1520  0.5864  1.3510
 8276SOL    HW236291   4.384   3.422  15.773 -0.6972 -0.4051  0.6561
 8277SOL     OW36292   1.029   1.031   6.570 -0.2038  0.3082 -0.3196
 8277SOL    HW136293   1.003   1.005   6.659 -0.2718 -0.7130 -0.6315
 8277SOL    HW236294   1.077   0.948   6.563 -0.9564 -0.2333  0.8467
 8278SOL     OW36295   2.780   3.858   1.956 -0.2636 -0.1024  0.5537
 8278SOL    HW136296   2.838   3.813   1.894  0.1597  2.1494 -0.6842
 8278SOL    HW236297   2.783   3.949   1.926 -0.5957 -0.4979 -0.6704
 8279SOL     OW36298   0.161   1.028  14.193 -0.1452 -0.1428  0.3851
 8279SOL    HW136299   0.191   0.969  14.262  0.9387 -2.7259 -2.2702
 8279SOL    HW236300   0.087   1.063  14.243  0.4005  0.3920  0.8189
 8280SOL     OW36301   4.037   0.546  17.224 -0.6431  0.3122  0.2439
 8280SOL    HW136302   4.073   0.630  17.254 -0.1427 -1.1356  3.6173
 8280SOL    HW236303   4.032   0.506  17.310 -1.8642 -1.6809 -0.7560
 8281SOL     OW36304   3.289   3.678   0.644  0.4969 -0.6074 -0.6579
 8281SOL    HW136305   3.340   3.694   0.724 -0.0790  2.0549 -0.8394
 8281SOL    HW236306   3.220   3.621   0.678  0.5664 -0.0665  0.3867
 8282SOL     OW36307   0.759   0.112   6.340 -0.6041 -0.1691 -0.1805
 8282SOL    HW136308   0.665   0.122   6.327 -0.8410 -0.8540  1.0682
 8282SOL    HW236309   0.772   0.186   6.399 -0.5643  1.8930 -2.7775
 8283SOL     OW36310   4.169   3.338   5.501  0.3949  0.2874 -0.6552
 8283SOL    HW136311   4.104   3.276   5.532 -2.0706  1.6235 -3.1361
 8283SOL    HW236312   4.107   3.412   5.505  0.2563  0.1182  0.3064
 8284SOL     OW36313   1.976   2.557   0.373  0.5952 -0.6036 -0.5842
 8284SOL    HW136314   2.051   2.596   0.328 -0.0580  0.8279 -0.4033
 8284SOL    HW236315   1.926   2.528   0.296  1.7072 -0.7597 -1.2508
 8285SOL     OW36316   2.277   3.218   9.560 -0.1101 -0.1856  0.2590
 8285SOL    HW136317   2.205   3.167   9.523 -0.6899  0.8283 -0.0436
 8285SOL    HW236318   2.225   3.281   9.610 -1.4805 -0.8974 -0.2543
 8286SOL     OW36319   0.609   2.770   2.418  0.3976  0.1485  0.2728
 8286SOL    HW136320   0.704   2.755   2.414  0.1703 -1.0404 -0.6641
 8286SOL    HW236321   0.566   2.699   2.466 -2.1001  1.4181 -0.0940
 8287SOL     OW36322   4.050   0.490   4.284  0.5747 -0.3621 -0.1084
 8287SOL    HW136323   4.133   0.530   4.260  0.8266 -0.1686  1.0736
 8287SOL    HW236324   4.076   0.450   4.367 -0.0483 -0.4736  0.0349
 8288SOL     OW36325   3.022   1.130   3.999  0.1129 -0.2500  0.2756
 8288SOL    HW136326   2.984   1.116   3.912 -0.0595 -1.2036  0.5100
 8288SOL    HW236327   3.044   1.040   4.024  2.2388  0.1480 -0.1459
 8289SOL     OW36328   1.296   2.191   4.911 -0.0337 -0.3774 -0.6546
 8289SOL    HW136329   1.248   2.171   4.991  0.7105  0.6537  0.0468
 8289SOL    HW236330   1.345   2.266   4.943  1.2038 -2.0166  1.3270
 8290SOL     OW36331   4.383   2.789   7.880 -0.4799 -0.3407  0.5574
 8290SOL    HW136332   4.311   2.850   7.868  1.4771  1.3909 -2.4176
 8290SOL    HW236333   4.390   2.753   7.792 -0.1327 -2.5206  1.4682
 8291SOL     OW36334   1.739   2.955  16.347 -0.2007 -0.2999 -0.3536
 8291SOL    HW136335   1.677   3.002  16.291 -2.8688 -0.9819  2.0511
 8291SOL    HW236336   1.712   2.863  16.351  0.4017 -0.3354  3.1135
 8292SOL     OW36337   0.017   4.633   1.805 -0.2054  0.8011  0.3445
 8292SOL    HW136338   4.655   4.583   1.810 -0.3937  1.0331 -0.4705
 8292SOL    HW236339   0.087   4.568   1.812 -1.7077 -0.8146  0.3053
 8293SOL     OW36340   3.629   0.453   3.359  0.0212 -0.6011 -0.2282
 8293SOL    HW136341   3.716   0.486   3.333  1.2405 -2.1923  1.8497
 8293SOL    HW236342   3.571   0.489   3.291 -1.2817 -2.0946  0.0949
 8294SOL     OW36343   3.414   4.211  12.623 -0.1689 -0.7023  0.7960
 8294SOL    HW136344   3.376   4.299  12.621  0.0433 -0.6942 -2.9137
 8294SOL    HW236345   3.395   4.176  12.536  2.7000 -2.4600  0.8788
 8295SOL     OW36346   0.622   3.159   4.667  0.5397 -0.3018  0.6154
 8295SOL    HW136347   0.574   3.174   4.586  2.1196 -0.2957 -0.3106
 8295SOL    HW236348   0.636   3.251   4.691  2.6599  0.0316 -1.8963
 8296SOL     OW36349   2.278   4.434   6.274  0.1897  0.3485  0.1704
 8296SOL    HW136350   2.286   4.514   6.325 -0.7649  1.9950 -2.2575
 8296SOL    HW236351   2.356   4.436   6.219 -0.2103  1.9729 -0.3453
 8297SOL     OW36352   2.875   4.148  15.592  0.3535  0.0176  0.7730
 8297SOL    HW136353   2.922   4.069  15.619  2.1280  1.7157  2.6238
 8297SOL    HW236354   2.892   4.201  15.670  1.1217  0.0445  0.5790
 8298SOL     OW36355   4.288   2.524   1.069  0.1603  0.1582 -0.1546
 8298SOL    HW136356   4.219   2.587   1.093  1.8597  0.7571  3.2477
 8298SOL    HW236357   4.357   2.586   1.046  1.1090 -0.5938  0.6775
 8299SOL     OW36358   3.858   0.887   0.194  0.6067 -0.1530  0.4028
 8299SOL    HW136359   3.837   0.808   0.243 -3.3043  0.2089 -0.6988
 8299SOL    HW236360   3.850   0.848   0.107  1.3227  2.2748 -0.7637
 8300SOL     OW36361   4.161   0.410   7.643  0.1462 -0.2269  0.5431
 8300SOL    HW136362   4.087   0.364   7.683  0.9614 -0.3991  1.8317
 8300SOL    HW236363   4.237   0.379   7.692  1.0742 -0.2359 -0.8896
 8301SOL     OW36364   1.874   4.373  13.195  0.5904 -0.4086 -0.6031
 8301SOL    HW136365   1.954   4.352  13.243 -0.3938  0.7469  1.5569
 8301SOL    HW236366   1.861   4.298  13.137 -0.4243 -0.7886  0.1025
 8302SOL     OW36367   0.998   2.254  16.773 -0.4974 -0.0526 -0.0119
 8302SOL    HW136368   0.931   2.193  16.804  0.0061 -0.9156 -0.6271
 8302SOL    HW236369   1.017   2.208  16.692 -2.4144  0.2332 -0.6287
 8303SOL     OW36370   4.283   2.318   7.049  0.2404  0.1954  0.4001
 8303SOL    HW136371   4.312   2.240   7.096  1.9287 -0.6836 -2.0864
 8303SOL    HW236372   4.373   2.351   7.044  0.7997 -1.6137 -1.7472
 8304SOL     OW36373   3.436   1.084   9.946 -0.0030 -0.5923  0.4271
 8304SOL    HW136374   3.516   1.033   9.945  0.2825 -0.1412  0.5077
 8304SOL    HW236375   3.385   1.032  10.007  2.5083 -0.8873  2.2286
 8305SOL     OW36376   0.848   4.053   1.816 -0.6796 -0.7751  0.2368
 8305SOL    HW136377   0.899   4.119   1.864 -1.3734  1.1403 -1.6504
 8305SOL    HW236378   0.811   4.101   1.742 -2.4016  0.2735  1.7851
 8306SOL     OW36379   0.185   3.373   6.247  0.2487  0.6849 -0.3496
 8306SOL    HW136380   0.125   3.298   6.243  0.0882  0.7261  1.2768
 8306SOL    HW236381   0.266   3.327   6.226 -0.1095  1.6280 -3.8209
 8307SOL     OW36382   3.906   1.339  13.000 -0.5636  0.4012  0.1960
 8307SOL    HW136383   3.966   1.413  13.014 -0.8799  1.1538 -2.3665
 8307SOL    HW236384   3.924   1.307  13.088  0.2058  0.9013  0.2195
 8308SOL     OW36385   0.633   1.979   2.334  0.0646 -0.5112 -0.3043
 8308SOL    HW136386   0.630   1.936   2.249 -1.6276  1.4212 -1.2203
 8308SOL    HW236387   0.670   2.064   2.314 -0.7540 -0.1997 -0.4865
 8309SOL     OW36388   4.603   4.260  11.587 -0.3349 -0.0133  0.1277
 8309SOL    HW136389   4.545   4.266  11.664 -0.9511 -0.9007 -0.2661
 8309SOL    HW236390   4.611   4.167  11.566  0.1631  0.3528 -1.2269
 8310SOL     OW36391   3.553   3.109  17.423 -0.0370 -0.3017 -0.4725
 8310SOL    HW136392   3.483   3.169  17.399 -0.4295 -0.8735 -0.7562
 8310SOL    HW236393   3.555   3.121  17.518 -3.1513  1.6169 -0.6706
 8311SOL     OW36394   3.349   3.168   0.300  0.3012  0.8029 -0.5304
 8311SOL    HW136395   3.253   3.172   0.307  0.3766  1.7942 -0.0549
 8311SOL    HW236396   3.373   3.121   0.380  0.6148  0.3888 -0.8647
 8312SOL     OW36397   0.251   2.681  16.943 -0.0161  0.3075  0.0385
 8312SOL    HW136398   0.345   2.689  16.924  0.2343 -0.8982  0.7679
 8312SOL    HW236399   0.220   2.656  16.856 -0.1570 -0.0032  0.1788
 8313SOL     OW36400   1.322   2.652   7.709  0.3306  0.1758  0.5325
 8313SOL    HW136401   1.417   2.663   7.712  0.3849 -1.0867  3.8314
 8313SOL    HW236402   1.295   2.743   7.723  1.8384  1.1214 -2.7831
 8314SOL     OW36403   0.245   3.642  14.749  0.1301  0.2410 -0.5857
 8314SOL    HW136404   0.268   3.729  14.717  1.6184  0.3855  0.8390
 8314SOL    HW236405   0.153   3.630  14.727  0.4140 -0.3735 -1.4402
 8315SOL     OW36406   1.766   0.336   1.677 -0.5368  0.2133  0.2712
 8315SOL    HW136407   1.757   0.412   1.734 -0.5592  0.0000  0.5541
 8315SOL    HW236408   1.764   0.384   1.594 -1.1411 -0.8522 -0.3370
 8316SOL     OW36409   1.905   3.282  13.855  0.0644 -0.2874  0.0810
 8316SOL    HW136410   1.894   3.215  13.788  1.3700  0.0569 -0.4830
 8316SOL    HW236411   1.908   3.228  13.934  3.3702  2.1445  1.6284
 8317SOL     OW36412   1.027   0.467  12.282  0.1179  1.0268 -0.1097
 8317SOL    HW136413   1.000   0.394  12.336  2.1393 -0.4084 -1.0254
 8317SOL    HW236414   0.965   0.454  12.211  1.5516  0.2820 -1.2280
 8318SOL     OW36415   3.021   4.354  17.623 -0.1520  0.1410  0.2874
 8318SOL    HW136416   3.005   4.281  17.563  0.8760 -0.9690  1.3649
 8318SOL    HW236417   3.019   4.435  17.572 -0.1474 -0.5711 -0.8540
 8319SOL     OW36418   1.233   4.527  15.455 -0.1955  0.1322  0.4542
 8319SOL    HW136419   1.226   4.458  15.521  0.4916  0.7712  1.1799
 8319SOL    HW236420   1.312   4.576  15.475 -1.3206  1.4243  1.6915
 8320SOL     OW36421   0.060   3.692   9.033  0.7244 -0.0668  0.0198
 8320SOL    HW136422   0.064   3.787   9.023  3.3191 -0.2312 -0.6189
 8320SOL    HW236423   0.053   3.679   9.127 -1.6484  1.3838  0.0542
 8321SOL     OW36424   4.121   4.025   7.321  0.2511  0.1467 -0.4989
 8321SOL    HW136425   4.109   4.119   7.338  0.6144 -0.0390  0.7916
 8321SOL    HW236426   4.214   4.018   7.299 -0.1228  0.7085 -2.2571
 8322SOL     OW36427   0.006   1.345   4.062 -0.0098  0.0123 -0.2697
 8322SOL    HW136428   0.099   1.365   4.068  0.1220 -0.7121  0.1210
 8322SOL    HW236429   4.694   1.403   3.992 -2.5188 -0.4980  0.4454
 8323SOL     OW36430   2.326   4.665   8.759 -0.6942 -0.0712 -0.2363
 8323SOL    HW136431   2.303   4.694   8.847 -0.4026 -1.1146  0.1892
 8323SOL    HW236432   2.309   0.022   8.704 -0.5617  0.4726  0.4784
 8324SOL     OW36433   3.307   0.359  10.112  0.2048 -0.6314  0.0620
 8324SOL    HW136434   3.382   0.388  10.060 -0.0610  0.5294  0.3154
 8324SOL    HW236435   3.256   0.349  10.031 -2.7514  0.6666  1.7673
 8325SOL     OW36436   3.134   1.442   9.454  0.2767  0.2908  0.5435
 8325SOL    HW136437   3.126   1.507   9.523  0.4141 -0.6180  1.4222
 8325SOL    HW236438   3.047   1.451   9.414  1.1075 -0.0604 -1.3401
 8326SOL     OW36439   3.856   3.453   8.375 -0.0073  0.6475 -0.1890
 8326SOL    HW136440   3.859   3.537   8.422 -0.6192  0.4289  0.2482
 8326SOL    HW236441   3.927   3.407   8.419  0.7136  1.2805 -0.6919
 8327SOL     OW36442   0.231   3.950   4.051 -1.0040  0.1307 -0.1270
 8327SOL    HW136443   0.152   3.998   4.027 -1.3031 -0.8881 -1.2222
 8327SOL    HW236444   0.216   3.936   4.144 -1.3294  0.1447 -0.1755
 8328SOL     OW36445   0.500   2.090   4.829  0.3634  0.3842 -0.0045
 8328SOL    HW136446   0.544   2.100   4.744  2.4883  0.0883  1.0630
 8328SOL    HW236447   0.533   2.003   4.850  2.1200  1.0823  0.0698
 8329SOL     OW36448   3.974   3.354   4.813  0.2513  0.7277  0.7197
 8329SOL    HW136449   3.916   3.288   4.774  0.9787  1.1907 -1.1515
 8329SOL    HW236450   4.060   3.321   4.787 -0.7701 -0.0716 -1.6760
 8330SOL     OW36451   2.422   3.342   0.298 -0.4939 -0.6647 -0.3236
 8330SOL    HW136452   2.431   3.316   0.389 -0.0080  1.3379  0.2085
 8330SOL    HW236453   2.512   3.324   0.270  0.3474 -1.4113  2.8159
 8331SOL     OW36454   0.908   0.675   2.562 -0.1216  0.2301  0.2527
 8331SOL    HW136455   0.821   0.700   2.531 -1.3290 -2.2778  1.6504
 8331SOL    HW236456   0.897   0.599   2.620 -0.7549 -1.3664 -1.9765
 8332SOL     OW36457   4.483   3.820   1.429 -0.2748 -0.1971  0.1932
 8332SOL    HW136458   4.422   3.854   1.494  1.6040 -0.4988  2.0940
 8332SOL    HW236459   4.443   3.862   1.352  0.7296  1.0257  0.3286
 8333SOL     OW36460   2.661   4.459   6.985  0.5876  0.4649 -0.3492
 8333SOL    HW136461   2.579   4.446   6.937  0.0510  3.8323 -0.3013
 8333SOL    HW236462   2.709   4.389   6.940  3.5829  1.7828  0.8063
 8334SOL     OW36463   2.982   1.260   4.827 -0.4900 -0.1133 -0.1974
 8334SOL    HW136464   2.982   1.355   4.840  1.0748 -0.2772  1.0196
 8334SOL    HW236465   3.005   1.255   4.735  2.6477  1.7728  0.4848
 8335SOL     OW36466   0.968   2.970  11.019 -0.2003  1.2226 -0.2807
 8335SOL    HW136467   0.925   2.889  10.995  0.4350  0.5331  0.9102
 8335SOL    HW236468   0.999   2.943  11.105  2.4003 -0.2469 -1.6660
 8336SOL     OW36469   3.753   0.002   5.539 -0.1458  0.0212  0.3755
 8336SOL    HW136470   3.661   4.694   5.544 -0.3661  0.5529 -0.6376
 8336SOL    HW236471   3.733   0.093   5.560  1.1045  0.1161  1.1475
 8337SOL     OW36472   3.378   4.268   5.767 -0.5287 -0.3126  0.2346
 8337SOL    HW136473   3.339   4.350   5.736 -0.3745  0.7643  2.8544
 8337SOL    HW236474   3.336   4.262   5.852 -1.7636 -3.5858 -0.6433
 8338SOL     OW36475   2.652   2.206   7.642 -0.7418  0.1013 -0.0441
 8338SOL    HW136476   2.603   2.125   7.648 -0.3560 -0.2838 -2.0473
 8338SOL    HW236477   2.585   2.258   7.597 -0.3005  0.6858 -0.0367
 8339SOL     OW36478   0.892   4.377   5.214  0.1573  0.6161  0.1936
 8339SOL    HW136479   0.934   4.434   5.149 -1.2117  0.3980 -0.8753
 8339SOL    HW236480   0.854   4.433   5.281 -0.2477  1.4137 -0.7110
 8340SOL     OW36481   2.069   4.162   9.263 -0.3044  0.1231 -0.2833
 8340SOL    HW136482   1.993   4.113   9.234  0.9459 -1.8926 -0.1717
 8340SOL    HW236483   2.133   4.090   9.265 -0.3585  0.0912  0.4128
 8341SOL     OW36484   0.243   0.947   2.656 -0.2065 -0.1480 -0.1741
 8341SOL    HW136485   0.149   0.948   2.637  0.2843  0.0548 -2.5145
 8341SOL    HW236486   0.276   1.017   2.600  2.2636  1.0341  2.7459
 8342SOL     OW36487   3.424   4.043   0.239  0.1909 -0.2854  0.3195
 8342SOL    HW136488   3.467   3.960   0.218  1.4624  0.0219  1.7515
 8342SOL    HW236489   3.409   4.079   0.151  0.3937 -1.2914 -0.1343
 8343SOL     OW36490   4.660   3.590   1.155  0.4695 -0.0019 -0.7039
 8343SOL    HW136491   4.578   3.630   1.127  0.3177 -1.7966 -2.8300
 8343SOL    HW236492   0.006   3.659   1.151 -0.5755  1.0163 -0.1430
 8344SOL     OW36493   2.033   3.004   8.201 -0.7422 -0.1997 -0.4291
 8344SOL    HW136494   2.089   3.080   8.187 -0.9017  0.4972  2.6412
 8344SOL    HW236495   2.043   2.985   8.294 -2.8971  1.5324  0.1651
 8345SOL     OW36496   1.120   4.089   2.699  0.1386 -0.5112 -0.1889
 8345SOL    HW136497   1.048   4.081   2.762  0.6383  1.5596  0.6572
 8345SOL    HW236498   1.168   4.013   2.732  0.5308 -1.3605 -2.7281
 8346SOL     OW36499   2.771   3.361   6.030  1.1115  0.5888 -0.5907
 8346SOL    HW136500   2.716   3.439   6.019  0.9383  0.3053 -1.8092
 8346SOL    HW236501   2.723   3.321   6.102 -0.2559  1.7050 -0.8855
 8347SOL     OW36502   2.254   3.581   7.005  0.6612 -0.2130 -0.1539
 8347SOL    HW136503   2.282   3.658   7.054 -0.4158  1.2229 -1.7933
 8347SOL    HW236504   2.288   3.602   6.918 -4.0067  2.8475 -1.2163
 8348SOL     OW36505   1.842   1.553  14.824 -0.2828  0.0398  0.2532
 8348SOL    HW136506   1.876   1.515  14.905 -0.6955 -0.6613  0.1067
 8348SOL    HW236507   1.748   1.548  14.841 -0.4285  1.8149 -0.0227
 8349SOL     OW36508   0.401   3.928   1.822  0.6560  0.4243  1.1654
 8349SOL    HW136509   0.315   3.931   1.863  0.5638 -0.3596  1.0344
 8349SOL    HW236510   0.458   3.928   1.899  1.1871 -0.9851  0.7775
 8350SOL     OW36511   1.627   0.147   3.101 -0.1851 -0.2626  0.3385
 8350SOL    HW136512   1.693   0.125   3.035 -1.3825  0.3257 -1.0704
 8350SOL    HW236513   1.685   0.164   3.175  1.2987 -1.3967 -0.5417
 8351SOL     OW36514   2.334   0.105   4.145  0.4205 -0.0225 -0.4745
 8351SOL    HW136515   2.264   0.124   4.082  1.2479  1.1861 -1.0383
 8351SOL    HW236516   2.384   0.043   4.092  0.8048  0.4860 -0.7152
 8352SOL     OW36517   0.829   0.131   8.323 -0.5856  0.0064 -0.0225
 8352SOL    HW136518   0.818   0.132   8.228 -1.7751 -1.0025  0.1122
 8352SOL    HW236519   0.923   0.116   8.333 -0.3511  1.2479 -0.2568
 8353SOL     OW36520   3.927   3.544   9.737  0.1323 -0.2154  0.3673
 8353SOL    HW136521   3.836   3.568   9.750  0.3760 -0.5527  2.7088
 8353SOL    HW236522   3.978   3.622   9.762 -2.1669  0.0037  4.4925
 8354SOL     OW36523   0.694   2.783   5.385 -0.0931 -0.4571 -0.8276
 8354SOL    HW136524   0.733   2.846   5.446  1.2047 -3.5617  1.5220
 8354SOL    HW236525   0.604   2.790   5.417  0.4335  1.3808  0.2435
 8355SOL     OW36526   2.072   0.654   3.982 -0.4086  0.2625  0.0937
 8355SOL    HW136527   2.001   0.717   3.969  0.0717  0.3806 -1.9429
 8355SOL    HW236528   2.031   0.568   3.973 -0.1380  0.2487 -1.0820
 8356SOL     OW36529   0.592   1.373   7.219  0.5407 -0.0002 -0.2084
 8356SOL    HW136530   0.653   1.417   7.278  2.1764 -0.6336 -1.4225
 8356SOL    HW236531   0.535   1.346   7.292 -0.1809  2.1650  0.0276
 8357SOL     OW36532   2.371   3.575   1.552  0.6488 -0.4159 -0.1992
 8357SOL    HW136533   2.365   3.632   1.476  1.0495  0.4312  0.4003
 8357SOL    HW236534   2.341   3.491   1.517  0.3113  0.4556 -2.0203
 8358SOL     OW36535   2.368   3.886  11.065 -0.3398  0.6482 -0.0841
 8358SOL    HW136536   2.304   3.821  11.037 -2.0714  1.4742  1.9571
 8358SOL    HW236537   2.372   3.867  11.159  2.8588  0.8334 -0.1931
 8359SOL     OW36538   3.941   0.429   6.026 -0.3557 -0.7976  0.0295
 8359SOL    HW136539   4.010   0.439   5.960  0.0914 -1.0737  0.4573
 8359SOL    HW236540   4.005   0.436   6.097  1.6591 -1.3905 -1.7056
 8360SOL     OW36541   3.564   4.282   9.308 -0.4263  0.5281 -0.0417
 8360SOL    HW136542   3.647   4.239   9.332  0.3031  1.9571 -0.0213
 8360SOL    HW236543   3.578   4.357   9.366  1.3969  1.5555 -1.7997
 8361SOL     OW36544   1.678   1.663   2.931 -0.0937 -0.3766 -0.0786
 8361SOL    HW136545   1.705   1.575   2.956  0.7072 -0.9199 -2.8835
 8361SOL    HW236546   1.744   1.715   2.977 -0.6516 -1.4065  1.9188
 8362SOL     OW36547   1.697   0.058   9.192  0.1477 -0.2074 -0.3891
 8362SOL    HW136548   1.651   4.708   9.146 -0.8349  0.3360 -0.2309
 8362SOL    HW236549   1.779   0.071   9.144 -0.6845  2.2973 -1.1763
 8363SOL     OW36550   4.092   3.189  10.575 -0.4852  0.0528  0.5491
 8363SOL    HW136551   4.122   3.155  10.490 -1.4693  3.1526 -1.0377
 8363SOL    HW236552   4.005   3.213  10.546  0.2524  0.1590 -1.5710
 8364SOL     OW36553   0.945   0.534   1.215 -0.6426  0.4125  0.5761
 8364SOL    HW136554   0.981   0.448   1.192  3.2470  1.9694  0.9144
 8364SOL    HW236555   0.982   0.543   1.303  0.1960 -0.4425  0.3149
 8365SOL     OW36556   2.481   2.910   4.084  0.1535 -0.3183 -0.1520
 8365SOL    HW136557   2.512   2.920   3.994 -0.5184  3.2180  0.0035
 8365SOL    HW236558   2.545   2.959   4.137  1.8973 -1.8293 -0.8479
 8366SOL     OW36559   4.324   3.657   5.551 -0.3349  0.3054  0.3287
 8366SOL    HW136560   4.409   3.689   5.521  0.0010  1.1144  2.1187
 8366SOL    HW236561   4.267   3.729   5.523 -1.5139 -1.6421 -2.2679
 8367SOL     OW36562   1.582   2.367   2.355  0.0884 -0.1070 -0.0292
 8367SOL    HW136563   1.610   2.438   2.412  1.8700 -0.8161 -0.0129
 8367SOL    HW236564   1.653   2.376   2.292  0.9368 -1.8344  0.6754
 8368SOL     OW36565   0.211   0.991   6.973 -0.5021  0.3406 -0.1388
 8368SOL    HW136566   0.212   0.909   6.922  0.5956 -0.4440  1.1297
 8368SOL    HW236567   0.117   0.997   6.988 -0.3525 -1.1490  1.3629
 8369SOL     OW36568   2.412   2.115   8.353 -0.2360  0.1887  0.2577
 8369SOL    HW136569   2.416   2.170   8.274 -1.7845  0.9109  0.6936
 8369SOL    HW236570   2.405   2.030   8.310 -1.7712  0.5437 -0.2035
 8370SOL     OW36571   1.119   4.073   7.767  0.3063 -0.5970 -0.1826
 8370SOL    HW136572   1.109   4.065   7.862  2.4061  0.9623  0.1724
 8370SOL    HW236573   1.068   4.153   7.755  2.2995  0.7048  0.1163
 8371SOL     OW36574   3.632   0.227  12.580  0.3921 -0.0016  0.4462
 8371SOL    HW136575   3.710   0.210  12.528 -1.6856 -1.2892 -2.2521
 8371SOL    HW236576   3.668   0.221  12.669  0.4114  0.8307  0.4894
 8372SOL     OW36577   1.557   3.517   4.589 -0.1299  0.1124  0.0756
 8372SOL    HW136578   1.589   3.549   4.505 -1.5588  0.5228 -0.3161
 8372SOL    HW236579   1.622   3.447   4.591 -0.5596 -0.2651  1.1285
 8373SOL     OW36580   2.145   1.734  13.608 -0.4593  0.3073 -0.3864
 8373SOL    HW136581   2.059   1.696  13.628 -0.1982 -0.7253 -1.2387
 8373SOL    HW236582   2.198   1.671  13.656  0.4323  1.6847  0.4202
 8374SOL     OW36583   1.768   3.085   7.871  0.4146 -0.3439  0.6075
 8374SOL    HW136584   1.815   3.163   7.840  3.9239 -2.5531  0.2911
 8374SOL    HW236585   1.763   3.109   7.963 -0.6033  0.6409  0.2947
 8375SOL     OW36586   0.472   2.691   1.042 -0.0911 -0.2324  0.4308
 8375SOL    HW136587   0.419   2.616   1.012 -1.9065  1.1467  0.1592
 8375SOL    HW236588   0.561   2.657   1.048  0.2776  1.1422  2.9333
 8376SOL     OW36589   0.674   1.121   2.585  0.2330  0.2147  0.2930
 8376SOL    HW136590   0.691   1.150   2.675  0.1653 -0.7724  0.6238
 8376SOL    HW236591   0.639   1.188   2.526  0.6219 -0.2147 -0.4180
 8377SOL     OW36592   2.579   3.703   2.012  0.0408  0.1327  0.3613
 8377SOL    HW136593   2.570   3.731   2.103  1.1255  1.0180  0.1967
 8377SOL    HW236594   2.653   3.757   1.983 -0.6433  1.4773  1.1363
 8378SOL     OW36595   0.972   0.032   7.941  0.5297 -0.1644 -0.5006
 8378SOL    HW136596   0.916   0.068   8.010  2.1853  1.4304  0.0128
 8378SOL    HW236597   0.927   0.065   7.863  2.1750 -0.0997 -1.4106
 8379SOL     OW36598   1.079   0.022   9.137  0.5269 -0.3456  0.2543
 8379SOL    HW136599   1.137   4.703   9.072 -1.1388 -0.6922 -1.0106
 8379SOL    HW236600   1.137   0.019   9.213  0.4315 -1.5100  0.2796
 8380SOL     OW36601   1.058   4.630   4.394  0.0762  0.1713 -0.3024
 8380SOL    HW136602   1.084   4.711   4.439 -0.2564  0.1604 -0.0859
 8380SOL    HW236603   1.135   4.573   4.397  1.0341  1.5258  0.7730
 8381SOL     OW36604   2.468   0.752   7.451 -0.1642 -0.5766 -0.3469
 8381SOL    HW136605   2.527   0.826   7.468 -0.2641 -0.4787 -0.4324
 8381SOL    HW236606   2.496   0.716   7.367 -0.1878  0.7399 -0.9250
 8382SOL     OW36607   1.113   1.056   2.521  0.0662  0.2756 -0.7878
 8382SOL    HW136608   1.184   1.108   2.485  2.0322 -0.5736  1.8258
 8382SOL    HW236609   1.046   1.105   2.474 -1.4272 -1.4035 -0.4276
 8383SOL     OW36610   3.719   4.629  17.528 -0.3076 -0.1831 -0.2910
 8383SOL    HW136611   3.626   4.629  17.505 -0.4946 -2.2765  0.4522
 8383SOL    HW236612   3.708   4.627  17.623 -1.4681  1.2185 -0.3878
 8384SOL     OW36613   0.768   0.546   1.808  0.2330  0.4903 -0.2594
 8384SOL    HW136614   0.727   0.607   1.870 -1.5976 -0.0628 -0.9450
 8384SOL    HW236615   0.694   0.489   1.790 -1.9156  2.0082  3.8569
 8385SOL     OW36616   3.013   2.768   4.775 -0.3663 -0.1304  0.1858
 8385SOL    HW136617   3.091   2.784   4.828 -1.6228  1.3205  1.6580
 8385SOL    HW236618   3.042   2.787   4.686  0.5223 -0.3241  0.4426
 8386SOL     OW36619   2.879   1.523  10.542 -0.0592  0.1531  0.1040
 8386SOL    HW136620   2.969   1.550  10.527 -0.1403  0.1158 -0.4358
 8386SOL    HW236621   2.901   1.460  10.611  0.6709 -0.6016 -0.8386
 8387SOL     OW36622   4.104   4.646   9.945 -0.6839 -0.4294  0.5493
 8387SOL    HW136623   4.105   4.674   9.854  0.0764  1.1581  1.0531
 8387SOL    HW236624   4.105   0.011   9.990  2.4598 -0.8603  1.2547
 8388SOL     OW36625   4.429   3.142   3.300 -0.3877 -0.1667 -0.2151
 8388SOL    HW136626   4.426   3.233   3.271  1.3361  0.0396  0.2315
 8388SOL    HW236627   4.367   3.137   3.372 -1.7693  0.6265 -1.3529
 8389SOL     OW36628   0.991   0.820   2.949 -0.2311  0.3949 -0.5308
 8389SOL    HW136629   1.082   0.834   2.922  0.1510 -0.1652  0.4518
 8389SOL    HW236630   0.997   0.766   3.028  0.1788  0.3846 -0.5666
 8390SOL     OW36631   3.095   4.441   8.531 -0.0740  0.2992 -0.3315
 8390SOL    HW136632   3.135   4.523   8.502 -0.4188  0.5094 -0.2188
 8390SOL    HW236633   3.118   4.432   8.624  0.7763 -0.2355 -0.5941
 8391SOL     OW36634   2.876   2.142   4.698 -0.0854  0.1370  0.2023
 8391SOL    HW136635   2.970   2.132   4.687 -0.1225  1.8604 -1.7966
 8391SOL    HW236636   2.865   2.136   4.793  0.4894  1.1668  0.3341
 8392SOL     OW36637   1.338   0.991   6.955 -0.0077 -0.1691 -0.1814
 8392SOL    HW136638   1.364   0.969   7.044 -0.0154 -1.1876 -0.4296
 8392SOL    HW236639   1.278   0.918   6.937 -0.4411  0.1773 -0.1581
 8393SOL     OW36640   1.790   4.152   6.783  0.1329  0.1929  0.4388
 8393SOL    HW136641   1.846   4.228   6.803 -1.6720  1.1139  2.0704
 8393SOL    HW236642   1.779   4.166   6.689 -0.4957 -1.7345  0.2339
 8394SOL     OW36643   3.780   4.191   8.061 -0.3784  0.4400 -0.6776
 8394SOL    HW136644   3.707   4.253   8.070 -3.2649 -3.1234  0.2470
 8394SOL    HW236645   3.770   4.163   7.970 -2.8940  0.3398 -0.3690
 8395SOL     OW36646   1.281   4.354   7.290 -0.1366 -0.3339 -0.0227
 8395SOL    HW136647   1.281   4.296   7.213  1.0799  0.7280 -0.8301
 8395SOL    HW236648   1.374   4.343   7.311 -0.3219 -0.8550  0.4965
 8396SOL     OW36649   0.105   4.413   5.677 -0.0892  0.0757  0.0945
 8396SOL    HW136650   0.030   4.396   5.619  0.6886  0.4775 -1.0192
 8396SOL    HW236651   0.104   4.327   5.720  1.6957  0.8055  1.5889
 8397SOL     OW36652   3.212   1.221   4.974 -0.3115 -0.2068 -0.2244
 8397SOL    HW136653   3.162   1.196   5.051 -1.5887  2.6818 -0.1052
 8397SOL    HW236654   3.138   1.247   4.919 -0.1409  0.2124 -0.2509
 8398SOL     OW36655   3.216   2.495   4.669 -0.0192  1.1094  0.1866
 8398SOL    HW136656   3.278   2.475   4.599  0.9901  1.4678  0.9812
 8398SOL    HW236657   3.275   2.550   4.720  0.0585  0.7011  0.5362
 8399SOL     OW36658   1.058   2.141   2.861 -0.2947 -0.1746  0.7073
 8399SOL    HW136659   1.047   2.052   2.826  0.5140  0.3909 -0.9900
 8399SOL    HW236660   1.026   2.133   2.951 -0.5910  2.0332  0.7905
 8400SOL     OW36661   2.322   3.698   5.203 -0.2821 -0.2328 -0.3249
 8400SOL    HW136662   2.306   3.778   5.154  1.4578  0.1206 -0.3207
 8400SOL    HW236663   2.245   3.708   5.259  1.1576 -0.1134  1.6260
 8401SOL     OW36664   2.391   0.512  11.787  0.7325  0.2397 -0.3776
 8401SOL    HW136665   2.340   0.443  11.829  1.5244  0.0032  0.1911
 8401SOL    HW236666   2.458   0.456  11.747  0.9605  1.9731 -2.3938
 8402SOL     OW36667   1.236   4.717   6.646 -0.5864  0.8307  0.2937
 8402SOL    HW136668   1.157   4.695   6.696  0.2012  0.3482  1.3306
 8402SOL    HW236669   1.291   0.026   6.719  0.0624  0.5293 -0.0828
 8403SOL     OW36670   4.706   2.535   3.311 -0.1820  0.1819  0.4168
 8403SOL    HW136671   4.647   2.544   3.236 -0.3859 -0.0368  0.5498
 8403SOL    HW236672   0.070   2.551   3.268  0.1046 -2.7533 -0.0826
 8404SOL     OW36673   2.915   0.579   4.642 -0.3888 -0.2814 -0.2090
 8404SOL    HW136674   2.952   0.554   4.557  1.0350  0.0477  0.3133
 8404SOL    HW236675   2.872   0.658   4.609 -0.3252 -0.3443 -0.4415
 8405SOL     OW36676   0.746   2.367   0.175 -0.2319  0.0105  0.0403
 8405SOL    HW136677   0.712   2.344   0.261 -0.1461  1.3611  0.4273
 8405SOL    HW236678   0.763   2.459   0.192 -2.2230  0.5625 -0.8475
 8406SOL     OW36679   0.794   2.223   2.328 -0.1355  0.5928 -0.0846
 8406SOL    HW136680   0.785   2.264   2.242  0.8043  0.6620 -0.1585
 8406SOL    HW236681   0.888   2.209   2.342 -0.2499 -0.8015 -0.6604
 8407SOL     OW36682   1.630   0.942   8.234  0.5810  0.3637  0.1014
 8407SOL    HW136683   1.665   0.867   8.186 -1.3615 -0.3734 -0.1294
 8407SOL    HW236684   1.605   0.902   8.317 -0.3199  0.9090  0.0934
 8408SOL     OW36685   3.725   0.921  16.684  0.1334 -0.0264  0.3760
 8408SOL    HW136686   3.788   0.914  16.612 -1.0712  1.6976 -0.8303
 8408SOL    HW236687   3.669   0.847  16.661 -1.0944  0.8908  0.4262
 8409SOL     OW36688   1.136   1.176   3.949 -0.1297 -0.2957  0.0077
 8409SOL    HW136689   1.200   1.247   3.946 -0.4416  0.1740  4.3248
 8409SOL    HW236690   1.075   1.198   3.879 -0.7749  0.1232  0.6954
 8410SOL     OW36691   0.466   3.492   0.036 -0.2864 -0.1619  0.5190
 8410SOL    HW136692   0.460   3.427   0.106  0.3553 -0.7384  0.0455
 8410SOL    HW236693   0.477   3.441  17.637 -0.6112 -0.5240  0.7047
 8411SOL     OW36694   4.565   3.101   0.587 -0.3305 -0.2111  0.8355
 8411SOL    HW136695   4.473   3.122   0.597 -0.7754 -2.4716  1.4407
 8411SOL    HW236696   4.599   3.118   0.675  3.9365 -0.0524 -0.8307
 8412SOL     OW36697   3.910   4.594  13.648 -0.3901  0.1426 -0.3551
 8412SOL    HW136698   3.886   4.510  13.685 -0.3084  0.5314  0.5640
 8412SOL    HW236699   3.887   4.581  13.556 -0.8043 -0.0115 -0.2268
 8413SOL     OW36700   3.272   4.506   0.288  0.1129  0.3901 -0.5299
 8413SOL    HW136701   3.345   4.567   0.289 -0.0377  0.5879 -2.4856
 8413SOL    HW236702   3.314   4.422   0.306 -0.0992  1.0501  3.0400
 8414SOL     OW36703   4.240   3.853  12.559  0.0904 -0.3234 -0.2856
 8414SOL    HW136704   4.303   3.781  12.562 -0.6970 -0.9641  0.8508
 8414SOL    HW236705   4.171   3.811  12.611  0.9123 -2.5211 -0.9817
 8415SOL     OW36706   4.151   2.901   2.261  0.6168  0.0283 -0.3886
 8415SOL    HW136707   4.214   2.868   2.324  0.5722  1.0942  0.2066
 8415SOL    HW236708   4.171   2.857   2.177 -0.7581  3.4275 -2.4853
 8416SOL     OW36709   1.157   3.460   7.893 -0.4069  0.1441  0.3913
 8416SOL    HW136710   1.153   3.410   7.811 -1.3773 -0.6679  0.9361
 8416SOL    HW236711   1.095   3.532   7.883 -2.0733 -1.2177  0.8264
 8417SOL     OW36712   4.211   1.356  13.522  0.0126  0.2331  0.0072
 8417SOL    HW136713   4.162   1.290  13.472  2.2733 -0.1632 -1.6705
 8417SOL    HW236714   4.170   1.342  13.608 -0.4066  0.0096 -0.2327
 8418SOL     OW36715   2.850   4.453  14.265 -0.0907  0.1396  0.2038
 8418SOL    HW136716   2.832   4.381  14.325 -2.7799 -1.2331 -2.2268
 8418SOL    HW236717   2.916   4.409  14.211  0.2869 -1.4538  1.9568
 8419SOL     OW36718   2.514   4.528  12.164 -0.3474 -0.1951  0.1271
 8419SOL    HW136719   2.438   4.489  12.120  0.1785 -2.3874  1.1419
 8419SOL    HW236720   2.587   4.469  12.145  0.3798  0.9266 -0.5029
 8420SOL     OW36721   3.149   2.726   2.062 -0.0761  0.2899 -0.4777
 8420SOL    HW136722   3.084   2.780   2.018  0.1094  0.0716 -1.0151
 8420SOL    HW236723   3.159   2.784   2.137  0.5053 -2.7104  1.7638
 8421SOL     OW36724   4.063   3.455   0.464 -0.1380  0.2297  0.8477
 8421SOL    HW136725   3.980   3.453   0.513 -0.5363  0.8853  0.2028
 8421SOL    HW236726   4.126   3.415   0.525 -0.6995  0.0523  1.3150
 8422SOL     OW36727   0.624   2.104   3.008  0.3221 -0.5995  0.4451
 8422SOL    HW136728   0.647   2.087   2.916 -0.6393  0.4086  0.0136
 8422SOL    HW236729   0.534   2.072   3.016  0.1284 -0.4184 -0.9915
 8423SOL     OW36730   3.424   3.155  14.199  0.3565  0.1210 -0.8845
 8423SOL    HW136731   3.445   3.182  14.289  1.4321  3.2179 -2.0806
 8423SOL    HW236732   3.408   3.062  14.215  0.6293  0.4190  1.2170
 8424SOL     OW36733   4.534   0.193   8.244 -0.3737 -0.2440 -0.1410
 8424SOL    HW136734   4.566   0.221   8.330  0.6418 -0.2376 -0.5218
 8424SOL    HW236735   4.487   0.274   8.223  2.1336  1.5681  1.3446
 8425SOL     OW36736   0.732   4.186   8.942 -0.5447 -0.0455  0.3730
 8425SOL    HW136737   0.758   4.095   8.958  0.9133 -0.3219 -3.6729
 8425SOL    HW236738   0.809   4.211   8.892 -1.1928 -0.1959 -0.6876
 8426SOL     OW36739   1.779   0.907   2.139 -0.2105  0.0328  0.0995
 8426SOL    HW136740   1.793   0.967   2.065 -0.3470 -0.9911 -0.7654
 8426SOL    HW236741   1.693   0.939   2.167 -0.4973 -0.3426 -0.3439
 8427SOL     OW36742   4.621   3.397  12.866  0.2793 -0.1164  0.2625
 8427SOL    HW136743   4.544   3.351  12.833 -0.1322 -1.4670  3.1436
 8427SOL    HW236744   4.575   3.473  12.903 -0.8479 -0.8254  0.2923
 8428SOL     OW36745   2.407   3.713   1.754 -0.5076  0.8131  0.2242
 8428SOL    HW136746   2.417   3.664   1.672 -2.7775  0.4156  0.1921
 8428SOL    HW236747   2.456   3.792   1.731 -0.2522  0.6832  0.3165
 8429SOL     OW36748   3.826   2.955   9.225  0.1609 -0.6865 -0.2540
 8429SOL    HW136749   3.781   2.986   9.304 -1.3238  0.0734 -1.4065
 8429SOL    HW236750   3.789   2.875   9.188  0.6732 -0.9836 -0.1285
 8430SOL     OW36751   1.308   1.526  13.973  0.3106 -0.5973  0.2943
 8430SOL    HW136752   1.380   1.469  13.948  1.0318 -0.2031  1.4598
 8430SOL    HW236753   1.350   1.583  14.039 -1.0249 -0.2208  0.8209
 8431SOL     OW36754   4.139   4.492   6.578  0.4991 -0.4292 -0.2235
 8431SOL    HW136755   4.178   4.405   6.571  1.5727  0.1991 -2.2051
 8431SOL    HW236756   4.092   4.475   6.659 -0.2133 -0.4520 -0.6402
 8432SOL     OW36757   0.518   4.016   8.064  0.4729  0.0110 -0.0599
 8432SOL    HW136758   0.549   4.049   8.148  0.5659  0.2763 -0.2017
 8432SOL    HW236759   0.429   3.983   8.080 -0.7152  3.2388 -0.0840
 8433SOL     OW36760   3.516   2.486   8.436  0.0594 -0.1739  0.3157
 8433SOL    HW136761   3.519   2.447   8.524 -0.6838 -1.5226 -0.2705
 8433SOL    HW236762   3.439   2.443   8.400  0.0957 -0.9478  1.1561
 8434SOL     OW36763   2.430   2.230   1.498 -0.1563  0.0614 -0.6069
 8434SOL    HW136764   2.389   2.305   1.541 -0.3279 -1.3873  1.7660
 8434SOL    HW236765   2.520   2.231   1.531 -0.1844 -1.5824 -0.4819
 8435SOL     OW36766   4.646   0.682  11.932 -0.1372  0.2145 -0.8943
 8435SOL    HW136767   0.015   0.644  11.932 -0.6013 -0.8703 -0.2769
 8435SOL    HW236768   4.620   0.675  11.840 -0.7198 -0.1619 -0.6960
 8436SOL     OW36769   2.886   4.265   6.927  0.2670 -0.7509  0.2841
 8436SOL    HW136770   2.841   4.203   6.985 -1.9976 -0.0704 -0.7661
 8436SOL    HW236771   2.946   4.305   6.989  0.1037  0.3305 -0.2553
 8437SOL     OW36772   2.473   2.659   2.192  0.1047  0.6201 -0.0064
 8437SOL    HW136773   2.436   2.603   2.260 -0.8808  0.6578 -0.5045
 8437SOL    HW236774   2.446   2.611   2.113  2.3557  0.5254 -0.7247
 8438SOL     OW36775   0.444   3.147  11.110  0.1875  0.1994  0.1767
 8438SOL    HW136776   0.400   3.219  11.066 -1.0104 -0.2320  0.6548
 8438SOL    HW236777   0.384   3.131  11.184 -0.4960 -1.1190 -0.6510
 8439SOL     OW36778   3.664   0.789  13.060 -0.0063 -0.3845 -0.5838
 8439SOL    HW136779   3.637   0.795  13.152  2.8729 -1.9169  0.3653
 8439SOL    HW236780   3.736   0.851  13.068 -0.9006  0.4033  1.4551
 8440SOL     OW36781   0.366   1.383  14.182 -0.0503  0.6415  0.4375
 8440SOL    HW136782   0.447   1.358  14.227 -0.2924  1.7528  1.5279
 8440SOL    HW236783   0.367   1.476  14.206 -4.5237  0.3313  1.7133
 8441SOL     OW36784   3.361   0.254   4.770 -0.1407 -0.3140 -0.4779
 8441SOL    HW136785   3.390   0.344   4.785 -1.8181 -0.0741  1.3730
 8441SOL    HW236786   3.272   0.270   4.740 -1.2502 -0.4048  2.7558
 8442SOL     OW36787   0.216   2.976   7.860  0.1701  0.0032  0.3609
 8442SOL    HW136788   0.217   2.994   7.954 -0.0421 -0.9074  0.5413
 8442SOL    HW236789   0.146   2.911   7.858  0.4895 -0.3532  0.7681
 8443SOL     OW36790   4.361   0.022   7.915  0.3553 -0.2931 -0.0013
 8443SOL    HW136791   4.360   4.663   7.862  0.1364 -0.1625 -0.1918
 8443SOL    HW236792   4.435   4.717   7.971 -0.0339  0.0883  0.6835
 8444SOL     OW36793   1.408   0.667  10.141 -0.0401 -0.2575 -0.3478
 8444SOL    HW136794   1.423   0.655  10.235 -0.6805  0.5879 -0.1308
 8444SOL    HW236795   1.318   0.636  10.138 -0.2609  0.4001 -0.6402
 8445SOL     OW36796   1.611   4.036  13.748  0.3902 -0.6974 -0.2603
 8445SOL    HW136797   1.534   4.021  13.692  0.5653 -0.9646 -0.4303
 8445SOL    HW236798   1.672   3.963  13.748  0.4865 -0.6265 -3.3710
 8446SOL     OW36799   2.241   0.781   3.066  0.0242  0.5267 -0.2223
 8446SOL    HW136800   2.248   0.734   2.983 -0.6182  2.9309 -1.6364
 8446SOL    HW236801   2.190   0.854   3.030 -0.4391 -0.0773 -0.8040
 8447SOL     OW36802   1.211   4.084   8.867  0.3545  0.4137  0.7150
 8447SOL    HW136803   1.219   4.053   8.777 -1.2435 -0.4852  0.8809
 8447SOL    HW236804   1.118   4.065   8.880 -0.2329  1.3279 -2.1322
 8448SOL     OW36805   1.675   2.726   7.433 -0.4727 -0.2688  0.5329
 8448SOL    HW136806   1.711   2.800   7.482 -1.1752  0.0820  0.5081
 8448SOL    HW236807   1.715   2.653   7.481  0.4582 -0.0958  0.0090
 8449SOL     OW36808   2.479   1.167   9.184  0.3485  0.2445  0.0620
 8449SOL    HW136809   2.548   1.109   9.151 -0.3873  1.9897 -4.5230
 8449SOL    HW236810   2.409   1.152   9.120 -0.8253  1.8601  0.9894
 8450SOL     OW36811   1.597   1.187   9.108  0.6252 -0.1225 -0.1558
 8450SOL    HW136812   1.504   1.194   9.129  1.2059  4.5053  0.6831
 8450SOL    HW236813   1.614   1.129   9.183  0.7766 -0.3276 -0.3463
 8451SOL     OW36814   2.985   1.573  11.161  0.5689 -0.0331 -0.3754
 8451SOL    HW136815   3.078   1.550  11.167  0.6209  1.1735  3.1992
 8451SOL    HW236816   2.951   1.501  11.108  0.0206  0.5051 -0.7582
 8452SOL     OW36817   3.750   1.275  16.528 -0.4508  0.5645 -0.3441
 8452SOL    HW136818   3.791   1.290  16.443 -0.0484  0.5582 -0.1488
 8452SOL    HW236819   3.694   1.206  16.492 -0.3059  0.8409 -1.1018
 8453SOL     OW36820   2.380   1.978   1.387  0.2059  0.1370  0.1127
 8453SOL    HW136821   2.390   2.072   1.377  0.2207  0.2275  0.9538
 8453SOL    HW236822   2.459   1.965   1.439 -0.8813 -0.5630  1.5968
 8454SOL     OW36823   0.496   2.875  11.146 -0.2141  0.0851 -0.2707
 8454SOL    HW136824   0.438   2.863  11.221 -0.2031 -1.5035 -0.5087
 8454SOL    HW236825   0.497   2.969  11.130  2.6981  0.3439  1.4928
 8455SOL     OW36826   0.550   3.922   1.148 -0.8025 -0.2052  0.6771
 8455SOL    HW136827   0.554   3.913   1.243 -0.0317 -2.8489  0.3745
 8455SOL    HW236828   0.467   3.970   1.139 -1.2226 -1.2392 -0.9368
 8456SOL     OW36829   0.721   3.778  12.538 -0.2448  0.2390 -0.4822
 8456SOL    HW136830   0.782   3.851  12.547 -0.0141  0.4600 -3.7516
 8456SOL    HW236831   0.781   3.709  12.510 -0.6487 -0.7637  1.1124
 8457SOL     OW36832   1.927   2.152   2.052  0.6662  0.1804  0.2767
 8457SOL    HW136833   1.972   2.122   1.973  0.8263 -0.9456  0.7841
 8457SOL    HW236834   1.949   2.077   2.108  3.3294 -0.2199 -1.2974
 8458SOL     OW36835   0.294   3.504   5.103 -0.4049 -0.5089 -0.3603
 8458SOL    HW136836   0.300   3.443   5.030  2.3405 -0.0468 -0.5380
 8458SOL    HW236837   0.347   3.575   5.066  0.0620 -0.7512 -0.1666
 8459SOL     OW36838   0.434   3.314   4.475  0.5164  0.4157 -0.0666
 8459SOL    HW136839   0.401   3.358   4.554  0.2770 -1.9879  1.1508
 8459SOL    HW236840   0.368   3.335   4.409 -0.8004 -1.8911  0.5533
 8460SOL     OW36841   2.209   3.342   2.430  0.6290 -0.3236  0.0674
 8460SOL    HW136842   2.253   3.421   2.459  0.8985  0.4880 -2.5101
 8460SOL    HW236843   2.116   3.365   2.427  1.2311  2.1058  0.1698
 8461SOL     OW36844   2.719   0.074   0.529  0.3593  0.1199  0.0196
 8461SOL    HW136845   2.714   0.009   0.459  0.3278  1.4633 -1.2063
 8461SOL    HW236846   2.728   0.025   0.611  1.5839  2.0974  1.0725
 8462SOL     OW36847   2.775   4.692   1.358  0.3334 -0.3215 -0.1851
 8462SOL    HW136848   2.717   4.650   1.295  0.1459  0.3710 -0.4804
 8462SOL    HW236849   2.807   0.038   1.296  2.4561 -0.3460  0.9008
 8463SOL     OW36850   2.253   2.080   3.712  0.0733 -0.0498 -0.4173
 8463SOL    HW136851   2.243   1.989   3.682  1.1783  0.3032 -1.8793
 8463SOL    HW236852   2.249   2.075   3.807 -1.8274  0.9380 -0.4507
 8464SOL     OW36853   0.817   0.457   6.765 -0.1914 -0.0588  0.1095
 8464SOL    HW136854   0.910   0.450   6.744  0.0329  0.0989  1.0814
 8464SOL    HW236855   0.817   0.542   6.809  0.2868  1.3052 -2.4662
 8465SOL     OW36856   0.920   4.358   0.278 -0.3982  0.3696  0.5636
 8465SOL    HW136857   1.005   4.315   0.285 -0.0962  0.6801 -1.1410
 8465SOL    HW236858   0.927   4.429   0.342  1.5421 -0.3770  1.1798
 8466SOL     OW36859   2.180   1.858  12.263 -0.1989 -0.0432 -0.1856
 8466SOL    HW136860   2.230   1.785  12.299  0.3011  0.3114 -0.1711
 8466SOL    HW236861   2.146   1.817  12.183 -1.2931 -2.6374  1.5886
 8467SOL     OW36862   2.543   0.950  16.461 -0.9234  0.1850  0.7533
 8467SOL    HW136863   2.612   0.904  16.412 -1.4530 -1.0450  1.1745
 8467SOL    HW236864   2.524   1.018  16.396  3.4181 -0.7655 -1.5363
 8468SOL     OW36865   3.626   0.572  15.436  0.0258  0.1527  0.1274
 8468SOL    HW136866   3.682   0.556  15.360  1.0175  0.4946  0.7854
 8468SOL    HW236867   3.586   0.488  15.457 -0.7086 -0.0718 -2.1851
 8469SOL     OW36868   4.066   3.059   1.453 -0.1301 -0.1561 -0.0774
 8469SOL    HW136869   4.114   3.074   1.535  0.0515 -0.3846 -0.1445
 8469SOL    HW236870   4.117   3.007   1.391  0.7044 -1.3566  1.6198
 8470SOL     OW36871   0.465   0.953   6.149  0.3505 -0.0933  0.3674
 8470SOL    HW136872   0.534   0.896   6.116 -1.3103 -0.1233 -3.0797
 8470SOL    HW236873   0.505   0.985   6.230 -0.1459 -1.9267  1.3136
 8471SOL     OW36874   2.444   2.765  12.364  0.0970 -0.4241  0.0048
 8471SOL    HW136875   2.384   2.839  12.353  0.1421  0.1120  3.5635
 8471SOL    HW236876   2.404   2.708  12.429 -2.7466  0.0160 -1.3610
 8472SOL     OW36877   1.145   0.335   6.096  0.0144 -0.6419  0.2530
 8472SOL    HW136878   1.236   0.311   6.112  0.6899  1.2157 -0.7897
 8472SOL    HW236879   1.157   0.378   6.011  0.1766  0.7463  0.9900
 8473SOL     OW36880   1.302   0.369   9.588 -0.3374 -0.0125  0.4790
 8473SOL    HW136881   1.218   0.349   9.628 -0.0226  0.4096  1.3729
 8473SOL    HW236882   1.334   0.450   9.628  1.9060 -1.5734  1.8498
 8474SOL     OW36883   0.356   3.491   2.447 -0.5815 -0.1958 -0.1505
 8474SOL    HW136884   0.296   3.521   2.516  1.1112  0.2179  1.1332
 8474SOL    HW236885   0.321   3.404   2.426  0.3013 -0.0019 -2.3322
 8475SOL     OW36886   0.629   1.998  15.324 -0.3251  0.3338 -0.8617
 8475SOL    HW136887   0.559   2.009  15.260 -2.6166 -3.1080  1.0660
 8475SOL    HW236888   0.672   1.916  15.300  0.6959  0.6374 -0.0819
 8476SOL     OW36889   3.675   1.384  10.768  0.4591 -0.6548  0.3450
 8476SOL    HW136890   3.674   1.468  10.815  1.5039 -0.7857  0.6166
 8476SOL    HW236891   3.584   1.369  10.742  0.5956 -1.5400  0.3986
 8477SOL     OW36892   2.743   2.554   5.609  0.5351  0.5008 -0.0339
 8477SOL    HW136893   2.674   2.495   5.581  1.7719 -0.3913 -1.1772
 8477SOL    HW236894   2.695   2.637   5.612 -0.5712 -0.1700  1.0789
 8478SOL     OW36895   3.441   1.609   4.506 -0.1453 -0.5698 -0.8315
 8478SOL    HW136896   3.468   1.529   4.551 -0.0150 -0.1650 -0.2000
 8478SOL    HW236897   3.477   1.588   4.419 -1.2622  2.4902 -1.9978
 8479SOL     OW36898   3.642   0.313   9.477  0.3419  0.4983 -0.0127
 8479SOL    HW136899   3.681   0.331   9.391  2.7560 -0.7829  0.8023
 8479SOL    HW236900   3.553   0.283   9.457  0.0110 -0.2431  2.5804
 8480SOL     OW36901   3.683   4.166   3.209 -0.3857  0.0449 -0.6283
 8480SOL    HW136902   3.625   4.091   3.200 -0.7849  0.6055 -2.7893
 8480SOL    HW236903   3.653   4.196   3.295 -2.9918 -5.1630  0.2802
 8481SOL     OW36904   0.647   0.553   8.031 -0.1228  0.0238 -0.6566
 8481SOL    HW136905   0.648   0.543   7.936 -1.1502 -0.2230 -0.6374
 8481SOL    HW236906   0.602   0.637   8.036  0.8691  0.5953 -1.2288
 8482SOL     OW36907   2.047   1.206   1.188  0.4742  0.3717 -0.2877
 8482SOL    HW136908   1.979   1.146   1.218  0.3221  1.0838  0.8141
 8482SOL    HW236909   2.039   1.276   1.253  0.2230 -0.8125  0.9643
 8483SOL     OW36910   0.531   0.100   2.540  0.0926  0.2336  0.2390
 8483SOL    HW136911   0.515   0.046   2.462 -1.0634  0.3831  0.3746
 8483SOL    HW236912   0.625   0.081   2.545 -0.7322 -3.9928 -0.1054
 8484SOL     OW36913   2.045   0.961   9.316 -0.2645 -0.5821  0.2028
 8484SOL    HW136914   2.137   0.981   9.334 -0.1320 -0.9034 -0.1141
 8484SOL    HW236915   2.047   0.966   9.221  1.4832  5.2401  0.5577
 8485SOL     OW36916   4.462   1.128   3.106  0.4676  0.2419 -0.3901
 8485SOL    HW136917   4.367   1.128   3.093  0.3428  1.4961  0.5244
 8485SOL    HW236918   4.479   1.045   3.151 -0.1240 -0.4242 -1.3971
 8486SOL     OW36919   1.945   3.126   6.707 -0.3450  0.2721 -0.2055
 8486SOL    HW136920   1.990   3.060   6.655 -0.2909 -0.2283  0.4791
 8486SOL    HW236921   1.890   3.069   6.761 -2.4906  0.2397 -2.3933
 8487SOL     OW36922   0.954   0.884   7.977  0.0840 -0.0361 -0.3822
 8487SOL    HW136923   1.042   0.851   7.992 -1.3147 -1.6965  4.1055
 8487SOL    HW236924   0.911   0.802   8.003 -1.2316  0.6720 -0.2899
 8488SOL     OW36925   2.730   4.098   8.018  0.2471  0.3107  0.5913
 8488SOL    HW136926   2.748   4.093   7.924  0.8909 -0.6109  0.7619
 8488SOL    HW236927   2.800   4.042   8.052  0.6076  1.8519  2.4028
 8489SOL     OW36928   2.909   4.372  10.254 -0.4233 -0.6383  0.0901
 8489SOL    HW136929   2.909   4.304  10.321 -0.8773 -1.1388 -0.4104
 8489SOL    HW236930   2.946   4.321  10.182 -1.4392  1.4908 -1.9375
 8490SOL     OW36931   3.035   1.382   7.606  0.5599 -0.5621 -0.3603
 8490SOL    HW136932   3.083   1.461   7.579  2.1617 -2.5518 -3.2955
 8490SOL    HW236933   3.016   1.352   7.517 -0.3343 -1.8906  0.2761
 8491SOL     OW36934   0.035   4.180   8.852 -0.6638  0.4304  0.8818
 8491SOL    HW136935   0.078   4.256   8.813 -1.2551 -0.3699 -1.3869
 8491SOL    HW236936   0.108   4.119   8.864 -0.7874  0.4614  1.7532
 8492SOL     OW36937   4.024   3.570   5.000 -0.4323  0.1361  0.2386
 8492SOL    HW136938   4.021   3.503   4.932 -1.3556  0.1722  0.2513
 8492SOL    HW236939   3.951   3.558   5.060  0.2636 -1.5389  0.7772
 8493SOL     OW36940   3.833   1.124   5.600  0.2747 -0.0612  0.0530
 8493SOL    HW136941   3.926   1.117   5.621  0.1459 -1.3874  0.1871
 8493SOL    HW236942   3.849   1.186   5.529 -3.6549 -0.0528 -0.7832
 8494SOL     OW36943   2.002   0.875   9.582 -0.0814  0.3485  0.1596
 8494SOL    HW136944   2.008   0.901   9.490  0.4865 -0.5312 -0.0602
 8494SOL    HW236945   1.911   0.899   9.595  0.2389  2.1437 -0.9031
 8495SOL     OW36946   3.626   4.042  12.717 -0.2788  0.6852  0.5068
 8495SOL    HW136947   3.564   4.107  12.685 -0.0529  0.0623 -1.1715
 8495SOL    HW236948   3.584   3.991  12.786 -3.1629  2.4317  0.0352
 8496SOL     OW36949   3.935   0.762  13.725 -0.1725 -0.2248 -0.3130
 8496SOL    HW136950   4.004   0.786  13.787 -0.7278  0.3421  0.0879
 8496SOL    HW236951   3.945   0.667  13.725 -0.9076 -0.3047  0.0896
 8497SOL     OW36952   4.250   1.081   4.558 -0.3336 -0.1477 -0.7912
 8497SOL    HW136953   4.172   1.131   4.534  0.0001  0.7280 -0.0482
 8497SOL    HW236954   4.242   1.010   4.495 -1.5505 -0.4791 -0.2621
 8498SOL     OW36955   0.663   1.585   1.205  0.1980  0.1063 -0.0645
 8498SOL    HW136956   0.661   1.603   1.299 -0.5854 -0.7416  0.0747
 8498SOL    HW236957   0.586   1.632   1.174 -0.6591  0.0278  1.9529
 8499SOL     OW36958   4.351   1.812   7.955  0.1582  0.5177 -0.5251
 8499SOL    HW136959   4.375   1.722   7.977  0.7142  1.3181  2.1942
 8499SOL    HW236960   4.387   1.858   8.030 -2.0453  1.9200 -0.3103
 8500SOL     OW36961   1.474   4.038  11.516 -0.1772  0.3046 -0.3216
 8500SOL    HW136962   1.514   3.950  11.517  2.0094  1.3210  0.9350
 8500SOL    HW236963   1.382   4.014  11.515 -0.6036  1.9158  2.1989
 8501SOL     OW36964   1.842   1.631   9.878 -0.0268  0.4569 -0.0212
 8501SOL    HW136965   1.907   1.609   9.944  0.3086 -0.1878 -0.5716
 8501SOL    HW236966   1.899   1.620   9.802 -0.0613  0.4292 -0.0433
 8502SOL     OW36967   0.547   2.853   5.970 -0.3965 -0.1227 -0.0711
 8502SOL    HW136968   0.600   2.901   5.906 -0.1333  1.7481  1.5589
 8502SOL    HW236969   0.543   2.767   5.929  0.1010  0.4306 -1.2751
 8503SOL     OW36970   4.122   4.367  11.890  0.4170  0.2482  0.0290
 8503SOL    HW136971   4.209   4.406  11.893  1.0345 -1.0568 -1.0726
 8503SOL    HW236972   4.154   4.285  11.853  2.0496 -0.0059  2.0195
 8504SOL     OW36973   1.110   4.302   3.016  0.2265  0.5237 -0.0179
 8504SOL    HW136974   1.180   4.244   3.047 -0.1350 -0.0054 -0.1723
 8504SOL    HW236975   1.142   4.386   3.048 -0.2796  1.0571 -0.9064
 8505SOL     OW36976   0.048   1.658   0.647 -0.9521  0.2987 -0.5246
 8505SOL    HW136977   0.057   1.689   0.737  1.8222 -1.7596 -0.1067
 8505SOL    HW236978   0.070   1.742   0.606 -0.2015  2.0681  3.5364
 8506SOL     OW36979   0.390   1.226   7.922 -0.2709 -0.2364  0.5870
 8506SOL    HW136980   0.467   1.280   7.942 -0.7420  1.6208 -2.6299
 8506SOL    HW236981   0.324   1.295   7.913  0.5491  0.5814  0.7714
 8507SOL     OW36982   2.105   1.471  10.923  0.1939  0.6349 -0.2928
 8507SOL    HW136983   2.181   1.413  10.930  0.7906  1.0563 -3.1346
 8507SOL    HW236984   2.118   1.515  10.839 -2.5205  4.4017  1.2835
 8508SOL     OW36985   1.476   1.674  11.575  0.1948 -0.2106  0.0700
 8508SOL    HW136986   1.415   1.694  11.503 -0.5085  0.6030  0.8842
 8508SOL    HW236987   1.543   1.627  11.526  2.2730  0.9520  1.8176
 8509SOL     OW36988   1.957   0.147   1.703  0.3438  0.1848  0.2275
 8509SOL    HW136989   1.941   0.140   1.797 -2.4498  0.4515 -0.2117
 8509SOL    HW236990   1.901   0.223   1.688  0.2342  0.0827  0.1124
 8510SOL     OW36991   1.867   1.784   3.172  0.2705  0.0231  0.4712
 8510SOL    HW136992   1.942   1.792   3.112  0.3224 -0.6478  0.4525
 8510SOL    HW236993   1.867   1.862   3.227 -1.8912  0.4741 -0.1614
 8511SOL     OW36994   2.464   2.613  13.791 -0.4734  0.0109 -0.1877
 8511SOL    HW136995   2.396   2.593  13.727 -1.1855  0.6267  0.3707
 8511SOL    HW236996   2.428   2.561  13.863  0.9149  0.8095  1.0766
 8512SOL     OW36997   3.113   1.582   3.869 -0.1641 -0.7596  0.2552
 8512SOL    HW136998   3.090   1.674   3.883  0.4938 -0.2590 -1.8262
 8512SOL    HW236999   3.203   1.589   3.899 -0.9401  1.0419  2.1877
 8513SOL     OW37000   1.406   2.871   3.396 -0.1178  0.2933  0.5885
 8513SOL    HW137001   1.363   2.955   3.380  2.5461  1.4804 -0.3312
 8513SOL    HW237002   1.485   2.889   3.345 -0.4268 -3.6739 -1.3049
 8514SOL     OW37003   3.440   2.335  10.976  0.2957 -0.0562  0.4134
 8514SOL    HW137004   3.426   2.430  10.977 -2.2313 -0.4299  2.1413
 8514SOL    HW237005   3.489   2.327  11.058  1.7759  0.3657 -0.4452
 8515SOL     OW37006   2.479   4.477   9.138 -0.0526 -0.0276 -0.5686
 8515SOL    HW137007   2.526   4.466   9.055  0.6794  0.0862 -0.1668
 8515SOL    HW237008   2.533   4.551   9.166  1.5784 -0.8678 -1.4770
 8516SOL     OW37009   3.947   4.100   3.441 -0.0011 -0.0218  0.2381
 8516SOL    HW137010   3.998   4.177   3.464 -2.0396  1.8262 -1.4378
 8516SOL    HW237011   3.855   4.125   3.441  0.3519  1.2621 -0.0970
 8517SOL     OW37012   1.662   0.372   2.772  0.1952 -0.2162  0.7466
 8517SOL    HW137013   1.601   0.422   2.717 -0.9551 -1.1039  1.2100
 8517SOL    HW237014   1.639   0.288   2.733 -2.1212  0.0448  1.5220
 8518SOL     OW37015   2.656   0.464   5.466  0.0403 -0.2841 -0.0033
 8518SOL    HW137016   2.652   0.556   5.442 -1.1394 -0.4429 -0.3960
 8518SOL    HW237017   2.686   0.434   5.380  0.7840 -1.9832  0.8565
 8519SOL     OW37018   0.032   0.958   8.784  0.0439 -0.3346 -0.2832
 8519SOL    HW137019   4.656   0.956   8.777  0.0350 -0.6381 -0.0931
 8519SOL    HW237020   0.043   1.026   8.850 -1.0702 -0.9503  0.5381
 8520SOL     OW37021   1.892   0.820   5.878 -0.4895 -0.4422  0.0503
 8520SOL    HW137022   1.829   0.749   5.865  0.9968 -1.7865  0.2522
 8520SOL    HW237023   1.968   0.766   5.861 -1.1148 -0.8266 -1.4728
 8521SOL     OW37024   0.784   3.069  16.996  0.4327 -0.5305  0.3365
 8521SOL    HW137025   0.863   3.038  16.952  1.4246  1.3532  0.7891
 8521SOL    HW237026   0.818   3.066  17.086 -0.1986  0.2081  0.5967
 8522SOL     OW37027   0.400   3.883  17.545  0.2453  0.0931 -0.4565
 8522SOL    HW137028   0.359   3.966  17.522 -0.4467 -0.5681 -1.6197
 8522SOL    HW237029   0.441   3.922  17.622  0.0910  2.2848 -1.4803
 8523SOL     OW37030   3.090   1.490  14.751 -0.6060  0.4245  0.2980
 8523SOL    HW137031   3.087   1.445  14.666 -0.5317  0.6291  0.1886
 8523SOL    HW237032   2.999   1.518  14.756 -0.4477  1.1329 -0.7457
 8524SOL     OW37033   1.826   4.279   3.531  0.4957  0.0452 -0.4532
 8524SOL    HW137034   1.745   4.321   3.502  0.5030  0.6134  0.3298
 8524SOL    HW237035   1.796   4.194   3.563 -0.8434  0.7041  0.0371
 8525SOL     OW37036   0.570   0.229   7.123  0.0862 -0.6925 -0.1380
 8525SOL    HW137037   0.636   0.217   7.055  1.4514 -1.0744  1.2545
 8525SOL    HW237038   0.618   0.272   7.194 -0.2869 -0.9762  0.2847
 8526SOL     OW37039   3.174   1.814   8.140 -0.2379  0.2031 -0.3786
 8526SOL    HW137040   3.267   1.813   8.120 -0.4082  1.6061 -1.2090
 8526SOL    HW237041   3.170   1.867   8.220  0.4063 -0.5813  0.1718
 8527SOL     OW37042   0.856   0.774   8.293  0.0437  0.4342  0.3811
 8527SOL    HW137043   0.872   0.747   8.384  0.2276  0.4261  0.3469
 8527SOL    HW237044   0.826   0.865   8.298 -0.5748  0.2636 -0.3556
 8528SOL     OW37045   3.181   4.170  13.339 -0.2441 -0.1314 -0.2926
 8528SOL    HW137046   3.129   4.097  13.372  0.8538 -0.5923  0.4271
 8528SOL    HW237047   3.110   4.211  13.290 -1.3171 -0.4895  0.9681
 8529SOL     OW37048   1.707   1.960   6.638  0.2919 -0.1473 -0.2502
 8529SOL    HW137049   1.752   1.948   6.722  4.3557  0.0782 -2.3944
 8529SOL    HW237050   1.714   2.054   6.626  0.1752 -0.1572 -0.4000
 8530SOL     OW37051   1.003   2.026  15.305  0.2606 -0.0548  0.4641
 8530SOL    HW137052   0.948   2.028  15.383  1.5698  1.1564  1.3590
 8530SOL    HW237053   1.072   1.972  15.344  0.5279 -0.0891 -0.0658
 8531SOL     OW37054   0.519   0.187  13.372  0.1780 -0.2130 -0.0921
 8531SOL    HW137055   0.593   0.221  13.321  0.6900  0.9097  1.3832
 8531SOL    HW237056   0.472   0.265  13.403  2.3878  0.8656  0.5742
 8532SOL     OW37057   1.651   3.641   8.201 -0.3143  0.2503 -0.3883
 8532SOL    HW137058   1.695   3.719   8.167  1.4497 -0.9274 -0.7993
 8532SOL    HW237059   1.610   3.679   8.279  0.9889  0.0063  0.4188
 8533SOL     OW37060   3.688   4.161   7.779  0.4875 -0.3152  0.8839
 8533SOL    HW137061   3.622   4.094   7.797  0.2046 -0.7518 -1.6496
 8533SOL    HW237062   3.635   4.239   7.760 -0.5878 -1.1204  0.5692
 8534SOL     OW37063   0.516   1.748   5.616 -0.3135  0.0455  0.5266
 8534SOL    HW137064   0.608   1.733   5.638  0.2835 -0.0930 -2.0528
 8534SOL    HW237065   0.472   1.717   5.695 -2.4245 -0.4581 -0.8401
 8535SOL     OW37066   0.716   0.343   7.366  0.3844 -0.4815 -0.1968
 8535SOL    HW137067   0.808   0.365   7.348  0.7873  0.3841  2.8830
 8535SOL    HW237068   0.689   0.433   7.386 -1.9719 -0.8751 -1.6212
 8536SOL     OW37069   0.370   1.488   2.760  0.2089  0.0909 -0.4503
 8536SOL    HW137070   0.295   1.464   2.814  0.6501 -2.6952 -1.0928
 8536SOL    HW237071   0.362   1.583   2.771 -1.2169 -0.2435  1.3352
 8537SOL     OW37072   1.715   0.879  14.868  0.6522 -0.6063  0.2641
 8537SOL    HW137073   1.775   0.804  14.867 -0.8239 -1.7628 -1.6429
 8537SOL    HW237074   1.761   0.920  14.941 -0.5226 -1.8764  1.7149
 8538SOL     OW37075   3.083   0.439   5.224  0.0156  0.1762  0.3412
 8538SOL    HW137076   3.048   0.498   5.290 -1.7046 -1.3022  0.7358
 8538SOL    HW237077   3.177   0.457   5.224  0.0285  0.0964 -0.3077
 8539SOL     OW37078   2.844   0.588   6.215  0.1912 -0.1250 -0.3016
 8539SOL    HW137079   2.825   0.495   6.207 -0.5872 -0.1303  1.6058
 8539SOL    HW237080   2.771   0.626   6.166 -1.1445  0.6698  2.3231
 8540SOL     OW37081   1.670   2.713   5.409 -0.2748 -0.2296  0.1984
 8540SOL    HW137082   1.766   2.712   5.412 -0.1797 -0.8594 -3.6963
 8540SOL    HW237083   1.662   2.787   5.470  0.4336  1.1662 -1.3860
 8541SOL     OW37084   2.770   2.753   9.704  0.2104  0.2653  0.0470
 8541SOL    HW137085   2.739   2.667   9.732 -0.7456  0.2900 -0.9271
 8541SOL    HW237086   2.716   2.821   9.744 -0.0112  1.4452 -2.2237
 8542SOL     OW37087   3.172   1.596   7.505  0.4066  0.1713  0.2268
 8542SOL    HW137088   3.161   1.685   7.538 -1.9614 -0.8933  2.3361
 8542SOL    HW237089   3.265   1.587   7.526  0.1983 -0.4743  0.8540
 8543SOL     OW37090   4.170   2.924   4.268 -0.5626 -0.3526  0.0351
 8543SOL    HW137091   4.216   2.869   4.332  0.1774  0.6039  0.3260
 8543SOL    HW237092   4.234   2.976   4.219 -0.4431  0.2774  0.8558
 8544SOL     OW37093   1.099   0.028   1.666 -0.3856  0.4161 -0.6279
 8544SOL    HW137094   1.190   0.009   1.642 -1.3405 -1.1188 -3.0044
 8544SOL    HW237095   1.103   0.116   1.628  1.6697  1.2375  1.4209
 8545SOL     OW37096   1.742   4.344   5.320  0.0207 -0.5099  0.5592
 8545SOL    HW137097   1.784   4.393   5.390 -0.6358  0.1326  0.5051
 8545SOL    HW237098   1.719   4.405   5.250  3.1680 -0.8076 -0.7463
 8546SOL     OW37099   3.343   3.456  11.363 -0.0020  0.1978  0.0570
 8546SOL    HW137100   3.293   3.537  11.354 -1.4349 -0.4932  1.8006
 8546SOL    HW237101   3.275   3.389  11.360 -0.0283  0.1858  0.8255
 8547SOL     OW37102   2.215   4.488   1.290 -0.4253 -0.1451  0.6997
 8547SOL    HW137103   2.121   4.497   1.276 -0.2145 -0.1537 -0.7479
 8547SOL    HW237104   2.219   4.430   1.366  0.1647 -1.7676 -0.5886
 8548SOL     OW37105   4.042   0.871   3.527  0.0999 -0.3897  0.7251
 8548SOL    HW137106   4.011   0.961   3.512  0.2015 -0.3851  0.5377
 8548SOL    HW237107   3.982   0.834   3.463  2.1137 -1.7736 -0.3690
 8549SOL     OW37108   0.870   4.492  11.626 -0.4449  0.1005 -0.4054
 8549SOL    HW137109   0.779   4.517  11.614 -1.0966 -1.3327  1.6620
 8549SOL    HW237110   0.901   4.557  11.563 -1.1905  1.0629  0.2242
 8550SOL     OW37111   4.469   0.708   8.735  0.7196  0.0639  0.4126
 8550SOL    HW137112   4.467   0.803   8.743  0.0117 -0.1484  2.8304
 8550SOL    HW237113   4.475   0.675   8.825  1.8012 -2.2569 -0.5139
 8551SOL     OW37114   0.469   2.121   6.754  0.3239  0.0372 -0.0407
 8551SOL    HW137115   0.462   2.179   6.679  0.7893 -1.2154 -1.0515
 8551SOL    HW237116   0.392   2.145   6.805  0.5611  0.2742  0.2055
 8552SOL     OW37117   1.288   1.958  12.599  0.0650 -0.5437  0.3726
 8552SOL    HW137118   1.219   1.995  12.655 -1.1730 -1.5218 -0.5035
 8552SOL    HW237119   1.237   1.952  12.519 -0.6740 -2.0192  0.9460
 8553SOL     OW37120   3.884   0.203   5.882  0.5298 -0.6287  0.6432
 8553SOL    HW137121   3.965   0.188   5.834 -0.4364 -1.1022 -0.8436
 8553SOL    HW237122   3.906   0.274   5.942  0.9741 -0.0908 -0.1577
 8554SOL     OW37123   0.641   0.512   4.826  0.0261  0.1055 -0.2200
 8554SOL    HW137124   0.734   0.489   4.827  0.0256  0.1698  1.2948
 8554SOL    HW237125   0.620   0.480   4.738  2.5822  0.1054 -0.8420
 8555SOL     OW37126   4.648   3.310   1.770 -0.2030 -0.4096  0.2259
 8555SOL    HW137127   4.592   3.382   1.742  0.6039  0.0515 -0.1705
 8555SOL    HW237128   4.715   3.355   1.822  1.1816 -0.5283 -1.4657
 8556SOL     OW37129   1.754   3.771   6.361  0.5752  0.2386 -0.1446
 8556SOL    HW137130   1.809   3.769   6.283  2.2218 -1.9782  1.0699
 8556SOL    HW237131   1.687   3.829   6.327 -2.1674 -2.0145  1.4246
 8557SOL     OW37132   2.878   0.993   4.841 -0.1713 -0.4623 -0.1082
 8557SOL    HW137133   2.968   0.968   4.861 -0.5316 -2.0789 -0.4958
 8557SOL    HW237134   2.878   1.088   4.838 -0.5514 -0.4035  1.6823
 8558SOL     OW37135   4.132   4.671  13.183  0.2484  0.0254  0.2244
 8558SOL    HW137136   4.163   0.007  13.254 -0.3004  0.2084  0.3168
 8558SOL    HW237137   4.193   4.597  13.180  0.5375  0.2507  0.5064
 8559SOL     OW37138   2.895   1.383   6.310 -0.0349  0.2703  0.2280
 8559SOL    HW137139   2.934   1.319   6.370 -1.6923 -1.9294 -1.0562
 8559SOL    HW237140   2.963   1.366   6.245 -1.0920 -1.0351 -0.5409
 8560SOL     OW37141   2.768   4.100   4.963 -0.3180  0.8109 -0.2749
 8560SOL    HW137142   2.781   4.139   4.876  1.3313  2.9778  0.9495
 8560SOL    HW237143   2.703   4.031   4.953 -1.5550  1.5749  2.5201
 8561SOL     OW37144   2.975   0.597   8.959 -0.4329 -0.1492  0.8075
 8561SOL    HW137145   2.961   0.675   9.012  3.8364  0.5824  0.8793
 8561SOL    HW237146   2.970   0.625   8.868 -0.8703 -2.4459  0.1087
 8562SOL     OW37147   0.905   3.606   8.215 -0.4710  0.7782  0.2036
 8562SOL    HW137148   0.902   3.528   8.271 -1.3341  1.7640  1.5304
 8562SOL    HW237149   0.810   3.620   8.219 -0.6378 -0.2301 -0.1174
 8563SOL     OW37150   1.163   0.768   2.525  0.1570 -0.1974  0.3505
 8563SOL    HW137151   1.100   0.840   2.514 -0.5961 -0.5464  2.3582
 8563SOL    HW237152   1.092   0.704   2.526 -0.4608  0.4605 -1.4311
 8564SOL     OW37153   1.724   4.118   5.636  0.0738 -0.0037 -0.0751
 8564SOL    HW137154   1.683   4.034   5.657 -0.3514  0.0495 -0.6606
 8564SOL    HW237155   1.716   4.124   5.540  2.3232 -1.4100 -0.3444
 8565SOL     OW37156   1.616   2.025   3.208 -0.0522 -0.1568  0.0078
 8565SOL    HW137157   1.551   2.065   3.266 -1.1846 -4.0780  1.4482
 8565SOL    HW237158   1.685   2.008   3.273  1.3048 -1.0872 -1.6814
 8566SOL     OW37159   3.842   1.906   5.257 -0.0952 -0.0179 -0.5501
 8566SOL    HW137160   3.908   1.916   5.189  2.1850  0.8780  1.7938
 8566SOL    HW237161   3.894   1.907   5.338  0.4265 -0.2371 -0.8839
 8567SOL     OW37162   3.749   2.236   8.887  0.2302  0.1458  0.5463
 8567SOL    HW137163   3.695   2.157   8.888  1.0245 -0.4242 -0.4098
 8567SOL    HW237164   3.829   2.196   8.922  0.6239  0.6356  0.2139
 8568SOL     OW37165   3.531   0.983   7.420  0.6644  0.0586 -0.0013
 8568SOL    HW137166   3.444   0.951   7.398  0.2964  0.0706  1.4321
 8568SOL    HW237167   3.572   0.897   7.428 -0.3170 -0.3753  0.3067
 8569SOL     OW37168   4.403   3.311   4.920  0.3469 -0.8361 -0.1933
 8569SOL    HW137169   4.355   3.389   4.891  1.0619 -1.0645 -2.0052
 8569SOL    HW237170   4.493   3.341   4.906  0.1301 -0.1994 -0.2365
 8570SOL     OW37171   4.470   0.369   8.793 -0.1682  0.5987 -0.0440
 8570SOL    HW137172   4.553   0.408   8.819 -1.8567  1.6438  3.6588
 8570SOL    HW237173   4.429   0.382   8.878 -0.5508  1.1846 -0.3143
 8571SOL     OW37174   2.969   3.865   4.790 -0.1581  0.1500 -0.6218
 8571SOL    HW137175   3.027   3.790   4.801  0.1244  0.2687 -1.2710
 8571SOL    HW237176   3.028   3.940   4.788  0.4352 -0.2869  0.4000
 8572SOL     OW37177   3.298   4.042   4.384  0.0703  0.0212  0.2042
 8572SOL    HW137178   3.236   3.987   4.431 -0.8955  0.8013 -0.1554
 8572SOL    HW237179   3.346   4.079   4.457 -0.2518  1.0835 -0.1096
 8573SOL     OW37180   1.567   1.373  15.260  0.2803  0.3879  0.0801
 8573SOL    HW137181   1.502   1.408  15.200  1.1735 -0.9396 -1.6771
 8573SOL    HW237182   1.512   1.348  15.334  1.6502 -1.3147  0.5268
 8574SOL     OW37183   1.702   2.318   3.479  0.2714 -0.3370 -0.9776
 8574SOL    HW137184   1.639   2.369   3.428 -0.6159  2.5878  3.0476
 8574SOL    HW237185   1.701   2.363   3.563  2.1902 -1.4263 -0.3807
 8575SOL     OW37186   0.914   4.494   6.596 -0.3662  0.1847  0.2698
 8575SOL    HW137187   0.954   4.552   6.661  0.1049 -1.5440  1.5299
 8575SOL    HW237188   0.834   4.478   6.646  0.4228  0.0136  1.4723
 8576SOL     OW37189   4.216   3.609   7.757  0.2766  0.7634 -0.2068
 8576SOL    HW137190   4.207   3.616   7.662 -1.4191  0.6211 -0.0630
 8576SOL    HW237191   4.133   3.563   7.776 -0.9882  3.1511  0.0027
 8577SOL     OW37192   1.491   0.545  11.491 -0.5662  0.0142  0.7272
 8577SOL    HW137193   1.452   0.462  11.465 -0.8630 -0.2108  1.8628
 8577SOL    HW237194   1.463   0.602  11.419  0.8522  1.3511  1.2311
 8578SOL     OW37195   0.322   0.064   6.900  0.1700 -0.5296  0.5696
 8578SOL    HW137196   0.332   0.128   6.829 -2.5907 -0.1204  0.5753
 8578SOL    HW237197   0.272   4.714   6.857  0.2224 -0.2097 -0.0206
 8579SOL     OW37198   0.188   4.266  10.383 -0.2770  0.2245  0.3054
 8579SOL    HW137199   0.275   4.251  10.422 -0.5848  0.0838  0.9294
 8579SOL    HW237200   0.209   4.340  10.326 -0.9064  1.1921  1.3313
 8580SOL     OW37201   1.644   1.317   5.945 -0.2030 -0.3435  0.3873
 8580SOL    HW137202   1.606   1.295   6.031 -2.3491  0.8180 -0.2620
 8580SOL    HW237203   1.707   1.246   5.940  0.5751  0.6477 -3.4866
 8581SOL     OW37204   4.719   3.610   5.895  0.0098 -0.0432 -0.3894
 8581SOL    HW137205   0.078   3.622   5.949 -0.6600 -0.1877  0.6314
 8581SOL    HW237206   4.652   3.584   5.958  1.1113 -1.2681  0.2964
 8582SOL     OW37207   0.756   2.757  11.749  0.2041 -0.4192  0.8395
 8582SOL    HW137208   0.848   2.730  11.750  0.8046  1.6090  1.4264
 8582SOL    HW237209   0.734   2.733  11.659  2.1190  1.0901 -0.0440
 8583SOL     OW37210   0.328   2.045   5.520  0.1534 -0.4964  0.1544
 8583SOL    HW137211   0.239   2.058   5.487  0.3724 -0.6645 -0.4981
 8583SOL    HW237212   0.333   2.113   5.587  0.7247 -0.5512  0.1637
 8584SOL     OW37213   4.207   1.500   6.325 -0.0204 -0.5623  0.3357
 8584SOL    HW137214   4.263   1.511   6.401  0.5809  1.0183 -0.3269
 8584SOL    HW237215   4.166   1.585   6.308  0.4209 -0.3387  0.3982
 8585SOL     OW37216   3.710   0.509  13.306  0.1610 -0.2507  0.9815
 8585SOL    HW137217   3.696   0.496  13.212 -2.4163  2.4591  0.9761
 8585SOL    HW237218   3.618   0.505  13.332 -0.9482  0.6578 -2.7494
 8586SOL     OW37219   2.689   3.277  16.567 -0.2225 -0.3315  0.2761
 8586SOL    HW137220   2.765   3.220  16.583 -0.5560 -2.0188 -4.2600
 8586SOL    HW237221   2.715   3.331  16.492 -1.2125  1.3246  1.1164
 8587SOL     OW37222   4.658   1.280  13.389 -0.1881 -0.0857 -0.1808
 8587SOL    HW137223   4.716   1.204  13.395 -0.7378 -0.4371  0.7398
 8587SOL    HW237224   4.712   1.358  13.409  0.5900 -0.5529 -0.4691
 8588SOL     OW37225   0.600   3.031   4.043 -0.0376  0.4415 -0.2810
 8588SOL    HW137226   0.609   3.031   3.948  0.0553  0.5398 -0.2716
 8588SOL    HW237227   0.593   2.938   4.062  1.7189  0.3135 -0.3159
 8589SOL     OW37228   4.321   1.643   2.946  0.2506 -0.0599  0.2466
 8589SOL    HW137229   4.343   1.565   2.996 -1.1924 -0.1203  0.8007
 8589SOL    HW237230   4.405   1.657   2.903 -0.5705  0.7307 -1.1250
 8590SOL     OW37231   2.526   0.906   2.386  0.1829  0.3887 -0.3791
 8590SOL    HW137232   2.553   0.974   2.447 -2.4338 -1.6830  3.0999
 8590SOL    HW237233   2.435   0.931   2.372  0.1940  0.8965  0.4215
 8591SOL     OW37234   4.698   0.998   8.011 -0.0686 -0.0682 -0.0927
 8591SOL    HW137235   4.716   1.048   7.931 -0.6707  0.6929  0.2427
 8591SOL    HW237236   4.680   1.068   8.074 -0.6888 -0.5750  0.2912
 8592SOL     OW37237   2.123   3.736   1.401 -0.4251  0.0289 -0.1254
 8592SOL    HW137238   2.087   3.715   1.314 -0.4048  2.0804 -0.6173
 8592SOL    HW237239   2.215   3.753   1.383 -0.4696 -1.5460 -1.8413
 8593SOL     OW37240   3.652   4.192   5.811  0.0927 -0.3847 -0.4217
 8593SOL    HW137241   3.573   4.237   5.839 -0.3900 -1.5915  0.1499
 8593SOL    HW237242   3.642   4.183   5.716  3.9012 -0.2925 -0.8475
 8594SOL     OW37243   4.410   2.246   0.231 -0.1560  0.3096  0.5204
 8594SOL    HW137244   4.478   2.213   0.289  0.6798  3.0068  1.1175
 8594SOL    HW237245   4.376   2.322   0.279 -2.3549 -0.2569 -0.1495
 8595SOL     OW37246   3.623   0.175   0.377 -0.1502 -0.0875  0.4043
 8595SOL    HW137247   3.610   0.124   0.457 -0.3446 -0.4297  0.1552
 8595SOL    HW237248   3.570   0.117   0.322  1.4337  0.3464 -1.5892
 8596SOL     OW37249   3.070   2.830   4.122  0.8657  0.4535  0.2854
 8596SOL    HW137250   3.038   2.918   4.102  0.3319  0.6716  2.0737
 8596SOL    HW237251   3.080   2.806   4.030 -2.0145  0.0172  0.1091
 8597SOL     OW37252   1.608   1.534   4.852  0.4761 -0.1633 -0.3111
 8597SOL    HW137253   1.666   1.590   4.902 -1.7193  1.2282  0.7015
 8597SOL    HW237254   1.573   1.602   4.795 -0.4343 -0.9804 -0.7402
 8598SOL     OW37255   3.375   1.111   7.079 -0.2139  0.0349 -0.2747
 8598SOL    HW137256   3.370   1.170   7.004  0.7427  2.6037  1.6820
 8598SOL    HW237257   3.447   1.050   7.064 -1.1004 -0.6186 -1.8820
 8599SOL     OW37258   0.378   0.849   1.306  0.2359  0.2731  0.4748
 8599SOL    HW137259   0.381   0.878   1.215  1.1228  0.9232  0.7073
 8599SOL    HW237260   0.426   0.919   1.349 -2.3573  1.6591  1.1020
 8600SOL     OW37261   4.191   2.891  15.418 -0.2410  0.0823  0.9296
 8600SOL    HW137262   4.191   2.979  15.454 -2.9649  0.3573  0.2753
 8600SOL    HW237263   4.137   2.899  15.339  1.9744  0.8367 -0.5014
 8601SOL     OW37264   3.703   0.495  13.018 -0.1561  0.2031  0.4636
 8601SOL    HW137265   3.644   0.503  12.943  0.1328  1.1603  0.3394
 8601SOL    HW237266   3.718   0.589  13.029  1.8912 -0.5228  3.9495
 8602SOL     OW37267   2.284   1.725   7.088  0.2512  0.2141  0.3135
 8602SOL    HW137268   2.380   1.722   7.085  0.1878 -1.0559 -0.2090
 8602SOL    HW237269   2.260   1.815   7.113 -1.6541  0.1301 -1.2467
 8603SOL     OW37270   4.405   2.717   2.121 -0.5934  0.0078 -0.1449
 8603SOL    HW137271   4.384   2.683   2.208  0.0617  1.7360  0.6996
 8603SOL    HW237272   4.378   2.644   2.065  0.0494  0.2447 -0.7642
 8604SOL     OW37273   2.892   3.696   1.696 -0.0385  0.9059 -0.2582
 8604SOL    HW137274   2.927   3.670   1.611 -0.8783  1.7283 -0.8405
 8604SOL    HW237275   2.971   3.683   1.749 -1.0359 -2.1990  0.4436
 8605SOL     OW37276   4.307   0.133   0.800  0.0474 -0.1628  0.3067
 8605SOL    HW137277   4.303   0.132   0.895 -1.0053 -0.8678  0.2477
 8605SOL    HW237278   4.293   0.224   0.772 -0.0814  0.6915  3.1719
 8606SOL     OW37279   4.442   3.805  14.983  0.0402 -0.7231  0.8536
 8606SOL    HW137280   4.456   3.874  14.918 -0.1188 -2.1672 -0.7183
 8606SOL    HW237281   4.529   3.809  15.024 -1.2864  1.9196  3.3443
 8607SOL     OW37282   1.177   3.730   5.991  0.3332 -0.1374 -0.0683
 8607SOL    HW137283   1.186   3.814   6.036 -2.5666  0.5926 -0.8559
 8607SOL    HW237284   1.223   3.750   5.909  1.4941 -1.3285  0.2916
 8608SOL     OW37285   3.730   1.649   2.639  0.1801  0.2817 -0.0799
 8608SOL    HW137286   3.771   1.573   2.597 -2.6396 -1.3133  0.0846
 8608SOL    HW237287   3.641   1.620   2.618 -1.0202  3.6315  0.3850
 8609SOL     OW37288   3.142   4.086   4.777 -0.6140 -0.1748 -0.2361
 8609SOL    HW137289   3.169   4.136   4.701 -1.2966 -0.5256 -0.7047
 8609SOL    HW237290   3.142   4.155   4.844 -0.5672  0.2368 -0.6643
 8610SOL     OW37291   3.235   1.562  10.861 -0.7343  0.5998 -0.1150
 8610SOL    HW137292   3.326   1.589  10.855 -0.5755  0.3024  1.1400
 8610SOL    HW237293   3.242   1.513  10.943  1.1868 -0.0543 -0.6669
 8611SOL     OW37294   1.972   4.671   9.371  0.2402  0.0993 -0.0027
 8611SOL    HW137295   1.946   4.579   9.384 -0.3457  0.1279 -0.9730
 8611SOL    HW237296   1.931   4.711   9.447 -0.6508  0.9061 -0.9188
 8612SOL     OW37297   4.414   1.107   5.901  0.1672  0.1917  0.1400
 8612SOL    HW137298   4.456   1.186   5.866 -0.7976  0.6429 -0.0025
 8612SOL    HW237299   4.458   1.099   5.986  1.1625  1.0801 -0.2958
 8613SOL     OW37300   1.846   1.575   3.341 -0.0185  0.0108  0.0458
 8613SOL    HW137301   1.846   1.662   3.299 -0.6599 -0.3843 -0.7751
 8613SOL    HW237302   1.862   1.519   3.265  1.0916 -0.4243  0.6025
 8614SOL     OW37303   3.609   2.966   0.107  0.2500 -0.0158 -0.3919
 8614SOL    HW137304   3.582   3.043   0.157 -0.0102  1.5994 -2.9897
 8614SOL    HW237305   3.703   2.985   0.102  0.3831 -0.6404 -0.1926
 8615SOL     OW37306   1.702   1.940   1.143  0.1041  0.0905 -0.1287
 8615SOL    HW137307   1.772   2.001   1.121  1.3439 -1.3935 -0.2246
 8615SOL    HW237308   1.644   1.994   1.197 -2.7828  0.0444 -3.2073
 8616SOL     OW37309   3.217   3.178  17.382  0.3015  0.0814  0.7788
 8616SOL    HW137310   3.270   3.255  17.403  1.3663 -0.4357 -0.0140
 8616SOL    HW237311   3.138   3.224  17.354  1.3250  1.0921 -0.4485
 8617SOL     OW37312   2.463   0.991  15.728 -0.4372  0.0616 -0.1529
 8617SOL    HW137313   2.537   0.931  15.722 -1.7300 -1.5027 -0.2473
 8617SOL    HW237314   2.507   1.069  15.761 -0.5011  0.1035 -0.1661
 8618SOL     OW37315   1.791   0.471   0.279 -0.7596  0.1273 -0.2469
 8618SOL    HW137316   1.828   0.454   0.366 -2.5861 -2.1000  0.0682
 8618SOL    HW237317   1.713   0.416   0.278 -0.3978 -0.3604 -1.5711
 8619SOL     OW37318   0.369   2.226   7.122 -0.1517  0.5007  0.1949
 8619SOL    HW137319   0.430   2.155   7.143 -4.0433 -2.5108  1.3809
 8619SOL    HW237320   0.346   2.253   7.211 -0.5237  0.2992  0.1596
 8620SOL     OW37321   3.245   2.966   3.561  0.2445 -0.0256 -0.6361
 8620SOL    HW137322   3.203   3.051   3.573 -1.1532 -0.5379 -1.9342
 8620SOL    HW237323   3.320   2.983   3.618 -1.0147  0.3191  0.9263
 8621SOL     OW37324   0.686   1.282   8.237  0.1379  0.1110  0.1862
 8621SOL    HW137325   0.702   1.221   8.165 -0.9130 -1.0963  0.9946
 8621SOL    HW237326   0.729   1.365   8.213  1.8915 -1.2948 -1.5284
 8622SOL     OW37327   3.606   1.469   3.257 -0.1664  0.4540 -0.0970
 8622SOL    HW137328   3.578   1.401   3.318 -0.1966  1.4739  1.0304
 8622SOL    HW237329   3.519   1.499   3.229 -0.1674  1.2961  0.7957
 8623SOL     OW37330   3.733   1.775   6.089  0.1070  0.4687 -0.3611
 8623SOL    HW137331   3.816   1.822   6.101  0.0845  0.0303  1.5095
 8623SOL    HW237332   3.743   1.730   6.005  0.7126  1.2982 -0.7270
 8624SOL     OW37333   2.605   4.700   7.752  0.3647  0.0159  0.3813
 8624SOL    HW137334   2.690   0.021   7.735 -0.8478  2.6099  0.4679
 8624SOL    HW237335   2.562   0.050   7.703  0.3639  1.7601  2.8796
 8625SOL     OW37336   1.815   0.056  16.276 -0.7230  0.3899 -0.5919
 8625SOL    HW137337   1.727   0.091  16.265 -1.5476 -1.2122  0.8478
 8625SOL    HW237338   1.828   0.085  16.366  0.1375  1.2293 -0.9916
 8626SOL     OW37339   1.689   1.502   2.655 -0.0700 -0.1268  0.4471
 8626SOL    HW137340   1.707   1.590   2.689 -0.1151 -0.5315  1.5084
 8626SOL    HW237341   1.749   1.498   2.580  0.5576  0.7884  0.8930
 8627SOL     OW37342   4.605   1.830   6.425 -0.3305  0.2520  0.0362
 8627SOL    HW137343   4.684   1.826   6.371 -0.3443 -2.1614  0.1899
 8627SOL    HW237344   4.646   1.822   6.511  0.8931 -1.0523 -0.6771
 8628SOL     OW37345   1.498   0.313   7.454 -0.5261  0.0417 -0.1411
 8628SOL    HW137346   1.442   0.273   7.521  0.3860 -0.7356  0.1652
 8628SOL    HW237347   1.554   0.246   7.414 -0.2040  0.2566 -0.0482
 8629SOL     OW37348   1.383   3.491  14.006  0.5002  0.0999 -0.4923
 8629SOL    HW137349   1.310   3.543  14.040 -0.8449 -2.6542  0.7582
 8629SOL    HW237350   1.351   3.401  14.010 -0.3669  0.4617  0.6741
 8630SOL     OW37351   3.246   4.509  15.748  0.1328 -0.0401  0.2540
 8630SOL    HW137352   3.267   4.520  15.841  1.0463  3.4331 -0.3652
 8630SOL    HW237353   3.228   4.601  15.729  1.6794 -0.3008 -2.5501
 8631SOL     OW37354   1.005   4.124   1.557 -0.3893 -0.4025 -0.1482
 8631SOL    HW137355   1.003   4.212   1.594 -0.7577 -0.4694 -0.0139
 8631SOL    HW237356   0.943   4.129   1.484  0.5568 -0.2092 -0.9381
 8632SOL     OW37357   2.670   3.020   1.913  0.0171 -0.6771  0.3036
 8632SOL    HW137358   2.679   3.028   1.818  2.2974  0.0193  0.5817
 8632SOL    HW237359   2.574   3.019   1.916 -0.0255  1.2089 -0.6420
 8633SOL     OW37360   0.421   4.553   6.111 -0.2338 -0.0796 -0.1031
 8633SOL    HW137361   0.443   4.560   6.204  1.8825  0.4047 -0.6275
 8633SOL    HW237362   0.344   4.497   6.106 -1.9810  2.4254 -0.9495
 8634SOL     OW37363   3.005   2.262   3.040 -0.0851  0.3511 -0.0615
 8634SOL    HW137364   3.084   2.214   3.016 -0.1175  0.2193  0.0968
 8634SOL    HW237365   2.949   2.264   2.962 -0.6218  0.3893  0.3215
 8635SOL     OW37366   0.969   3.746   9.937 -0.3196 -0.2440  0.1915
 8635SOL    HW137367   0.896   3.795   9.901 -0.0292  0.4750  0.5804
 8635SOL    HW237368   0.942   3.758  10.029 -2.0980  2.8300 -0.7181
 8636SOL     OW37369   3.281   3.088   3.901  0.1833 -0.2965 -0.2620
 8636SOL    HW137370   3.227   3.012   3.879 -0.6830  1.2880 -3.5968
 8636SOL    HW237371   3.370   3.061   3.878  0.0654 -1.3469  0.5021
 8637SOL     OW37372   4.002   1.990  13.332 -0.1222  0.0588 -0.8806
 8637SOL    HW137373   3.945   1.913  13.333  0.2212 -0.1927 -0.8051
 8637SOL    HW237374   3.958   2.039  13.401 -1.2347  1.5931 -2.6848
 8638SOL     OW37375   1.020   3.940   1.243 -0.6037 -0.4879  0.6268
 8638SOL    HW137376   0.978   3.891   1.172 -0.1144  2.1902 -1.5015
 8638SOL    HW237377   0.942   3.961   1.294 -0.8978  0.4748 -0.2183
 8639SOL     OW37378   4.277   4.025   2.419 -0.1882 -0.4665  0.4595
 8639SOL    HW137379   4.291   4.073   2.338  2.1516 -4.4559 -1.4787
 8639SOL    HW237380   4.326   4.084   2.477  0.3149 -0.5785  0.1420
 8640SOL     OW37381   1.876   3.800   3.717 -0.4412  0.1138  0.5456
 8640SOL    HW137382   1.884   3.720   3.666  1.8591  0.5821  0.1621
 8640SOL    HW237383   1.872   3.777   3.810  1.5412 -2.3723  0.0180
 8641SOL     OW37384   3.009   4.139  10.679 -0.3051 -0.0002  0.3012
 8641SOL    HW137385   3.103   4.130  10.694 -0.0712  0.1406 -1.0782
 8641SOL    HW237386   3.008   4.218  10.732  0.9368  1.1611 -1.3834
 8642SOL     OW37387   0.516   2.781  10.753  0.1576  0.2678 -0.1339
 8642SOL    HW137388   0.476   2.696  10.773 -0.4213  0.3641 -0.8805
 8642SOL    HW237389   0.488   2.794  10.662  2.7213 -0.2665 -1.0015
 8643SOL     OW37390   1.002   1.022   3.480 -0.3445  0.2358 -0.5271
 8643SOL    HW137391   1.090   0.989   3.499 -0.6877 -1.6411 -2.1449
 8643SOL    HW237392   1.015   1.116   3.485  0.2875  0.1460 -0.4079
 8644SOL     OW37393   0.076   2.548   7.784  0.2683 -0.7851 -0.0346
 8644SOL    HW137394   0.074   2.607   7.859 -0.7223 -0.1962 -0.5199
 8644SOL    HW237395   0.001   2.581   7.735 -0.6622 -0.9480  1.2971
 8645SOL     OW37396   2.315   3.644   6.752 -0.0909  0.0567 -0.1807
 8645SOL    HW137397   2.385   3.579   6.743 -1.9303 -1.9030 -0.2470
 8645SOL    HW237398   2.270   3.638   6.668  0.7371  1.6518 -0.7429
 8646SOL     OW37399   2.876   4.491   6.647  0.0226 -0.6734  0.0758
 8646SOL    HW137400   2.807   4.428   6.669 -0.0901 -0.5074  0.1938
 8646SOL    HW237401   2.875   4.552   6.721  2.6448 -0.3825 -0.1386
 8647SOL     OW37402   2.261   3.009   6.761  0.0140 -0.3017 -0.6796
 8647SOL    HW137403   2.212   2.969   6.832 -0.5438  0.0734 -0.8507
 8647SOL    HW237404   2.230   2.955   6.689  0.9623 -1.2359 -0.3872
 8648SOL     OW37405   3.995   3.933  10.657 -0.9777  0.4569  0.3669
 8648SOL    HW137406   4.016   3.973  10.573  0.1396 -2.2969 -0.6509
 8648SOL    HW237407   3.910   3.893  10.640 -1.4133  1.4104  0.3229
 8649SOL     OW37408   3.867   2.563   8.092 -0.3425 -0.0093 -0.6202
 8649SOL    HW137409   3.797   2.584   8.152 -0.7900 -1.2586 -0.6977
 8649SOL    HW237410   3.848   2.469   8.096  0.0081 -0.0329  0.3805
 8650SOL     OW37411   0.164   1.211   5.001  0.2210 -0.0274 -0.0697
 8650SOL    HW137412   0.073   1.236   4.981 -0.5561 -1.2294  2.0000
 8650SOL    HW237413   0.217   1.259   4.937  0.7313 -0.9209 -0.3096
 8651SOL     OW37414   3.235   2.414  13.411 -0.2062  0.5862  0.5020
 8651SOL    HW137415   3.165   2.349  13.407  1.1036 -0.7863  0.0968
 8651SOL    HW237416   3.219   2.451  13.498  1.5248 -1.0033  1.4807
 8652SOL     OW37417   2.279   3.310  16.411  0.3793  0.1361  0.4487
 8652SOL    HW137418   2.192   3.341  16.435  0.2810  0.2044  0.0031
 8652SOL    HW237419   2.286   3.377  16.343 -2.5718  1.1639  1.1810
 8653SOL     OW37420   3.286   1.313  13.425  0.4805  0.1195  0.0396
 8653SOL    HW137421   3.322   1.227  13.447  1.4995  0.1569 -1.4708
 8653SOL    HW237422   3.202   1.303  13.469  0.2418 -1.5795 -0.8097
 8654SOL     OW37423   2.389   0.141   7.709  0.5141 -0.2941  0.4396
 8654SOL    HW137424   2.301   0.154   7.746  0.1260 -2.5329  0.2991
 8654SOL    HW237425   2.444   0.195   7.766  0.3238  0.3330  0.0294
 8655SOL     OW37426   3.341   0.756   1.258 -0.5827 -0.4742  0.2869
 8655SOL    HW137427   3.377   0.840   1.288  0.2250  0.5157 -3.3933
 8655SOL    HW237428   3.261   0.793   1.221  1.4246  2.3303 -1.3668
 8656SOL     OW37429   2.871   4.716   3.313 -0.3213 -0.2818  0.5777
 8656SOL    HW137430   2.945   4.705   3.374 -0.9757  0.1076  1.4494
 8656SOL    HW237431   2.910   0.047   3.243  2.4446 -3.1023  0.0724
 8657SOL     OW37432   4.424   0.294   6.547 -0.4114  0.2601 -0.2125
 8657SOL    HW137433   4.380   0.211   6.565 -0.9899  0.8533  1.1016
 8657SOL    HW237434   4.491   0.253   6.492  0.0749  0.1528  0.4620
 8658SOL     OW37435   0.000   3.208   8.411  0.0457 -0.5883  0.3236
 8658SOL    HW137436   4.651   3.248   8.358  1.3863  0.8023 -0.3431
 8658SOL    HW237437   0.001   3.120   8.374  1.6874 -0.3560 -0.1850
 8659SOL     OW37438   1.975   2.901   2.557 -0.3755  0.2758  0.1350
 8659SOL    HW137439   2.019   2.820   2.529  0.9300  1.0995 -0.2419
 8659SOL    HW237440   1.902   2.857   2.600 -1.9946  1.8136 -1.0273
 8660SOL     OW37441   0.265   1.931   4.065  0.3916  0.3693 -0.7330
 8660SOL    HW137442   0.216   1.909   4.145 -0.4696  1.1770 -1.0470
 8660SOL    HW237443   0.342   1.874   4.068  0.7778  0.8515 -1.8996
 8661SOL     OW37444   1.228   2.708   8.518 -0.4904  0.8476  0.2871
 8661SOL    HW137445   1.205   2.768   8.589  0.9325  1.2517  0.4199
 8661SOL    HW237446   1.226   2.625   8.565 -0.2218  1.1069  0.7641
 8662SOL     OW37447   3.454   0.726   5.261  0.8468  0.2266 -0.1704
 8662SOL    HW137448   3.375   0.684   5.227  1.0005 -0.4267  0.2932
 8662SOL    HW237449   3.506   0.712   5.182 -0.5587 -0.0592 -1.0411
 8663SOL     OW37450   3.837   2.293   8.115 -1.2087  0.0897  0.3790
 8663SOL    HW137451   3.766   2.251   8.067 -0.4282  0.1488 -0.8321
 8663SOL    HW237452   3.915   2.276   8.062  0.0128 -0.3896  2.3380
 8664SOL     OW37453   1.902   3.122   3.866 -0.5302 -0.1014 -0.4567
 8664SOL    HW137454   1.945   3.089   3.787  1.2938 -0.0254  0.4918
 8664SOL    HW237455   1.988   3.114   3.909 -0.3368  0.2157 -0.7796
 8665SOL     OW37456   3.398   2.936   0.492  0.1181 -0.0377 -0.5476
 8665SOL    HW137457   3.377   2.868   0.428  1.1591  0.2573 -1.2061
 8665SOL    HW237458   3.372   2.890   0.572 -2.6405 -0.7587 -1.8831
 8666SOL     OW37459   2.859   1.200  15.827  0.1193 -0.0830  0.5289
 8666SOL    HW137460   2.898   1.130  15.774 -0.7453 -2.1234  2.6019
 8666SOL    HW237461   2.831   1.160  15.909 -0.0048  1.6364  1.3302
 8667SOL     OW37462   1.849   1.991   3.375 -0.2010  0.0498 -0.6471
 8667SOL    HW137463   1.885   1.976   3.462 -0.9379 -1.0501 -0.5278
 8667SOL    HW237464   1.858   2.085   3.362  0.1782  0.0229 -0.5824
 8668SOL     OW37465   2.491   3.132   1.160  0.1025  0.1402  0.8008
 8668SOL    HW137466   2.432   3.100   1.092  2.3093  0.2818 -1.2099
 8668SOL    HW237467   2.521   3.214   1.120 -0.3003 -0.7171 -1.2779
 8669SOL     OW37468   1.583   1.228   6.624 -0.5597 -0.1431  0.4972
 8669SOL    HW137469   1.569   1.165   6.695 -0.8697 -1.8847 -1.1074
 8669SOL    HW237470   1.516   1.291   6.649  0.7190  1.7142 -0.7740
 8670SOL     OW37471   2.151   4.422   3.271  0.1188 -0.1697 -0.2797
 8670SOL    HW137472   2.169   4.449   3.361  1.8772 -2.0656 -0.0645
 8670SOL    HW237473   2.061   4.452   3.260 -0.0177 -0.7679 -0.7962
 8671SOL     OW37474   2.505   2.579   6.421  0.6677  0.2281 -0.2641
 8671SOL    HW137475   2.558   2.566   6.342  0.6647  0.8728 -0.3726
 8671SOL    HW237476   2.469   2.491   6.427  0.8290 -0.1122 -4.3106
 8672SOL     OW37477   2.755   0.805  11.865  0.1312  0.2090 -0.0309
 8672SOL    HW137478   2.678   0.770  11.909 -1.6292  2.6370 -1.2296
 8672SOL    HW237479   2.730   0.897  11.870 -0.9523 -0.0871 -0.0155
 8673SOL     OW37480   1.427   3.190  14.174 -0.3964  0.8576 -0.5352
 8673SOL    HW137481   1.344   3.232  14.150 -0.2876  1.6029  0.4160
 8673SOL    HW237482   1.416   3.104  14.132 -0.4474 -0.2003  1.6579
 8674SOL     OW37483   1.939   0.571   6.673 -0.1602  0.0767 -0.3742
 8674SOL    HW137484   2.001   0.528   6.614 -0.0276 -0.0267 -0.1593
 8674SOL    HW237485   1.996   0.586   6.748  0.8756 -2.0343 -0.7446
 8675SOL     OW37486   4.099   1.119   5.685 -0.3714 -0.5216  0.4107
 8675SOL    HW137487   4.121   1.199   5.637  0.4901 -1.1701 -0.2847
 8675SOL    HW237488   4.062   1.150   5.768 -1.7716 -2.0341  0.3397
 8676SOL     OW37489   2.124   3.871   9.058 -0.4743 -0.0530  0.4221
 8676SOL    HW137490   2.182   3.809   9.015 -0.0985 -0.5446  1.6270
 8676SOL    HW237491   2.162   3.893   9.144 -1.9080  1.5682  0.6502
 8677SOL     OW37492   1.464   4.254   3.315  0.0490  0.5717  0.2429
 8677SOL    HW137493   1.447   4.238   3.223  0.3058 -0.5778  0.3933
 8677SOL    HW237494   1.378   4.264   3.355  0.0365 -1.2906  0.6615
 8678SOL     OW37495   2.694   3.380   4.473 -0.1931 -0.1055 -0.6450
 8678SOL    HW137496   2.747   3.445   4.520 -0.2913 -2.1023  2.2336
 8678SOL    HW237497   2.607   3.420   4.469  0.0313  0.5667  0.9455
 8679SOL     OW37498   1.931   0.470   3.529  0.2773 -0.1974 -0.3571
 8679SOL    HW137499   1.971   0.534   3.471 -0.8491 -0.9926 -2.0272
 8679SOL    HW237500   2.006   0.452   3.586 -1.2785  1.0542  2.0814
 8680SOL     OW37501   4.199   4.603   5.966  0.0637  0.5079 -0.2886
 8680SOL    HW137502   4.134   4.649   6.018  1.7127  0.2435  1.9738
 8680SOL    HW237503   4.215   4.532   6.028 -2.4708 -2.8459 -3.4291
 8681SOL     OW37504   1.607   1.373   7.308 -0.4922  0.1983 -0.1742
 8681SOL    HW137505   1.627   1.464   7.287 -0.5053  0.2979  0.2460
 8681SOL    HW237506   1.575   1.381   7.398 -0.1106 -0.6616  0.0384
 8682SOL     OW37507   0.903   2.842   2.036 -0.0796 -0.0470  0.4313
 8682SOL    HW137508   0.940   2.754   2.045  0.9009  0.2925 -0.2861
 8682SOL    HW237509   0.813   2.819   2.011 -0.0029  0.4681 -0.3269
 8683SOL     OW37510   0.275   0.289   3.498  0.3318  0.3352 -0.3265
 8683SOL    HW137511   0.270   0.285   3.403  0.1621  0.5901 -0.3289
 8683SOL    HW237512   0.236   0.202   3.514 -0.8919  0.3679 -3.0375
 8684SOL     OW37513   1.619   2.948   5.577 -0.1543  0.0076  0.2954
 8684SOL    HW137514   1.599   3.030   5.531  0.9105 -0.0646 -0.3010
 8684SOL    HW237515   1.540   2.930   5.628 -0.1494  2.3621  1.1363
 8685SOL     OW37516   4.232   3.310   2.796 -0.2190 -0.3838 -0.4695
 8685SOL    HW137517   4.240   3.240   2.731 -2.9643 -0.4037 -0.8132
 8685SOL    HW237518   4.256   3.386   2.743 -1.1121 -1.0674 -1.8717
 8686SOL     OW37519   0.310   3.366  14.669 -0.0428  0.3490  0.7056
 8686SOL    HW137520   0.314   3.462  14.668 -2.0800  0.4159  0.2966
 8686SOL    HW237521   0.390   3.345  14.718  0.1969 -0.2139  0.0865
 8687SOL     OW37522   3.385   2.423   5.535 -0.5643  0.0212  1.0506
 8687SOL    HW137523   3.464   2.404   5.485 -3.2208  1.7890 -3.8254
 8687SOL    HW237524   3.337   2.342   5.517 -0.6029  0.6526 -1.6721
 8688SOL     OW37525   0.968   3.818   0.244  0.3748  0.2810 -0.6054
 8688SOL    HW137526   1.039   3.882   0.241  3.2945 -2.8899  0.4613
 8688SOL    HW237527   0.899   3.884   0.250 -1.3126 -1.4781 -0.7566
 8689SOL     OW37528   0.628   2.690  11.509 -0.0789  0.3872 -0.2437
 8689SOL    HW137529   0.568   2.615  11.513  1.4420 -0.7953  0.1430
 8689SOL    HW237530   0.563   2.757  11.486  0.8634  0.8365 -1.5485
 8690SOL     OW37531   4.321   0.320   1.697  0.1515 -1.0122 -0.4949
 8690SOL    HW137532   4.306   0.306   1.604  1.0760  0.8675 -0.9241
 8690SOL    HW237533   4.384   0.252   1.718 -1.6583 -2.5049  0.1454
 8691SOL     OW37534   0.903   3.242   4.559 -0.0220  0.1731 -0.8314
 8691SOL    HW137535   0.842   3.300   4.512  0.1880  2.1408  1.3044
 8691SOL    HW237536   0.861   3.156   4.561  0.3169  0.0267  0.2816
 8692SOL     OW37537   3.372   3.144   0.026  0.1247  0.3921 -0.0043
 8692SOL    HW137538   3.366   3.135   0.121  0.3251  1.4171  0.1042
 8692SOL    HW237539   3.331   3.230   0.017  2.1694  1.1888 -1.6896
 8693SOL     OW37540   0.266   3.433   3.834 -0.1318  0.2898  0.1594
 8693SOL    HW137541   0.193   3.374   3.852  0.0233  0.0347 -0.0635
 8693SOL    HW237542   0.223   3.518   3.846 -0.4766  0.3175 -1.2829
 8694SOL     OW37543   1.506   2.502   0.840  0.1842 -0.0007 -0.6955
 8694SOL    HW137544   1.517   2.511   0.745  2.2308  2.9328 -0.1608
 8694SOL    HW237545   1.478   2.413   0.863 -0.2692 -0.3436 -2.5387
 8695SOL     OW37546   4.474   2.163   7.653  0.5233 -0.1492 -0.7007
 8695SOL    HW137547   4.568   2.149   7.659  0.7672  2.3521  1.2317
 8695SOL    HW237548   4.448   2.086   7.602 -0.2905  0.5593 -1.3596
 8696SOL     OW37549   2.028   0.454   0.127  0.6848 -0.4251  0.2974
 8696SOL    HW137550   1.957   0.449   0.192 -0.4322 -4.0361 -1.1944
 8696SOL    HW237551   2.087   0.483   0.197  1.1489 -0.2070 -0.1906
 8697SOL     OW37552   1.438   0.789   7.122  0.2394 -0.2459 -0.2424
 8697SOL    HW137553   1.454   0.779   7.216  0.5003 -0.1839 -0.2809
 8697SOL    HW237554   1.514   0.739   7.092  0.1455  0.7336 -2.1068
 8698SOL     OW37555   1.812   1.256   2.042 -0.1823  0.4012  0.6685
 8698SOL    HW137556   1.721   1.255   2.012 -0.1033  0.7727  0.4216
 8698SOL    HW237557   1.834   1.348   2.033  1.3435  0.1705  2.0593
 8699SOL     OW37558   0.760   4.273   8.117  0.4598 -0.2617  0.1839
 8699SOL    HW137559   0.781   4.350   8.064  1.9691 -0.1662  0.9268
 8699SOL    HW237560   0.673   4.285   8.156 -0.9853  1.9468 -3.6941
 8700SOL     OW37561   0.680   1.033   9.745  0.2834 -0.0313  0.8101
 8700SOL    HW137562   0.598   0.984   9.738 -0.6271  1.4867  0.9052
 8700SOL    HW237563   0.694   1.037   9.839 -2.6279 -0.6894  1.2753
 8701SOL     OW37564   1.577   4.711   6.584 -0.5121 -0.2471  0.1508
 8701SOL    HW137565   1.511   4.677   6.524 -1.3206 -1.0498  1.4945
 8701SOL    HW237566   1.609   4.634   6.632 -0.7935  0.3683  1.3364
 8702SOL     OW37567   1.621   0.641   8.591 -0.1127 -0.4074 -0.5377
 8702SOL    HW137568   1.676   0.582   8.642 -1.5716  1.2613  2.9681
 8702SOL    HW237569   1.550   0.580   8.571 -0.4219  0.3034 -1.6295
 8703SOL     OW37570   1.161   2.812   6.947  0.7676  0.4174  0.1341
 8703SOL    HW137571   1.249   2.787   6.920  1.3809  1.2554  1.3388
 8703SOL    HW237572   1.163   2.810   7.043 -0.1644 -1.4602  0.1163
 8704SOL     OW37573   0.549   1.497   4.268  0.4055 -0.2020 -0.4610
 8704SOL    HW137574   0.642   1.511   4.285  0.7321 -4.3379  1.0655
 8704SOL    HW237575   0.568   1.442   4.192 -1.8341 -1.1762 -0.3272
 8705SOL     OW37576   0.063   3.196   4.422 -0.5310 -0.2516 -0.0396
 8705SOL    HW137577   0.008   3.127   4.386 -2.3849  1.8767 -1.2654
 8705SOL    HW237578   0.116   3.202   4.343 -0.1214 -2.6039  0.0599
 8706SOL     OW37579   0.041   2.115   5.567 -0.0259 -0.0314  0.2547
 8706SOL    HW137580   0.078   2.154   5.646 -0.5267  0.5915  0.1847
 8706SOL    HW237581   4.667   2.112   5.584 -0.4220  1.6808 -1.5866
 8707SOL     OW37582   4.496   0.530  12.103  0.7073 -0.0189 -0.0895
 8707SOL    HW137583   4.511   0.436  12.106 -0.1102 -0.1200  0.7351
 8707SOL    HW237584   4.582   0.567  12.085  1.2032 -1.0944  0.0634
 8708SOL     OW37585   2.260   3.334   0.610 -0.7763 -1.0909 -0.1600
 8708SOL    HW137586   2.246   3.421   0.645  1.6298 -0.5523 -0.4989
 8708SOL    HW237587   2.355   3.343   0.602 -1.1129  2.7312  0.1577
 8709SOL     OW37588   4.503   1.045   7.697 -0.4824  0.3869 -0.0926
 8709SOL    HW137589   4.506   0.950   7.703 -0.4432  0.4129  0.2737
 8709SOL    HW237590   4.593   1.070   7.718 -1.2131  2.5407  0.4548
 8710SOL     OW37591   1.978   2.697   3.214  0.0254 -0.2497  0.4677
 8710SOL    HW137592   1.938   2.681   3.129  0.9091  1.5901 -0.3081
 8710SOL    HW237593   1.917   2.652   3.272 -0.1468  2.4393  2.3711
 8711SOL     OW37594   3.970   0.932   7.551  0.2664 -0.0115 -0.4253
 8711SOL    HW137595   3.957   0.953   7.459 -1.2811 -0.4981 -0.3155
 8711SOL    HW237596   4.031   0.858   7.544 -1.1885 -1.2602  0.1818
 8712SOL     OW37597   2.618   4.078   1.498 -0.4479 -0.1934 -0.0654
 8712SOL    HW137598   2.646   4.054   1.586 -0.9561 -1.4371 -0.2320
 8712SOL    HW237599   2.639   3.995   1.455  2.8184  1.2294 -1.1582
 8713SOL     OW37600   4.315   1.737  10.733 -0.5130 -0.1221 -0.0066
 8713SOL    HW137601   4.403   1.755  10.702  0.3374  0.0839  2.5528
 8713SOL    HW237602   4.275   1.698  10.655  0.3330  0.2486 -0.6209
 8714SOL     OW37603   0.080   3.015   3.679 -0.3507  0.3966 -0.1552
 8714SOL    HW137604   4.705   3.010   3.663 -0.5240 -0.1691  1.0261
 8714SOL    HW237605   0.086   2.991   3.772 -1.8023  0.2909 -0.0923
 8715SOL     OW37606   3.722   0.893  13.866  0.0062  0.6042  0.4052
 8715SOL    HW137607   3.771   0.846  13.798 -0.6595  3.2888 -1.8791
 8715SOL    HW237608   3.717   0.980  13.828  0.9543  0.2712 -0.4920
 8716SOL     OW37609   3.005   0.848   4.001 -0.8638 -0.3540  0.3469
 8716SOL    HW137610   2.962   0.766   4.024  2.0284 -1.6285  1.2401
 8716SOL    HW237611   3.087   0.830   4.047  0.7333 -0.9349 -2.7369
 8717SOL     OW37612   2.306   4.068  15.339 -0.5098  0.3858  0.4309
 8717SOL    HW137613   2.385   4.038  15.293  0.1784  0.0270  1.8273
 8717SOL    HW237614   2.301   4.160  15.315  1.4801 -0.2893 -2.5523
 8718SOL     OW37615   2.646   3.181  17.552  0.2888  0.4031 -0.4305
 8718SOL    HW137616   2.630   3.268  17.590  0.8261  0.6542 -0.7853
 8718SOL    HW237617   2.567   3.160  17.502  0.3622  1.0275 -0.8143
 8719SOL     OW37618   2.466   3.418   6.663  0.2059  0.2963 -0.4719
 8719SOL    HW137619   2.399   3.357   6.693  0.5664 -0.1994 -0.6589
 8719SOL    HW237620   2.482   3.384   6.575 -1.1626  2.5972 -1.5745
 8720SOL     OW37621   1.668   3.049  10.565 -0.2349 -0.0878 -0.5754
 8720SOL    HW137622   1.612   3.117  10.603  0.4376 -0.0500  0.3429
 8720SOL    HW237623   1.589   3.005  10.532 -0.2523 -0.5884  0.1513
 8721SOL     OW37624   2.035   3.558   2.284 -0.0557  0.0711 -0.3481
 8721SOL    HW137625   2.056   3.625   2.219  1.4408 -0.4176 -0.3676
 8721SOL    HW237626   1.967   3.505   2.242 -0.3022 -1.2881  1.7935
 8722SOL     OW37627   2.793   3.441   3.087  0.1110  0.3141 -0.1371
 8722SOL    HW137628   2.881   3.462   3.118  0.0976  0.2239 -0.0401
 8722SOL    HW237629   2.756   3.522   3.051  2.7901  0.3993 -2.6973
 8723SOL     OW37630   2.481   4.259   4.117  0.0154 -0.2046  0.0645
 8723SOL    HW137631   2.561   4.297   4.079 -0.3886 -0.4592 -1.0294
 8723SOL    HW237632   2.454   4.318   4.187 -1.1515 -0.5604 -0.0938
 8724SOL     OW37633   1.389   1.091   7.328 -0.6721  0.1020  0.3306
 8724SOL    HW137634   1.466   1.107   7.383 -0.4371 -0.4311  0.1480
 8724SOL    HW237635   1.433   1.115   7.246 -1.6891  0.5033 -0.1048
 8725SOL     OW37636   4.686   0.776   3.293  0.1575 -0.5449  0.0096
 8725SOL    HW137637   4.675   0.722   3.215  0.7740 -0.6771  0.0193
 8725SOL    HW237638   0.061   0.783   3.297  0.1770 -1.6646  1.6411
 8726SOL     OW37639   2.997   2.255   9.615  0.2197 -0.0384  0.3916
 8726SOL    HW137640   3.035   2.278   9.531  0.1305 -2.2847 -0.2642
 8726SOL    HW237641   3.075   2.214   9.653 -0.3006 -0.5930  0.8696
 8727SOL     OW37642   1.936   2.097   5.517  0.5603 -0.1757  0.3004
 8727SOL    HW137643   1.924   2.157   5.591  0.2531  0.7203 -0.4780
 8727SOL    HW237644   2.026   2.121   5.498 -0.2660  0.9844 -2.0928
 8728SOL     OW37645   2.116   0.463  13.767  0.2732  0.1727 -0.0887
 8728SOL    HW137646   2.173   0.494  13.837  2.4731  1.0961 -2.3056
 8728SOL    HW237647   2.041   0.440  13.822 -0.2308  2.9052  0.3479
 8729SOL     OW37648   2.225   0.895  15.859  0.8983  0.7714  0.0615
 8729SOL    HW137649   2.210   0.812  15.813  0.0774  1.1504 -0.3485
 8729SOL    HW237650   2.307   0.921  15.817  1.2893  0.0207  0.3515
 8730SOL     OW37651   0.250   0.832   9.504  0.1393  0.2657  0.5505
 8730SOL    HW137652   0.200   0.875   9.574 -0.3981 -1.3770  1.1985
 8730SOL    HW237653   0.295   0.764   9.555  1.3860  0.5094 -0.2436
 8731SOL     OW37654   1.802   1.243   9.410 -0.3277  0.3417 -0.4696
 8731SOL    HW137655   1.742   1.302   9.455  1.9665  2.8646 -0.7009
 8731SOL    HW237656   1.871   1.235   9.476 -1.5194  3.5618  1.1812
 8732SOL     OW37657   0.778   1.487   7.399 -0.1205 -0.4010  0.3555
 8732SOL    HW137658   0.839   1.429   7.445  1.2918 -0.5252 -1.6457
 8732SOL    HW237659   0.746   1.544   7.468  1.7823  0.8307  0.2390
 8733SOL     OW37660   1.178   0.444   8.687 -0.2229 -0.3703 -0.0895
 8733SOL    HW137661   1.172   0.381   8.759  3.1013 -3.1673 -2.2810
 8733SOL    HW237662   1.243   0.503   8.725 -0.5191  0.2717 -0.5885
 8734SOL     OW37663   0.155   3.895   0.173 -0.0677  0.5041 -0.1405
 8734SOL    HW137664   0.230   3.844   0.145 -0.2707 -0.4403  1.0537
 8734SOL    HW237665   0.195   3.935   0.250  0.6165 -0.6117  0.0670
 8735SOL     OW37666   4.317   4.523   2.518  0.5248  0.2627  0.6569
 8735SOL    HW137667   4.227   4.524   2.484 -0.0395  0.1408  2.1779
 8735SOL    HW237668   4.369   4.539   2.439  2.1132 -0.0500  1.6374
 8736SOL     OW37669   4.543   1.172   9.691  0.0206 -0.0336  0.4612
 8736SOL    HW137670   4.549   1.184   9.596 -0.0670 -1.9512  0.2181
 8736SOL    HW237671   4.569   1.081   9.708 -0.0100 -0.6731 -2.9065
 8737SOL     OW37672   1.876   3.163   3.252 -0.0108  0.4985  0.2646
 8737SOL    HW137673   1.910   3.202   3.171 -1.5585  0.8138 -0.2202
 8737SOL    HW237674   1.940   3.093   3.264  0.7892  0.9168 -1.6458
 8738SOL     OW37675   0.129   4.154   4.824  0.1404 -0.0074 -0.0718
 8738SOL    HW137676   0.144   4.063   4.848  0.8227  0.4323  1.1554
 8738SOL    HW237677   0.113   4.193   4.910 -0.9857  0.7354 -0.6154
 8739SOL     OW37678   2.184   2.768   2.781 -0.0946 -0.0583 -0.6262
 8739SOL    HW137679   2.224   2.836   2.836 -1.5562 -1.6850  2.5032
 8739SOL    HW237680   2.259   2.710   2.769  0.2189 -0.0687  1.2649
 8740SOL     OW37681   3.999   0.375  10.882 -0.6627  0.1234  0.0061
 8740SOL    HW137682   4.040   0.306  10.934 -0.4219 -1.2088 -1.9263
 8740SOL    HW237683   3.981   0.445  10.944 -3.3312 -1.1579  0.6400
 8741SOL     OW37684   2.510   3.218   1.669 -0.1945 -1.1523  0.4084
 8741SOL    HW137685   2.598   3.179   1.671  0.2515 -0.2694 -1.4197
 8741SOL    HW237686   2.536   3.305   1.697  1.6203 -1.6540  0.2943
 8742SOL     OW37687   3.092   0.337   4.951  0.1228  0.1258  0.2323
 8742SOL    HW137688   3.045   0.389   5.016 -1.2146  1.6091 -1.9123
 8742SOL    HW237689   3.127   0.407   4.895 -1.4888  1.2185  0.5984
 8743SOL     OW37690   4.091   2.131   4.429  0.0098 -0.7278 -0.1899
 8743SOL    HW137691   4.003   2.137   4.394 -0.0853 -1.3292 -0.0597
 8743SOL    HW237692   4.105   2.036   4.422 -0.9473 -0.5741 -4.2952
 8744SOL     OW37693   2.960   1.346   3.379 -0.3973 -0.3761 -0.6285
 8744SOL    HW137694   2.927   1.414   3.439  0.4624 -0.0251 -0.5551
 8744SOL    HW237695   2.948   1.263   3.426  0.2549 -0.0369  0.1374
 8745SOL     OW37696   2.210   1.487   3.083  0.3778  0.6971  0.2737
 8745SOL    HW137697   2.126   1.513   3.121  0.7944  0.1338  1.5479
 8745SOL    HW237698   2.201   1.392   3.076 -2.7907  1.0949 -1.5281
 8746SOL     OW37699   1.264   4.295  12.602 -0.2524 -0.2507 -0.2282
 8746SOL    HW137700   1.253   4.376  12.551 -0.0380  0.9220  1.5990
 8746SOL    HW237701   1.199   4.307  12.671 -1.0108  0.0276 -0.9808
 8747SOL     OW37702   4.532   0.390   5.253  0.1250 -0.2230  0.2919
 8747SOL    HW137703   4.623   0.417   5.240  0.1566 -0.8111 -0.7389
 8747SOL    HW237704   4.533   0.316   5.313  2.9747 -0.1890  0.3033
 8748SOL     OW37705   1.954   2.878   6.273 -0.3563 -0.1450  0.0193
 8748SOL    HW137706   1.864   2.909   6.262 -0.0320  1.0366  0.6950
 8748SOL    HW237707   1.978   2.888   6.181  0.0647 -2.4077 -0.1092
 8749SOL     OW37708   3.962   2.682  10.079  0.6637  0.3051 -0.0729
 8749SOL    HW137709   3.952   2.600  10.128 -0.5296 -0.3906 -1.5105
 8749SOL    HW237710   3.924   2.665   9.993 -3.3690 -0.1010  1.7873
 8750SOL     OW37711   3.232   2.757   4.915 -0.0747  0.1993  0.1602
 8750SOL    HW137712   3.296   2.721   4.854  0.7103  0.2695  0.9442
 8750SOL    HW237713   3.222   2.687   4.980 -2.3943 -0.2575 -0.6754
 8751SOL     OW37714   1.826   3.057   9.730  0.0533  0.0672 -0.4299
 8751SOL    HW137715   1.750   3.110   9.753  0.2777 -0.2281  0.9941
 8751SOL    HW237716   1.817   3.055   9.634 -1.0745  0.6176 -0.3360
 8752SOL     OW37717   1.273   2.769   5.951 -0.8356  0.6672  0.1783
 8752SOL    HW137718   1.210   2.704   5.980 -0.7200  1.0096  1.1852
 8752SOL    HW237719   1.357   2.739   5.986 -1.3426 -1.7489 -0.7025
 8753SOL     OW37720   1.683   2.899   6.905  0.2909 -0.7164 -0.5120
 8753SOL    HW137721   1.715   2.837   6.971  2.5332  0.3022 -0.6593
 8753SOL    HW237722   1.741   2.970   6.932  1.4693 -1.2983 -1.5346
 8754SOL     OW37723   1.182   3.660   8.147  0.1841  0.3177 -0.2779
 8754SOL    HW137724   1.165   3.722   8.076  2.9827  0.8662 -0.4771
 8754SOL    HW237725   1.090   3.642   8.167  0.4937  0.7006  1.4107
 8755SOL     OW37726   0.195   4.662   0.495  0.4948 -0.5048 -0.4231
 8755SOL    HW137727   0.255   4.648   0.568 -0.4554  1.6594  0.7824
 8755SOL    HW237728   0.225   4.591   0.438 -0.0820 -0.7135 -0.4611
 8756SOL     OW37729   2.660   0.892   9.134  0.4553  0.3915 -0.5174
 8756SOL    HW137730   2.631   0.819   9.188 -0.0913  0.2057 -1.0629
 8756SOL    HW237731   2.709   0.944   9.197  2.5419  1.0147 -2.6505
 8757SOL     OW37732   2.458   4.633  16.023 -0.9933  0.9597 -0.2225
 8757SOL    HW137733   2.382   4.581  16.048  0.7320 -1.9283 -0.9286
 8757SOL    HW237734   2.504   4.638  16.107  0.1035 -1.9914 -0.6289
 8758SOL     OW37735   4.480   3.927   5.680  0.4664 -0.1416 -0.1520
 8758SOL    HW137736   4.556   3.931   5.738  1.0869 -1.4914 -0.8903
 8758SOL    HW237737   4.513   3.871   5.610  0.4745  0.1570 -0.3877
 8759SOL     OW37738   2.593   2.254   2.188 -0.6862 -0.2398 -0.1843
 8759SOL    HW137739   2.506   2.241   2.227 -1.3457  1.9416 -0.9329
 8759SOL    HW237740   2.566   2.309   2.114  1.0527  1.7370  0.6567
 8760SOL     OW37741   3.675   0.806   6.240  0.3444  0.6521 -0.4207
 8760SOL    HW137742   3.708   0.895   6.233 -0.2230  0.8154 -0.9414
 8760SOL    HW237743   3.750   0.762   6.200  0.6359 -0.3883  1.2613
 8761SOL     OW37744   2.353   1.367  11.328 -0.0443 -0.3586 -0.4486
 8761SOL    HW137745   2.314   1.450  11.301  2.1308  1.3754  1.7566
 8761SOL    HW237746   2.316   1.309  11.261 -1.2405 -1.4600  1.1486
 8762SOL     OW37747   3.128   2.291   5.226 -0.3246 -0.0059  1.0205
 8762SOL    HW137748   3.218   2.266   5.203 -0.6099 -1.7329  1.8020
 8762SOL    HW237749   3.084   2.207   5.221  0.2845 -0.1682 -1.4460
 8763SOL     OW37750   3.113   2.070   1.935  0.5831  0.3680 -0.5304
 8763SOL    HW137751   3.021   2.068   1.961  0.5992 -0.7206 -0.5351
 8763SOL    HW237752   3.140   1.982   1.962  1.4156  0.2620 -1.6961
 8764SOL     OW37753   3.443   4.140   6.269  0.1193  0.7598 -0.3518
 8764SOL    HW137754   3.374   4.136   6.336 -0.2938 -0.0461 -0.8260
 8764SOL    HW237755   3.433   4.057   6.222 -2.6766 -0.1877  1.8843
 8765SOL     OW37756   3.315   2.710   3.311 -0.6693  0.1370  0.2163
 8765SOL    HW137757   3.277   2.626   3.287 -1.5007  0.0855  1.6893
 8765SOL    HW237758   3.274   2.768   3.246  0.9862  1.5073  0.4128
 8766SOL     OW37759   0.659   0.847   2.623 -0.0878  0.0048 -0.6444
 8766SOL    HW137760   0.731   0.850   2.686  1.0746 -0.6559 -1.9560
 8766SOL    HW237761   0.640   0.941   2.614  0.8094  0.1174 -1.3006
 8767SOL     OW37762   1.101   2.849  11.669 -0.6571 -0.7873  0.6176
 8767SOL    HW137763   1.047   2.859  11.591 -1.5121 -0.2114  1.2797
 8767SOL    HW237764   1.179   2.894  11.636 -0.7307 -3.1991 -2.7959
 8768SOL     OW37765   1.986   1.564   6.277 -0.0436 -0.0082 -0.4522
 8768SOL    HW137766   1.902   1.605   6.296 -0.2070  0.8575 -2.9996
 8768SOL    HW237767   2.017   1.553   6.367 -0.5351 -0.6982 -0.3673
 8769SOL     OW37768   0.609   2.403   3.376  0.1860  0.2616 -0.0444
 8769SOL    HW137769   0.652   2.343   3.316  0.4015  1.1562 -0.7912
 8769SOL    HW237770   0.565   2.470   3.323  1.8577  2.1334  0.9576
 8770SOL     OW37771   2.588   3.450   5.029  0.1543  0.7461  0.1139
 8770SOL    HW137772   2.625   3.366   5.002  1.1763  1.2671 -0.1055
 8770SOL    HW237773   2.500   3.447   4.993 -0.3604 -0.2172  1.4765
 8771SOL     OW37774   4.046   4.118   8.119 -0.1849 -0.3564 -1.1603
 8771SOL    HW137775   4.060   4.026   8.097  0.8916 -0.5108  0.2023
 8771SOL    HW237776   3.953   4.131   8.099 -1.0400  1.3621  3.8519
 8772SOL     OW37777   2.267   1.807   3.706  0.4076 -0.6488  0.0918
 8772SOL    HW137778   2.229   1.745   3.645 -0.3529  0.7965 -0.9135
 8772SOL    HW237779   2.317   1.752   3.766 -1.3703 -0.4368  1.8097
 8773SOL     OW37780   4.518   4.067   1.124  0.6272 -0.1184 -0.3883
 8773SOL    HW137781   4.449   4.021   1.171  2.8144 -1.7479  1.2386
 8773SOL    HW237782   4.472   4.117   1.057 -1.2328 -0.3788  0.6951
 8774SOL     OW37783   4.615   3.392   8.774  0.0025  0.1425 -0.5966
 8774SOL    HW137784   4.702   3.351   8.777 -0.4125 -0.7920 -1.2946
 8774SOL    HW237785   4.613   3.438   8.857 -4.0922  0.7777 -1.0908
 8775SOL     OW37786   3.866   2.853   0.811 -0.4690  0.2087 -0.1908
 8775SOL    HW137787   3.877   2.948   0.819 -0.6778  0.0927  1.4699
 8775SOL    HW237788   3.888   2.847   0.719  1.9784 -1.2214  0.4902
 8776SOL     OW37789   4.436   4.389   3.408 -0.1684  0.0935  0.0095
 8776SOL    HW137790   4.527   4.363   3.427  0.1194 -0.5777 -2.2710
 8776SOL    HW237791   4.409   4.320   3.347 -1.7271 -1.6882  2.7198
 8777SOL     OW37792   0.268   3.576  12.053  0.5330 -0.4218 -0.7932
 8777SOL    HW137793   0.220   3.558  12.133  4.0914  0.4593  1.5282
 8777SOL    HW237794   0.357   3.546  12.070  0.8103  0.6782 -0.3201
 8778SOL     OW37795   0.383   3.063   1.324  0.0998 -0.2634 -0.1410
 8778SOL    HW137796   0.410   3.143   1.368 -0.4149 -0.2289  0.0998
 8778SOL    HW237797   0.398   2.994   1.389 -0.5035  0.1424  0.4232
 8779SOL     OW37798   0.920   4.028   3.596 -0.0556 -0.2742  0.2402
 8779SOL    HW137799   0.962   3.983   3.523  2.1947 -1.0227  1.9970
 8779SOL    HW237800   0.956   4.117   3.585 -2.1949  0.4354 -0.8993
 8780SOL     OW37801   2.810   3.376   9.094 -0.3181 -0.4177  0.3121
 8780SOL    HW137802   2.754   3.425   9.034  1.9384  1.0967 -0.5527
 8780SOL    HW237803   2.783   3.407   9.180 -1.1782  2.8408 -1.1452
 8781SOL     OW37804   1.260   1.624   1.619  0.5085  0.2057 -0.2508
 8781SOL    HW137805   1.304   1.556   1.569 -3.0358 -0.5889 -2.3055
 8781SOL    HW237806   1.314   1.620   1.697 -1.9526 -0.1618  1.4514
 8782SOL     OW37807   1.237   2.741   1.524 -0.3525 -0.2649  0.4690
 8782SOL    HW137808   1.280   2.802   1.464 -1.5392 -0.4525 -0.5593
 8782SOL    HW237809   1.157   2.714   1.479  0.1917 -1.7046  0.3626
 8783SOL     OW37810   2.117   1.315   1.735  0.5002  0.4142  0.2360
 8783SOL    HW137811   2.136   1.385   1.798 -1.2292 -0.5506  1.8074
 8783SOL    HW237812   2.035   1.344   1.695  0.9208  2.1484  0.6550
 8784SOL     OW37813   2.063   0.195   4.872  0.0175 -0.3849  0.2346
 8784SOL    HW137814   2.089   0.183   4.963  1.0431  2.6142  0.3166
 8784SOL    HW237815   2.005   0.118   4.868 -0.9315  0.2383  1.8495
 8785SOL     OW37816   2.128   2.730   7.208 -0.0262 -0.3299 -0.7098
 8785SOL    HW137817   2.085   2.646   7.193 -0.0346 -0.4437 -0.0514
 8785SOL    HW237818   2.133   2.767   7.120  0.6169  0.1720 -0.4656
 8786SOL     OW37819   1.755   1.663   2.202  0.4384 -0.6732  0.6299
 8786SOL    HW137820   1.792   1.676   2.114  0.3175  3.3663  1.2022
 8786SOL    HW237821   1.719   1.577   2.178 -0.1133 -0.6140  1.2580
 8787SOL     OW37822   0.516   3.412   8.127 -0.0433 -0.5764 -0.1200
 8787SOL    HW137823   0.569   3.452   8.058  0.0064 -0.1277  0.1782
 8787SOL    HW237824   0.439   3.467   8.138  1.5762  1.3657  1.4374
 8788SOL     OW37825   4.715   4.003   1.383  0.4960  0.0470 -0.2915
 8788SOL    HW137826   0.017   3.956   1.303  2.4243 -0.5947  0.6098
 8788SOL    HW237827   4.628   3.965   1.397  1.2182 -1.3914  0.2542
 8789SOL     OW37828   0.855   1.693   8.766  0.2297  0.0358 -0.1010
 8789SOL    HW137829   0.898   1.630   8.824 -2.6477 -0.9070  0.9818
 8789SOL    HW237830   0.819   1.758   8.826 -2.1559 -1.1856 -0.1775
 8790SOL     OW37831   0.962   0.016  15.922 -0.4432  0.1692  0.0956
 8790SOL    HW137832   0.951   0.104  15.886 -1.6759  1.0705  2.7548
 8790SOL    HW237833   0.962   4.684  15.841  0.6395  1.0188 -0.4496
 8791SOL     OW37834   2.583   2.612   7.447  0.2231 -0.4813  0.3563
 8791SOL    HW137835   2.621   2.697   7.469 -0.8952  0.3277 -0.8564
 8791SOL    HW237836   2.513   2.605   7.512 -3.1645  0.0040 -3.2420
 8792SOL     OW37837   0.950   4.120  14.917  0.0277  0.6390 -0.4263
 8792SOL    HW137838   1.010   4.141  14.989 -0.0447 -2.2709  0.4763
 8792SOL    HW237839   0.883   4.065  14.958 -1.9005  1.9420 -1.8168
 8793SOL     OW37840   2.330   2.884   4.787 -0.1930  0.3558  0.2116
 8793SOL    HW137841   2.300   2.953   4.846  0.0796  1.1616 -0.5918
 8793SOL    HW237842   2.289   2.914   4.706 -0.3176  1.8087  0.8203
 8794SOL     OW37843   3.418   3.174   1.705 -0.0086 -0.0248  0.1684
 8794SOL    HW137844   3.333   3.183   1.662  0.4331 -2.1925 -1.1556
 8794SOL    HW237845   3.469   3.224   1.641  0.4403  2.0224  2.1345
 8795SOL     OW37846   2.131   0.018   2.761 -0.5976 -0.0020 -0.2025
 8795SOL    HW137847   2.188   0.093   2.741 -0.3450 -0.4688 -1.2686
 8795SOL    HW237848   2.186   4.668   2.724  1.3060  1.9231 -0.9779
 8796SOL     OW37849   3.324   2.323   3.517 -0.1685 -0.4303  0.3036
 8796SOL    HW137850   3.252   2.294   3.573  0.5519 -0.7847  1.0413
 8796SOL    HW237851   3.340   2.403   3.566 -3.9068  0.5326 -0.0064
 8797SOL     OW37852   3.686   2.270  17.671 -0.1057  0.5435  0.0567
 8797SOL    HW137853   3.745   2.197  17.653 -0.4572 -0.6412  3.7262
 8797SOL    HW237854   3.697   2.327  17.595  0.5250  1.2886  0.7175
 8798SOL     OW37855   2.460   3.282  12.750  0.1437  0.5082  0.1854
 8798SOL    HW137856   2.554   3.290  12.767  0.3749  0.2921 -0.9980
 8798SOL    HW237857   2.435   3.215  12.814  0.5970  0.8476  0.7207
 8799SOL     OW37858   0.261   3.543   0.312 -0.8062  0.2651 -0.6884
 8799SOL    HW137859   0.192   3.485   0.280  1.5810 -2.8779 -0.1312
 8799SOL    HW237860   0.321   3.475   0.341 -0.1903 -0.2139 -3.0677
 8800SOL     OW37861   3.359   1.243   5.226 -0.6998 -0.0784 -0.0914
 8800SOL    HW137862   3.378   1.302   5.299 -1.1392  0.2369 -0.2301
 8800SOL    HW237863   3.337   1.310   5.161 -3.5160 -0.7396  0.1704
 8801SOL     OW37864   1.623   4.049   3.059 -0.2310 -0.4886 -0.7910
 8801SOL    HW137865   1.679   4.053   3.137  0.7545 -0.4211 -1.5073
 8801SOL    HW237866   1.675   4.098   2.995 -1.3335  2.2178  0.4032
 8802SOL     OW37867   0.454   1.342   5.771 -0.0073 -0.5303  0.2971
 8802SOL    HW137868   0.402   1.262   5.762 -0.1177 -0.5164  0.8151
 8802SOL    HW237869   0.461   1.356   5.865 -0.2611  0.2480  0.1965
 8803SOL     OW37870   2.071   0.764   4.521 -0.4537  0.0645  0.4869
 8803SOL    HW137871   2.127   0.688   4.507 -0.1500  0.2000  0.9637
 8803SOL    HW237872   2.071   0.772   4.617  2.8003  0.4403  0.4393
 8804SOL     OW37873   3.057   1.014   7.272  0.1100 -0.6902  0.3982
 8804SOL    HW137874   2.999   0.962   7.327 -2.2544 -0.2524 -1.6814
 8804SOL    HW237875   2.991   1.055   7.217  0.5367 -1.3089 -0.5656
 8805SOL     OW37876   0.280   3.988   0.436  0.1793 -0.1820 -0.0775
 8805SOL    HW137877   0.290   3.905   0.483  1.3737  0.4069  0.7146
 8805SOL    HW237878   0.218   4.036   0.491 -1.2214 -0.0762 -1.7715
 8806SOL     OW37879   3.909   1.824  14.557  0.2394 -0.0516  0.0577
 8806SOL    HW137880   3.904   1.746  14.612 -0.1673 -0.1694 -0.1495
 8806SOL    HW237881   4.002   1.838  14.541  0.2685  0.7846  0.9537
 8807SOL     OW37882   2.043   4.342  14.645 -0.0336  0.1494 -0.5490
 8807SOL    HW137883   2.135   4.323  14.661 -0.5582 -4.5036 -3.1623
 8807SOL    HW237884   2.056   4.393  14.565  3.8478  1.0520  0.6920
 8808SOL     OW37885   1.974   2.537  16.345  0.1785 -0.1525  0.5525
 8808SOL    HW137886   2.031   2.556  16.420  2.3999  0.8319 -1.3872
 8808SOL    HW237887   1.938   2.454  16.377  1.1674 -0.4871  0.7983
 8809SOL     OW37888   0.310   4.199   9.765 -0.0581 -0.2247  0.1908
 8809SOL    HW137889   0.293   4.107   9.746 -0.1656  0.0069 -0.8150
 8809SOL    HW237890   0.389   4.208   9.712  2.1386 -0.9170  3.3490
 8810SOL     OW37891   1.191   0.299  16.545  0.7368 -0.0827 -0.5058
 8810SOL    HW137892   1.267   0.291  16.603 -0.1830 -2.1284  0.3869
 8810SOL    HW237893   1.223   0.356  16.474  0.9760  1.4033  0.7824
 8811SOL     OW37894   1.456   0.692   7.379  0.4355  0.0490  0.3065
 8811SOL    HW137895   1.522   0.622   7.381 -0.3800 -0.6955  1.1698
 8811SOL    HW237896   1.466   0.726   7.467  1.8621 -0.0260  0.1819
 8812SOL     OW37897   0.397   4.438   9.081  0.3438  0.3331  0.2905
 8812SOL    HW137898   0.379   4.428   9.175 -1.6303 -1.6927 -0.3053
 8812SOL    HW237899   0.398   4.348   9.048 -2.3546  0.3933  0.0351
 8813SOL     OW37900   4.409   1.950  10.910 -0.2291  0.0118  0.5404
 8813SOL    HW137901   4.491   1.965  10.863 -1.6798  0.7993 -1.7725
 8813SOL    HW237902   4.363   1.886  10.856 -1.7892  0.5468  1.2146
 8814SOL     OW37903   4.090   0.468   6.277  0.5774 -0.0613 -0.3179
 8814SOL    HW137904   4.179   0.485   6.308  1.6168 -2.4684 -1.9826
 8814SOL    HW237905   4.038   0.519   6.338 -1.2239 -1.6441 -0.5651
 8815SOL     OW37906   0.765   0.090  14.589 -0.2067 -0.5467 -0.4472
 8815SOL    HW137907   0.740   0.112  14.679 -1.2139  0.3333 -0.9424
 8815SOL    HW237908   0.857   0.118  14.594 -0.6472  1.1505 -1.9642
 8816SOL     OW37909   0.122   4.353   9.642 -0.3075 -0.3297 -0.1013
 8816SOL    HW137910   0.177   4.313   9.709  1.2996  0.1497 -1.1300
 8816SOL    HW237911   0.121   4.295   9.566  1.1290 -1.4519  0.7348
 8817SOL     OW37912   1.993   2.854   6.836  0.0387  0.2436 -0.4454
 8817SOL    HW137913   1.966   2.763   6.852  0.6651  0.1452  0.0364
 8817SOL    HW237914   2.024   2.870   6.924  1.4447 -1.2783 -0.6628
 8818SOL     OW37915   1.676   2.157   7.152  0.6314  0.0929  0.1449
 8818SOL    HW137916   1.617   2.101   7.202 -2.2212  0.9724 -2.2771
 8818SOL    HW237917   1.610   2.217   7.118  0.8438 -0.3413 -1.0501
 8819SOL     OW37918   2.437   2.172   1.785  0.4034  0.2744 -0.3209
 8819SOL    HW137919   2.466   2.081   1.793 -2.7753 -1.0164 -3.2420
 8819SOL    HW237920   2.509   2.226   1.817  0.4864  0.7730 -1.3474
 8820SOL     OW37921   0.280   1.135   8.904 -0.2751  0.3332  0.6943
 8820SOL    HW137922   0.187   1.155   8.916 -0.1908  1.0970  0.0430
 8820SOL    HW237923   0.312   1.163   8.990 -1.2425 -1.6676  1.6898
 8821SOL     OW37924   1.231   4.606   1.218  0.4446 -0.3492 -0.0234
 8821SOL    HW137925   1.150   4.560   1.240  0.3942  0.0557  0.6385
 8821SOL    HW237926   1.222   4.676   1.283  1.0136  0.8548 -1.2459
 8822SOL     OW37927   3.975   3.215  11.062  0.0442  0.6683 -0.1406
 8822SOL    HW137928   3.986   3.278  10.990 -1.8599  1.0643 -0.0912
 8822SOL    HW237929   4.063   3.202  11.096 -0.0417  0.5077  0.0180
 8823SOL     OW37930   1.893   3.600  10.796  0.6758 -0.1414 -0.3387
 8823SOL    HW137931   1.830   3.576  10.729  0.8624 -0.4377 -0.4095
 8823SOL    HW237932   1.964   3.562  10.744  1.1016  0.4891 -0.2245
 8824SOL     OW37933   0.913   0.351   8.021 -0.3051 -0.4419 -0.2184
 8824SOL    HW137934   0.921   0.313   7.934 -0.6676 -0.9535 -0.0241
 8824SOL    HW237935   0.837   0.302   8.051 -1.1515  0.3597 -1.0329
 8825SOL     OW37936   2.808   2.322  17.319  0.4131  0.2014 -0.2812
 8825SOL    HW137937   2.777   2.255  17.258  1.5247 -0.3138 -0.2764
 8825SOL    HW237938   2.841   2.388  17.258 -3.6784 -0.8046 -3.5970
 8826SOL     OW37939   1.785   0.866  14.590  0.4386  0.2170 -0.2069
 8826SOL    HW137940   1.840   0.868  14.668 -1.4640 -1.4894  1.1667
 8826SOL    HW237941   1.700   0.902  14.617  1.2501  0.5810  1.8473
 8827SOL     OW37942   3.804   1.744   9.128  0.7664 -0.3666 -0.3592
 8827SOL    HW137943   3.853   1.662   9.121  0.6561 -0.4796  0.2019
 8827SOL    HW237944   3.730   1.718   9.182 -0.1256  0.1605 -1.3120
 8828SOL     OW37945   2.353   2.668   5.564 -0.8727  0.0401  0.0281
 8828SOL    HW137946   2.272   2.714   5.584  0.3340  0.6710  3.5247
 8828SOL    HW237947   2.416   2.730   5.602 -0.3631  0.8156 -2.0796
 8829SOL     OW37948   0.294   4.082   1.099 -0.6898  0.2865  0.1819
 8829SOL    HW137949   0.288   4.134   1.179  2.2329 -0.4197  0.8684
 8829SOL    HW237950   0.202   4.085   1.072 -0.9842  1.5287  1.3106
 8830SOL     OW37951   1.365   2.315   6.566  0.1912 -0.1092  0.7740
 8830SOL    HW137952   1.388   2.399   6.525  0.3563 -0.6610 -0.2689
 8830SOL    HW237953   1.325   2.279   6.487  2.4344 -0.4703 -0.2030
 8831SOL     OW37954   3.160   1.834   0.047  0.6969 -0.1884 -0.0695
 8831SOL    HW137955   3.170   1.754  17.676  0.3799  0.5022 -1.1936
 8831SOL    HW237956   3.100   1.884  17.672 -0.9288 -4.0138 -1.7720
 8832SOL     OW37957   0.629   2.176   3.846  0.2437  0.1402 -0.0739
 8832SOL    HW137958   0.569   2.119   3.797  0.7234 -0.6557  0.2557
 8832SOL    HW237959   0.645   2.248   3.784 -0.0828 -0.0539 -0.3805
 8833SOL     OW37960   3.721   3.979  16.123 -0.0212 -0.5240 -0.2055
 8833SOL    HW137961   3.659   3.929  16.175  0.4575 -0.6075  0.2830
 8833SOL    HW237962   3.677   3.994  16.039 -0.5841  4.5582  0.9839
 8834SOL     OW37963   1.642   1.292   1.097  0.0005 -0.1069 -0.2817
 8834SOL    HW137964   1.670   1.280   1.188 -0.0549 -2.6155 -0.6126
 8834SOL    HW237965   1.547   1.289   1.110 -0.6012 -0.3199 -4.6729
 8835SOL     OW37966   3.283   3.884   8.216 -0.1407 -0.1177 -0.3036
 8835SOL    HW137967   3.323   3.799   8.234  2.3032  1.1199  0.0934
 8835SOL    HW237968   3.361   3.938   8.224  0.7290 -1.4672  0.2529
 8836SOL     OW37969   3.120   0.327  10.335 -0.1110 -0.3859 -0.2481
 8836SOL    HW137970   3.074   0.243  10.334  0.2300 -0.5870  0.5395
 8836SOL    HW237971   3.185   0.316  10.266 -0.5752 -3.0834 -0.2707
 8837SOL     OW37972   3.181   1.020  12.108 -0.6673  0.0017 -0.5143
 8837SOL    HW137973   3.251   0.994  12.048  0.4934  0.7220  0.5253
 8837SOL    HW237974   3.173   0.951  12.174 -0.3505  0.7780  0.3314
 8838SOL     OW37975   1.898   4.486   3.254  0.5362 -0.4669  0.1827
 8838SOL    HW137976   1.873   4.520   3.340 -0.8188 -3.4435  0.9774
 8838SOL    HW237977   1.819   4.434   3.236  2.0708 -3.3528  1.9353
 8839SOL     OW37978   0.586   4.560  15.798  0.0504  0.1714  0.5091
 8839SOL    HW137979   0.562   4.645  15.835  1.7711  1.6067 -1.6735
 8839SOL    HW237980   0.651   4.540  15.865  0.4300 -1.4314 -0.3455
 8840SOL     OW37981   1.942   4.284   7.367 -0.3645 -0.6497 -0.1944
 8840SOL    HW137982   1.946   4.197   7.327  2.3504  0.2558 -1.9341
 8840SOL    HW237983   2.000   4.321   7.300 -2.1941 -0.7771 -1.8330
 8841SOL     OW37984   0.292   0.329   1.424  0.2629  0.3431 -0.2314
 8841SOL    HW137985   0.372   0.281   1.403 -0.6089 -0.2628 -2.1898
 8841SOL    HW237986   0.323   0.419   1.412 -2.3536  1.2633 -0.1288
 8842SOL     OW37987   2.753   4.560  14.597  0.5225 -0.1334 -0.3306
 8842SOL    HW137988   2.846   4.572  14.580  0.5019 -0.5712 -0.7791
 8842SOL    HW237989   2.725   4.651  14.604  0.6660 -0.0679 -0.6013
 8843SOL     OW37990   0.643   0.533   0.236  0.4141  0.1487  0.0568
 8843SOL    HW137991   0.562   0.506   0.279 -0.0634  2.0688  0.3764
 8843SOL    HW237992   0.704   0.466   0.268  0.2466  0.0944  0.2648
 8844SOL     OW37993   2.768   4.399   2.735 -1.2991 -0.5046  0.3379
 8844SOL    HW137994   2.841   4.453   2.767 -0.9333 -0.6823 -0.1964
 8844SOL    HW237995   2.800   4.316   2.771  0.7292 -0.1889 -0.7168
 8845SOL     OW37996   2.463   0.969   4.261  0.3213 -0.2525  0.4030
 8845SOL    HW137997   2.439   0.973   4.354 -0.4243 -3.0697  0.3257
 8845SOL    HW237998   2.450   1.057   4.226  1.7756 -0.2633 -0.2019
 8846SOL     OW37999   3.155   3.558  14.337 -0.0958 -0.1560  0.2225
 8846SOL    HW138000   3.165   3.543  14.243  0.9487 -0.1587  0.3317
 8846SOL    HW238001   3.225   3.621  14.353  0.8456 -1.3614  0.8073
 8847SOL     OW38002   3.384   3.682  11.614 -0.2085  0.2786  0.8640
 8847SOL    HW138003   3.299   3.649  11.584  0.0561  2.1601 -1.9907
 8847SOL    HW238004   3.389   3.770  11.576 -0.2374  0.0286  0.2762
 8848SOL     OW38005   1.497   1.513  11.932 -0.0524  0.1031 -0.5100
 8848SOL    HW138006   1.547   1.594  11.925  0.1764 -0.0919 -1.0784
 8848SOL    HW238007   1.423   1.531  11.874 -0.8181  0.3739  0.5386
 8849SOL     OW38008   4.108   2.728   3.889  0.3190 -0.1277  0.1879
 8849SOL    HW138009   4.091   2.822   3.893  1.4680  0.0093  2.0417
 8849SOL    HW238010   4.094   2.712   3.982  1.3824 -0.0144  0.3727
 8850SOL     OW38011   0.220   2.580   0.427 -0.2831 -0.0172 -0.0598
 8850SOL    HW138012   0.270   2.512   0.382 -0.9076 -0.7359  0.3581
 8850SOL    HW238013   0.274   2.655   0.402 -0.1012  0.8154  2.8595
 8851SOL     OW38014   1.085   4.324   6.757 -0.1190 -0.2651  0.1510
 8851SOL    HW138015   1.022   4.344   6.687 -0.9347  0.9570  1.2461
 8851SOL    HW238016   1.033   4.286   6.828  0.7355 -1.2018  0.2683
 8852SOL     OW38017   4.664   1.155   3.821  0.3819 -0.1781  0.2904
 8852SOL    HW138018   4.709   1.195   3.747  0.1717 -3.4980 -1.6660
 8852SOL    HW238019   4.618   1.085   3.774  0.4155 -0.3815  0.5620
 8853SOL     OW38020   2.906   0.417   3.867  1.0522 -0.2661  0.0189
 8853SOL    HW138021   2.855   0.367   3.804 -0.6312 -1.5495  2.3875
 8853SOL    HW238022   2.906   0.360   3.945 -0.1210  0.3653  0.4765
 8854SOL     OW38023   1.759   2.859   3.444 -0.1007 -0.5307 -0.0740
 8854SOL    HW138024   1.768   2.766   3.425  0.9194 -0.6814  1.1057
 8854SOL    HW238025   1.674   2.879   3.405  0.1617  0.7159 -0.0029
 8855SOL     OW38026   1.402   1.631   5.774  0.1866 -0.0201  0.0171
 8855SOL    HW138027   1.468   1.583   5.824  0.1918  0.1749  0.1993
 8855SOL    HW238028   1.348   1.663   5.847  1.0077  1.7004 -0.1358
 8856SOL     OW38029   4.188   0.598  13.544 -0.1213 -0.4247 -0.1851
 8856SOL    HW138030   4.106   0.578  13.589 -1.2074  1.2080 -1.4491
 8856SOL    HW238031   4.148   0.639  13.467  1.4619  1.5790  0.0660
 8857SOL     OW38032   3.816   3.019   8.566  0.5228  0.3109  0.0970
 8857SOL    HW138033   3.872   2.984   8.635  0.7040 -3.0272 -1.7364
 8857SOL    HW238034   3.746   3.037   8.628 -0.8183 -0.8551 -1.0741
 8858SOL     OW38035   3.685   3.686  17.162  0.9126 -0.2965 -0.2012
 8858SOL    HW138036   3.720   3.764  17.206  1.2240 -1.7872  2.1881
 8858SOL    HW238037   3.755   3.678  17.096  0.0254 -0.1739 -1.1515
 8859SOL     OW38038   0.605   2.805   6.233 -0.2291  0.2355 -0.1648
 8859SOL    HW138039   0.681   2.861   6.247  0.6035 -1.1952  1.0836
 8859SOL    HW238040   0.590   2.832   6.142  1.8661 -3.6284 -1.6624
 8860SOL     OW38041   4.198   1.474   5.817 -0.1918  0.3289 -0.0317
 8860SOL    HW138042   4.287   1.440   5.807 -0.6103  0.0829 -2.8898
 8860SOL    HW238043   4.161   1.434   5.738  1.1047 -0.5979 -0.1826
 8861SOL     OW38044   2.700   0.653   6.944 -0.5238  0.0621 -0.0264
 8861SOL    HW138045   2.723   0.565   6.914 -2.8761 -0.6228  0.1153
 8861SOL    HW238046   2.784   0.684   6.976 -0.5982 -2.4330  2.5739
 8862SOL     OW38047   3.068   0.351   8.248 -0.8993 -0.1745 -0.1248
 8862SOL    HW138048   3.006   0.418   8.275 -1.1161 -0.5470  0.3011
 8862SOL    HW238049   3.080   0.300   8.329 -2.0636 -0.1421  0.0709
 8863SOL     OW38050   3.308   4.088   5.245 -0.2397  0.0016 -0.3541
 8863SOL    HW138051   3.259   4.060   5.168  0.2648 -1.1931 -0.2485
 8863SOL    HW238052   3.336   4.003   5.279 -2.2942  0.6755  3.0858
 8864SOL     OW38053   3.596   1.184   3.139 -0.3994  0.2320  0.4523
 8864SOL    HW138054   3.685   1.163   3.169  0.2912  2.0579 -0.3527
 8864SOL    HW238055   3.592   1.172   3.044  0.2192  0.9403  0.3332
 8865SOL     OW38056   0.033   0.188   6.982 -0.0677 -0.2265 -0.0022
 8865SOL    HW138057   0.039   0.196   6.886 -1.7163  1.6784  0.0718
 8865SOL    HW238058   0.058   0.097   6.998 -1.9200 -0.8191 -0.4576
 8866SOL     OW38059   4.053   2.410   6.596  0.3917 -0.0803 -0.3050
 8866SOL    HW138060   3.984   2.445   6.540  1.8388 -0.3203 -2.2346
 8866SOL    HW238061   4.030   2.440   6.684  0.4136  1.5274 -0.8485
 8867SOL     OW38062   0.788   1.858  12.654  0.2460 -0.1449  0.3147
 8867SOL    HW138063   0.727   1.834  12.724 -2.1505 -3.7055 -3.0027
 8867SOL    HW238064   0.810   1.950  12.668  1.1041 -0.1897 -0.7051
 8868SOL     OW38065   1.783   1.469  15.125 -0.0429  0.3637 -0.0553
 8868SOL    HW138066   1.719   1.444  15.192  1.6725  1.5640  2.0585
 8868SOL    HW238067   1.727   1.467  15.047 -0.9397  0.1318  0.5929
 8869SOL     OW38068   2.007   4.658   4.524 -0.3060  0.5447  0.0367
 8869SOL    HW138069   1.919   4.637   4.555 -0.3944  1.2962  0.2892
 8869SOL    HW238070   2.058   4.592   4.572  2.1177  2.7434  0.4714
 8870SOL     OW38071   0.622   3.326  13.969 -0.5384 -0.5449 -0.2448
 8870SOL    HW138072   0.535   3.287  13.977 -1.4835  1.6577  0.2468
 8870SOL    HW238073   0.612   3.409  13.923  1.6023  0.4375  1.0738
 8871SOL     OW38074   2.617   2.714   4.917 -0.4759  0.1713  0.0695
 8871SOL    HW138075   2.682   2.654   4.880 -0.7089 -0.6162  0.9396
 8871SOL    HW238076   2.665   2.751   4.991 -0.2678  4.0620 -2.0252
 8872SOL     OW38077   1.048   2.298  11.931  0.3436 -0.3365  0.3070
 8872SOL    HW138078   1.109   2.371  11.916 -0.6250  0.2726 -0.6732
 8872SOL    HW238079   0.985   2.335  11.993 -0.8895 -2.4905  0.3039
 8873SOL     OW38080   0.961   1.047   9.727  0.1087 -0.6524  0.0864
 8873SOL    HW138081   0.978   0.956   9.749  1.4656  0.0993  2.1004
 8873SOL    HW238082   0.876   1.032   9.686 -0.3855 -1.9737  1.6384
 8874SOL     OW38083   3.520   0.876   2.634 -0.3666 -0.3040 -0.5984
 8874SOL    HW138084   3.578   0.938   2.678 -2.5297  0.2305  1.5640
 8874SOL    HW238085   3.564   0.791   2.639  0.3475  0.1056  0.0704
 8875SOL     OW38086   1.099   1.649   3.781  0.6743 -0.0554  0.0466
 8875SOL    HW138087   1.180   1.604   3.757  0.6145  1.0152 -2.1187
 8875SOL    HW238088   1.045   1.605   3.716  0.4846 -0.3263  0.3866
 8876SOL     OW38089   0.208   4.208   8.269  0.6007  0.0378 -0.1086
 8876SOL    HW138090   0.114   4.227   8.271  0.5891  0.2828 -3.7834
 8876SOL    HW238091   0.233   4.225   8.360 -0.8321 -0.8121  0.4528
 8877SOL     OW38092   3.008   2.656   7.087  0.1812 -0.1635  0.2968
 8877SOL    HW138093   2.996   2.714   7.011  1.0557  1.5627  1.4758
 8877SOL    HW238094   3.037   2.577   7.040 -4.1394 -1.5828  0.0542
 8878SOL     OW38095   0.099   3.622   0.757  0.2151 -0.5089 -0.3432
 8878SOL    HW138096   0.155   3.564   0.807 -1.3601 -3.8332 -2.4138
 8878SOL    HW238097   0.046   3.560   0.708 -0.0603  1.3457 -2.3995
 8879SOL     OW38098   3.616   2.677  13.521 -0.0235 -0.1397  0.2219
 8879SOL    HW138099   3.682   2.612  13.545 -0.6180 -1.0232 -0.5529
 8879SOL    HW238100   3.614   2.718  13.607 -1.7094 -0.9073  0.5319
 8880SOL     OW38101   2.181   0.311   8.780 -0.5462  0.1343  0.3536
 8880SOL    HW138102   2.107   0.371   8.786 -1.6758 -1.0804 -1.3882
 8880SOL    HW238103   2.127   0.232   8.778 -1.4619  0.7384  1.3333
 8881SOL     OW38104   3.834   2.618   7.810 -0.1918  0.1879 -0.1946
 8881SOL    HW138105   3.880   2.594   7.891 -1.6667 -1.9123  0.0436
 8881SOL    HW238106   3.742   2.605   7.832 -0.5264  2.8220 -0.0532
 8882SOL     OW38107   3.231   3.638   7.225  0.0003 -1.1555 -0.6532
 8882SOL    HW138108   3.237   3.731   7.248 -1.2241 -0.8417 -1.5768
 8882SOL    HW238109   3.226   3.640   7.129 -3.2503  1.2666 -0.4262
 8883SOL     OW38110   0.595   1.595   8.281  0.1561 -0.3192 -0.9095
 8883SOL    HW138111   0.515   1.628   8.322  0.8427  2.5074 -1.8520
 8883SOL    HW238112   0.634   1.597   8.369  0.6990  0.3202 -1.1596
 8884SOL     OW38113   4.317   3.189  10.199  0.2403 -0.0749 -0.0832
 8884SOL    HW138114   4.379   3.136  10.249  0.0839 -0.3411 -0.1657
 8884SOL    HW238115   4.239   3.142  10.230 -0.0056 -0.3602 -1.1292
 8885SOL     OW38116   4.457   0.805   2.507  0.1492  0.4587  0.6569
 8885SOL    HW138117   4.369   0.826   2.475  0.1634 -3.0418 -1.6781
 8885SOL    HW238118   4.488   0.752   2.433 -1.5934 -0.6001  0.6959
 8886SOL     OW38119   2.363   2.814  12.691  0.1559 -0.6223 -0.6081
 8886SOL    HW138120   2.392   2.730  12.726  1.6004 -0.3045 -1.0270
 8886SOL    HW238121   2.295   2.852  12.748 -0.7669 -2.3681 -0.5594
 8887SOL     OW38122   3.941   2.056   8.762  0.6259 -0.1072 -0.2072
 8887SOL    HW138123   4.020   2.106   8.741  0.3661  0.9561  1.3395
 8887SOL    HW238124   3.965   1.967   8.786  2.1833  0.2347 -0.5492
 8888SOL     OW38125   0.659   1.605   8.548  0.6745  0.5920  0.1385
 8888SOL    HW138126   0.569   1.633   8.565  0.6959 -0.4973  1.9779
 8888SOL    HW238127   0.704   1.628   8.629 -0.1084 -0.0381  0.7428
 8889SOL     OW38128   1.580   1.452   2.178  0.2274  0.2298 -0.5401
 8889SOL    HW138129   1.507   1.514   2.179  0.8553  0.9605  0.8983
 8889SOL    HW238130   1.535   1.379   2.135 -0.7856  1.3596 -1.3639
 8890SOL     OW38131   4.290   4.109   2.169 -0.1743 -0.1458 -0.1770
 8890SOL    HW138132   4.225   4.177   2.153 -1.1687 -0.3810  2.9870
 8890SOL    HW238133   4.284   4.045   2.098 -3.0149 -0.3242  0.2515
 8891SOL     OW38134   3.697   3.279   3.115  0.0224 -0.0044 -1.1914
 8891SOL    HW138135   3.646   3.198   3.119  0.7593 -0.3558  1.4824
 8891SOL    HW238136   3.696   3.288   3.210 -2.4658  0.2680 -1.2540
 8892SOL     OW38137   4.689   0.124   9.047  0.1595 -0.2066 -0.5203
 8892SOL    HW138138   4.636   0.203   9.042 -0.3439 -0.3664  2.0698
 8892SOL    HW238139   0.040   0.157   8.992  1.0358 -2.3417 -0.6766
 8893SOL     OW38140   2.779   2.434  12.324  0.2938  0.3904  0.0009
 8893SOL    HW138141   2.761   2.356  12.272  3.4394  1.1117 -2.1499
 8893SOL    HW238142   2.844   2.402  12.387 -1.1611  0.5976  1.6010
 8894SOL     OW38143   4.379   4.007   7.274  0.3014 -0.3093 -0.0297
 8894SOL    HW138144   4.407   4.071   7.339  1.6409 -0.9781  0.0538
 8894SOL    HW238145   4.464   3.973   7.246  0.9455  0.3087  1.1978
 8895SOL     OW38146   2.183   4.216   3.893 -0.2064 -0.0286  0.1446
 8895SOL    HW138147   2.118   4.168   3.842 -0.7530  0.9430 -0.0657
 8895SOL    HW238148   2.253   4.154   3.872  1.0630  1.5401 -0.1931
 8896SOL     OW38149   1.995   1.734  17.028  0.7322 -0.0688 -0.0716
 8896SOL    HW138150   1.904   1.734  16.998  0.8352 -1.4841 -0.3537
 8896SOL    HW238151   2.016   1.827  17.035  0.4788 -0.1920  2.3075
 8897SOL     OW38152   4.121   3.242   6.990  0.1001 -0.1442 -0.1343
 8897SOL    HW138153   4.106   3.175   7.057 -0.9985 -0.4047 -0.6559
 8897SOL    HW238154   4.052   3.305   7.011 -0.9789 -1.6052  0.7272
 8898SOL     OW38155   1.785   0.512   8.251 -0.0145 -0.0134 -0.4526
 8898SOL    HW138156   1.803   0.438   8.194 -2.1501 -2.1999  1.6854
 8898SOL    HW238157   1.837   0.584   8.216 -1.3909  0.8497 -0.7433
 8899SOL     OW38158   3.931   0.886   4.420  0.1766 -0.1509 -0.2248
 8899SOL    HW138159   4.026   0.872   4.419  0.3203  0.6511  1.0553
 8899SOL    HW238160   3.895   0.803   4.391  2.4522 -0.8018 -1.2058
 8900SOL     OW38161   0.181   1.656   7.273 -0.5268  0.4269 -0.1225
 8900SOL    HW138162   0.120   1.597   7.230  1.0058  0.1686 -1.9356
 8900SOL    HW238163   0.231   1.594   7.327 -0.4068  1.3721  0.8428
 8901SOL     OW38164   2.288   4.668   4.367 -0.3585  0.6712 -0.0243
 8901SOL    HW138165   2.317   0.001   4.293  2.9433  1.2869  1.7280
 8901SOL    HW238166   2.213   0.006   4.383 -0.8376  0.2069 -0.6158
 8902SOL     OW38167   4.476   0.391   3.179  0.2843  0.3542 -0.4646
 8902SOL    HW138168   4.500   0.301   3.201  1.6026  0.6276 -0.8137
 8902SOL    HW238169   4.524   0.416   3.100  1.0558 -0.0389 -0.1269
 8903SOL     OW38170   1.166   1.031   8.682 -0.8350  0.1727  0.1613
 8903SOL    HW138171   1.205   1.086   8.615 -2.6987 -0.0837 -1.1115
 8903SOL    HW238172   1.111   0.968   8.637 -1.0975  0.1794  0.4705
 8904SOL     OW38173   0.219   0.649   7.074  0.4048  0.7689  0.5155
 8904SOL    HW138174   0.174   0.699   7.142 -4.5242 -1.3099 -1.2840
 8904SOL    HW238175   0.236   0.568   7.121  2.3237  1.4606  1.0406
 8905SOL     OW38176   4.519   1.535   7.762 -0.2344  0.3072 -0.5716
 8905SOL    HW138177   4.436   1.491   7.742 -0.9399  1.4441 -0.1780
 8905SOL    HW238178   4.544   1.469   7.826 -0.4430  0.6535 -0.1406
 8906SOL     OW38179   0.837   0.331   0.361 -0.6618  0.1242  0.3014
 8906SOL    HW138180   0.894   0.289   0.297 -2.0119 -1.8268  0.3690
 8906SOL    HW238181   0.793   0.257   0.403  0.8782 -0.2643  1.2285
 8907SOL     OW38182   2.989   1.399  10.753  0.4953 -0.2178  0.9629
 8907SOL    HW138183   2.985   1.330  10.818 -1.3595 -2.3964 -1.4720
 8907SOL    HW238184   3.077   1.438  10.755  0.2910  0.2267  1.4505
 8908SOL     OW38185   2.701   1.271   9.552 -0.0560  0.1210 -0.2760
 8908SOL    HW138186   2.704   1.366   9.565 -0.6115  0.2893 -1.3945
 8908SOL    HW238187   2.793   1.244   9.553  0.4221  1.7374 -0.9244
 8909SOL     OW38188   1.697   0.438   9.125 -0.0422  0.4168  0.3615
 8909SOL    HW138189   1.635   0.492   9.077 -3.6113 -3.9371  0.0354
 8909SOL    HW238190   1.752   0.501   9.171  0.9257 -0.5786  0.5682
 8910SOL     OW38191   4.192   2.460   6.140  0.1622 -0.2394 -0.8282
 8910SOL    HW138192   4.213   2.453   6.233  1.2739  2.6630 -0.8613
 8910SOL    HW238193   4.175   2.369   6.114  1.2146 -0.4581 -0.7585
 8911SOL     OW38194   2.788   4.196   3.597 -0.1398 -0.4207 -0.0418
 8911SOL    HW138195   2.750   4.214   3.511 -2.2508 -0.6688  0.8355
 8911SOL    HW238196   2.716   4.198   3.660 -0.4345  1.9749 -0.4580
 8912SOL     OW38197   4.546   4.596  12.116  0.0973 -0.4105 -0.7089
 8912SOL    HW138198   4.552   4.645  12.198 -1.6757 -1.0012 -0.2185
 8912SOL    HW238199   4.614   4.529  12.125 -0.3733 -0.4081  2.7902
 8913SOL     OW38200   3.181   1.865   7.627  0.3242  0.0725  0.3163
 8913SOL    HW138201   3.099   1.868   7.579  0.0385 -2.1537  0.6407
 8913SOL    HW238202   3.161   1.905   7.711  1.2679  0.7938  0.1971
 8914SOL     OW38203   1.975   4.024   7.669 -0.1975  0.1012  0.0068
 8914SOL    HW138204   2.032   4.094   7.638  1.5971 -0.8514  1.0917
 8914SOL    HW238205   1.894   4.041   7.623 -0.4932  2.1042  1.2785
 8915SOL     OW38206   0.222   2.802   0.996  0.4196  0.3268  0.6617
 8915SOL    HW138207   0.310   2.784   1.029  1.3072  2.7067 -0.4212
 8915SOL    HW238208   0.186   2.713   0.990 -0.0314  0.4772  1.1367
 8916SOL     OW38209   4.472   3.304   4.555 -0.3700 -0.3168 -0.3248
 8916SOL    HW138210   4.556   3.336   4.586 -0.6495 -1.9974  2.0922
 8916SOL    HW238211   4.472   3.344   4.467  0.3466 -2.5858 -1.3561
 8917SOL     OW38212   0.871   0.061   2.487 -0.0270 -0.7672  0.4555
 8917SOL    HW138213   0.933   0.046   2.558 -1.2020 -1.2745  1.3720
 8917SOL    HW238214   0.907   4.712   2.431 -2.7013 -1.8495  0.0538
 8918SOL     OW38215   0.842   2.075   7.618  0.4226 -0.0511 -0.9833
 8918SOL    HW138216   0.926   2.103   7.583  0.0609  2.1678 -0.0428
 8918SOL    HW238217   0.812   2.159   7.652  1.0949 -0.5852  0.9020
 8919SOL     OW38218   4.195   0.911   5.358  0.1824  0.0233  0.6829
 8919SOL    HW138219   4.257   0.847   5.323  2.5648  2.3886  0.5748
 8919SOL    HW238220   4.150   0.939   5.279  0.9228 -1.7875 -0.3669
 8920SOL     OW38221   1.318   1.585   2.649 -0.2715 -0.4632 -0.0213
 8920SOL    HW138222   1.295   1.607   2.739 -0.7553 -1.1629  0.0221
 8920SOL    HW238223   1.317   1.673   2.611  0.9566  0.2507  1.5852
 8921SOL     OW38224   4.368   1.521  16.991  0.2391  0.3660  0.0622
 8921SOL    HW138225   4.426   1.588  16.955  0.7042 -0.7603 -1.2686
 8921SOL    HW238226   4.317   1.522  16.910  2.8728  0.2804 -1.6067
 8922SOL     OW38227   2.363   4.441   8.563 -0.0863 -0.7066  0.4872
 8922SOL    HW138228   2.366   4.530   8.596 -3.0301 -0.6760  0.7184
 8922SOL    HW238229   2.295   4.411   8.624 -1.3622 -0.0093 -0.6186
 8923SOL     OW38230   2.493   0.826   1.728  0.0353 -0.0950 -0.3478
 8923SOL    HW138231   2.516   0.917   1.707  3.2956 -0.4956  1.4173
 8923SOL    HW238232   2.414   0.831   1.782  0.1902  0.1557 -0.1419
 8924SOL     OW38233   3.191   1.596  12.797 -0.0649  0.1804 -0.5230
 8924SOL    HW138234   3.219   1.675  12.751 -1.9499  2.0047  1.4617
 8924SOL    HW238235   3.232   1.534  12.737 -0.3969  0.0998 -0.6642
 8925SOL     OW38236   2.929   4.646   5.516  0.5987 -0.0592  0.0944
 8925SOL    HW138237   2.942   4.602   5.432  0.8043 -0.6362  0.4291
 8925SOL    HW238238   2.910   0.015   5.487  0.5015 -0.8861 -2.4498
 8926SOL     OW38239   2.262   3.645   3.126  0.0589  0.7132 -0.0720
 8926SOL    HW138240   2.307   3.668   3.208  1.3036  2.6278 -1.2884
 8926SOL    HW238241   2.210   3.575   3.166  3.2549 -1.8128 -0.3514
 8927SOL     OW38242   3.764   4.165   1.065  0.3868  0.4726 -0.0202
 8927SOL    HW138243   3.818   4.127   1.134 -0.5247  1.3319  1.1674
 8927SOL    HW238244   3.679   4.121   1.070  0.7582 -0.6335 -3.9289
 8928SOL     OW38245   1.930   2.387   6.015  0.0786 -0.1180 -0.3853
 8928SOL    HW138246   1.940   2.439   6.095 -0.9408  0.0990 -0.3965
 8928SOL    HW238247   1.857   2.337   6.051 -0.9892  1.5384 -0.2589
 8929SOL     OW38248   1.399   0.338  16.719  0.2053  0.3395 -0.4828
 8929SOL    HW138249   1.378   0.400  16.789  3.8556  1.8472 -0.7090
 8929SOL    HW238250   1.463   0.397  16.678 -0.7739  1.1164 -0.8841
 8930SOL     OW38251   0.645   2.186   4.386 -0.6730 -0.0592  0.1655
 8930SOL    HW138252   0.625   2.227   4.470 -1.9059 -0.2740 -0.0302
 8930SOL    HW238253   0.591   2.241   4.331  0.4608  0.5304 -0.3423
 8931SOL     OW38254   2.314   0.917   2.752 -0.0554  0.1221  0.3474
 8931SOL    HW138255   2.225   0.934   2.784 -1.7594 -1.8248 -3.4113
 8931SOL    HW238256   2.338   1.009   2.749 -0.0094  0.2520  3.9844
 8932SOL     OW38257   4.419   1.489   5.145  0.1506  0.2368 -0.3277
 8932SOL    HW138258   4.344   1.525   5.097  0.9708  2.6545  0.2020
 8932SOL    HW238259   4.488   1.554   5.131  0.0899  0.4263  0.2548
 8933SOL     OW38260   3.109   2.398   7.551 -0.4089 -0.0017  0.2808
 8933SOL    HW138261   3.023   2.440   7.551  0.4734  1.7865  0.3282
 8933SOL    HW238262   3.107   2.377   7.645  2.5338 -0.1079  0.3044
 8934SOL     OW38263   4.499   4.013  14.817 -0.2082  0.1086 -0.1364
 8934SOL    HW138264   4.499   4.088  14.757 -1.3279 -1.1904 -1.7944
 8934SOL    HW238265   4.480   4.057  14.900 -0.3917  2.2309 -1.3024
 8935SOL     OW38266   3.081   4.180   1.443  0.1345 -0.3704  0.2632
 8935SOL    HW138267   3.008   4.153   1.388  0.2056 -0.6721  0.3169
 8935SOL    HW238268   3.128   4.238   1.383  0.6618 -1.8743 -0.7929
 8936SOL     OW38269   4.082   0.820   3.108 -0.4257 -0.3370 -0.4240
 8936SOL    HW138270   4.148   0.750   3.110  1.1063  1.1448  0.2735
 8936SOL    HW238271   4.031   0.785   3.180 -2.4057 -1.2108 -2.2505
 8937SOL     OW38272   4.546   3.032   8.690  0.0392 -0.8841 -0.4354
 8937SOL    HW138273   4.615   3.097   8.678  0.9890 -1.4804  1.7935
 8937SOL    HW238274   4.594   2.953   8.716 -0.6342 -0.7868  1.0938
 8938SOL     OW38275   2.292   2.372   3.864  0.1781 -0.2595 -0.2668
 8938SOL    HW138276   2.322   2.458   3.836 -1.0485 -0.1973 -1.3534
 8938SOL    HW238277   2.338   2.318   3.800 -0.2262  2.4273 -2.8113
 8939SOL     OW38278   4.292   4.142   8.623  0.1447  0.2980  0.0824
 8939SOL    HW138279   4.282   4.048   8.605  3.8560 -0.2170  0.7384
 8939SOL    HW238280   4.338   4.135   8.707  0.9928  0.7600 -0.3412
 8940SOL     OW38281   2.233   1.974   7.987  0.1901  0.0045  0.0754
 8940SOL    HW138282   2.238   2.069   7.997  1.7557  0.0353 -0.9356
 8940SOL    HW238283   2.168   1.952   7.921 -0.0641 -2.8269  1.2473
 8941SOL     OW38284   3.216   2.924   2.265 -0.1779  0.4723  0.6426
 8941SOL    HW138285   3.167   2.998   2.301  0.2493  0.8380  0.4653
 8941SOL    HW238286   3.297   2.964   2.234 -0.2779 -0.4548 -0.8564
 8942SOL     OW38287   3.539   2.438   1.225  0.4585  0.1471 -1.0302
 8942SOL    HW138288   3.611   2.398   1.176  2.0039  0.0813  1.3209
 8942SOL    HW238289   3.513   2.367   1.284 -0.7603  0.0259 -1.6962
 8943SOL     OW38290   3.172   4.303   7.059 -0.3438  0.0300  0.1990
 8943SOL    HW138291   3.249   4.257   7.092  1.5676  1.8722 -1.6933
 8943SOL    HW238292   3.123   4.309   7.140 -2.9710 -0.8601 -1.3413
 8944SOL     OW38293   3.414   2.230   6.542 -0.6191  0.0126  0.1163
 8944SOL    HW138294   3.328   2.188   6.534  0.3200 -2.2007  1.4101
 8944SOL    HW238295   3.418   2.281   6.461 -2.1899  2.2882  1.4563
 8945SOL     OW38296   2.896   1.512   3.641 -0.2317 -0.1971 -0.0483
 8945SOL    HW138297   2.964   1.475   3.697 -0.4326  2.2760  1.8290
 8945SOL    HW238298   2.843   1.540   3.715  2.6858  2.4517  1.0182
 8946SOL     OW38299   2.905   2.908   3.219 -0.2842 -0.6695 -0.3753
 8946SOL    HW138300   2.939   2.873   3.136  0.3723  2.7648 -1.5534
 8946SOL    HW238301   2.963   2.870   3.285 -0.3969  0.2654  0.2512
 8947SOL     OW38302   2.286   2.699   7.884  0.0437  0.1111  0.3806
 8947SOL    HW138303   2.191   2.704   7.886  0.0564 -0.0869  1.2888
 8947SOL    HW238304   2.298   2.792   7.865  1.5673 -0.3004 -0.6893
 8948SOL     OW38305   1.613   2.196   4.318 -0.5169  0.0184 -0.3950
 8948SOL    HW138306   1.688   2.254   4.324 -0.9434  0.2803  2.3384
 8948SOL    HW238307   1.568   2.216   4.401 -1.7383  0.8278 -1.2481
 8949SOL     OW38308   2.883   0.705   3.033  0.0392 -0.2052  0.3856
 8949SOL    HW138309   2.792   0.690   3.007 -0.1888  1.8663 -0.0704
 8949SOL    HW238310   2.875   0.729   3.126 -3.2618 -2.4072  0.6826
 8950SOL     OW38311   2.133   2.823   5.976  0.2059 -0.5651 -0.7879
 8950SOL    HW138312   2.092   2.743   5.941  1.1846 -1.8333  0.9346
 8950SOL    HW238313   2.219   2.786   5.995  0.6640  1.7598  1.5737
 8951SOL     OW38314   0.216   3.516   8.164  0.2565 -0.0141  0.2683
 8951SOL    HW138315   0.218   3.434   8.114 -1.6091  0.3315 -0.3913
 8951SOL    HW238316   0.181   3.489   8.249  2.2455 -0.7480  0.8549
 8952SOL     OW38317   0.311   0.083   6.305 -0.3583  0.0362 -0.0839
 8952SOL    HW138318   0.249   0.101   6.235  0.4488 -0.4776 -0.9381
 8952SOL    HW238319   0.283   4.717   6.337 -0.1081  0.1875  0.5494
 8953SOL     OW38320   0.478   0.007  15.333  0.2594  0.0314  0.6664
 8953SOL    HW138321   0.393   4.688  15.356  0.0485  0.8707  1.2886
 8953SOL    HW238322   0.541   4.686  15.393  1.9351 -0.5517 -1.4610
 8954SOL     OW38323   2.270   4.015   3.318 -0.1305  0.2915  0.1546
 8954SOL    HW138324   2.253   4.071   3.395  2.0383 -0.2872  1.0458
 8954SOL    HW238325   2.262   3.930   3.361 -3.8994  0.3199 -0.5126
 8955SOL     OW38326   2.072   4.157   5.834  0.2957  0.4109 -0.6040
 8955SOL    HW138327   2.137   4.228   5.840 -0.9419  1.5898 -1.1623
 8955SOL    HW238328   2.134   4.086   5.819 -0.5567 -1.1853  3.5420
 8956SOL     OW38329   4.274   0.232   1.057 -0.0423 -0.3579 -0.5808
 8956SOL    HW138330   4.229   0.229   1.141 -1.0854  0.7929 -1.1018
 8956SOL    HW238331   4.243   0.309   1.010 -1.4324 -0.1214  0.7582
 8957SOL     OW38332   1.234   0.294   5.473  0.0048  0.0395  0.0155
 8957SOL    HW138333   1.165   0.272   5.536 -2.0395 -0.0587 -2.2627
 8957SOL    HW238334   1.213   0.251   5.391  2.2327 -0.7081 -0.1682
 8958SOL     OW38335   0.942   4.295  15.767 -0.0490  0.5473 -0.4834
 8958SOL    HW138336   0.936   4.349  15.846 -1.5644  0.8750 -0.8409
 8958SOL    HW238337   0.882   4.224  15.791 -1.4001  1.3648 -1.5063
 8959SOL     OW38338   2.770   1.818   4.459  0.2166  0.4348 -0.1574
 8959SOL    HW138339   2.762   1.856   4.547  1.2975  0.7540 -0.2023
 8959SOL    HW238340   2.706   1.873   4.412 -0.5316 -0.5385 -0.2800
 8960SOL     OW38341   3.883   4.507   5.805  0.0911 -0.0984  0.0843
 8960SOL    HW138342   3.923   4.553   5.880  1.3843 -1.4231  0.2140
 8960SOL    HW238343   3.849   4.429   5.847  0.2269 -0.8336 -1.1805
 8961SOL     OW38344   1.004   0.620   1.483 -0.1441 -0.0230 -0.1149
 8961SOL    HW138345   0.955   0.599   1.562  0.7782 -1.9428 -0.0496
 8961SOL    HW238346   1.051   0.699   1.510  0.3244  0.0044 -0.9981
 8962SOL     OW38347   0.692   2.715   1.941 -0.2596  0.4895  0.3381
 8962SOL    HW138348   0.638   2.670   2.006  0.0303 -1.4315 -0.7590
 8962SOL    HW238349   0.740   2.637   1.913  0.1239  0.9508 -0.2965
 8963SOL     OW38350   3.655   1.338   0.601 -0.3529 -0.1474  0.2043
 8963SOL    HW138351   3.685   1.251   0.628 -0.1636 -0.3408 -0.6122
 8963SOL    HW238352   3.710   1.362   0.526  0.6593 -2.2145  0.2915
 8964SOL     OW38353   3.188   1.516  16.181 -0.1564 -0.3016 -0.3738
 8964SOL    HW138354   3.267   1.500  16.232  0.0852 -1.7139 -1.2203
 8964SOL    HW238355   3.167   1.609  16.195  2.0209  0.2162 -0.5444
 8965SOL     OW38356   3.612   4.069   3.897 -0.3677 -0.3313 -0.6656
 8965SOL    HW138357   3.547   4.016   3.943  2.8394 -2.8622  1.0019
 8965SOL    HW238358   3.691   4.040   3.944 -1.1171  1.0414  1.4094
 8966SOL     OW38359   2.325   2.235  14.422 -0.2471  0.0804 -0.2067
 8966SOL    HW138360   2.265   2.205  14.490  1.0262  0.9502  1.3210
 8966SOL    HW238361   2.341   2.327  14.444 -3.8255  0.9494 -1.3135
 8967SOL     OW38362   3.374   2.437  12.782  0.2033  0.3580 -0.0984
 8967SOL    HW138363   3.362   2.520  12.736  0.4381 -0.6517 -2.0104
 8967SOL    HW238364   3.298   2.434  12.840 -0.6722 -0.7680 -1.2883
 8968SOL     OW38365   3.300   0.880   7.336 -0.6113  0.0398 -0.2522
 8968SOL    HW138366   3.277   0.796   7.297  0.2905 -1.0126  1.4585
 8968SOL    HW238367   3.217   0.924   7.318 -0.5112 -0.4496 -1.9091
 8969SOL     OW38368   0.373   4.426   3.845  0.3476 -0.8430 -0.0578
 8969SOL    HW138369   0.319   4.474   3.908  0.4052  0.0115 -0.6460
 8969SOL    HW238370   0.349   4.338   3.873  2.6580 -2.1979 -2.3875
 8970SOL     OW38371   0.594   0.600   1.047 -0.0029 -0.0758  0.1731
 8970SOL    HW138372   0.503   0.569   1.050  0.7315 -2.4123 -1.4639
 8970SOL    HW238373   0.593   0.689   1.082  0.2422 -0.7299  1.8518
 8971SOL     OW38374   1.374   3.687   3.402 -0.0698 -0.4028 -0.0575
 8971SOL    HW138375   1.344   3.663   3.490  2.2578 -1.2470  0.4950
 8971SOL    HW238376   1.467   3.708   3.405 -0.1782  0.3068 -1.3242
 8972SOL     OW38377   2.803   1.731   0.409 -0.7717 -0.0502  0.0752
 8972SOL    HW138378   2.791   1.818   0.370 -2.1987  0.1143  0.9120
 8972SOL    HW238379   2.837   1.676   0.338 -1.8313 -0.5000 -0.0932
 8973SOL     OW38380   2.167   0.549   7.668  0.5786  0.2051  0.1391
 8973SOL    HW138381   2.211   0.492   7.605 -0.4515 -0.4350  0.0043
 8973SOL    HW238382   2.184   0.635   7.630 -0.5672  0.1657 -0.4685
 8974SOL     OW38383   4.364   0.098  13.017  0.3147 -0.3093 -0.1178
 8974SOL    HW138384   4.345   0.014  12.976 -0.9347  0.1705 -0.5471
 8974SOL    HW238385   4.439   0.077  13.072 -1.7699 -0.4001  2.6624
 8975SOL     OW38386   0.468   1.988  10.953  0.6353  0.2638 -0.4082
 8975SOL    HW138387   0.390   1.970  11.006  1.3169  1.2691  0.9573
 8975SOL    HW238388   0.450   1.944  10.870 -2.5278  0.4217  0.1984
 8976SOL     OW38389   2.393   1.089   5.405  1.0346 -0.0965  0.0526
 8976SOL    HW138390   2.475   1.128   5.438  2.3618 -1.2058 -1.9354
 8976SOL    HW238391   2.340   1.088   5.484 -1.7982 -3.0393 -1.9296
 8977SOL     OW38392   0.952   0.125   3.169  0.0363  0.2397 -0.2805
 8977SOL    HW138393   0.978   0.215   3.191  0.4054 -0.0858  0.6330
 8977SOL    HW238394   0.876   0.111   3.225 -0.6405  0.9991 -1.0039
 8978SOL     OW38395   0.412   0.475   6.436 -0.1940  0.4045 -0.4217
 8978SOL    HW138396   0.348   0.520   6.491 -0.9046  0.1664 -1.0557
 8978SOL    HW238397   0.476   0.545   6.420  1.5846 -0.8913  0.9922
 8979SOL     OW38398   2.502   4.029   4.604  0.0023 -0.7963 -0.0725
 8979SOL    HW138399   2.572   3.976   4.641  0.6598 -0.3475 -0.6682
 8979SOL    HW238400   2.552   4.096   4.557  1.0556 -0.3184  1.7452
 8980SOL     OW38401   1.171   2.471   4.666  0.0934  0.2221  0.7092
 8980SOL    HW138402   1.125   2.545   4.706  0.8237 -0.2276  2.3677
 8980SOL    HW238403   1.260   2.492   4.697  0.5532  1.4473 -1.4083
 8981SOL     OW38404   1.728   2.160   8.075  0.3758 -0.2916 -0.3729
 8981SOL    HW138405   1.727   2.215   7.997 -0.8362  0.5331  0.2292
 8981SOL    HW238406   1.642   2.191   8.105  1.7342  0.6900  2.4755
 8982SOL     OW38407   0.455   2.023   3.692 -0.7106 -0.2141  0.3107
 8982SOL    HW138408   0.483   2.020   3.600  0.0952 -2.1621  0.6210
 8982SOL    HW238409   0.482   1.937   3.723 -1.1345 -1.0738 -1.7073
 8983SOL     OW38410   2.767   3.260   7.114  0.5730  0.4129 -0.1900
 8983SOL    HW138411   2.747   3.211   7.034 -1.9074 -2.7902  2.4095
 8983SOL    HW238412   2.860   3.274   7.096  0.5889 -3.5099 -3.0265
 8984SOL     OW38413   3.411   3.032   8.333 -0.8143  0.1130  0.5786
 8984SOL    HW138414   3.505   3.048   8.333 -1.0978  1.9435  2.2984
 8984SOL    HW238415   3.395   2.980   8.412  0.4560 -1.1434  0.0023
 8985SOL     OW38416   4.438   2.978   3.065  0.2811 -0.0138  0.1328
 8985SOL    HW138417   4.376   2.919   3.108  1.5148 -0.3399  1.4646
 8985SOL    HW238418   4.448   3.040   3.138 -1.5395 -0.4004  0.7186
 8986SOL     OW38419   0.038   2.047   3.284 -0.8740  0.4576  0.4997
 8986SOL    HW138420   0.093   2.120   3.311  1.7142 -1.0111 -0.8785
 8986SOL    HW238421   0.003   2.075   3.200  2.8898  0.6062 -1.0121
 8987SOL     OW38422   4.696   4.477  10.118  0.0059 -0.1877 -0.3956
 8987SOL    HW138423   0.059   4.459  10.163  0.1808  0.4614 -0.4554
 8987SOL    HW238424   4.637   4.504  10.189  0.3724 -1.8711  0.5371
 8988SOL     OW38425   4.656   4.438   5.239  0.0746  0.1073 -0.1048
 8988SOL    HW138426   4.608   4.460   5.319 -1.5604  0.4609 -1.1667
 8988SOL    HW238427   4.591   4.403   5.178 -1.5570  1.4196  0.8742
 8989SOL     OW38428   4.615   3.372  13.940  0.7261 -0.0754 -0.1316
 8989SOL    HW138429   4.657   3.437  13.883 -1.7099  2.6294  1.1647
 8989SOL    HW238430   4.555   3.436  13.978 -1.9953 -1.5828 -1.9145
 8990SOL     OW38431   4.171   2.085   5.759  0.1498  0.0058 -0.2879
 8990SOL    HW138432   4.239   2.036   5.806 -1.5453  0.4102  2.5654
 8990SOL    HW238433   4.204   2.092   5.669  0.6284  0.8075 -0.0517
 8991SOL     OW38434   3.173   4.311  15.556  0.1982 -0.6646  0.1830
 8991SOL    HW138435   3.102   4.270  15.606  2.1374 -0.4101  3.1714
 8991SOL    HW238436   3.205   4.372  15.623 -2.2186 -1.6160  2.1901
 8992SOL     OW38437   0.177   3.354  14.910 -0.5577 -0.1398  0.1302
 8992SOL    HW138438   0.172   3.271  14.957  1.0270 -0.6529 -0.6402
 8992SOL    HW238439   0.195   3.319  14.823  1.7645 -0.4233  0.7253
 8993SOL     OW38440   0.458   0.507   5.034  0.0905 -0.0236 -0.3917
 8993SOL    HW138441   0.521   0.579   5.029 -0.2365  0.3350  0.6646
 8993SOL    HW238442   0.453   0.482   4.942  0.9784  1.4949 -0.8621
 8994SOL     OW38443   0.519   1.686   6.768 -0.6445 -0.3103 -0.4802
 8994SOL    HW138444   0.569   1.620   6.719  0.5617  0.0731  0.2271
 8994SOL    HW238445   0.448   1.627   6.793 -0.7643  0.7409  1.6305
 8995SOL     OW38446   1.614   2.563   8.032 -0.1368  0.0803  0.4911
 8995SOL    HW138447   1.548   2.494   8.038 -1.9677  1.5857 -2.1483
 8995SOL    HW238448   1.625   2.581   7.939 -0.8173  1.5819  0.7033
 8996SOL     OW38449   2.455   1.418  10.422 -0.0902 -0.2036  0.0587
 8996SOL    HW138450   2.537   1.467  10.433  1.4390 -2.7774  0.1119
 8996SOL    HW238451   2.465   1.387  10.332 -0.0328 -0.6891  0.2317
 8997SOL     OW38452   1.923   1.209   6.796  0.4126  0.1464 -0.1745
 8997SOL    HW138453   1.975   1.223   6.876 -2.2560  1.4526  1.3414
 8997SOL    HW238454   1.988   1.211   6.726 -0.4877  1.9164 -0.9656
 8998SOL     OW38455   0.328   3.667   2.850  0.2127  0.3027  0.2732
 8998SOL    HW138456   0.378   3.658   2.932  1.5298 -2.0339 -0.7827
 8998SOL    HW238457   0.399   3.690   2.791  0.9301 -3.2723 -0.2720
 8999SOL     OW38458   3.781   0.209   7.294 -0.4280 -0.2598  0.2738
 8999SOL    HW138459   3.741   0.257   7.367 -2.2414 -1.4817  0.0831
 8999SOL    HW238460   3.781   0.118   7.324 -0.7312 -1.1803 -2.4860
 9000SOL     OW38461   0.932   3.704   9.057 -0.5525  0.2247 -0.2679
 9000SOL    HW138462   1.016   3.695   9.012 -1.1305 -0.8155 -1.1408
 9000SOL    HW238463   0.888   3.622   9.033 -1.3088  0.5333  0.0628
 9001SOL     OW38464   4.146   2.112  12.818 -0.2275  0.2992  0.7048
 9001SOL    HW138465   4.236   2.082  12.830 -0.1772 -0.0415 -0.4955
 9001SOL    HW238466   4.125   2.134  12.908 -0.8978  2.4891  0.0220
 9002SOL     OW38467   4.330   3.569   8.006 -0.3158  0.5186  0.0226
 9002SOL    HW138468   4.318   3.575   7.912 -1.9367  1.7435  0.3244
 9002SOL    HW238469   4.422   3.542   8.018 -0.2298  0.8053 -0.0046
 9003SOL     OW38470   4.222   3.510   6.621 -0.4934 -0.5314 -0.2354
 9003SOL    HW138471   4.304   3.467   6.599 -0.2546  0.6795 -1.7548
 9003SOL    HW238472   4.235   3.526   6.714 -1.4146  2.6772 -0.6562
 9004SOL     OW38473   3.420   1.868   3.015  0.2677  0.2480 -0.4282
 9004SOL    HW138474   3.487   1.919   3.059  1.8702 -1.4286 -0.9190
 9004SOL    HW238475   3.458   1.780   3.018 -0.8814 -0.3104 -2.1843
 9005SOL     OW38476   3.428   0.001   1.771 -0.0439 -0.1741 -0.1366
 9005SOL    HW138477   3.443   0.039   1.857  0.4416 -0.9673  0.1333
 9005SOL    HW238478   3.379   4.641   1.794 -0.3321  0.3444  1.0259
 9006SOL     OW38479   4.125   2.926  15.137  0.4254 -0.3673  0.5249
 9006SOL    HW138480   4.152   2.865  15.068  0.4018 -1.2689  1.3096
 9006SOL    HW238481   4.135   3.012  15.096 -1.2443  0.2050  1.3059
 9007SOL     OW38482   3.116   1.494   4.136 -0.4409  0.1958  0.0214
 9007SOL    HW138483   3.083   1.517   4.049 -2.2394 -2.0749  0.1040
 9007SOL    HW238484   3.038   1.461   4.180 -0.6237  2.4871  1.4268
 9008SOL     OW38485   1.563   2.277  12.132  0.4389  0.1783 -0.0861
 9008SOL    HW138486   1.518   2.336  12.192  1.0132 -2.2746  2.7404
 9008SOL    HW238487   1.519   2.195  12.152 -0.0264  1.3264  3.6441
 9009SOL     OW38488   2.774   0.009  15.524  0.0144  0.1655 -0.1646
 9009SOL    HW138489   2.696   4.675  15.540 -0.0079  0.1677 -0.2646
 9009SOL    HW238490   2.750   0.050  15.441  2.7230  0.0932 -0.9783
 9010SOL     OW38491   0.912   3.424   0.123 -0.0462  0.2554  0.0094
 9010SOL    HW138492   0.860   3.344   0.124  2.6346 -1.4783  1.6339
 9010SOL    HW238493   0.882   3.462   0.206  0.2715  1.0363 -0.2308
 9011SOL     OW38494   4.433   1.521   6.491  0.1128  0.0716 -0.4200
 9011SOL    HW138495   4.527   1.536   6.479  0.1308  0.1836 -0.1396
 9011SOL    HW238496   4.411   1.571   6.570  1.1829 -1.3385  0.7777
 9012SOL     OW38497   0.086   1.179  16.948  0.1629  0.3593  0.2521
 9012SOL    HW138498   0.090   1.174  17.044 -0.6431  0.3625  0.2882
 9012SOL    HW238499   4.713   1.202  16.941 -0.3943 -1.4415  1.6027
 9013SOL     OW38500   0.993   1.728  17.630 -0.2461 -0.2422  0.6543
 9013SOL    HW138501   1.006   1.747   0.042 -0.0317  1.5372  0.2668
 9013SOL    HW238502   0.937   1.804  17.613  0.0597 -0.2062 -0.2071
 9014SOL     OW38503   4.584   2.949   1.095  0.3703 -0.1406  0.3312
 9014SOL    HW138504   4.580   2.995   1.179 -1.1753 -1.7865  1.1555
 9014SOL    HW238505   4.603   2.862   1.130  1.2147 -0.4128 -0.7979
 9015SOL     OW38506   3.867   1.628   5.659  0.6105  0.5157 -0.0910
 9015SOL    HW138507   3.924   1.684   5.712  2.6905 -1.8653  0.1738
 9015SOL    HW238508   3.922   1.602   5.585  1.7590 -0.8593  1.2509
 9016SOL     OW38509   2.830   1.749   1.550 -0.2245 -0.0588 -0.0309
 9016SOL    HW138510   2.742   1.741   1.513 -0.6283 -0.0840  0.9410
 9016SOL    HW238511   2.873   1.819   1.501 -1.6667 -1.0792 -2.7299
 9017SOL     OW38512   2.356   4.085   0.371  0.6102 -0.1661 -0.0588
 9017SOL    HW138513   2.411   4.163   0.370  1.1771 -0.6181 -2.7312
 9017SOL    HW238514   2.316   4.084   0.284  2.8938 -0.2371 -1.0912
 9018SOL     OW38515   2.604   2.036   5.191 -0.3377  0.2246  0.3141
 9018SOL    HW138516   2.633   2.009   5.104  1.3569  0.6434  0.7437
 9018SOL    HW238517   2.557   1.960   5.224  1.8214 -0.9332  0.7161
 9019SOL     OW38518   0.505   4.255  15.326  0.1831  0.0219  0.1806
 9019SOL    HW138519   0.448   4.206  15.385 -1.6921  1.1697 -0.6829
 9019SOL    HW238520   0.575   4.280  15.387  2.7642  3.4468 -4.1955
 9020SOL     OW38521   2.519   1.854   3.573  0.5905 -0.1893 -0.3294
 9020SOL    HW138522   2.431   1.861   3.610  1.1093  2.2114  0.4228
 9020SOL    HW238523   2.538   1.760   3.562 -0.6871 -0.4273 -0.4918
 9021SOL     OW38524   4.103   3.023   1.985  0.3045 -0.1611  0.0982
 9021SOL    HW138525   4.099   3.013   1.890  1.2050  2.6685 -0.2400
 9021SOL    HW238526   4.060   3.108   1.997 -2.8991 -1.8641  0.8236
 9022SOL     OW38527   4.093   0.027   4.241  0.2031  0.3068  0.3454
 9022SOL    HW138528   4.081   0.054   4.151 -2.7459  0.5521  0.8302
 9022SOL    HW238529   4.160   0.090   4.270  1.9403 -0.4147 -2.1355
 9023SOL     OW38530   3.962   3.609   6.555 -0.0273  0.3036  0.1647
 9023SOL    HW138531   4.046   3.568   6.576 -0.2209  0.4179  1.1787
 9023SOL    HW238532   3.983   3.698   6.583  0.2184  0.0733  0.7312
 9024SOL     OW38533   0.426   4.191   1.730 -0.0100 -0.0453  0.3153
 9024SOL    HW138534   0.442   4.098   1.744 -0.9166 -0.1479  0.6789
 9024SOL    HW238535   0.339   4.188   1.770 -0.7997  0.7920 -1.3248
 9025SOL     OW38536   2.219   4.527   8.339 -0.1471  0.0269  0.0382
 9025SOL    HW138537   2.313   4.536   8.357 -0.3297  1.8533  0.1501
 9025SOL    HW238538   2.197   4.482   8.421  0.1150  0.3801  0.3060
 9026SOL     OW38539   2.658   2.699   0.302  0.4541 -0.1103  0.0664
 9026SOL    HW138540   2.739   2.653   0.279  0.3016 -0.1725 -0.3282
 9026SOL    HW238541   2.602   2.669   0.231  1.6949  0.0136 -0.9733
 9027SOL     OW38542   2.272   1.473   7.941  0.3902  0.9947  0.0529
 9027SOL    HW138543   2.307   1.560   7.955 -1.0174  1.8213 -1.6188
 9027SOL    HW238544   2.345   1.422   7.976  0.1865  0.5083 -0.2251
 9028SOL     OW38545   0.236   0.850   3.343 -0.3970 -0.2675 -0.3285
 9028SOL    HW138546   0.290   0.775   3.320  0.3446  0.2474 -0.2705
 9028SOL    HW238547   0.266   0.917   3.281 -1.8291  0.0897 -0.6399
 9029SOL     OW38548   3.779   4.407   8.996  0.3803 -0.1715 -0.3899
 9029SOL    HW138549   3.713   4.340   8.979  0.7614 -0.6905  0.1453
 9029SOL    HW238550   3.809   4.427   8.908  1.8605  3.0966  0.8781
 9030SOL     OW38551   3.872   3.326   5.484 -0.3493 -0.0973  0.0065
 9030SOL    HW138552   3.864   3.238   5.448 -1.7817  0.7809 -1.8139
 9030SOL    HW238553   3.804   3.322   5.552  0.6395  1.7340  1.1020
 9031SOL     OW38554   3.608   2.432   1.960  0.6524  0.1291 -0.5496
 9031SOL    HW138555   3.616   2.425   1.865  0.8381  1.7991 -0.6621
 9031SOL    HW238556   3.622   2.526   1.973  0.3169 -0.5233  4.4548
 9032SOL     OW38557   3.805   4.490   3.550 -0.2789 -0.1710 -0.5566
 9032SOL    HW138558   3.737   4.468   3.487  0.2935 -1.1643 -0.8364
 9032SOL    HW238559   3.834   4.579   3.531  0.9966 -0.9279 -2.1388
 9033SOL     OW38560   3.910   4.298   9.207 -0.0777  0.0448  0.4115
 9033SOL    HW138561   3.997   4.340   9.208  0.7097 -1.5823 -0.4206
 9033SOL    HW238562   3.860   4.349   9.144 -0.8767 -0.0953  0.9344
 9034SOL     OW38563   3.078   3.312   7.090 -0.1305 -0.2667  0.0248
 9034SOL    HW138564   3.106   3.309   6.999  1.2283  0.9838  0.4175
 9034SOL    HW238565   3.158   3.279   7.130  0.3223  1.4177  0.5104
 9035SOL     OW38566   3.299   0.697  16.289  0.1119 -0.0002 -0.1911
 9035SOL    HW138567   3.265   0.764  16.229 -1.8594 -2.2345 -1.5627
 9035SOL    HW238568   3.392   0.694  16.268 -0.3243  0.4721 -2.2142
 9036SOL     OW38569   3.421   4.428  15.133 -0.0943 -0.1116  0.1082
 9036SOL    HW138570   3.394   4.441  15.042  0.3044 -1.0076 -0.1405
 9036SOL    HW238571   3.339   4.448  15.178  0.4122  1.5468  0.3001
 9037SOL     OW38572   3.049   2.524   1.053  0.6791  0.1185 -0.0845
 9037SOL    HW138573   3.057   2.595   1.116  0.5756  2.2680 -2.4884
 9037SOL    HW238574   2.954   2.531   1.043  0.4435 -0.7402  1.5682
 9038SOL     OW38575   1.442   1.492   8.813  0.0239  0.3429 -0.0514
 9038SOL    HW138576   1.527   1.466   8.849 -0.5687 -1.6539 -0.0979
 9038SOL    HW238577   1.377   1.464   8.876  2.0272 -2.7692  0.6405
 9039SOL     OW38578   2.481   4.499   9.585 -0.6547  0.2765 -0.0911
 9039SOL    HW138579   2.573   4.520   9.570 -0.7994  0.6857 -0.3934
 9039SOL    HW238580   2.476   4.409   9.554 -3.0865  0.8474 -1.3762
 9040SOL     OW38581   3.075   4.440   8.801  0.5221 -0.0908 -0.4913
 9040SOL    HW138582   3.088   4.528   8.834 -1.4014 -0.4855  1.2982
 9040SOL    HW238583   2.989   4.414   8.834  0.4703  0.2398 -0.3743
 9041SOL     OW38584   3.283   3.840  12.019  0.1732  0.3194  0.1567
 9041SOL    HW138585   3.190   3.859  12.006  0.1834 -0.2641 -0.7212
 9041SOL    HW238586   3.300   3.761  11.967  0.5327  0.0894  0.6202
 9042SOL     OW38587   1.592   4.400   3.519  0.1851  0.2699  0.2091
 9042SOL    HW138588   1.519   4.367   3.466  0.1098 -0.5794  0.8475
 9042SOL    HW238589   1.554   4.401   3.608 -1.5986  0.5825 -0.5436
 9043SOL     OW38590   4.004   4.556   2.054 -0.0510 -0.0261 -0.5775
 9043SOL    HW138591   3.970   4.557   2.143  0.7282 -0.5582 -0.2684
 9043SOL    HW238592   3.932   4.524   1.999 -0.3590 -1.3921  0.6278
 9044SOL     OW38593   1.725   4.706   8.469  0.5410  0.4723  0.3861
 9044SOL    HW138594   1.668   4.701   8.546  3.4222 -0.9309  2.3892
 9044SOL    HW238595   1.814   4.680   8.492  0.7432  2.8660  2.2269
 9045SOL     OW38596   0.941   2.047   3.108 -0.2817 -0.2526  0.1668
 9045SOL    HW138597   0.883   1.976   3.081  1.2450 -1.2561 -0.4825
 9045SOL    HW238598   0.882   2.106   3.155 -0.3595  0.7069 -1.1188
 9046SOL     OW38599   1.946   2.918   7.301 -0.0752  0.3197  0.1054
 9046SOL    HW138600   1.986   2.952   7.380 -1.2494  0.2918  0.7144
 9046SOL    HW238601   2.020   2.880   7.253 -1.1390  0.5960 -1.7640
 9047SOL     OW38602   1.986   1.420   1.345  0.1295  0.5590 -0.1029
 9047SOL    HW138603   1.913   1.456   1.296  0.3832 -0.1418 -0.9924
 9047SOL    HW238604   1.936   1.399   1.424  1.7281 -3.5477 -0.1728
 9048SOL     OW38605   4.717   3.176  12.688  0.0016 -1.0830 -0.2996
 9048SOL    HW138606   4.692   3.190  12.597  0.9860  0.4496 -0.3469
 9048SOL    HW238607   4.660   3.104  12.715 -2.2259  0.9421  0.3845
 9049SOL     OW38608   0.892   0.774  15.693 -0.0321 -0.4736  0.2069
 9049SOL    HW138609   0.899   0.689  15.649 -1.3170  0.7410 -2.2764
 9049SOL    HW238610   0.808   0.807  15.663  0.9241  3.3549  1.8026
 9050SOL     OW38611   4.292   2.152  10.556  0.3181 -0.8427 -0.1848
 9050SOL    HW138612   4.310   2.159  10.650  0.6810  3.2419 -0.5582
 9050SOL    HW238613   4.329   2.068  10.532 -0.5227 -1.4823  0.7420
 9051SOL     OW38614   4.341   1.982   8.583 -0.1089  0.6189 -0.3273
 9051SOL    HW138615   4.273   1.973   8.516 -0.1860  0.0899 -0.1808
 9051SOL    HW238616   4.305   2.055   8.635 -0.4238 -0.8265  1.4977
 9052SOL     OW38617   0.183   0.339   7.878 -0.6509 -0.0749 -0.2085
 9052SOL    HW138618   0.212   0.428   7.902 -1.4917  0.3779 -0.8639
 9052SOL    HW238619   0.262   0.305   7.837  0.4805 -0.1635  1.9867
 9053SOL     OW38620   1.652   4.172  14.178 -0.1351  0.1697 -0.5165
 9053SOL    HW138621   1.651   4.267  14.190  0.2336  0.1412 -0.2515
 9053SOL    HW238622   1.745   4.166  14.157  0.4222  0.2068  1.9496
 9054SOL     OW38623   4.361   4.045   5.910  0.1216  0.1631  0.1553
 9054SOL    HW138624   4.391   4.009   5.827  0.5339 -1.9904  1.2435
 9054SOL    HW238625   4.429   4.004   5.965 -1.3517 -0.4617  1.5043
 9055SOL     OW38626   2.403   2.539   4.931  0.2099  0.5942 -0.1684
 9055SOL    HW138627   2.465   2.598   4.888  0.6957 -0.7438 -1.2792
 9055SOL    HW238628   2.466   2.479   4.971 -0.8446  0.0432  0.6710
 9056SOL     OW38629   0.687   4.646   8.412  0.2584 -0.4876 -0.0876
 9056SOL    HW138630   0.737   4.708   8.358  1.1515 -0.4350  0.7907
 9056SOL    HW238631   0.601   4.671   8.380  0.1521 -0.5909  0.1190
 9057SOL     OW38632   2.031   1.284   2.669 -0.7619 -0.4242 -0.2272
 9057SOL    HW138633   2.121   1.268   2.641 -1.3344  1.1039 -2.9008
 9057SOL    HW238634   1.994   1.196   2.673 -1.1625 -0.2021  0.9744
 9058SOL     OW38635   3.233   3.267   6.246  0.1576  0.1788 -0.3449
 9058SOL    HW138636   3.208   3.177   6.225  1.0872 -0.7305  2.3833
 9058SOL    HW238637   3.154   3.314   6.220 -0.0060 -0.2476 -0.6109
 9059SOL     OW38638   4.668   0.829   9.426  0.1017  0.5323  0.1828
 9059SOL    HW138639   4.665   0.845   9.520 -0.1194 -2.6989  0.7426
 9059SOL    HW238640   4.581   0.841   9.388  0.3297  0.6355 -0.3150
 9060SOL     OW38641   2.895   3.867   3.630  0.0632 -0.2634  0.0327
 9060SOL    HW138642   2.958   3.823   3.572  1.3276  0.1757  1.0782
 9060SOL    HW238643   2.871   3.929   3.562 -2.0419  1.7561  2.6083
 9061SOL     OW38644   0.881   1.647   2.967  0.7410 -0.4844  0.3306
 9061SOL    HW138645   0.851   1.646   2.876 -0.3266  0.5474  0.6694
 9061SOL    HW238646   0.826   1.717   3.003  0.8025  0.1115 -0.7543
 9062SOL     OW38647   1.257   0.408  11.024 -0.3954 -0.1838  0.0251
 9062SOL    HW138648   1.190   0.382  10.961 -0.8820 -0.3048  0.5952
 9062SOL    HW238649   1.326   0.350  10.990 -0.3789 -1.4676  2.2798
 9063SOL     OW38650   0.259   1.473   4.259 -0.7644 -0.4633 -0.5823
 9063SOL    HW138651   0.344   1.442   4.290 -0.9667 -0.2696  0.1677
 9063SOL    HW238652   0.266   1.439   4.170 -0.4703 -1.4376 -0.1879
 9064SOL     OW38653   4.332   2.020   5.096 -0.0825  0.0502  0.0813
 9064SOL    HW138654   4.259   2.080   5.108 -1.9999 -2.6332  1.7120
 9064SOL    HW238655   4.401   2.073   5.055  0.5231 -0.4772  0.4118
 9065SOL     OW38656   4.099   0.103   7.990 -0.1978 -0.4228 -0.0665
 9065SOL    HW138657   4.130   0.125   8.078 -0.0151 -2.4807  0.3836
 9065SOL    HW238658   4.182   0.068   7.958  0.8055  1.1355  0.8065
 9066SOL     OW38659   2.795   2.844   4.447 -0.2571  0.3986 -0.1234
 9066SOL    HW138660   2.823   2.915   4.505  0.4479 -1.1027  1.3330
 9066SOL    HW238661   2.723   2.812   4.501 -0.3737 -0.8328 -1.0150
 9067SOL     OW38662   2.961   3.202   0.966  0.4549  0.0472  0.0167
 9067SOL    HW138663   3.005   3.202   1.051 -1.2927 -0.3692  0.9125
 9067SOL    HW238664   2.896   3.132   0.965 -0.2346  0.6782  1.1667
 9068SOL     OW38665   1.174   3.051   6.516  0.7401 -0.1566  0.1440
 9068SOL    HW138666   1.148   2.977   6.461 -1.1526 -0.8317  1.9393
 9068SOL    HW238667   1.121   3.029   6.593 -0.2421 -1.5481 -0.9252
 9069SOL     OW38668   3.453   0.395   4.514 -0.1167  0.5405  0.1452
 9069SOL    HW138669   3.469   0.464   4.578  1.8554  0.1623  0.0407
 9069SOL    HW238670   3.425   0.320   4.567 -0.4433  0.5500 -0.0122
 9070SOL     OW38671   2.299   2.086  10.344 -0.0262 -0.3491  0.0165
 9070SOL    HW138672   2.325   2.036  10.266  0.9306  0.8462 -0.4440
 9070SOL    HW238673   2.227   2.139  10.309  0.8741  0.7672 -0.1501
 9071SOL     OW38674   0.703   2.132   5.131  0.1602 -0.0208 -0.2586
 9071SOL    HW138675   0.773   2.089   5.180 -1.5082 -0.4576  1.6991
 9071SOL    HW238676   0.657   2.050   5.110 -1.6879  1.3111 -1.3974
 9072SOL     OW38677   3.856   2.049   8.490  0.3497 -0.2920  0.0678
 9072SOL    HW138678   3.871   2.077   8.580 -1.5514 -2.3888  1.0264
 9072SOL    HW238679   3.825   2.129   8.448  2.9217  0.3088 -0.6853
 9073SOL     OW38680   2.642   2.176   5.472 -0.3105  0.6090 -0.1725
 9073SOL    HW138681   2.602   2.129   5.399  0.1102  0.7338 -0.4848
 9073SOL    HW238682   2.619   2.267   5.452 -0.0240  0.8140  0.4378
 9074SOL     OW38683   3.693   4.292   2.802  0.9170 -0.3731  0.6947
 9074SOL    HW138684   3.654   4.205   2.810  2.4453 -1.3915 -3.3424
 9074SOL    HW238685   3.772   4.264   2.757 -0.7530 -4.0907  0.1002
 9075SOL     OW38686   4.360   3.068   6.217 -0.0036  0.3392 -0.5788
 9075SOL    HW138687   4.333   3.012   6.144 -0.2536  1.1429 -1.1054
 9075SOL    HW238688   4.394   3.142   6.166  1.4307 -1.6678 -2.5455
 9076SOL     OW38689   4.514   0.689   2.276  0.0521 -0.2615  0.4024
 9076SOL    HW138690   4.443   0.683   2.212  1.1585 -0.1983 -0.8274
 9076SOL    HW238691   4.569   0.751   2.228 -0.1132 -0.7146 -0.3772
 9077SOL     OW38692   1.806   3.143   3.517 -0.4378 -0.0477 -0.3190
 9077SOL    HW138693   1.884   3.132   3.571  0.4454  0.8313 -1.4134
 9077SOL    HW238694   1.846   3.118   3.434 -2.1392  2.3100 -1.8474
 9078SOL     OW38695   2.975   3.586   1.456 -0.0386  0.2160 -0.0572
 9078SOL    HW138696   2.998   3.549   1.371 -3.3134 -0.6921 -0.5587
 9078SOL    HW238697   2.914   3.519   1.486  0.7464 -0.8357 -0.8279
 9079SOL     OW38698   2.676   3.022   3.328 -0.4084 -0.1407  0.1916
 9079SOL    HW138699   2.761   2.988   3.300  0.2212  1.9432 -0.4044
 9079SOL    HW238700   2.675   3.102   3.276 -2.0567  0.5605  1.3298
 9080SOL     OW38701   1.734   4.008   3.584 -0.1262 -0.1767 -0.1987
 9080SOL    HW138702   1.732   3.970   3.497  0.3438  2.4957 -1.3966
 9080SOL    HW238703   1.786   3.939   3.625  0.3553  0.0848 -0.3696
 9081SOL     OW38704   0.693   1.868   7.047 -0.1615 -0.0419  0.1113
 9081SOL    HW138705   0.599   1.889   7.044 -0.2752 -0.5918 -0.1888
 9081SOL    HW238706   0.700   1.790   7.102 -1.9540  0.5766  1.2379
 9082SOL     OW38707   3.415   3.597   0.182  0.2346 -0.2559  0.4619
 9082SOL    HW138708   3.427   3.659   0.110  0.5633 -0.1850  0.5797
 9082SOL    HW238709   3.319   3.598   0.185  0.2232 -0.2800  0.1849
 9083SOL     OW38710   0.354   2.440   4.657 -0.4863 -0.0566 -0.2825
 9083SOL    HW138711   0.331   2.355   4.618 -0.3395  0.6591 -1.9278
 9083SOL    HW238712   0.450   2.430   4.663 -0.5879  1.4637  3.6298
 9084SOL     OW38713   0.071   0.295  15.679  0.0672 -0.3548 -0.0977
 9084SOL    HW138714   0.128   0.237  15.629 -1.0849 -0.6728 -1.0276
 9084SOL    HW238715   0.136   0.354  15.717  0.1406 -0.0202 -0.7516
 9085SOL     OW38716   0.105   3.237   1.526 -0.3237  0.0247 -0.2824
 9085SOL    HW138717   0.096   3.301   1.596  0.1907 -1.5245  1.2094
 9085SOL    HW238718   0.191   3.197   1.541 -0.1243  0.4570 -0.2762
 9086SOL     OW38719   1.872   1.440   3.704  0.2405 -0.6700 -0.3362
 9086SOL    HW138720   1.950   1.421   3.651 -0.4647  2.5750 -2.5175
 9086SOL    HW238721   1.909   1.487   3.779 -1.1349 -0.2346  0.0529
 9087SOL     OW38722   0.075   1.903   7.433  0.4199  1.0051  0.0990
 9087SOL    HW138723   0.102   1.824   7.386  1.7432 -0.7759  3.8750
 9087SOL    HW238724   0.147   1.923   7.493  2.2489 -2.1045 -1.0503
 9088SOL     OW38725   2.599   1.512   7.889  0.4702 -0.2350  0.3405
 9088SOL    HW138726   2.611   1.553   7.974  2.4866  0.2541 -0.1957
 9088SOL    HW238727   2.676   1.540   7.841  0.3301  3.0066  2.0012
 9089SOL     OW38728   0.608   1.646  16.870  0.1958 -0.2581  0.3748
 9089SOL    HW138729   0.563   1.727  16.848  3.8864  1.2905 -1.4050
 9089SOL    HW238730   0.666   1.670  16.942  2.7263 -0.5394 -1.5665
 9090SOL     OW38731   2.453   0.518  17.104  0.1044 -0.0790  0.1505
 9090SOL    HW138732   2.376   0.516  17.161 -0.3319  3.5483 -0.3301
 9090SOL    HW238733   2.454   0.611  17.082  2.4330 -0.0913  0.1410
 9091SOL     OW38734   0.754   2.024  11.913  0.1355  0.2159 -0.3929
 9091SOL    HW138735   0.843   2.028  11.948 -0.2319 -1.7874  0.7917
 9091SOL    HW238736   0.766   2.089  11.844  1.1325 -1.1476 -1.5280
 9092SOL     OW38737   4.652   1.526   5.707 -0.0056  0.0509  0.3039
 9092SOL    HW138738   4.597   1.603   5.718  0.4865  0.3458  0.7176
 9092SOL    HW238739   4.659   1.530   5.611  0.8446 -1.0071  0.3128
 9093SOL     OW38740   1.686   1.992   5.474  0.0707 -0.3671 -0.3557
 9093SOL    HW138741   1.773   2.015   5.508  0.8990 -0.5313 -2.3276
 9093SOL    HW238742   1.712   1.959   5.388  1.7905  0.1035 -0.0153
 9094SOL     OW38743   0.350   0.308   2.512  0.4191  0.4738  0.5175
 9094SOL    HW138744   0.425   0.248   2.510 -0.0414 -0.1221  0.8890
 9094SOL    HW238745   0.394   0.381   2.468 -0.4569  0.8151  0.2198
 9095SOL     OW38746   4.352   2.254   0.533  0.1836  0.1736 -1.2191
 9095SOL    HW138747   4.380   2.166   0.508  0.3505 -0.0599 -0.2087
 9095SOL    HW238748   4.396   2.257   0.618  0.7825 -0.8758 -1.4964
 9096SOL     OW38749   1.304   3.822   9.194  0.5572 -0.3522 -0.4893
 9096SOL    HW138750   1.228   3.766   9.213  1.3126 -1.4191 -0.6457
 9096SOL    HW238751   1.359   3.802   9.269  0.4801 -0.3627 -0.4348
 9097SOL     OW38752   3.984   3.235   5.046 -0.3902  0.2510  0.0240
 9097SOL    HW138753   3.963   3.275   4.962 -2.1528  1.8949  1.2287
 9097SOL    HW238754   3.964   3.306   5.108 -2.0261 -0.6819  0.5439
 9098SOL     OW38755   2.576   1.496  13.744 -0.4810  0.5677 -0.1167
 9098SOL    HW138756   2.557   1.423  13.684  0.3534 -0.1068  0.4326
 9098SOL    HW238757   2.488   1.532  13.758 -0.4385  0.9397 -0.8204
 9099SOL     OW38758   1.871   1.520   7.504  0.4325  0.1583  0.2973
 9099SOL    HW138759   1.887   1.428   7.483  1.7977  0.8110 -1.5583
 9099SOL    HW238760   1.790   1.538   7.456  0.0753 -0.0418  0.8275
 9100SOL     OW38761   3.747   3.361   9.544  0.3510  0.7835 -0.3317
 9100SOL    HW138762   3.718   3.429   9.605 -0.3818 -1.3192  1.6343
 9100SOL    HW238763   3.798   3.419   9.488  2.1657 -0.4637  0.0471
 9101SOL     OW38764   1.553   3.249  16.730  0.1117  0.3395  0.4231
 9101SOL    HW138765   1.632   3.224  16.683 -1.4156 -1.3486 -1.2264
 9101SOL    HW238766   1.487   3.228  16.664  1.6249  1.0076 -1.2917
 9102SOL     OW38767   2.930   2.278  13.520  0.2864 -0.0325  0.0928
 9102SOL    HW138768   2.954   2.221  13.593  3.5169  0.9126 -0.2365
 9102SOL    HW238769   2.933   2.361  13.567 -1.7120  1.2324 -2.0032
 9103SOL     OW38770   1.501   4.002   3.368  0.1196  0.7173  0.6781
 9103SOL    HW138771   1.487   4.093   3.394 -2.0890  0.5210  0.2309
 9103SOL    HW238772   1.578   4.007   3.311  0.2678  1.1145  0.9145
 9104SOL     OW38773   0.044   3.382  14.284 -0.5827  0.0163 -0.0693
 9104SOL    HW138774   0.045   3.472  14.317 -1.9612  0.8957 -2.3877
 9104SOL    HW238775   4.669   3.367  14.295 -0.6552 -2.2724 -3.7309
 9105SOL     OW38776   3.366   1.618  11.947  0.3127  0.3468  0.1259
 9105SOL    HW138777   3.282   1.584  11.976  0.2179  0.4858  0.0167
 9105SOL    HW238778   3.350   1.711  11.961  1.3917  0.6424 -0.5893
 9106SOL     OW38779   2.970   0.179  13.695 -0.2006 -0.4258  0.2317
 9106SOL    HW138780   2.961   0.274  13.689 -1.3356 -0.6078 -0.9427
 9106SOL    HW238781   2.949   0.181  13.788  0.0443 -2.5593  0.3379
 9107SOL     OW38782   2.547   0.664  11.978  0.0760  0.4542 -0.4711
 9107SOL    HW138783   2.498   0.612  11.915 -0.3922 -0.5434  0.6977
 9107SOL    HW238784   2.478   0.720  12.014 -1.3689 -1.7531  0.2120
 9108SOL     OW38785   3.520   4.382   5.450  0.3255  0.2476  0.0981
 9108SOL    HW138786   3.526   4.419   5.538  0.1789 -1.3087  0.7624
 9108SOL    HW238787   3.562   4.446   5.392  0.1213  2.3560  2.2512
 9109SOL     OW38788   0.007   2.040   1.341 -0.0286 -0.3303 -0.7807
 9109SOL    HW138789   4.676   2.116   1.313  1.8865  0.9457 -0.8090
 9109SOL    HW238790   4.694   2.029   1.431 -0.9603 -0.4903 -1.1402
 9110SOL     OW38791   2.313   3.875   7.422  0.1837 -0.4740  0.0631
 9110SOL    HW138792   2.219   3.890   7.428  0.1478 -1.1401  1.1525
 9110SOL    HW238793   2.318   3.825   7.503  1.3659  2.3069  1.7159
 9111SOL     OW38794   0.093   1.937  14.982  0.2291 -0.4696 -0.0765
 9111SOL    HW138795   0.103   2.005  14.915  1.9594  0.5139  1.1819
 9111SOL    HW238796   4.718   1.932  14.997  0.1487  1.1663 -0.0551
 9112SOL     OW38797   0.436   0.033   2.311 -0.0809  0.8226  0.1570
 9112SOL    HW138798   0.453   4.662   2.285  2.1302  1.0140  0.9949
 9112SOL    HW238799   0.358   0.064   2.263 -0.4897  0.5649  0.6511
 9113SOL     OW38800   4.609   3.768   8.210 -0.5274  0.0974 -0.5483
 9113SOL    HW138801   4.574   3.702   8.270 -1.9390  1.2368 -0.1298
 9113SOL    HW238802   4.701   3.779   8.231 -0.7370  1.0278 -0.1346
 9114SOL     OW38803   2.409   0.469  13.139  0.6149 -0.1864 -1.0840
 9114SOL    HW138804   2.351   0.518  13.080 -1.8793  1.7260  3.0197
 9114SOL    HW238805   2.490   0.476  13.088  1.8478 -1.6089  0.7040
 9115SOL     OW38806   1.700   0.128   5.010 -0.1899 -0.1257 -0.2059
 9115SOL    HW138807   1.674   0.220   4.998  1.8016  0.5119  0.4117
 9115SOL    HW238808   1.675   0.109   5.100 -2.3784  3.5332 -0.0159
 9116SOL     OW38809   4.000   0.637   2.057  0.8526 -0.2573 -0.1569
 9116SOL    HW138810   3.953   0.676   1.984 -2.1365 -1.9548  0.8702
 9116SOL    HW238811   3.991   0.700   2.129 -0.5741 -2.2195  1.3838
 9117SOL     OW38812   0.035   3.636   5.082  0.5109  0.2017 -0.2532
 9117SOL    HW138813   0.130   3.626   5.076  0.5799  1.3960 -1.2162
 9117SOL    HW238814   0.003   3.565   5.026 -3.0499  1.6919 -0.0573
 9118SOL     OW38815   1.227   3.329   6.929  0.7160  0.2256 -0.4440
 9118SOL    HW138816   1.254   3.418   6.947 -0.3028  0.4401  0.0228
 9118SOL    HW238817   1.147   3.330   6.982  1.0065  0.3350 -0.0087
 9119SOL     OW38818   3.214   0.068   3.609  0.6303  0.1923 -0.0956
 9119SOL    HW138819   3.293   0.024   3.576  1.2906  0.4270  1.1806
 9119SOL    HW238820   3.255   0.126   3.673 -0.8660  3.7065 -2.3235
 9120SOL     OW38821   2.408   1.716  10.625  0.6525 -0.1440 -0.2482
 9120SOL    HW138822   2.471   1.723  10.554  0.8429 -1.3689 -0.1935
 9120SOL    HW238823   2.423   1.788  10.687  0.3862 -0.4238  0.1401
 9121SOL     OW38824   3.858   3.775   7.744 -0.2654  0.2170  0.0465
 9121SOL    HW138825   3.946   3.783   7.707  0.9553  0.6184  3.0978
 9121SOL    HW238826   3.806   3.815   7.674 -0.5578 -1.2198 -0.5568
 9122SOL     OW38827   0.853   1.513   6.350 -0.2969 -0.1206 -0.0764
 9122SOL    HW138828   0.852   1.503   6.445 -2.4067  0.3170 -0.0523
 9122SOL    HW238829   0.894   1.599   6.342 -1.8669  0.7874  1.7672
 9123SOL     OW38830   4.266   2.952   1.312  0.2888  0.3035  1.1580
 9123SOL    HW138831   4.359   2.934   1.301  0.3918  1.9916 -0.6735
 9123SOL    HW238832   4.238   2.923   1.225 -1.0136  2.0324  0.9951
 9124SOL     OW38833   2.378   1.568   8.415 -0.0191 -0.2332 -0.5220
 9124SOL    HW138834   2.333   1.598   8.495 -1.9898 -1.8960 -1.0227
 9124SOL    HW238835   2.308   1.517   8.374 -1.0204  0.1271  0.7060
 9125SOL     OW38836   1.792   3.222   6.164  0.6564 -0.3083 -0.0005
 9125SOL    HW138837   1.716   3.272   6.192  1.4363 -0.6511  2.7337
 9125SOL    HW238838   1.762   3.131   6.157 -2.8029  0.8024  0.5899
 9126SOL     OW38839   2.217   3.860   3.992 -0.2109  0.0168 -0.1050
 9126SOL    HW138840   2.244   3.793   4.056 -0.1402  0.8279  0.7062
 9126SOL    HW238841   2.127   3.838   3.970  0.3625 -1.4998 -0.9287
 9127SOL     OW38842   3.737   1.666   7.506 -0.1079  0.0645 -0.0714
 9127SOL    HW138843   3.794   1.708   7.571 -0.0909 -1.6440  1.0285
 9127SOL    HW238844   3.752   1.720   7.429 -0.2863  1.2877  0.7440
 9128SOL     OW38845   4.010   2.798   7.305  0.0494 -0.1873  0.1678
 9128SOL    HW138846   3.928   2.757   7.276  0.0839  0.3998 -0.7611
 9128SOL    HW238847   3.993   2.813   7.398  1.4754 -1.3543  0.6214
 9129SOL     OW38848   2.456   1.770   6.441  0.0499 -0.6191  0.0761
 9129SOL    HW138849   2.513   1.699   6.411  1.2298  0.5957 -0.5926
 9129SOL    HW238850   2.408   1.731   6.513  1.3301 -1.3568  0.5256
 9130SOL     OW38851   1.717   4.251   3.191 -0.3218 -0.5916 -0.0909
 9130SOL    HW138852   1.653   4.259   3.262  0.7366  1.4690  0.6364
 9130SOL    HW238853   1.672   4.301   3.122  0.3006 -0.0368 -0.0910
 9131SOL     OW38854   3.390   0.914   2.102  0.1260  0.1533 -0.1783
 9131SOL    HW138855   3.409   0.887   2.192 -2.1734 -0.5319  0.0982
 9131SOL    HW238856   3.428   1.002   2.103  0.4923 -0.0011 -0.4649
 9132SOL     OW38857   0.195   0.504   3.711  0.1753 -0.3107 -0.0714
 9132SOL    HW138858   0.177   0.558   3.635  1.2463  2.4888  1.6542
 9132SOL    HW238859   0.251   0.439   3.668 -1.1505 -0.0085 -2.2565
 9133SOL     OW38860   0.607   1.184   6.516  0.3832  0.3111 -0.3056
 9133SOL    HW138861   0.639   1.196   6.605  0.7540  3.5926 -0.8516
 9133SOL    HW238862   0.677   1.124   6.490  1.2313  1.2044 -0.1077
 9134SOL     OW38863   3.963   2.481  10.252 -0.0848 -0.4115  0.3007
 9134SOL    HW138864   4.013   2.412  10.295  1.0674  0.4334  0.2885
 9134SOL    HW238865   3.930   2.535  10.324  1.7879 -0.5898  1.2866
 9135SOL     OW38866   0.907   0.438   4.310  0.8661 -0.2006 -0.1936
 9135SOL    HW138867   0.970   0.498   4.348  2.1346 -1.2905 -0.5440
 9135SOL    HW238868   0.883   0.496   4.238  1.1984  0.9906  0.6551
 9136SOL     OW38869   3.553   1.197  12.178  0.2860 -0.1983  0.0090
 9136SOL    HW138870   3.646   1.207  12.202  0.4775  0.3660 -0.9702
 9136SOL    HW238871   3.548   1.127  12.112 -1.4798 -0.7597  0.7542
 9137SOL     OW38872   4.691   3.374   7.414  0.2403 -0.1244  0.4271
 9137SOL    HW138873   4.617   3.342   7.363  0.5644 -0.3381  0.0922
 9137SOL    HW238874   0.031   3.388   7.341 -1.9503 -0.9194 -1.4847
 9138SOL     OW38875   0.062   1.592   5.252 -0.4038 -0.4990  0.4632
 9138SOL    HW138876   0.041   1.620   5.341  1.7646  2.2779  0.0776
 9138SOL    HW238877   0.107   1.509   5.266 -0.7120 -0.6563  0.5129
 9139SOL     OW38878   0.704   1.001   7.097 -0.6596  0.3676  0.2888
 9139SOL    HW138879   0.779   1.041   7.052 -1.6498 -0.0258 -1.7459
 9139SOL    HW238880   0.697   1.057   7.174 -0.8768 -2.3495  2.2483
 9140SOL     OW38881   3.698   0.288   2.158  0.0666  0.5704 -0.1395
 9140SOL    HW138882   3.791   0.307   2.146  0.3827 -0.1582  1.1157
 9140SOL    HW238883   3.673   0.380   2.153  0.8433  0.8856  1.9231
 9141SOL     OW38884   1.689   0.241   8.340 -0.2324  0.4419  0.0854
 9141SOL    HW138885   1.755   0.211   8.278 -1.6186 -0.4642 -0.9507
 9141SOL    HW238886   1.682   0.164   8.397 -1.8609 -0.8567 -1.8459
 9142SOL     OW38887   3.830   1.240   3.732 -0.4235 -0.1237 -0.2751
 9142SOL    HW138888   3.805   1.325   3.698  1.4995  0.3145 -0.6189
 9142SOL    HW238889   3.902   1.269   3.788 -0.6204 -0.7068  0.2775
 9143SOL     OW38890   0.295   0.108   5.770  0.0835  0.3139  0.0522
 9143SOL    HW138891   0.365   0.123   5.706  1.0259  0.1911  1.0480
 9143SOL    HW238892   0.265   0.018   5.764 -1.9521  1.0518 -0.9143
 9144SOL     OW38893   4.391   3.188  13.940 -0.1418 -0.4123 -0.1881
 9144SOL    HW138894   4.451   3.262  13.944  0.1127 -0.5494 -1.3260
 9144SOL    HW238895   4.461   3.123  13.942  1.7977  1.6781 -0.7577
 9145SOL     OW38896   2.770   1.216   3.780  0.3921  0.1871 -0.1808
 9145SOL    HW138897   2.693   1.238   3.727  0.9426  0.7845 -0.7401
 9145SOL    HW238898   2.838   1.224   3.712  1.2898 -2.0970  0.4585
 9146SOL     OW38899   1.434   2.781   8.214 -0.1153  0.2493 -0.0230
 9146SOL    HW138900   1.511   2.799   8.159 -0.1138  1.5528  0.4134
 9146SOL    HW238901   1.390   2.865   8.203  0.2789  0.7970  2.7272
 9147SOL     OW38902   1.736   3.562  14.619 -0.1679  0.2965 -0.1888
 9147SOL    HW138903   1.768   3.520  14.699 -0.1679  0.7624  0.0568
 9147SOL    HW238904   1.737   3.657  14.635 -0.1082  0.4045 -0.8307
 9148SOL     OW38905   2.745   0.785   1.954  0.0395  0.1322  0.2266
 9148SOL    HW138906   2.781   0.834   1.880  1.1951  0.2593  0.8735
 9148SOL    HW238907   2.655   0.818   1.949 -0.1273 -0.3018  0.3349
 9149SOL     OW38908   0.544   1.657   2.399 -0.6851 -0.1733 -0.5863
 9149SOL    HW138909   0.516   1.748   2.405 -0.2503 -0.1928  1.8358
 9149SOL    HW238910   0.470   1.610   2.360  0.3233 -1.2330 -1.2233
 9150SOL     OW38911   0.692   4.021   9.464 -0.2196  0.0437  0.3106
 9150SOL    HW138912   0.674   3.928   9.482 -2.2690  0.4234  0.2212
 9150SOL    HW238913   0.771   4.042   9.514 -0.2835 -0.3222  0.5729
 9151SOL     OW38914   0.226   2.698   3.251 -0.7707 -0.0187  0.0652
 9151SOL    HW138915   0.221   2.750   3.331  1.9387  0.1248  0.1442
 9151SOL    HW238916   0.316   2.668   3.260 -0.1603  1.4376 -1.1135
 9152SOL     OW38917   2.575   4.180   0.742 -0.1020 -0.2731  0.6540
 9152SOL    HW138918   2.604   4.231   0.666 -1.6404  0.5499  0.6045
 9152SOL    HW238919   2.498   4.232   0.766  1.2636  0.6208  3.0497
 9153SOL     OW38920   4.699   3.899   6.617 -0.1903 -0.0519  0.1609
 9153SOL    HW138921   4.632   3.920   6.682  1.9107  1.6595  1.7608
 9153SOL    HW238922   0.054   3.923   6.671  0.4375  1.5458 -1.4230
 9154SOL     OW38923   2.200   0.967  12.543 -0.3894  0.0202 -0.1633
 9154SOL    HW138924   2.243   1.004  12.466  1.3597 -1.6914 -0.0202
 9154SOL    HW238925   2.234   1.015  12.618 -0.6795  0.0282 -0.0366
 9155SOL     OW38926   3.527   3.876   0.664 -0.2715 -0.3311 -0.1562
 9155SOL    HW138927   3.490   3.903   0.748  0.0316 -0.5329  0.0393
 9155SOL    HW238928   3.448   3.856   0.614  1.1294 -0.1017 -2.4864
 9156SOL     OW38929   1.987   1.885   6.531  0.0257 -0.0666 -0.3571
 9156SOL    HW138930   1.936   1.887   6.451  0.2318  0.3359 -0.4810
 9156SOL    HW238931   1.926   1.908   6.601 -0.3804 -0.8538 -0.4607
 9157SOL     OW38932   3.548   3.384   8.638  0.0478 -0.0608  0.6323
 9157SOL    HW138933   3.572   3.475   8.655  3.0748 -0.4892 -1.3365
 9157SOL    HW238934   3.541   3.372   8.543 -0.4051  0.8259  0.5560
 9158SOL     OW38935   0.642   1.763   2.692  0.3324 -0.5497  0.0967
 9158SOL    HW138936   0.590   1.689   2.662  3.3022 -1.7571 -2.1389
 9158SOL    HW238937   0.691   1.786   2.613 -1.6538  1.1152 -0.6140
 9159SOL     OW38938   2.044   2.975   8.485 -0.1395 -0.1013 -0.3898
 9159SOL    HW138939   2.129   2.981   8.441  0.1547 -1.5603 -0.0079
 9159SOL    HW238940   2.075   2.964   8.575 -0.2676  1.5661 -0.1396
 9160SOL     OW38941   2.607   1.658   9.253  0.0313 -0.6274  0.4452
 9160SOL    HW138942   2.587   1.567   9.230  2.2077 -0.6577 -1.3434
 9160SOL    HW238943   2.520   1.694   9.236  0.7585  0.7392 -0.3782
 9161SOL     OW38944   1.812   0.028  11.125  0.0430 -0.0584 -0.1970
 9161SOL    HW138945   1.798   0.022  11.219 -2.3060 -2.4216 -0.6909
 9161SOL    HW238946   1.789   0.120  11.111  1.3926  0.5987  2.0231
 9162SOL     OW38947   3.095   2.114   7.026 -0.0361 -0.7217  0.5844
 9162SOL    HW138948   3.089   2.209   7.012  0.0905 -1.0616 -1.9239
 9162SOL    HW238949   3.078   2.077   6.939 -0.5023  2.3767 -0.6722
 9163SOL     OW38950   1.327   2.064  15.701 -0.1148 -0.4262 -0.2409
 9163SOL    HW138951   1.410   2.057  15.654 -0.5080 -1.2836 -0.8242
 9163SOL    HW238952   1.349   2.125  15.770 -0.5142 -0.5351 -0.0159
 9164SOL     OW38953   3.493   0.985   8.112  0.4562  0.2034  0.1871
 9164SOL    HW138954   3.587   0.997   8.102  0.7275 -2.2464 -0.2318
 9164SOL    HW238955   3.469   0.962   8.022  0.0250 -0.9002  0.5851
 9165SOL     OW38956   1.565   0.037   5.272 -0.3297  0.2899  0.1682
 9165SOL    HW138957   1.611   0.094   5.334 -1.0445  0.6013  0.4141
 9165SOL    HW238958   1.546   4.679   5.326 -0.6942 -0.8515 -1.6135
 9166SOL     OW38959   4.027   2.191   2.245  0.4984 -0.3001 -0.4153
 9166SOL    HW138960   4.088   2.251   2.203  0.6504  1.2618  2.0513
 9166SOL    HW238961   3.939   2.221   2.222  0.1770 -0.3745  0.7267
 9167SOL     OW38962   3.749   2.804   4.295  0.6164 -0.6017  0.2832
 9167SOL    HW138963   3.775   2.870   4.231 -1.7010 -0.2804 -0.3059
 9167SOL    HW238964   3.805   2.819   4.371  0.3383  1.0349  0.1742
 9168SOL     OW38965   3.921   1.425   4.945 -0.1987 -0.4521  0.2090
 9168SOL    HW138966   3.877   1.417   5.030  0.8953 -2.6176  0.5670
 9168SOL    HW238967   3.847   1.432   4.884 -0.6687  2.0234  1.0657
 9169SOL     OW38968   3.914   0.888   7.288  0.3734 -0.1156  0.7449
 9169SOL    HW138969   3.855   0.932   7.226 -1.4403 -2.7596  0.5872
 9169SOL    HW238970   3.972   0.864   7.216  0.8613  2.1255  0.3828
 9170SOL     OW38971   0.785   2.674   4.347  0.4924  0.4565  0.1165
 9170SOL    HW138972   0.747   2.626   4.273  2.8778  0.0228 -0.8421
 9170SOL    HW238973   0.707   2.718   4.379 -0.4253 -0.6197 -0.6366
 9171SOL     OW38974   2.368   4.334  12.659 -0.2062  0.2647 -0.0766
 9171SOL    HW138975   2.379   4.419  12.616 -1.6954 -0.0804 -1.1152
 9171SOL    HW238976   2.372   4.369  12.748 -0.7132  0.7950 -0.2630
 9172SOL     OW38977   1.662   2.982  15.675 -0.1930  0.1744  0.0231
 9172SOL    HW138978   1.673   3.063  15.626 -0.0142  0.6529  0.8544
 9172SOL    HW238979   1.623   2.934  15.602 -0.3270  1.5914 -0.8333
 9173SOL     OW38980   3.781   1.300   9.473 -0.1016 -0.2126  0.1316
 9173SOL    HW138981   3.699   1.297   9.523  1.2362 -2.4848  2.2006
 9173SOL    HW238982   3.801   1.392   9.489 -0.6052 -0.0757 -0.0267
 9174SOL     OW38983   0.457   0.159   5.056 -0.0241 -0.3314 -0.3720
 9174SOL    HW138984   0.453   0.102   5.133 -0.0959  0.8490  0.4955
 9174SOL    HW238985   0.448   0.243   5.100  1.1334  0.1102 -0.9702
 9175SOL     OW38986   3.486   3.375   0.492  0.2429  0.5571  0.4600
 9175SOL    HW138987   3.502   3.283   0.514  1.9610  1.2435  2.1054
 9175SOL    HW238988   3.396   3.384   0.461  0.5246 -1.0495 -0.8299
 9176SOL     OW38989   3.840   2.401  12.889  0.1920  0.0920  0.4200
 9176SOL    HW138990   3.769   2.458  12.861  0.2278 -0.3846 -0.6433
 9176SOL    HW238991   3.827   2.409  12.983  0.3730 -0.0621  0.4576
 9177SOL     OW38992   2.767   1.925  17.205  0.4394  0.4106 -0.1204
 9177SOL    HW138993   2.742   1.978  17.282  2.1367 -0.2382  0.8738
 9177SOL    HW238994   2.683   1.886  17.181  0.8025 -0.8190  0.6259
 9178SOL     OW38995   0.931   3.965  15.737  0.1367 -0.4854  0.6496
 9178SOL    HW138996   0.860   3.974  15.673  1.2520 -0.7919 -0.6163
 9178SOL    HW238997   0.921   3.875  15.768 -1.0457 -0.1509  1.2502
 9179SOL     OW38998   3.112   3.858   6.275 -0.4566 -0.0012 -0.1957
 9179SOL    HW138999   3.158   3.778   6.249 -0.6949 -0.2038  0.0134
 9179SOL    HW239000   3.141   3.863   6.366  1.0108  0.3031 -0.6898
 9180SOL     OW39001   0.479   2.556   5.295 -0.0492  0.0949 -0.0451
 9180SOL    HW139002   0.557   2.502   5.286 -0.6435 -0.7544 -0.0253
 9180SOL    HW239003   0.434   2.523   5.372  1.1374  1.8594  1.4075
 9181SOL     OW39004   3.862   1.118   5.000 -0.1123  0.3855 -0.0249
 9181SOL    HW139005   3.858   1.141   4.907 -2.4267 -3.6346 -0.9345
 9181SOL    HW239006   3.812   1.192   5.034 -0.3502  1.1504 -2.0421
 9182SOL     OW39007   4.468   2.743   8.601 -0.3904  0.0436 -0.1448
 9182SOL    HW139008   4.441   2.834   8.614 -1.2454 -0.0719 -1.1336
 9182SOL    HW239009   4.412   2.722   8.526 -1.1494  0.5404  0.2900
 9183SOL     OW39010   3.455   0.707   8.337  0.7694  0.2319  0.0549
 9183SOL    HW139011   3.513   0.680   8.408  0.9560 -0.8592 -0.5124
 9183SOL    HW239012   3.511   0.665   8.271  0.0611 -0.5680 -0.0381
 9184SOL     OW39013   2.464   0.253   6.482  0.0461  0.1239  0.1291
 9184SOL    HW139014   2.530   0.187   6.461  0.7174  0.8998 -0.1973
 9184SOL    HW239015   2.493   0.286   6.568  0.9065  0.9066 -0.4651
 9185SOL     OW39016   3.039   2.614   1.343 -0.1668 -0.5270  0.3277
 9185SOL    HW139017   2.989   2.547   1.390 -0.3591  0.5797  1.7109
 9185SOL    HW239018   3.090   2.655   1.413 -1.8595 -0.6934  1.6710
 9186SOL     OW39019   2.819   0.569  16.865  0.2139 -0.1112 -0.4030
 9186SOL    HW139020   2.908   0.605  16.864  0.7014 -1.2597  0.6932
 9186SOL    HW239021   2.806   0.541  16.774 -0.0020 -0.4098 -0.2788
 9187SOL     OW39022   2.501   3.093  13.867 -0.8563 -0.4308  0.3415
 9187SOL    HW139023   2.407   3.109  13.870 -0.0498  4.0550  2.2405
 9187SOL    HW239024   2.533   3.183  13.874 -1.9735  0.1610 -2.2119
 9188SOL     OW39025   3.806   2.190   3.390 -0.2487  0.2702  0.4574
 9188SOL    HW139026   3.802   2.116   3.451 -0.1214  1.7253  2.2186
 9188SOL    HW239027   3.716   2.219   3.381  0.3425  1.4641 -1.5358
 9189SOL     OW39028   1.246   0.412   7.673 -0.0525  0.1585  0.0056
 9189SOL    HW139029   1.210   0.483   7.725 -1.1775  0.1635 -0.7874
 9189SOL    HW239030   1.341   0.413   7.688 -0.2717  1.8361  1.2385
 9190SOL     OW39031   0.892   1.924   8.526 -0.5869  0.4861  0.0607
 9190SOL    HW139032   0.921   2.003   8.572  1.8699  1.2605 -2.7912
 9190SOL    HW239033   0.813   1.952   8.480  0.9298  0.4095 -2.5930
 9191SOL     OW39034   0.648   1.499  16.606  0.4186  0.0584  0.1105
 9191SOL    HW139035   0.718   1.544  16.559  1.8382 -1.7067  0.5464
 9191SOL    HW239036   0.650   1.537  16.694 -0.1059  0.2495  0.0374
 9192SOL     OW39037   2.694   2.612   1.939 -0.1099  0.1374  0.4168
 9192SOL    HW139038   2.713   2.545   2.005  1.7458  1.5497  1.3183
 9192SOL    HW239039   2.603   2.594   1.918  0.2668 -0.8932 -0.3607
 9193SOL     OW39040   3.369   3.641   8.256 -0.1280  0.5146 -0.5399
 9193SOL    HW139041   3.454   3.599   8.257 -1.3359 -1.8736  1.2745
 9193SOL    HW239042   3.353   3.652   8.350  0.4121 -0.0362 -0.3901
 9194SOL     OW39043   4.652   0.800  14.194 -0.5604 -0.2177  0.5998
 9194SOL    HW139044   4.635   0.879  14.246  1.4065 -0.8200  2.1909
 9194SOL    HW239045   4.716   0.840  14.135 -0.5964 -0.1185  0.6291
 9195SOL     OW39046   2.079   4.218   4.736 -0.1427 -0.1250  0.3680
 9195SOL    HW139047   2.167   4.187   4.759  0.6956  0.4362 -2.0782
 9195SOL    HW239048   2.036   4.149   4.787 -2.0359  0.3926 -0.5496
 9196SOL     OW39049   3.576   4.246   8.947  0.2135 -0.8908  0.3536
 9196SOL    HW139050   3.509   4.302   8.908 -0.6117 -1.4978  0.9033
 9196SOL    HW239051   3.522   4.189   9.002 -0.1247 -1.0839 -0.1858
 9197SOL     OW39052   4.330   1.959   5.964  0.1395 -0.1641  0.0675
 9197SOL    HW139053   4.412   1.930   6.005 -0.4351 -1.8098  0.0367
 9197SOL    HW239054   4.281   1.879   5.981 -2.8408  1.8113  0.8218
 9198SOL     OW39055   4.444   1.745  13.897 -0.6435 -0.3767 -0.2382
 9198SOL    HW139056   4.367   1.800  13.916  1.0942  1.6321  1.0639
 9198SOL    HW239057   4.404   1.662  13.872  1.4297 -1.4778  0.1556
 9199SOL     OW39058   4.660   0.456   0.985  0.8338  0.1723 -0.0888
 9199SOL    HW139059   4.675   0.535   0.933 -0.6539  0.4676 -0.0771
 9199SOL    HW239060   4.669   0.494   1.073  0.3725  1.9182 -0.7958
 9200SOL     OW39061   0.596   4.208   1.531  0.0452 -0.1654  0.2540
 9200SOL    HW139062   0.593   4.297   1.497  0.5271 -0.0023  0.6367
 9200SOL    HW239063   0.546   4.213   1.612  0.7817  1.5320  0.5906
 9201SOL     OW39064   2.464   1.340   7.378 -0.3829  0.2186  0.4114
 9201SOL    HW139065   2.419   1.314   7.298 -1.5173 -0.4880  1.2812
 9201SOL    HW239066   2.554   1.330   7.345 -0.2770 -2.2764  1.4596
 9202SOL     OW39067   4.214   1.083   3.075 -0.5603 -0.6419 -0.2876
 9202SOL    HW139068   4.188   0.993   3.090 -2.3947 -0.3611 -1.9064
 9202SOL    HW239069   4.147   1.131   3.027  0.1959 -0.3813 -1.1001
 9203SOL     OW39070   1.517   0.166   9.881  0.2599 -0.2882  0.6801
 9203SOL    HW139071   1.569   0.088   9.862  1.2560  0.6598 -0.5275
 9203SOL    HW239072   1.533   0.209   9.797 -3.6638  0.5358  0.3591
 9204SOL     OW39073   0.014   1.783  13.499 -0.1661  0.7238 -0.1955
 9204SOL    HW139074   4.647   1.818  13.520 -0.7401 -2.0217  2.0243
 9204SOL    HW239075   0.034   1.739  13.581  4.5507  0.7177 -1.3840
 9205SOL     OW39076   0.469   0.864  16.780 -0.1303  0.9892  0.4033
 9205SOL    HW139077   0.560   0.847  16.757 -0.2441  1.2469 -0.2337
 9205SOL    HW239078   0.481   0.953  16.813 -0.9453  0.9145  0.9101
 9206SOL     OW39079   3.373   4.194   4.617  0.6649  0.0410 -0.0158
 9206SOL    HW139080   3.421   4.212   4.698 -1.6107  2.5253  0.7669
 9206SOL    HW239081   3.369   4.283   4.583 -1.0408  0.3092  0.8847
 9207SOL     OW39082   0.761   1.917   7.811 -0.3200 -0.0861 -0.2034
 9207SOL    HW139083   0.847   1.877   7.815 -0.1945  0.2370  0.2430
 9207SOL    HW239084   0.786   1.978   7.741 -3.2678 -0.1192 -1.3017
 9208SOL     OW39085   4.134   4.327   5.468 -0.0718 -0.2523 -0.4968
 9208SOL    HW139086   4.200   4.263   5.493  0.8014  0.2834 -1.3949
 9208SOL    HW239087   4.152   4.388   5.540  0.0731  2.0523 -2.4681
 9209SOL     OW39088   0.295   0.748  15.058  0.8451 -0.0097  1.1753
 9209SOL    HW139089   0.243   0.668  15.058  2.2663 -0.9418  1.0271
 9209SOL    HW239090   0.228   0.810  15.030 -0.8443 -2.7054 -0.8583
 9210SOL     OW39091   2.246   0.819  12.814 -0.0431  0.1404 -0.0111
 9210SOL    HW139092   2.271   0.759  12.744 -3.0144 -0.0657 -0.8551
 9210SOL    HW239093   2.213   0.751  12.872  1.3400 -2.9139 -2.8547
 9211SOL     OW39094   0.542   1.234   0.306  0.5723  0.0567 -0.0898
 9211SOL    HW139095   0.581   1.234   0.393  0.9830 -1.0572 -0.2801
 9211SOL    HW239096   0.604   1.190   0.248  1.6118 -0.3116  1.2881
 9212SOL     OW39097   2.135   3.551   4.235  0.1413 -0.2385  0.0428
 9212SOL    HW139098   2.103   3.461   4.238  2.4500 -1.0279  0.1498
 9212SOL    HW239099   2.056   3.596   4.266  0.1028  0.0774 -0.5072
 9213SOL     OW39100   4.547   1.154   2.663 -0.5719 -0.1578  0.4126
 9213SOL    HW139101   4.609   1.106   2.718  0.4239 -0.7689 -1.2393
 9213SOL    HW239102   4.552   1.246   2.688  0.9736 -0.7771  2.4281
 9214SOL     OW39103   4.455   1.543  13.410  0.1481  0.3160  0.2572
 9214SOL    HW139104   4.474   1.625  13.457  0.1626  0.9320 -0.8402
 9214SOL    HW239105   4.439   1.581  13.324  2.4372  3.5071  1.2700
 9215SOL     OW39106   0.363   2.390  16.282  0.2364 -0.5159  0.5562
 9215SOL    HW139107   0.344   2.375  16.189 -0.0584 -1.4984  0.7787
 9215SOL    HW239108   0.430   2.458  16.281 -0.7595  0.4426 -2.5616
 9216SOL     OW39109   4.452   0.989   4.942 -0.0139  0.6826 -0.6142
 9216SOL    HW139110   4.494   1.070   4.970 -1.3870  1.0419  0.3977
 9216SOL    HW239111   4.433   0.940   5.022 -0.6501  2.6291  0.4382
 9217SOL     OW39112   0.408   3.530  12.458 -0.6981 -0.6492 -0.2955
 9217SOL    HW139113   0.462   3.505  12.383  0.0329  2.4289 -0.7770
 9217SOL    HW239114   0.387   3.622  12.443 -0.5133 -0.3394  1.3521
 9218SOL     OW39115   0.829   0.081   1.730 -0.4210 -0.1307 -0.3061
 9218SOL    HW139116   0.921   0.064   1.708 -0.3176 -4.0770  3.1336
 9218SOL    HW239117   0.784   0.084   1.645 -1.1466 -0.5119  0.0697
 9219SOL     OW39118   2.259   2.485   7.402  0.1896  0.0937 -0.3052
 9219SOL    HW139119   2.280   2.476   7.309  1.9910  1.3686 -0.0242
 9219SOL    HW239120   2.349   2.489   7.434  1.2960 -0.9902 -3.1807
 9220SOL     OW39121   3.766   1.346  13.531  0.5839 -0.2705  0.1692
 9220SOL    HW139122   3.672   1.347  13.548  0.8748  1.8127  1.6463
 9220SOL    HW239123   3.795   1.265  13.572 -0.8883  0.0493  1.8393
 9221SOL     OW39124   2.914   2.416   1.516  0.8073  0.7410 -0.0257
 9221SOL    HW139125   2.890   2.379   1.431  0.2722  0.7098  0.1373
 9221SOL    HW239126   2.910   2.330   1.557 -1.0442  0.8833  0.0833
 9222SOL     OW39127   1.889   4.230  13.576 -0.4285  0.1785 -0.2832
 9222SOL    HW139128   1.959   4.237  13.512 -0.0926  1.1847  0.1938
 9222SOL    HW239129   1.935   4.260  13.655 -0.3893  2.1867 -1.0725
 9223SOL     OW39130   2.111   2.304   8.907  0.5857  0.0636  0.2887
 9223SOL    HW139131   2.182   2.368   8.902  0.4678  0.2806  1.3108
 9223SOL    HW239132   2.129   2.256   8.827  1.5383 -0.0158  0.5511
 9224SOL     OW39133   2.719   4.117   6.275 -0.2467  0.0147  0.2080
 9224SOL    HW139134   2.811   4.109   6.298 -0.4284  2.3529  1.8013
 9224SOL    HW239135   2.725   4.192   6.217 -3.7498  0.6274  0.6446
 9225SOL     OW39136   2.862   3.177   5.351  0.0324 -0.0394 -0.1454
 9225SOL    HW139137   2.915   3.099   5.366 -0.0544 -0.0885 -0.0979
 9225SOL    HW239138   2.902   3.210   5.270  0.7882 -0.3599  0.0986
 9226SOL     OW39139   2.478   4.092   1.804 -0.0981 -0.4021  0.1719
 9226SOL    HW139140   2.558   4.089   1.856  0.9751  0.6541 -1.4190
 9226SOL    HW239141   2.483   4.185   1.781  1.0557  0.3182  3.4143
 9227SOL     OW39142   0.522   2.164  16.355  0.5046  0.3383  0.1792
 9227SOL    HW139143   0.461   2.116  16.299  0.3805  0.0110  0.5899
 9227SOL    HW239144   0.467   2.239  16.376  0.8415  0.4890  0.5286
 9228SOL     OW39145   1.677   3.556   6.080 -0.2548 -0.1689 -0.4735
 9228SOL    HW139146   1.664   3.595   5.993  2.4250 -0.4530 -0.9947
 9228SOL    HW239147   1.770   3.562   6.100 -0.1382 -0.5804 -0.8998
 9229SOL     OW39148   0.864   2.203  10.689 -0.0767  0.2460 -0.2484
 9229SOL    HW139149   0.887   2.127  10.743 -1.0223  0.3016  0.2294
 9229SOL    HW239150   0.948   2.228  10.652 -1.2064  1.2385 -2.1329
 9230SOL     OW39151   0.944   0.834   7.258 -0.2145  0.1828 -0.0060
 9230SOL    HW139152   1.030   0.871   7.278 -0.1330  0.4718 -0.8933
 9230SOL    HW239153   0.889   0.882   7.320  0.2465 -0.9055  1.2352
 9231SOL     OW39154   1.578   4.690   5.836  0.2938 -0.0447  0.2821
 9231SOL    HW139155   1.514   4.672   5.905 -0.7706  0.2867 -0.6189
 9231SOL    HW239156   1.531   0.020   5.769 -1.8635  1.1247  2.6920
 9232SOL     OW39157   0.166   2.754   1.685 -0.2822  0.5298 -0.2155
 9232SOL    HW139158   0.095   2.745   1.622  0.7506  1.0124 -1.4372
 9232SOL    HW239159   0.125   2.713   1.761  2.5420  1.3946  1.7953
 9233SOL     OW39160   2.872   3.762   2.315 -0.1726  0.3403  0.1326
 9233SOL    HW139161   2.785   3.786   2.283  0.0036  2.6813  1.3666
 9233SOL    HW239162   2.863   3.667   2.321  0.7848  0.3848  2.0067
 9234SOL     OW39163   3.684   4.259   6.404  0.6119  0.4612 -0.3337
 9234SOL    HW139164   3.667   4.350   6.378 -1.2373  0.2840  0.3069
 9234SOL    HW239165   3.620   4.212   6.351 -1.0205  2.3354 -0.0242
 9235SOL     OW39166   4.348   0.790  14.075  0.6245 -0.0706  0.0229
 9235SOL    HW139167   4.415   0.729  14.044 -0.1424 -0.8999  0.0191
 9235SOL    HW239168   4.306   0.737  14.143 -0.0616 -1.5524 -1.5807
 9236SOL     OW39169   1.736   3.136  12.180 -0.3485  0.3227  0.5365
 9236SOL    HW139170   1.716   3.047  12.210  0.0325  0.2864  0.6736
 9236SOL    HW239171   1.648   3.173  12.168 -0.8155 -0.3280  1.9995
 9237SOL     OW39172   3.483   1.661  10.854 -0.5312 -0.2485 -0.6659
 9237SOL    HW139173   3.461   1.754  10.864 -0.0361  0.0768 -2.5814
 9237SOL    HW239174   3.576   1.654  10.877 -0.3843  1.0366 -0.8646
 9238SOL     OW39175   2.655   1.050  11.838 -0.5081 -0.8619  0.0157
 9238SOL    HW139176   2.563   1.075  11.841 -0.3220 -0.1796 -0.1414
 9238SOL    HW239177   2.696   1.136  11.830 -1.8178 -0.0954  1.7083
 9239SOL     OW39178   1.910   1.931   5.272  0.4882 -0.3565  0.1407
 9239SOL    HW139179   1.932   1.975   5.354  2.7810  0.1306 -0.7487
 9239SOL    HW239180   1.962   1.851   5.278  0.7197 -0.1497  0.8810
 9240SOL     OW39181   0.590   3.474   5.311 -0.2644  0.1314  0.3992
 9240SOL    HW139182   0.514   3.523   5.279 -0.9295 -0.7834  0.5926
 9240SOL    HW239183   0.590   3.401   5.249 -2.1077  0.1805  0.3337
 9241SOL     OW39184   1.810   2.508  10.914  0.1504 -0.1251  0.2522
 9241SOL    HW139185   1.719   2.489  10.895  0.2037 -0.4416  0.3170
 9241SOL    HW239186   1.835   2.416  10.926 -0.4631 -0.1132  1.6023
 9242SOL     OW39187   1.116   1.844   0.172  0.3166 -0.2850  0.5501
 9242SOL    HW139188   1.138   1.907   0.241  1.6460  2.5093 -2.4106
 9242SOL    HW239189   1.187   1.873   0.114 -0.9604  1.8768  0.0718
 9243SOL     OW39190   1.717   2.708   5.065 -0.0440  0.1844  0.6714
 9243SOL    HW139191   1.730   2.758   4.985 -1.3540 -1.4372 -0.5515
 9243SOL    HW239192   1.681   2.772   5.127 -1.3819  2.7361 -2.7654
 9244SOL     OW39193   1.992   4.703   8.611 -0.5088  0.1235  0.1195
 9244SOL    HW139194   2.078   0.018   8.588  0.2682 -1.7821  0.1033
 9244SOL    HW239195   1.991   0.020   8.699 -1.1272 -0.1478  0.2249
 9245SOL     OW39196   3.301   2.544   5.076  0.3618 -0.1319  0.3381
 9245SOL    HW139197   3.339   2.457   5.082  0.3887 -0.1422 -0.0392
 9245SOL    HW239198   3.367   2.601   5.116  0.5864 -0.9440  1.1205
 9246SOL     OW39199   1.520   0.060   8.080  0.4125  0.2033  0.1135
 9246SOL    HW139200   1.475   0.044   8.163  0.2412  1.9295  0.3358
 9246SOL    HW239201   1.454   0.100   8.024  1.1343 -0.3334 -1.1251
 9247SOL     OW39202   3.840   1.693   0.045  0.2056 -0.0992 -0.2181
 9247SOL    HW139203   3.772   1.692  17.660  0.3508 -1.0387 -0.3536
 9247SOL    HW239204   3.874   1.606   0.023 -2.4079 -0.5849 -2.1724
 9248SOL     OW39205   4.310   0.845   3.438 -0.1876 -0.5969  0.3494
 9248SOL    HW139206   4.216   0.854   3.450 -0.4295 -0.6217 -1.5826
 9248SOL    HW239207   4.328   0.938   3.422  2.8245 -1.9930 -4.4271
 9249SOL     OW39208   0.934   1.605   2.687 -0.1445 -0.4261  0.2541
 9249SOL    HW139209   0.879   1.603   2.608  1.0428  0.2325 -0.5928
 9249SOL    HW239210   0.978   1.690   2.684  1.0928 -1.0966 -1.1824
 9250SOL     OW39211   4.428   3.641  12.630  0.3267  0.3760  0.3980
 9250SOL    HW139212   4.418   3.629  12.725  1.1524 -0.9591  0.3328
 9250SOL    HW239213   4.523   3.627  12.636  0.0727 -2.7624 -2.9065
 9251SOL     OW39214   2.795   1.618   8.633  0.1056  0.5690  0.0261
 9251SOL    HW139215   2.841   1.538   8.607  0.5686  1.1520 -0.9286
 9251SOL    HW239216   2.834   1.634   8.719 -0.2330 -2.4076  0.7518
 9252SOL     OW39217   4.487   3.253   3.632  0.1480 -0.4519 -0.6789
 9252SOL    HW139218   4.451   3.340   3.617  0.1048 -0.4699 -0.6800
 9252SOL    HW239219   4.576   3.253   3.597  0.0868  0.4376 -0.8422
 9253SOL     OW39220   2.053   2.791   3.956 -0.1966 -0.3037 -0.4248
 9253SOL    HW139221   2.056   2.866   3.897  0.2424  0.6470  0.8054
 9253SOL    HW239222   2.078   2.828   4.040  0.1793  0.4790 -0.8830
 9254SOL     OW39223   3.751   0.036   9.471 -0.2417  0.2732 -0.0678
 9254SOL    HW139224   3.806   0.086   9.411 -0.6913  0.9318  0.0744
 9254SOL    HW239225   3.691   0.103   9.502 -1.5954 -0.7236 -0.5146
 9255SOL     OW39226   2.905   2.751   3.613  0.6945  0.1493 -0.3563
 9255SOL    HW139227   2.977   2.775   3.556  1.5576 -2.2726 -0.2948
 9255SOL    HW239228   2.921   2.657   3.604 -0.1963  0.1485 -2.0081
 9256SOL     OW39229   4.331   3.112   4.117 -0.8243  0.4027  0.3601
 9256SOL    HW139230   4.383   3.036   4.093  0.4432  1.0800  0.9363
 9256SOL    HW239231   4.355   3.169   4.044  0.7113  1.5489  1.7391
 9257SOL     OW39232   3.826   3.455  17.321 -0.0906  0.2118 -0.4818
 9257SOL    HW139233   3.783   3.378  17.285 -0.5835 -0.9139  2.4418
 9257SOL    HW239234   3.874   3.494  17.248  3.0995 -1.2313  0.8121
 9258SOL     OW39235   0.062   0.476   3.924 -0.1090  0.0645  0.3298
 9258SOL    HW139236   0.109   0.419   3.985 -0.7737 -0.4966  0.3158
 9258SOL    HW239237   0.120   0.471   3.848  0.6830 -0.2787  0.9619
 9259SOL     OW39238   0.141   1.695  11.425  0.2103  0.3763  0.0843
 9259SOL    HW139239   0.136   1.742  11.508  1.6748 -0.9509  0.9253
 9259SOL    HW239240   0.144   1.763  11.357  0.4320  0.0617 -0.2199
 9260SOL     OW39241   4.044   4.525  12.104 -0.1764 -0.2114  0.1425
 9260SOL    HW139242   3.960   4.563  12.083  0.2477  1.6744  1.8975
 9260SOL    HW239243   4.046   4.445  12.051  1.3230  0.5449 -0.9578
 9261SOL     OW39244   3.531   0.570   8.576 -0.5927 -0.4372  0.8530
 9261SOL    HW139245   3.516   0.620   8.657  2.0831  0.3492  0.8794
 9261SOL    HW239246   3.609   0.523   8.607  0.1609  1.4169  1.8153
 9262SOL     OW39247   2.857   1.292   9.971 -0.4791 -0.1945  0.0477
 9262SOL    HW139248   2.848   1.233  10.046 -3.2836 -0.4574 -0.5164
 9262SOL    HW239249   2.932   1.253   9.925  0.4894  1.4660  0.2306
 9263SOL     OW39250   0.753   3.461  12.451 -0.0971  0.2134 -0.2014
 9263SOL    HW139251   0.809   3.524  12.495  3.0160  0.1885 -4.0535
 9263SOL    HW239252   0.823   3.420  12.400 -1.2720 -1.4752 -0.4697
 9264SOL     OW39253   2.943   4.705  16.164 -0.4898  0.2918  0.5268
 9264SOL    HW139254   2.860   4.714  16.210 -0.8642  0.0849 -0.1109
 9264SOL    HW239255   2.981   0.069  16.189  0.8968 -0.4499  0.9037
 9265SOL     OW39256   0.514   0.180   6.009  0.6295  0.4752 -0.6119
 9265SOL    HW139257   0.425   0.148   6.021  1.4068 -1.2777  0.3816
 9265SOL    HW239258   0.531   0.224   6.093 -0.8494 -0.6639  0.2772
 9266SOL     OW39259   0.023   0.895   0.476  0.3689  0.1761 -0.4678
 9266SOL    HW139260   4.657   0.918   0.442  0.7247 -1.4053 -2.4133
 9266SOL    HW239261   0.018   0.800   0.464 -0.1960 -0.1587  2.3297
 9267SOL     OW39262   3.577   3.989  12.251 -0.1992  0.3396  0.3811
 9267SOL    HW139263   3.628   3.929  12.306  1.2139  1.0405 -0.1794
 9267SOL    HW239264   3.577   3.942  12.168 -0.1003 -1.6109  1.4702
 9268SOL     OW39265   3.252   0.773   3.446 -0.0085 -0.0582  0.4010
 9268SOL    HW139266   3.313   0.811   3.509 -0.1514 -0.2871  0.6775
 9268SOL    HW239267   3.301   0.757   3.365  1.6692  1.5979  1.1160
 9269SOL     OW39268   2.707   2.959   4.215 -0.1858 -0.4361  0.2077
 9269SOL    HW139269   2.773   3.011   4.169 -1.0442  1.1291  0.7252
 9269SOL    HW239270   2.752   2.917   4.288  0.0315  0.2988  0.4939
 9270SOL     OW39271   0.714   0.289   6.562 -0.1050 -0.1383 -0.2206
 9270SOL    HW139272   0.769   0.345   6.617  1.2265 -1.4971 -0.1505
 9270SOL    HW239273   0.628   0.329   6.572 -0.1962 -0.2060 -0.7794
 9271SOL     OW39274   3.490   2.211   2.048  0.2765  0.3391 -0.4791
 9271SOL    HW139275   3.534   2.290   2.017  2.1046 -0.7336 -0.5669
 9271SOL    HW239276   3.488   2.159   1.968  2.5841  1.6310 -1.3545
 9272SOL     OW39277   3.329   4.286  13.530  0.1180  0.2287 -0.0705
 9272SOL    HW139278   3.271   4.334  13.588 -0.2598 -0.3577  0.0424
 9272SOL    HW239279   3.263   4.249  13.471  2.7819 -1.0291 -2.2960
 9273SOL     OW39280   0.638   1.525   3.768 -0.1180  0.1337  0.1759
 9273SOL    HW139281   0.703   1.506   3.836  0.4242  1.8165  0.1463
 9273SOL    HW239282   0.699   1.548   3.698  0.6612 -2.6576 -0.0458
 9274SOL     OW39283   1.785   4.073   9.157  0.0921  0.2397 -0.1380
 9274SOL    HW139284   1.711   4.134   9.148 -0.3938 -0.0741  1.5895
 9274SOL    HW239285   1.815   4.069   9.066  1.2880  2.9483  0.1306
 9275SOL     OW39286   0.523   4.532   9.730  0.0808 -0.3811  0.0128
 9275SOL    HW139287   0.572   4.482   9.795 -0.1778 -3.0977 -1.8472
 9275SOL    HW239288   0.433   4.534   9.762 -0.8935 -0.0539 -2.6720
 9276SOL     OW39289   4.283   3.577   2.180 -0.3674 -0.1045 -0.3410
 9276SOL    HW139290   4.373   3.569   2.149 -0.0664 -0.1223  0.5238
 9276SOL    HW239291   4.306   3.637   2.250 -0.1510 -0.0878 -0.4273
 9277SOL     OW39292   2.094   4.329  16.246 -0.1135 -0.0269  0.2342
 9277SOL    HW139293   2.159   4.335  16.176  0.2957  1.0324  0.6954
 9277SOL    HW239294   2.039   4.404  16.224  0.1084 -0.3890 -1.5060
 9278SOL     OW39295   0.997   1.766   7.921 -0.8479 -0.3028 -0.0746
 9278SOL    HW139296   0.972   1.714   7.998 -0.2259 -2.6288 -1.4429
 9278SOL    HW239297   0.944   1.713   7.861 -0.7054 -0.5291 -0.0005
 9279SOL     OW39298   0.641   4.141   4.440 -0.2714 -0.3318 -0.0556
 9279SOL    HW139299   0.692   4.068   4.475  2.1866  1.8587  0.8789
 9279SOL    HW239300   0.618   4.107   4.354  2.5978 -1.3629 -0.4262
 9280SOL     OW39301   0.569   0.915   7.605 -0.3121  0.4107 -0.1910
 9280SOL    HW139302   0.475   0.903   7.593 -0.4400  1.2257  0.0113
 9280SOL    HW239303   0.590   0.871   7.523 -1.4493  0.4611 -0.5076
 9281SOL     OW39304   1.094   1.622   4.778 -0.9487 -0.5023  0.3395
 9281SOL    HW139305   1.103   1.675   4.699 -0.2457 -0.7405  0.2540
 9281SOL    HW239306   1.086   1.688   4.847  0.0904 -2.3175  2.2011
 9282SOL     OW39307   0.032   4.368   6.888  0.5225  0.1697 -0.0758
 9282SOL    HW139308   0.011   4.275   6.899  0.1626  0.1117 -1.2388
 9282SOL    HW239309   4.719   4.401   6.972  1.4712  0.9160 -0.0073
 9283SOL     OW39310   2.658   2.561   6.191 -0.2877  0.1888 -0.2717
 9283SOL    HW139311   2.666   2.634   6.130 -0.5904 -0.3718 -0.9848
 9283SOL    HW239312   2.749   2.557   6.221 -0.6823  2.3206  1.1684
 9284SOL     OW39313   4.526   2.986   3.658  1.1163  0.3068 -0.0895
 9284SOL    HW139314   4.487   3.053   3.603  1.7704 -0.2971 -1.2840
 9284SOL    HW239315   4.463   2.914   3.648  2.1824 -0.9603  2.2383
 9285SOL     OW39316   1.590   2.959   3.226 -0.9719 -0.3476 -0.0044
 9285SOL    HW139317   1.604   2.912   3.145 -0.7913 -1.1480  0.4925
 9285SOL    HW239318   1.629   3.041   3.196 -1.1748  0.3493  1.6073
 9286SOL     OW39319   4.462   1.173   7.209  0.1460 -0.1223 -0.5020
 9286SOL    HW139320   4.451   1.140   7.298 -0.1866  0.7429 -0.2226
 9286SOL    HW239321   4.376   1.154   7.171 -0.0719  0.6978 -0.4146
 9287SOL     OW39322   2.894   0.254   0.878  0.2109  0.9744 -0.0370
 9287SOL    HW139323   2.815   0.265   0.931  1.0420  2.2089  0.9176
 9287SOL    HW239324   2.929   0.168   0.900 -1.4996  0.3390  0.2673
 9288SOL     OW39325   1.802   2.773   8.481  0.8121 -0.4445  0.2333
 9288SOL    HW139326   1.793   2.753   8.388  1.5354 -0.8783  0.2590
 9288SOL    HW239327   1.880   2.829   8.485  1.1004 -0.7650 -0.8437
 9289SOL     OW39328   2.670   2.289   8.056 -0.2897 -0.1574 -0.3128
 9289SOL    HW139329   2.586   2.278   8.101 -0.3007  0.0731 -0.2780
 9289SOL    HW239330   2.724   2.312   8.131 -0.4004  2.0974 -0.9293
 9290SOL     OW39331   2.294   4.481   7.812 -0.3913  0.2406 -0.4202
 9290SOL    HW139332   2.283   4.412   7.878 -1.3953 -0.9125 -1.8158
 9290SOL    HW239333   2.307   4.557   7.869 -0.9161  0.2584 -0.3291
 9291SOL     OW39334   1.343   2.446   3.116 -0.2943 -0.3258  0.3967
 9291SOL    HW139335   1.350   2.355   3.085  0.1016  0.1303 -0.8510
 9291SOL    HW239336   1.269   2.424   3.173 -0.8727  1.7078  0.4314
 9292SOL     OW39337   3.097   3.998  14.171 -0.4717 -0.2795  0.1012
 9292SOL    HW139338   3.044   3.959  14.102 -0.2518 -0.3868 -0.0094
 9292SOL    HW239339   3.041   3.996  14.248  0.0454 -0.0603  0.4802
 9293SOL     OW39340   3.631   3.527   8.216 -0.0493  0.1734  1.1840
 9293SOL    HW139341   3.671   3.614   8.215  0.0822  0.0864 -0.2858
 9293SOL    HW239342   3.709   3.480   8.246  0.5306  0.5307  0.2029
 9294SOL     OW39343   4.326   1.422   4.024  0.6170  0.0432  0.1956
 9294SOL    HW139344   4.402   1.421   4.082  0.5374  1.4728  0.3328
 9294SOL    HW239345   4.369   1.433   3.940  0.6913 -1.3260  0.0593
 9295SOL     OW39346   0.955   4.076   8.065  0.2811  0.2546  0.2837
 9295SOL    HW139347   0.884   4.018   8.039 -0.4130  1.4452 -0.5093
 9295SOL    HW239348   0.908   4.141   8.117 -0.7334  0.0063 -0.3299
 9296SOL     OW39349   0.675   0.430   7.776  0.0717  0.2635 -0.3542
 9296SOL    HW139350   0.615   0.370   7.819 -0.4567  0.0074 -1.4528
 9296SOL    HW239351   0.613   0.482   7.724 -0.0008  0.0100 -0.5178
 9297SOL     OW39352   3.615   2.472   7.569  0.2314 -0.6541 -0.0858
 9297SOL    HW139353   3.554   2.534   7.529  0.4546 -0.0935  0.4316
 9297SOL    HW239354   3.605   2.402   7.505  1.9446  0.3252 -1.4385
 9298SOL     OW39355   1.821   4.123  16.105 -0.4275 -0.1359  0.7266
 9298SOL    HW139356   1.744   4.067  16.104  0.2574 -1.0937  1.9506
 9298SOL    HW239357   1.885   4.077  16.159  0.1556  0.8991  0.9242
 9299SOL     OW39358   1.645   0.026   4.115  0.2524  0.2139  0.5372
 9299SOL    HW139359   1.730   0.068   4.128  1.3882 -1.9093  0.0385
 9299SOL    HW239360   1.582   0.097   4.130 -2.8445 -2.4003 -0.0483
 9300SOL     OW39361   1.002   2.576   2.046  0.2678  0.0356  0.3944
 9300SOL    HW139362   0.929   2.515   2.036 -0.1612  0.7447 -0.8904
 9300SOL    HW239363   1.076   2.528   2.082  0.3693 -0.4897 -0.5388
 9301SOL     OW39364   0.513   0.506   9.126  0.4654 -1.1530 -0.0035
 9301SOL    HW139365   0.560   0.432   9.163 -0.2234 -1.6913 -0.2100
 9301SOL    HW239366   0.458   0.531   9.201  1.5446  0.8359  0.1334
 9302SOL     OW39367   2.063   4.655   7.449 -0.3279 -0.1094 -0.1137
 9302SOL    HW139368   2.055   4.623   7.539  1.4426 -0.0465  0.0616
 9302SOL    HW239369   2.150   4.693   7.460  1.7285 -4.3645 -1.3988
 9303SOL     OW39370   3.805   0.152  11.670 -0.5863  0.0612 -0.1619
 9303SOL    HW139371   3.798   0.240  11.707 -1.5951 -0.7594  1.5535
 9303SOL    HW239372   3.899   0.143  11.652  0.2228  2.9272  2.6978
 9304SOL     OW39373   0.302   0.775   5.902 -0.2710  0.5164 -0.3362
 9304SOL    HW139374   0.210   0.776   5.875  0.2307  0.8606 -2.0566
 9304SOL    HW239375   0.317   0.866   5.878 -0.9490  0.2521 -1.7948
 9305SOL     OW39376   4.581   2.917   6.885 -0.2053  0.0185  0.0818
 9305SOL    HW139377   4.510   2.978   6.905 -0.4497 -0.4289  0.5732
 9305SOL    HW239378   4.560   2.849   6.950 -0.6366 -0.6239 -0.7271
 9306SOL     OW39379   1.694   3.673   9.846  0.1174  0.3994  0.2909
 9306SOL    HW139380   1.734   3.751   9.885  1.4674 -0.7616  1.2523
 9306SOL    HW239381   1.612   3.718   9.829 -0.6647 -0.8013  0.9254
 9307SOL     OW39382   3.661   1.409   4.850 -0.6209  0.1432  0.0102
 9307SOL    HW139383   3.620   1.332   4.890 -1.2506  0.3689 -0.1847
 9307SOL    HW239384   3.576   1.451   4.831 -0.5624 -0.6148 -1.9215
 9308SOL     OW39385   4.600   4.633   3.322  0.3294 -0.1448 -0.6474
 9308SOL    HW139386   4.528   4.674   3.273  0.3152 -0.0642 -0.5593
 9308SOL    HW239387   4.618   4.550   3.278  0.9300  0.2078 -1.0500
 9309SOL     OW39388   0.789   2.085   9.425  0.6228 -0.2426 -0.3663
 9309SOL    HW139389   0.828   2.015   9.478  0.9560 -1.1014 -1.7417
 9309SOL    HW239390   0.780   2.151   9.493 -0.0386 -0.8357  0.1327
 9310SOL     OW39391   2.729   0.209   4.009  1.2068 -0.1220  0.3570
 9310SOL    HW139392   2.781   0.132   4.030  1.1139 -0.3498 -0.2458
 9310SOL    HW239393   2.730   0.255   4.093  0.8367 -1.6132  1.1633
 9311SOL     OW39394   3.011   2.040  17.328  0.1388  0.0286 -0.3243
 9311SOL    HW139395   3.078   2.077  17.270 -2.8528 -0.1452 -3.9211
 9311SOL    HW239396   2.970   1.978  17.267 -1.2289 -0.7373  1.3826
 9312SOL     OW39397   3.221   1.741   0.301  0.2823  0.2619 -0.5161
 9312SOL    HW139398   3.226   1.789   0.219 -1.2557 -1.3562 -1.5427
 9312SOL    HW239399   3.302   1.776   0.339  0.4526  0.4158 -1.0332
 9313SOL     OW39400   1.525   4.402  15.182 -0.2802  0.1588 -0.2770
 9313SOL    HW139401   1.475   4.483  15.175  1.3828  1.2671  0.7700
 9313SOL    HW239402   1.481   4.344  15.245  2.7089 -0.2356  1.4061
 9314SOL     OW39403   0.355   4.627   0.732 -0.1243  0.7694 -0.6846
 9314SOL    HW139404   0.405   4.552   0.765 -1.5366 -0.4033 -1.1706
 9314SOL    HW239405   0.296   4.649   0.804 -0.0008  2.9015 -1.2428
 9315SOL     OW39406   3.423   2.701   8.858  0.6770 -0.4785  0.0220
 9315SOL    HW139407   3.334   2.675   8.837  1.0924 -2.5335  0.8575
 9315SOL    HW239408   3.437   2.680   8.950 -0.0032 -1.7552 -0.1749
 9316SOL     OW39409   3.494   2.579  17.310  0.0143 -0.1110 -0.5931
 9316SOL    HW139410   3.546   2.575  17.230  0.5888  0.6219 -0.2671
 9316SOL    HW239411   3.473   2.672  17.302  1.6666  0.3598  0.3932
 9317SOL     OW39412   0.390   0.414   8.268 -0.4113 -0.0446  0.2376
 9317SOL    HW139413   0.343   0.492   8.295 -0.3151 -0.8283  2.6698
 9317SOL    HW239414   0.329   0.350   8.303 -0.1933 -0.1152  0.4926
 9318SOL     OW39415   2.931   3.101   0.535  0.8791 -0.0874 -0.0569
 9318SOL    HW139416   2.988   3.047   0.480  1.7522 -1.2088  1.9808
 9318SOL    HW239417   2.949   3.186   0.495  0.5566  0.1602  0.3239
 9319SOL     OW39418   4.112   2.267  11.700  0.3220 -0.4336  0.1063
 9319SOL    HW139419   4.023   2.234  11.716  0.3780 -0.6848 -0.0986
 9319SOL    HW239420   4.114   2.339  11.763 -0.3171  0.5544 -1.0028
 9320SOL     OW39421   2.140   2.252  10.201  0.5505 -0.1189  0.1328
 9320SOL    HW139422   2.145   2.302  10.119  0.5095 -0.4217 -0.0534
 9320SOL    HW239423   2.065   2.297  10.240 -0.3653 -1.4908 -0.0384
 9321SOL     OW39424   1.033   0.146  17.418 -0.4448  0.5251  0.7833
 9321SOL    HW139425   1.034   0.139  17.323  0.4065 -1.8673  0.9764
 9321SOL    HW239426   0.941   0.155  17.443 -0.4087  1.6120  0.5154
 9322SOL     OW39427   1.321   1.557  12.995  0.2797  0.1232  0.2767
 9322SOL    HW139428   1.368   1.567  13.078 -1.3637 -0.1448  1.2449
 9322SOL    HW239429   1.234   1.538  13.031  0.5468 -1.9206 -0.1693
 9323SOL     OW39430   2.977   2.341   5.455 -0.2021 -0.4672  0.3203
 9323SOL    HW139431   3.034   2.321   5.381  0.5588 -3.3060  1.6525
 9323SOL    HW239432   2.901   2.288   5.430  0.0843 -1.3884  1.4072
 9324SOL     OW39433   4.274   0.795  13.776 -0.1911  0.1402  0.1749
 9324SOL    HW139434   4.280   0.703  13.749  2.7306  1.1701 -2.5923
 9324SOL    HW239435   4.292   0.795  13.870 -1.8414  1.0847  0.4998
 9325SOL     OW39436   0.960   1.548   3.994 -0.0265  0.0430 -0.1027
 9325SOL    HW139437   0.903   1.625   4.004 -0.9965 -0.8160  0.8976
 9325SOL    HW239438   1.019   1.572   3.922  0.6546 -0.5011  0.2763
 9326SOL     OW39439   2.177   0.755   6.485 -0.1938  0.0040 -0.0481
 9326SOL    HW139440   2.086   0.777   6.507 -0.0105  0.7819 -0.0521
 9326SOL    HW239441   2.177   0.679   6.426  1.6383  0.4044 -0.5740
 9327SOL     OW39442   3.225   3.606   6.015 -0.3802  0.0725 -0.3596
 9327SOL    HW139443   3.163   3.533   6.018  0.4473 -0.6432 -0.8028
 9327SOL    HW239444   3.267   3.590   5.931  1.6929  3.3505  0.0379
 9328SOL     OW39445   1.845   0.597   5.484  0.4318 -0.3283  0.0839
 9328SOL    HW139446   1.908   0.650   5.435 -1.5658 -0.4860 -2.6466
 9328SOL    HW239447   1.836   0.521   5.426 -2.6017  0.1971 -0.1126
 9329SOL     OW39448   2.469   1.243   0.909  0.1656  0.0862  0.0685
 9329SOL    HW139449   2.378   1.214   0.906 -0.3714  1.6845  0.3278
 9329SOL    HW239450   2.514   1.160   0.896 -1.0333 -0.5383 -0.0620
 9330SOL     OW39451   3.600   0.162   8.954  0.3200 -0.5503  0.2000
 9330SOL    HW139452   3.673   0.142   9.012  1.0799  0.2127 -0.4925
 9330SOL    HW239453   3.531   0.154   9.020  1.1133 -0.4595  1.0393
 9331SOL     OW39454   2.584   2.779  16.949  0.3815  0.1120  0.0617
 9331SOL    HW139455   2.634   2.707  16.910  0.7616  2.8065 -4.4435
 9331SOL    HW239456   2.550   2.812  16.866  1.1841  3.2603  0.9913
 9332SOL     OW39457   3.996   2.688  14.769  0.2556 -0.7661  0.4829
 9332SOL    HW139458   3.958   2.636  14.698  0.2406 -0.6810  0.4271
 9332SOL    HW239459   3.915   2.724  14.804  0.7092  0.5794  0.1719
 9333SOL     OW39460   2.660   3.861   7.508 -0.1387 -1.1748  0.4349
 9333SOL    HW139461   2.736   3.803   7.511  0.7836  0.0652  1.2342
 9333SOL    HW239462   2.607   3.823   7.438  0.7025  0.3273 -1.0152
 9334SOL     OW39463   0.901   2.878   8.053 -0.6141 -0.2186 -0.1953
 9334SOL    HW139464   0.957   2.829   7.994  0.7129  0.6429  0.3633
 9334SOL    HW239465   0.821   2.890   8.001  0.5570  0.2493 -1.8829
 9335SOL     OW39466   2.978   1.421  14.087  0.7097  0.0205 -0.4576
 9335SOL    HW139467   3.017   1.508  14.087  0.4316  0.1470 -1.2692
 9335SOL    HW239468   2.889   1.437  14.055  0.8399 -0.0233 -0.8412
 9336SOL     OW39469   3.802   3.124   7.589 -0.7612  0.2308  0.0941
 9336SOL    HW139470   3.798   3.148   7.682 -0.9972  3.7311 -0.8366
 9336SOL    HW239471   3.795   3.028   7.598  0.8654  0.1620  0.5026
 9337SOL     OW39472   3.614   0.418  16.276  0.5943  0.5921 -0.4876
 9337SOL    HW139473   3.695   0.442  16.321 -0.1699  0.4557  0.9817
 9337SOL    HW239474   3.556   0.398  16.350  0.3043 -2.1851 -1.4768
 9338SOL     OW39475   2.804   1.202   9.181  0.4479 -0.0277  0.1035
 9338SOL    HW139476   2.813   1.133   9.247  1.5716 -0.5083 -0.5536
 9338SOL    HW239477   2.897   1.217   9.166  0.4529 -1.9886 -1.8364
 9339SOL     OW39478   4.143   1.573   2.750  0.1531 -1.0708  0.4588
 9339SOL    HW139479   4.203   1.589   2.823  1.3814 -0.0239 -0.7644
 9339SOL    HW239480   4.192   1.606   2.675 -0.4513 -1.3219 -0.0423
 9340SOL     OW39481   3.452   3.638  17.305 -0.2830 -0.2846  0.3623
 9340SOL    HW139482   3.495   3.650  17.390  0.9171  2.3805 -0.6347
 9340SOL    HW239483   3.522   3.657  17.243  0.5721 -2.8466  0.5462
 9341SOL     OW39484   3.327   2.167  12.029  0.7702  0.2531 -0.0034
 9341SOL    HW139485   3.295   2.077  12.022  1.6289  0.0186 -1.0076
 9341SOL    HW239486   3.421   2.147  12.033  1.0134  1.6595  0.9778
 9342SOL     OW39487   3.213   2.821   3.870 -0.3889 -0.0149  0.5049
 9342SOL    HW139488   3.190   2.770   3.793  2.0512  0.7144 -0.7151
 9342SOL    HW239489   3.299   2.794   3.903 -0.7100 -0.5852  0.8654
 9343SOL     OW39490   0.407   2.919   8.449 -0.3512  0.2549 -0.3056
 9343SOL    HW139491   0.469   2.864   8.496 -1.0335  1.4068  1.9907
 9343SOL    HW239492   0.455   2.960   8.378 -0.8841  3.7113  1.2985
 9344SOL     OW39493   1.175   2.704   5.582  0.3755  0.0912  0.6388
 9344SOL    HW139494   1.198   2.795   5.601  2.5317  0.2987 -3.1501
 9344SOL    HW239495   1.245   2.679   5.522 -1.2252  0.3946 -1.3604
 9345SOL     OW39496   1.568   2.252   5.772  0.0100  0.1694  0.8190
 9345SOL    HW139497   1.635   2.229   5.708 -1.1823 -0.5890 -0.1525
 9345SOL    HW239498   1.532   2.168   5.799 -1.5256  1.0131  1.3835
 9346SOL     OW39499   1.235   1.502   7.109 -0.4277  0.4365 -0.3293
 9346SOL    HW139500   1.222   1.407   7.105  0.5945  0.2138  1.8381
 9346SOL    HW239501   1.282   1.514   7.191  2.0126 -2.3769 -1.3094
 9347SOL     OW39502   3.656   2.300  11.517  0.8021  0.0743  0.2883
 9347SOL    HW139503   3.679   2.391  11.502  0.7628  0.2417  1.2522
 9347SOL    HW239504   3.565   2.303  11.490  1.6601  0.6847 -2.5299
 9348SOL     OW39505   4.554   4.623  15.912 -0.2938  0.3657 -0.3420
 9348SOL    HW139506   4.595   4.571  15.843 -0.2424  2.3720 -1.7931
 9348SOL    HW239507   4.599   4.708  15.910  0.0882  0.2183  1.3287
 9349SOL     OW39508   4.218   4.259   4.391 -0.5021 -0.2881 -0.4845
 9349SOL    HW139509   4.235   4.235   4.300 -0.4831  0.3005 -0.6344
 9349SOL    HW239510   4.283   4.328   4.398  1.1947 -1.5836 -3.4572
 9350SOL     OW39511   4.398   1.729   3.852  0.4200 -0.3964 -0.9126
 9350SOL    HW139512   4.459   1.783   3.903  0.1407 -2.2849  1.3856
 9350SOL    HW239513   4.345   1.700   3.925  0.1768 -1.6485 -1.5804
 9351SOL     OW39514   0.185   3.907   6.983 -0.6412 -0.0818  0.2365
 9351SOL    HW139515   0.175   3.979   6.921 -0.9330 -1.0446 -0.8366
 9351SOL    HW239516   0.277   3.881   6.973 -0.0529  2.4128 -0.7839
 9352SOL     OW39517   4.504   0.345   2.037  0.6475 -0.4262 -0.5405
 9352SOL    HW139518   4.437   0.411   2.024  0.1493 -0.9238 -0.4719
 9352SOL    HW239519   4.453   0.282   2.088  0.7444  0.2824  0.4256
 9353SOL     OW39520   4.113   1.815   3.012 -0.1180  0.2324  0.2315
 9353SOL    HW139521   4.046   1.801   2.945  1.0606  2.1345 -1.3370
 9353SOL    HW239522   4.182   1.758   2.978  0.2578  1.7755 -1.6117
 9354SOL     OW39523   0.277   2.690  15.194  0.3932 -0.2267  0.3350
 9354SOL    HW139524   0.218   2.624  15.158 -0.5491  1.0324 -0.4185
 9354SOL    HW239525   0.232   2.769  15.165  1.1590  0.7066  1.6822
 9355SOL     OW39526   3.178   3.861  15.833 -0.4189 -0.0231 -0.8094
 9355SOL    HW139527   3.213   3.903  15.912 -0.6506  0.2549 -0.8519
 9355SOL    HW239528   3.218   3.774  15.836 -1.9137 -0.7303 -1.2691
 9356SOL     OW39529   0.167   1.770   0.926  0.4195 -0.3237 -0.8754
 9356SOL    HW139530   0.165   1.694   0.985  0.7002  1.2755  1.2050
 9356SOL    HW239531   0.153   1.838   0.992  1.5011 -0.5132 -0.4557
 9357SOL     OW39532   0.855   3.427  14.092 -0.2204  0.5276  0.1043
 9357SOL    HW139533   0.850   3.478  14.172  1.2842 -1.0599  1.1945
 9357SOL    HW239534   0.771   3.382  14.081  0.1085  0.1283 -0.8240
 9358SOL     OW39535   4.558   4.330  15.792  0.6896  0.7356 -0.4386
 9358SOL    HW139536   4.540   4.352  15.701 -0.1902 -0.3496 -0.5208
 9358SOL    HW239537   4.473   4.362  15.823  1.1777 -0.4999  2.1619
 9359SOL     OW39538   3.295   2.779   0.285  0.1136  0.2705 -0.1993
 9359SOL    HW139539   3.355   2.709   0.309  0.5467  0.7272  0.0505
 9359SOL    HW239540   3.317   2.795   0.194  1.2499  2.9995  0.5633
 9360SOL     OW39541   0.641   1.676   5.223 -0.6380 -0.1188 -0.4743
 9360SOL    HW139542   0.651   1.654   5.316 -0.6133  0.9528 -0.2313
 9360SOL    HW239543   0.562   1.731   5.227  0.2274  1.2839 -2.9877
 9361SOL     OW39544   2.203   3.297   1.230 -0.0413 -0.2944  0.9788
 9361SOL    HW139545   2.218   3.204   1.213  0.2320  0.0452 -0.5770
 9361SOL    HW239546   2.258   3.306   1.308 -0.9034 -0.2656  1.5935
 9362SOL     OW39547   3.269   4.551   6.411 -0.1560 -0.8462 -0.1794
 9362SOL    HW139548   3.331   4.508   6.353  1.3642 -0.9940  1.5305
 9362SOL    HW239549   3.193   4.495   6.425 -1.0935  0.7723  1.3145
 9363SOL     OW39550   2.153   0.692  12.130 -0.3031 -0.0362 -0.1935
 9363SOL    HW139551   2.176   0.610  12.173 -1.0444 -0.4670 -0.6089
 9363SOL    HW239552   2.240   0.730  12.131 -0.2654 -0.1092 -0.8027
 9364SOL     OW39553   2.902   1.680   6.285 -0.2469 -0.1891 -0.0222
 9364SOL    HW139554   2.918   1.590   6.313  0.1084  0.3731  1.6066
 9364SOL    HW239555   2.842   1.715   6.352  0.6189 -0.3726  0.8498
 9365SOL     OW39556   1.502   3.020   7.784 -0.0557 -0.1294 -0.3974
 9365SOL    HW139557   1.474   3.111   7.774  1.0646  0.3824  1.0388
 9365SOL    HW239558   1.591   3.031   7.818  0.5268 -1.5627 -1.4785
 9366SOL     OW39559   3.803   2.511  17.188 -0.7864 -0.2242  0.2517
 9366SOL    HW139560   3.732   2.500  17.125  1.3075  1.2629 -2.3422
 9366SOL    HW239561   3.791   2.438  17.250 -1.0001  1.0121  1.6775
 9367SOL     OW39562   0.251   4.147   3.748 -0.0939  0.2994 -0.1891
 9367SOL    HW139563   0.159   4.135   3.772  0.2190  0.7254  1.2660
 9367SOL    HW239564   0.228   4.218   3.689 -0.0114  1.4318  1.1387
 9368SOL     OW39565   3.541   1.583   7.046  0.6347  0.3116  0.3323
 9368SOL    HW139566   3.504   1.537   7.121  2.8425  0.5191  1.5602
 9368SOL    HW239567   3.492   1.666   7.044 -0.0678 -0.1420 -0.8297
 9369SOL     OW39568   4.331   3.146   0.870 -0.0100 -0.7968  0.1985
 9369SOL    HW139569   4.393   3.213   0.900  1.0337 -0.7818 -2.0002
 9369SOL    HW239570   4.309   3.175   0.782  1.2121 -0.8788 -0.1401
 9370SOL     OW39571   0.723   2.984   9.699  0.8642 -0.0021  0.3025
 9370SOL    HW139572   0.752   3.007   9.611  2.1192 -0.7608  0.5240
 9370SOL    HW239573   0.782   2.914   9.728  1.5535  0.0035 -1.1131
 9371SOL     OW39574   1.860   4.116   2.910  0.5310 -0.3778  0.7589
 9371SOL    HW139575   1.929   4.176   2.938 -0.4111  0.5779  1.0209
 9371SOL    HW239576   1.815   4.160   2.838  0.7688  1.5473  1.7706
 9372SOL     OW39577   1.162   0.960   5.047 -0.2662  0.1963 -0.1162
 9372SOL    HW139578   1.202   1.022   5.107  1.7613 -1.1234 -0.1050
 9372SOL    HW239579   1.122   1.013   4.978 -0.7992  2.1195  1.6878
 9373SOL     OW39580   4.454   0.748  15.795 -0.5753  0.0668  0.4074
 9373SOL    HW139581   4.514   0.755  15.721  0.0740 -0.6393  0.8686
 9373SOL    HW239582   4.490   0.803  15.865  0.2599 -0.0345  0.0638
 9374SOL     OW39583   2.834   2.576   2.677 -0.3368 -0.0664 -0.2364
 9374SOL    HW139584   2.928   2.558   2.682  0.0753  2.2899  0.8427
 9374SOL    HW239585   2.823   2.555   2.770  1.0062 -1.6453 -0.4390
 9375SOL     OW39586   4.426   0.854   5.185 -0.2227  0.2892  0.2162
 9375SOL    HW139587   4.415   0.770   5.140  0.3886  1.6970 -2.5771
 9375SOL    HW239588   4.498   0.835   5.245 -0.5675 -0.3933  0.4164
 9376SOL     OW39589   2.836   3.186  13.680 -0.1145 -0.0036  0.4262
 9376SOL    HW139590   2.824   3.193  13.775 -1.5749 -0.3595  0.2729
 9376SOL    HW239591   2.896   3.259  13.667 -3.1843  2.3397 -0.6562
 9377SOL     OW39592   4.446   2.499   0.482  0.1976 -0.2218  0.4346
 9377SOL    HW139593   4.524   2.479   0.430  0.4317 -0.4795  0.8893
 9377SOL    HW239594   4.416   2.409   0.492  1.1046 -0.5449  0.3025
 9378SOL     OW39595   0.365   0.829   7.432  0.1387  0.4712 -0.1515
 9378SOL    HW139596   0.289   0.844   7.376 -0.4994 -0.9047  0.3413
 9378SOL    HW239597   0.340   0.741   7.460 -1.1946  0.1332 -2.4191
 9379SOL     OW39598   0.644   2.544   7.797 -0.3557  0.4406 -0.0685
 9379SOL    HW139599   0.619   2.626   7.754  0.8401 -0.2782 -2.1306
 9379SOL    HW239600   0.739   2.544   7.790 -0.1940  0.6825  2.1973
 9380SOL     OW39601   4.349   0.071   5.138  0.0583 -0.1902  0.2883
 9380SOL    HW139602   4.333   4.712   5.191  3.3518 -0.4102  0.9195
 9380SOL    HW239603   4.310   0.040   5.056  2.7697 -0.7858 -0.7613
 9381SOL     OW39604   2.822   3.520  11.481 -0.0755 -0.4677  0.3059
 9381SOL    HW139605   2.884   3.563  11.422  1.4589  1.4846  3.3868
 9381SOL    HW239606   2.797   3.447  11.424  1.4104  0.4764 -1.5693
 9382SOL     OW39607   1.594   2.108  13.467  0.0342 -0.0445  0.2931
 9382SOL    HW139608   1.659   2.043  13.441  0.4933  0.2547  0.7030
 9382SOL    HW239609   1.538   2.057  13.525 -2.3962 -0.6130 -2.5094
 9383SOL     OW39610   2.293   0.242   2.976  0.3231  0.3878  0.2321
 9383SOL    HW139611   2.354   0.179   2.937  0.8199  1.1385 -0.2075
 9383SOL    HW239612   2.215   0.187   2.978  0.8416 -0.4522 -1.8783
 9384SOL     OW39613   2.033   3.049   7.571  0.2574 -0.3289 -0.5770
 9384SOL    HW139614   2.102   3.053   7.637 -2.1820  2.7796  1.7738
 9384SOL    HW239615   2.064   3.117   7.511  2.1226  1.4611  2.4428
 9385SOL     OW39616   1.045   1.246   7.855  0.7182 -0.0794 -0.1906
 9385SOL    HW139617   1.110   1.178   7.872  1.0162  0.6994  1.7627
 9385SOL    HW239618   1.105   1.321   7.858  0.5589  0.0205  0.4071
 9386SOL     OW39619   0.439   3.392   4.060  0.0535 -0.3981  0.1394
 9386SOL    HW139620   0.391   3.444   3.994  1.5555  1.2146  0.3260
 9386SOL    HW239621   0.410   3.440   4.138 -0.6533 -0.8480  0.1557
 9387SOL     OW39622   2.573   3.661   5.723 -0.0638  0.4991 -0.6444
 9387SOL    HW139623   2.480   3.641   5.709  0.1071 -0.4382 -0.4471
 9387SOL    HW239624   2.608   3.572   5.729  0.6909  0.6726 -2.4809
 9388SOL     OW39625   0.888   2.843   1.653 -0.0494 -0.2097  0.5403
 9388SOL    HW139626   0.954   2.776   1.672  2.1104  1.3284 -1.5302
 9388SOL    HW239627   0.857   2.861   1.741 -3.6564 -0.7045 -0.6221
 9389SOL     OW39628   0.650   1.599  17.308 -0.2953 -0.5760  0.2566
 9389SOL    HW139629   0.660   1.669  17.243  0.3229  0.0093  0.9775
 9389SOL    HW239630   0.560   1.568  17.297  0.1021 -2.0148  1.1467
 9390SOL     OW39631   4.683   1.289   7.340 -0.5629 -0.5804 -0.0728
 9390SOL    HW139632   4.632   1.246   7.271 -0.5414  0.3649 -0.6891
 9390SOL    HW239633   0.056   1.266   7.332  0.3622  3.3300 -0.6309
 9391SOL     OW39634   1.436   2.280   3.985 -0.3972  0.2644 -0.6620
 9391SOL    HW139635   1.396   2.367   3.979  0.6260  0.7814 -0.0957
 9391SOL    HW239636   1.490   2.293   3.907 -0.1948  0.6371 -0.4608
 9392SOL     OW39637   1.946   3.183   4.819 -0.4189 -0.1344  0.3191
 9392SOL    HW139638   1.991   3.162   4.737  1.6912 -1.5648  1.8594
 9392SOL    HW239639   2.013   3.201   4.885  0.6751  1.2366 -1.1708
 9393SOL     OW39640   3.163   1.247  14.187 -0.1232 -0.4951 -0.4716
 9393SOL    HW139641   3.192   1.300  14.260  1.6559  1.0453 -2.2888
 9393SOL    HW239642   3.097   1.305  14.148 -0.7865  0.6319  2.3655
 9394SOL     OW39643   3.035   0.295  10.676 -0.0413 -0.0792 -0.2982
 9394SOL    HW139644   3.071   0.208  10.655  0.9862 -0.3337  2.4679
 9394SOL    HW239645   3.097   0.354  10.632  0.8301  0.7637  2.0331
 9395SOL     OW39646   0.681   4.340  13.511  0.2930  0.3021  0.2202
 9395SOL    HW139647   0.634   4.288  13.446  2.0319  1.0172 -1.6420
 9395SOL    HW239648   0.617   4.347  13.581 -0.3450 -3.0090 -0.0110
 9396SOL     OW39649   2.173   2.696  11.356 -0.6495 -0.2279 -0.3347
 9396SOL    HW139650   2.206   2.783  11.334 -0.2568 -0.4167 -0.4811
 9396SOL    HW239651   2.089   2.695  11.310 -1.4498  2.2722  1.0694
 9397SOL     OW39652   3.947   0.853   6.609  0.1088 -0.4946 -0.3155
 9397SOL    HW139653   4.038   0.874   6.591 -0.1975  0.4907 -0.7078
 9397SOL    HW239654   3.954   0.757   6.610 -0.5275 -0.5249  0.7354
 9398SOL     OW39655   4.693   3.541  11.734 -0.3004 -0.3478 -0.0435
 9398SOL    HW139656   4.660   3.628  11.756  2.2210  0.8139 -0.9050
 9398SOL    HW239657   0.064   3.554  11.762 -0.6451 -0.3596  1.0741
 9399SOL     OW39658   1.516   1.468   9.417  0.0481 -0.4074  0.2660
 9399SOL    HW139659   1.465   1.391   9.395 -0.3560 -0.4204  1.2405
 9399SOL    HW239660   1.556   1.488   9.333 -0.4526 -1.2080 -0.1565
 9400SOL     OW39661   0.609   3.804   8.951 -0.2502 -0.0643  0.7876
 9400SOL    HW139662   0.555   3.732   8.982 -0.1082 -0.7262 -0.5247
 9400SOL    HW239663   0.654   3.825   9.033  0.1062  1.0985  0.3078
 9401SOL     OW39664   0.171   4.413   6.099 -0.1324 -0.1110  0.1366
 9401SOL    HW139665   0.236   4.345   6.083 -0.6230 -0.5522  0.0096
 9401SOL    HW239666   0.103   4.356   6.136  0.0087  0.5571  1.4113
 9402SOL     OW39667   4.099   2.868   9.763  0.3930  0.0026  0.1567
 9402SOL    HW139668   4.187   2.844   9.734 -0.1814  0.3470 -1.8597
 9402SOL    HW239669   4.063   2.894   9.679  1.2665 -2.3457 -0.9409
 9403SOL     OW39670   4.369   3.037   4.479 -0.1544 -0.0156 -0.3701
 9403SOL    HW139671   4.422   3.066   4.553  0.1135 -0.3267 -0.4381
 9403SOL    HW239672   4.433   3.052   4.409 -1.5570 -2.0113 -2.0709
 9404SOL     OW39673   3.473   1.476   7.962  0.3551 -0.6133  0.6760
 9404SOL    HW139674   3.425   1.395   7.947 -1.3873  0.9666 -2.3012
 9404SOL    HW239675   3.551   1.436   8.000  0.8128 -1.5179 -1.2237
 9405SOL     OW39676   4.577   2.630   7.632  0.7472  0.1253 -0.4477
 9405SOL    HW139677   4.515   2.621   7.559  0.7507  2.3343 -0.7309
 9405SOL    HW239678   4.599   2.723   7.625 -1.2082  0.5734 -0.6087
 9406SOL     OW39679   4.328   3.004   7.516 -0.4788  0.1051  0.2782
 9406SOL    HW139680   4.389   3.072   7.488  0.4578 -1.7461 -2.1806
 9406SOL    HW239681   4.372   2.921   7.496 -0.0082  0.6134 -0.7713
 9407SOL     OW39682   4.619   3.917   5.912 -0.0699 -0.2583  0.0730
 9407SOL    HW139683   4.682   3.907   5.983 -0.3822  1.5380  0.5939
 9407SOL    HW239684   4.579   3.831   5.922  1.1759 -0.5129  2.8142
 9408SOL     OW39685   2.166   1.396   9.092  0.6973  0.6946 -0.2023
 9408SOL    HW139686   2.238   1.427   9.037  0.2946 -0.3395 -1.3346
 9408SOL    HW239687   2.207   1.310   9.099  0.8837  0.8502  0.5634
 9409SOL     OW39688   2.480   0.860   8.359  0.3905 -0.4798  0.3845
 9409SOL    HW139689   2.422   0.901   8.295  0.9038  1.3322  1.0748
 9409SOL    HW239690   2.417   0.810   8.410  0.8812 -2.7322 -1.1934
 9410SOL     OW39691   1.293   1.548   5.281 -0.1779  0.0531  0.1531
 9410SOL    HW139692   1.312   1.641   5.292 -0.6163  0.1268  0.2682
 9410SOL    HW239693   1.351   1.517   5.211 -0.4011  0.1433 -0.0716
 9411SOL     OW39694   2.872   1.738   7.091 -0.5215 -0.2463  0.5123
 9411SOL    HW139695   2.797   1.791   7.119  0.3637  1.3963 -0.1804
 9411SOL    HW239696   2.895   1.696   7.174  0.7215 -1.7077 -0.5705
 9412SOL     OW39697   4.056   4.360   3.524  0.1464 -0.0427  0.2325
 9412SOL    HW139698   3.962   4.366   3.540  0.0325  0.1721 -0.5132
 9412SOL    HW239699   4.083   4.452   3.521 -0.5729  0.2211  1.4573
 9413SOL     OW39700   4.139   2.467  11.898  0.2893 -0.5985  0.3990
 9413SOL    HW139701   4.226   2.439  11.929  1.2110 -0.2474 -1.8534
 9413SOL    HW239702   4.112   2.532  11.963  0.8642 -0.7299  0.7695
 9414SOL     OW39703   1.632   0.746  11.056 -0.1522 -0.1533  0.0638
 9414SOL    HW139704   1.584   0.768  10.976 -1.4098  0.4262  0.9786
 9414SOL    HW239705   1.717   0.732  11.014 -0.2409  0.0051 -0.1736
 9415SOL     OW39706   4.150   2.293   0.913  0.7120  0.0545 -0.2057
 9415SOL    HW139707   4.135   2.296   0.818  0.0740 -1.4495 -0.1447
 9415SOL    HW239708   4.139   2.386   0.934 -1.5470 -0.2925  0.1188
 9416SOL     OW39709   0.021   1.634   7.950  0.7058  0.3097  0.5241
 9416SOL    HW139710   0.028   1.719   7.908 -0.2085  0.3594  0.4737
 9416SOL    HW239711   4.663   1.601   7.905  1.4151 -0.5258 -0.0847
 9417SOL     OW39712   3.247   3.488   4.116  0.0902  0.1012  0.0963
 9417SOL    HW139713   3.292   3.522   4.193 -0.2084 -0.9495  0.7278
 9417SOL    HW239714   3.167   3.444   4.143  0.8194 -2.2936 -1.6356
 9418SOL     OW39715   2.384   0.791   6.097  0.2101  0.8362  0.0439
 9418SOL    HW139716   2.440   0.717   6.074 -0.6230 -0.3567  1.8823
 9418SOL    HW239717   2.446   0.847   6.144  0.6849  0.2645  0.0921
 9419SOL     OW39718   4.571   2.522   2.694  0.0355  0.0523 -0.8713
 9419SOL    HW139719   4.558   2.573   2.774  1.8596 -1.9855  0.7189
 9419SOL    HW239720   4.657   2.552   2.664  1.4891 -0.7000  2.5754
 9420SOL     OW39721   1.466   4.588   5.455  0.2078  0.6933  0.3270
 9420SOL    HW139722   1.394   4.544   5.411 -1.1106 -0.3316  3.4723
 9420SOL    HW239723   1.507   4.520   5.509 -0.5790 -1.6688 -2.0858
 9421SOL     OW39724   3.092   2.196   0.099 -0.4458  0.1009  0.1164
 9421SOL    HW139725   3.005   2.159   0.081 -1.0799  0.4171  2.5443
 9421SOL    HW239726   3.097   2.197   0.194 -0.5512 -1.2781  0.1345
 9422SOL     OW39727   2.089   1.775   9.711  0.1300  0.3311 -0.0478
 9422SOL    HW139728   2.072   1.687   9.680  2.2278 -0.7700  1.9663
 9422SOL    HW239729   2.002   1.811   9.695 -0.8624 -0.8014  2.9294
 9423SOL     OW39730   4.264   1.728   4.092 -0.0144  0.1833  0.6937
 9423SOL    HW139731   4.250   1.637   4.067 -0.9054  0.5022  0.0222
 9423SOL    HW239732   4.259   1.727   4.187  0.8385 -4.9707  0.6745
 9424SOL     OW39733   0.316   1.485   9.755 -0.0794 -0.2831  0.2729
 9424SOL    HW139734   0.314   1.470   9.660 -1.5041 -0.5555  0.3383
 9424SOL    HW239735   0.337   1.579   9.759  0.2583 -0.4158  1.5779
 9425SOL     OW39736   4.323   1.409   3.096 -0.0643  0.5865 -0.1775
 9425SOL    HW139737   4.295   1.377   3.010 -0.8341 -0.0625  0.3131
 9425SOL    HW239738   4.249   1.390   3.154  0.9352  1.5420  1.4185
 9426SOL     OW39739   3.346   2.202   2.806 -0.0518  0.2992 -0.3587
 9426SOL    HW139740   3.280   2.175   2.742  0.1411  1.1547 -0.9164
 9426SOL    HW239741   3.303   2.254   2.875  0.3929  2.4590 -1.7201
 9427SOL     OW39742   1.722   3.884  14.661 -0.8513 -0.1448 -0.2864
 9427SOL    HW139743   1.671   3.894  14.581 -0.9636  1.7823  0.0222
 9427SOL    HW239744   1.759   3.972  14.655 -0.5193 -0.2790 -0.2016
 9428SOL     OW39745   4.606   4.318   7.124  0.3690  0.1987  0.3733
 9428SOL    HW139746   4.588   4.348   7.213 -0.1670 -0.5065  0.5004
 9428SOL    HW239747   4.664   4.243   7.135 -0.7238 -0.4852  1.4885
 9429SOL     OW39748   3.643   2.791   9.584  0.2409 -0.0118 -0.4086
 9429SOL    HW139749   3.699   2.716   9.606  1.4637  1.5447  1.7420
 9429SOL    HW239750   3.704   2.864   9.574  0.8801 -0.3136  1.2900
 9430SOL     OW39751   1.106   2.971   4.370 -0.1700  0.0600 -0.4198
 9430SOL    HW139752   1.164   2.921   4.426 -1.6622 -1.4672 -0.2241
 9430SOL    HW239753   1.025   2.997   4.414 -0.0767 -1.6068  0.7406
 9431SOL     OW39754   2.960   1.917   3.143 -0.0323 -0.0352 -0.1640
 9431SOL    HW139755   2.868   1.932   3.122 -0.6577 -0.0737  2.5009
 9431SOL    HW239756   2.999   1.878   3.065 -1.7175 -0.8683 -0.5784
 9432SOL     OW39757   2.154   0.435  12.246  0.3050 -0.2911 -0.3617
 9432SOL    HW139758   2.232   0.388  12.216  0.3442 -0.2698 -0.2948
 9432SOL    HW239759   2.145   0.397  12.334  0.0821  1.8401  0.5292
 9433SOL     OW39760   1.625   4.512   6.090 -0.3172  0.0201 -0.2620
 9433SOL    HW139761   1.534   4.540   6.080 -0.0550  0.5016 -1.2801
 9433SOL    HW239762   1.659   4.561   6.015  4.1363  0.9575  2.3434
 9434SOL     OW39763   2.890   1.786  11.811 -0.4537  0.8804 -0.6639
 9434SOL    HW139764   2.856   1.716  11.755  0.7068  0.0655 -0.3347
 9434SOL    HW239765   2.883   1.854  11.743 -1.6295  0.6230 -0.8047
 9435SOL     OW39766   2.413   3.711   3.329  0.6330  0.7634 -0.0255
 9435SOL    HW139767   2.404   3.769   3.404 -0.0569  0.5446  0.0550
 9435SOL    HW239768   2.506   3.704   3.308  0.2070  2.0508 -2.2979
 9436SOL     OW39769   2.223   1.647   4.839  0.0318  0.7307  0.0463
 9436SOL    HW139770   2.229   1.566   4.889 -3.4107 -1.1775 -2.6661
 9436SOL    HW239771   2.242   1.621   4.749 -1.6221 -2.2954  0.5982
 9437SOL     OW39772   0.992   1.481   2.280  0.4561 -0.0025 -0.7104
 9437SOL    HW139773   0.980   1.576   2.285 -0.9516 -0.0961 -2.4307
 9437SOL    HW239774   1.056   1.463   2.350 -0.1798 -0.2645 -0.2023
 9438SOL     OW39775   0.226   4.470  10.185  0.6802 -0.0413  0.2511
 9438SOL    HW139776   0.287   4.544  10.191  1.6867 -0.9592  1.3012
 9438SOL    HW239777   0.282   4.406  10.142 -2.6941 -1.5319 -1.9146
 9439SOL     OW39778   0.357   0.478   0.997  0.3422 -0.2723 -0.2498
 9439SOL    HW139779   0.304   0.552   1.027 -0.1031 -1.3911  1.7321
 9439SOL    HW239780   0.310   0.395   1.001 -0.0032 -0.0807 -0.3008
 9440SOL     OW39781   4.074   3.776   9.775  0.5322  0.2497  0.2965
 9440SOL    HW139782   4.074   3.786   9.680 -0.8430  3.3570  0.6464
 9440SOL    HW239783   4.166   3.785   9.800 -0.1747  0.6757  2.6758
 9441SOL     OW39784   3.168   4.277   2.407  0.5226 -0.5833  0.5535
 9441SOL    HW139785   3.149   4.317   2.491  1.1952  0.4322  0.2197
 9441SOL    HW239786   3.099   4.211   2.398  0.6882 -0.2282 -3.1823
 9442SOL     OW39787   2.128   3.744  11.703 -0.2518  0.4064  0.1937
 9442SOL    HW139788   2.100   3.816  11.760 -0.1314  2.3519 -2.2108
 9442SOL    HW239789   2.201   3.724  11.761  0.2753 -1.7389 -1.2088
 9443SOL     OW39790   0.703   4.245   3.611  0.7843  0.3430 -0.1701
 9443SOL    HW139791   0.647   4.181   3.654 -0.0018  0.6713 -0.7083
 9443SOL    HW239792   0.672   4.240   3.521  1.8538  0.2656 -0.5308
 9444SOL     OW39793   1.252   1.032   3.087  0.0379  0.0968 -0.3453
 9444SOL    HW139794   1.293   1.112   3.055  1.5655 -0.3915  0.4014
 9444SOL    HW239795   1.177   1.081   3.120 -0.5510 -0.3666 -0.9994
 9445SOL     OW39796   1.794   3.533  12.904  0.4862  0.6112 -1.0459
 9445SOL    HW139797   1.802   3.506  12.813  0.8082  0.5657 -1.0039
 9445SOL    HW239798   1.746   3.615  12.888 -1.1424 -0.2123 -0.3797
 9446SOL     OW39799   2.992   1.124   6.404  0.0442  0.2814  0.1881
 9446SOL    HW139800   2.974   1.065   6.478 -0.4115 -0.7158 -0.7281
 9446SOL    HW239801   2.952   1.079   6.330  1.1798 -0.7496  0.1957
 9447SOL     OW39802   2.204   1.372   4.934  0.5692  0.4454  0.4146
 9447SOL    HW139803   2.246   1.356   4.849 -1.8155  1.8975 -1.0519
 9447SOL    HW239804   2.258   1.321   4.994  0.1164 -0.7609 -0.2197
 9448SOL     OW39805   0.557   0.815   3.546  0.0109  0.0761  0.2034
 9448SOL    HW139806   0.619   0.748   3.575 -0.3838  0.0137  0.9123
 9448SOL    HW239807   0.552   0.809   3.451 -1.3567 -0.8623  0.3236
 9449SOL     OW39808   3.198   3.946   5.990 -0.0105 -0.7087 -0.1571
 9449SOL    HW139809   3.194   3.909   5.902  2.1931  0.0496 -0.5873
 9449SOL    HW239810   3.120   3.910   6.032 -0.5510  1.7024  0.8886
 9450SOL     OW39811   2.211   3.651   0.970  0.1653  0.1934  0.6048
 9450SOL    HW139812   2.226   3.744   0.953  4.0032 -0.7667 -1.2168
 9450SOL    HW239813   2.280   3.608   0.920  0.4247  1.2079  0.0967
 9451SOL     OW39814   4.472   1.713   5.810  0.2376 -0.1859 -0.7086
 9451SOL    HW139815   4.505   1.755   5.889  0.9326 -3.5255  0.7748
 9451SOL    HW239816   4.404   1.659   5.850 -0.4569  0.3095 -1.2375
 9452SOL     OW39817   4.072   1.042   5.169 -0.1923  0.1396  0.1204
 9452SOL    HW139818   4.156   1.073   5.136  0.3143 -1.8962 -0.5490
 9452SOL    HW239819   4.020   1.078   5.097  0.3303  1.5195  0.4474
 9453SOL     OW39820   2.373   1.020   3.445 -0.2448 -0.0336  0.9429
 9453SOL    HW139821   2.295   1.077   3.450  1.7684  2.6133  2.4019
 9453SOL    HW239822   2.406   1.041   3.358 -0.1472 -0.9075  0.7698
 9454SOL     OW39823   2.636   0.794  16.874  0.4204  0.0494 -0.6748
 9454SOL    HW139824   2.617   0.803  16.967  2.0500 -1.1274 -0.2427
 9454SOL    HW239825   2.690   0.715  16.871  2.1887  1.1993  1.0219
 9455SOL     OW39826   4.293   0.934   8.421 -0.2154 -0.1585 -0.2839
 9455SOL    HW139827   4.249   0.850   8.415  0.1486 -0.3512 -0.2363
 9455SOL    HW239828   4.229   0.994   8.460  2.1966  1.3041  1.4557
 9456SOL     OW39829   1.985   0.507  11.973  0.7616  0.0216 -0.3175
 9456SOL    HW139830   2.025   0.468  12.050  1.4783 -0.0708 -0.7347
 9456SOL    HW239831   1.995   0.600  11.993 -4.7305  0.8207 -1.0963
 9457SOL     OW39832   3.785   1.952  11.270  0.3226 -0.3792 -0.4852
 9457SOL    HW139833   3.754   1.961  11.360 -0.5193  3.0190 -1.1128
 9457SOL    HW239834   3.880   1.950  11.282  0.2794 -1.2721 -0.2924
 9458SOL     OW39835   1.920   2.214   8.601 -0.5155  0.6409  0.7492
 9458SOL    HW139836   1.856   2.206   8.530 -0.0207  0.4165  0.3333
 9458SOL    HW239837   1.994   2.194   8.544 -1.9089 -1.2348 -0.3980
 9459SOL     OW39838   2.247   4.637   2.452  0.3675  0.4156  0.0736
 9459SOL    HW139839   2.157   4.605   2.463  0.3832  0.6803  1.0309
 9459SOL    HW239840   2.238   0.011   2.472  0.4706  0.4310  0.0501
 9460SOL     OW39841   1.419   1.032   3.328  0.0239 -0.7047 -0.0592
 9460SOL    HW139842   1.439   1.103   3.267 -2.5391 -0.9516 -1.2030
 9460SOL    HW239843   1.360   0.985   3.269 -1.1205 -1.8099  1.9578
 9461SOL     OW39844   4.148   1.720  15.728 -0.0998  0.5172  0.0298
 9461SOL    HW139845   4.095   1.755  15.799 -1.9040 -3.0578  0.4668
 9461SOL    HW239846   4.099   1.725  15.646  0.5998  2.4630 -0.2725
 9462SOL     OW39847   4.464   2.617   3.142  0.2975  0.1614 -0.2569
 9462SOL    HW139848   4.406   2.693   3.135 -1.2114 -1.0091 -0.3556
 9462SOL    HW239849   4.427   2.563   3.073  0.6524  0.5672 -0.7637
 9463SOL     OW39850   3.555   2.874  17.298 -0.2662 -0.2724  0.2003
 9463SOL    HW139851   3.552   2.951  17.355 -0.1230 -1.4191  1.7650
 9463SOL    HW239852   3.481   2.887  17.240  0.0979 -0.8323 -0.3883
 9464SOL     OW39853   0.880   3.704   0.815  0.0299  0.1993 -0.5874
 9464SOL    HW139854   0.791   3.679   0.841  0.9979 -0.8875  1.6687
 9464SOL    HW239855   0.881   3.790   0.857 -0.0426  1.1755 -2.5949
 9465SOL     OW39856   0.778   3.648  16.052  0.2020 -0.8252  0.2641
 9465SOL    HW139857   0.737   3.608  16.129 -2.7823  0.0818 -0.8449
 9465SOL    HW239858   0.787   3.743  16.062 -0.7866 -0.6522 -0.5071
 9466SOL     OW39859   2.725   2.651  10.392  0.9764 -0.1185  0.2031
 9466SOL    HW139860   2.726   2.670  10.299 -2.3900 -2.7683 -0.3302
 9466SOL    HW239861   2.719   2.742  10.422 -1.7974 -0.1750 -0.2527
 9467SOL     OW39862   0.532   0.535   8.872 -0.0232 -0.6114  0.2911
 9467SOL    HW139863   0.522   0.553   8.965 -1.6003 -0.5377  0.1087
 9467SOL    HW239864   0.628   0.543   8.867  0.0076 -0.6525  0.8684
 9468SOL     OW39865   1.245   0.039   7.444 -0.1033  0.1930  0.0183
 9468SOL    HW139866   1.288   0.027   7.529  1.8792  3.2444 -0.5405
 9468SOL    HW239867   1.168   0.077   7.487  0.2248 -0.4310  1.1522
 9469SOL     OW39868   0.964   3.099   5.099  0.1392  0.1770 -0.0193
 9469SOL    HW139869   0.974   3.031   5.165 -1.0539 -0.7637 -0.8041
 9469SOL    HW239870   1.005   3.058   5.022 -1.7377  1.1352 -1.5194
 9470SOL     OW39871   3.771   0.721   6.976 -0.6001  0.0530 -0.1590
 9470SOL    HW139872   3.857   0.705   6.940 -0.4734  0.7792 -0.1825
 9470SOL    HW239873   3.749   0.814   6.981  0.9931  0.4784 -1.3664
 9471SOL     OW39874   3.677   1.317   5.950 -0.0269 -0.3837  0.6565
 9471SOL    HW139875   3.648   1.309   5.859  0.0191  0.8950  0.5305
 9471SOL    HW239876   3.686   1.411   5.969 -0.1897 -0.6545  2.0637
 9472SOL     OW39877   1.858   0.479   1.228 -0.1512 -0.1804 -1.0227
 9472SOL    HW139878   1.818   0.489   1.141 -0.9921 -0.5167 -0.6757
 9472SOL    HW239879   1.953   0.474   1.215 -0.5215 -1.3756 -3.2006
 9473SOL     OW39880   1.443   1.217   8.788 -0.0552 -0.0947  0.0083
 9473SOL    HW139881   1.471   1.298   8.744 -1.5128  1.6384  2.2604
 9473SOL    HW239882   1.367   1.255   8.831 -0.7383 -0.9450 -0.4516
 9474SOL     OW39883   1.413   2.826   6.870 -0.1228 -0.1419  0.4066
 9474SOL    HW139884   1.505   2.850   6.869 -0.4117  0.9393 -0.3985
 9474SOL    HW239885   1.371   2.910   6.850  0.8355 -0.2969 -2.2309
 9475SOL     OW39886   0.363   2.794   6.539  0.4407 -0.6158 -0.4210
 9475SOL    HW139887   0.336   2.885   6.536  1.5527 -0.3209 -1.4165
 9475SOL    HW239888   0.307   2.758   6.609 -1.1748  0.3017 -1.2561
 9476SOL     OW39889   0.127   0.512   4.641  0.5956 -0.0935  0.6210
 9476SOL    HW139890   0.107   0.493   4.733 -0.3025  0.6748  0.5925
 9476SOL    HW239891   0.211   0.469   4.631  0.4107 -0.3484  0.1929
 9477SOL     OW39892   3.936   1.200  15.420 -0.3011 -0.5416 -0.1439
 9477SOL    HW139893   3.955   1.106  15.411 -4.7831 -1.5841  1.0393
 9477SOL    HW239894   3.861   1.201  15.480 -0.6526 -2.3750 -0.5502
 9478SOL     OW39895   1.576   0.565  16.343  0.0283 -0.1541  0.3298
 9478SOL    HW139896   1.530   0.634  16.296 -1.1229 -0.3012  1.2554
 9478SOL    HW239897   1.661   0.605  16.356  0.2593 -0.7038  0.5249
 9479SOL     OW39898   2.391   2.387   9.995  0.8728  0.0207  0.3710
 9479SOL    HW139899   2.375   2.296   9.971 -0.0650  0.0384  0.9598
 9479SOL    HW239900   2.299   2.411   9.986  1.6507  2.7708 -0.1500
 9480SOL     OW39901   4.191   0.232  10.521  0.1059 -0.8695  0.1005
 9480SOL    HW139902   4.218   0.165  10.459  0.6406 -1.4905  1.0178
 9480SOL    HW239903   4.228   0.181  10.593  0.0155 -0.0072  0.7694
 9481SOL     OW39904   0.135   0.864   7.275 -0.1750 -0.1791 -0.1252
 9481SOL    HW139905   0.046   0.838   7.301  0.4333 -0.0389  2.0685
 9481SOL    HW239906   0.108   0.949   7.239 -2.0475 -1.5423 -2.0154
 9482SOL     OW39907   3.365   1.397   8.337  0.0414 -0.3917 -0.4142
 9482SOL    HW139908   3.387   1.487   8.313 -1.5238  0.7089  2.2662
 9482SOL    HW239909   3.440   1.349   8.303 -0.7000 -1.2523 -0.8314
 9483SOL     OW39910   1.244   4.153  11.045 -0.0690 -0.0200 -0.1008
 9483SOL    HW139911   1.277   4.160  10.956  0.5766 -0.4237  0.1087
 9483SOL    HW239912   1.285   4.234  11.077 -0.7448  0.7293 -1.1395
 9484SOL     OW39913   0.327   3.389   8.767  0.6351  0.5492  0.5524
 9484SOL    HW139914   0.368   3.375   8.682 -1.3881  2.4503 -0.7509
 9484SOL    HW239915   0.397   3.433   8.815 -0.2524  0.2268  2.1300
 9485SOL     OW39916   4.609   0.106   6.023  0.4376  0.0287 -0.5562
 9485SOL    HW139917   4.559   0.091   5.943  0.4669 -2.2314 -0.1503
 9485SOL    HW239918   4.588   0.198   6.037  0.1121 -0.0942 -0.2494
 9486SOL     OW39919   1.552   3.175   5.425  0.3389 -0.2364 -0.3252
 9486SOL    HW139920   1.542   3.239   5.355  1.6865 -0.2573 -0.5289
 9486SOL    HW239921   1.478   3.119   5.401 -0.2944  0.0342  1.0251
 9487SOL     OW39922   0.803   2.606   0.331  0.4648  0.4384  0.4899
 9487SOL    HW139923   0.744   2.623   0.404  0.1967  0.1613  0.3377
 9487SOL    HW239924   0.856   2.685   0.345  0.2808  0.9576 -1.6990
 9488SOL     OW39925   3.621   0.159   7.063 -0.1403  0.6602 -0.3661
 9488SOL    HW139926   3.625   0.076   7.110  0.6286  0.4971 -0.7128
 9488SOL    HW239927   3.662   0.214   7.130 -0.2323  1.8481 -1.2759
 9489SOL     OW39928   3.043   2.354   4.844 -0.1363 -0.8044 -0.1965
 9489SOL    HW139929   3.118   2.389   4.796 -0.4228  0.9490  0.6412
 9489SOL    HW239930   3.068   2.266   4.872  0.6710 -1.2856 -2.4188
 9490SOL     OW39931   0.253   3.600   9.401  0.1261  0.1555  0.1699
 9490SOL    HW139932   0.235   3.514   9.362  1.1806 -0.5453  1.2186
 9490SOL    HW239933   0.166   3.636   9.388 -0.4432 -1.0716  0.5495
 9491SOL     OW39934   2.984   1.603   7.317 -0.9844  0.1745  0.5779
 9491SOL    HW139935   2.933   1.657   7.377 -1.1446 -0.4041  0.9615
 9491SOL    HW239936   3.072   1.601   7.355 -0.9386 -0.1248  0.4632
 9492SOL     OW39937   1.426   0.835   4.390 -0.1180  0.8416 -0.0884
 9492SOL    HW139938   1.375   0.763   4.429 -1.2686  0.5833 -2.0350
 9492SOL    HW239939   1.358   0.901   4.379 -0.6077  0.5831  1.4566
 9493SOL     OW39940   0.147   3.507   1.376  0.1637  0.3111  0.0276
 9493SOL    HW139941   0.075   3.489   1.317  0.4176 -0.5391 -0.0128
 9493SOL    HW239942   0.097   3.504   1.457 -1.8334  0.9192 -1.1964
 9494SOL     OW39943   0.480   3.033   2.745 -0.4679  0.1845  0.3796
 9494SOL    HW139944   0.468   2.979   2.667  2.0905 -1.0923  0.8634
 9494SOL    HW239945   0.562   3.075   2.720  0.4423 -0.6202  2.0025
 9495SOL     OW39946   2.830   1.991  13.118  0.3639  0.0793  0.4676
 9495SOL    HW139947   2.776   1.955  13.048 -1.5845  2.1748  0.8895
 9495SOL    HW239948   2.804   2.083  13.113 -1.0322 -0.2836  0.9141
 9496SOL     OW39949   1.522   3.550   5.704  0.3463  0.0263  0.7530
 9496SOL    HW139950   1.499   3.457   5.698  0.0879  0.1893 -1.0027
 9496SOL    HW239951   1.438   3.597   5.704  0.4070  0.1342  0.2129
 9497SOL     OW39952   0.289   3.532   5.616 -0.3289  0.4023 -0.2238
 9497SOL    HW139953   0.303   3.490   5.531  0.7191  0.2015  0.0384
 9497SOL    HW239954   0.266   3.619   5.585 -3.3809 -0.6712 -0.9209
 9498SOL     OW39955   0.378   2.319   5.964  0.2130  0.3579 -0.2913
 9498SOL    HW139956   0.306   2.285   6.018 -0.0773 -0.1716 -1.0133
 9498SOL    HW239957   0.450   2.329   6.026  0.9828 -1.9883 -0.8081
 9499SOL     OW39958   2.278   2.132   8.747 -0.8247  0.1161 -0.5421
 9499SOL    HW139959   2.300   2.104   8.836 -1.6150 -0.4128 -0.5133
 9499SOL    HW239960   2.364   2.125   8.707  0.2318  1.6228  1.4664
 9500SOL     OW39961   3.643   1.636   1.929  0.5038  0.1686 -0.0300
 9500SOL    HW139962   3.607   1.716   1.968  1.6122 -0.8416  3.0663
 9500SOL    HW239963   3.633   1.574   2.001  0.4955 -1.1104 -1.1384
 9501SOL     OW39964   0.139   4.567   0.068  0.5305  0.3144  0.3181
 9501SOL    HW139965   0.131   4.661   0.088 -0.2760  0.4601 -0.6913
 9501SOL    HW239966   0.228   4.533   0.078 -0.2512 -1.0823  2.3331
 9502SOL     OW39967   1.952   4.079   6.485  0.0737  0.0920  0.5738
 9502SOL    HW139968   1.881   4.130   6.523 -1.0403 -1.1228  0.1494
 9502SOL    HW239969   2.009   4.145   6.446 -1.1461  1.5001  1.1978
 9503SOL     OW39970   0.344   0.285   9.070  0.2389 -0.0851  0.4298
 9503SOL    HW139971   0.395   0.367   9.073  2.3193 -1.3890  0.5986
 9503SOL    HW239972   0.354   0.263   9.163  0.2220 -3.7792 -0.4556
 9504SOL     OW39973   4.167   1.917  14.832  0.3067  0.6963 -0.6942
 9504SOL    HW139974   4.092   1.863  14.856  1.4666 -1.4142 -1.7758
 9504SOL    HW239975   4.180   1.894  14.740  1.1827 -1.8503  0.0818
 9505SOL     OW39976   4.235   4.685   1.963  0.3145 -0.2291 -0.4752
 9505SOL    HW139977   4.247   4.663   1.871  0.4702  0.0243 -0.5155
 9505SOL    HW239978   4.155   4.640   1.992  0.6906 -0.1306  0.7303
 9506SOL     OW39979   0.441   3.252   8.523 -0.1188  0.3969 -0.6139
 9506SOL    HW139980   0.476   3.190   8.587 -0.3346  0.7257 -0.1827
 9506SOL    HW239981   0.519   3.306   8.515  0.5591 -0.0682  2.6946
 9507SOL     OW39982   3.987   4.602   6.380  0.4088 -0.0539 -0.5078
 9507SOL    HW139983   4.034   4.600   6.296 -0.1386 -0.9822 -0.7880
 9507SOL    HW239984   4.056   4.595   6.446  2.6690  0.6952 -2.7554
 9508SOL     OW39985   3.298   3.895   3.645 -0.1550 -0.2703  0.0456
 9508SOL    HW139986   3.366   3.847   3.692 -0.3485 -0.8121 -0.2311
 9508SOL    HW239987   3.288   3.979   3.690 -0.5677 -0.1571 -0.2592
 9509SOL     OW39988   2.686   1.261  12.607  0.2158  0.6374  0.2184
 9509SOL    HW139989   2.669   1.316  12.530  0.7037  0.5921  0.0768
 9509SOL    HW239990   2.777   1.288  12.625  1.2670 -2.4407 -0.4612
 9510SOL     OW39991   2.427   1.789   9.542  0.2859 -0.3321  0.2524
 9510SOL    HW139992   2.416   1.694   9.550 -1.0898 -0.1564  0.4761
 9510SOL    HW239993   2.347   1.816   9.497  0.2858  0.1318  0.5393
 9511SOL     OW39994   1.313   2.275  15.466  0.1112 -0.1148  0.0216
 9511SOL    HW139995   1.335   2.350  15.522  1.1097 -0.6403  0.3249
 9511SOL    HW239996   1.237   2.240  15.511 -1.0375  0.9169 -1.0994
 9512SOL     OW39997   3.694   4.690   7.617 -0.3030  0.4110 -0.1072
 9512SOL    HW139998   3.610   4.660   7.650  0.3453  0.3473  1.4845
 9512SOL    HW239999   3.739   0.011   7.691 -1.3475  0.2091  0.6209
 9513SOL     OW40000   1.952   3.609   8.671  0.1869 -0.5331 -0.2747
 9513SOL    HW140001   1.947   3.678   8.605  3.2029  0.5174  0.5768
 9513SOL    HW240002   2.046   3.612   8.689  0.0895 -0.6594  0.2691
 9514SOL     OW40003   2.624   1.170   2.877 -0.7861  0.6716  0.4925
 9514SOL    HW140004   2.611   1.101   2.942 -1.9362  3.3024  3.0537
 9514SOL    HW240005   2.719   1.180   2.886 -1.0240  0.6349  3.0328
 9515SOL     OW40006   1.765   1.942   8.371 -0.0955  0.4701  0.1045
 9515SOL    HW140007   1.833   1.948   8.304  1.1701  1.4564  1.4676
 9515SOL    HW240008   1.813   1.884   8.431 -0.2335 -0.2327 -0.4708
 9516SOL     OW40009   0.587   3.059   7.149 -0.4854 -0.2844 -0.3488
 9516SOL    HW140010   0.513   3.119   7.140 -1.3545 -1.2685  0.3409
 9516SOL    HW240011   0.658   3.121   7.132 -0.4239  0.0693  1.1587
 9517SOL     OW40012   3.620   1.896   9.686  0.2028  0.0559 -0.1008
 9517SOL    HW140013   3.560   1.969   9.701 -0.3176 -0.5280  0.7093
 9517SOL    HW240014   3.564   1.818   9.680 -0.8257  0.5693  2.7536
 9518SOL     OW40015   2.308   0.631   4.459 -0.2137 -0.3277 -0.5003
 9518SOL    HW140016   2.226   0.598   4.421  0.4594 -1.4816 -0.9364
 9518SOL    HW240017   2.371   0.605   4.392  0.6584 -0.3814  0.3479
 9519SOL     OW40018   0.146   0.527  15.098  0.1598  0.0079 -0.0933
 9519SOL    HW140019   0.204   0.451  15.093  2.1304  1.3287  2.9156
 9519SOL    HW240020   0.080   0.523  15.030 -0.8124 -1.0154  0.9118
 9520SOL     OW40021   2.533   2.151   3.795  0.2598 -0.2312 -0.2778
 9520SOL    HW140022   2.505   2.108   3.875  1.7407 -2.5057 -0.9788
 9520SOL    HW240023   2.471   2.118   3.729 -1.4777  0.4425  1.0226
 9521SOL     OW40024   2.077   3.510  15.691 -0.4604 -0.2479 -0.2325
 9521SOL    HW140025   2.009   3.472  15.747 -0.3064 -0.4118 -0.1552
 9521SOL    HW240026   2.150   3.449  15.702 -0.4753  0.1222  1.9530
 9522SOL     OW40027   3.678   0.581   5.991 -0.3499 -0.1244  0.1574
 9522SOL    HW140028   3.749   0.582   6.055 -0.0577 -1.5150 -0.1614
 9522SOL    HW240029   3.711   0.531   5.916 -0.7072  0.3695 -0.3331
 9523SOL     OW40030   1.995   2.256   6.889  0.2933  0.2285 -0.0545
 9523SOL    HW140031   1.960   2.194   6.952 -0.4052  0.1318 -0.5379
 9523SOL    HW240032   2.088   2.234   6.879  1.0380  2.3853  2.1245
 9524SOL     OW40033   2.281   2.013  15.121  0.3185 -0.7778  0.5178
 9524SOL    HW140034   2.365   2.001  15.078  1.2709 -0.3508  2.2594
 9524SOL    HW240035   2.237   1.996  15.037 -1.8057 -0.5159  1.5692
 9525SOL     OW40036   3.435   3.334  11.865 -0.1817  0.0744 -0.3928
 9525SOL    HW140037   3.531   3.331  11.855 -0.2915  0.6282 -1.6016
 9525SOL    HW240038   3.401   3.311  11.779  0.5281 -1.4192 -0.2822
 9526SOL     OW40039   4.653   4.528   0.777  0.4186  0.5634  0.0263
 9526SOL    HW140040   4.606   4.607   0.801  0.4615  0.4093  0.6109
 9526SOL    HW240041   4.615   4.512   0.690  0.3900 -2.5282  0.6161
 9527SOL     OW40042   0.613   0.877  13.393 -0.1513 -0.3086  0.2500
 9527SOL    HW140043   0.629   0.803  13.334  0.2295 -1.0909  1.3164
 9527SOL    HW240044   0.637   0.827  13.472 -0.1315  1.2030  1.1921
 9528SOL     OW40045   4.357   4.199   6.749 -0.0714  0.5289  0.2172
 9528SOL    HW140046   4.423   4.130   6.748  0.7364  1.3186 -0.3190
 9528SOL    HW240047   4.320   4.189   6.837  4.4174 -0.4644  1.9821
 9529SOL     OW40048   1.478   4.541  11.655  0.2237  0.0521  0.2610
 9529SOL    HW140049   1.437   4.456  11.640 -0.0124  0.0282  1.0616
 9529SOL    HW240050   1.514   4.563  11.569 -0.0553 -0.0234  0.1239
 9530SOL     OW40051   4.263   4.521   2.770  0.0703  0.3974  0.4498
 9530SOL    HW140052   4.169   4.514   2.749  0.3837  0.1581 -0.8755
 9530SOL    HW240053   4.302   4.536   2.684 -1.0165  0.1652 -0.0852
 9531SOL     OW40054   2.587   2.745  11.185  0.2521 -0.5973  0.0629
 9531SOL    HW140055   2.659   2.682  11.191  0.0936 -1.0620 -2.7156
 9531SOL    HW240056   2.600   2.781  11.097  0.5209 -3.2986 -1.0161
 9532SOL     OW40057   3.793   4.165  17.132 -0.1162 -0.5921 -0.0492
 9532SOL    HW140058   3.874   4.210  17.157  0.7322 -1.4416 -1.2570
 9532SOL    HW240059   3.806   4.173  17.037 -0.2924  0.5018  0.0177
 9533SOL     OW40060   3.823   1.985   3.566  0.5067 -0.3956 -0.1763
 9533SOL    HW140061   3.826   2.014   3.657  2.0736  0.1991 -0.4172
 9533SOL    HW240062   3.891   1.918   3.571  0.3874 -0.6233 -1.4342
 9534SOL     OW40063   0.114   0.939   1.207  0.1635 -0.4006 -0.6571
 9534SOL    HW140064   0.065   1.020   1.190  0.2733 -0.3018 -0.5127
 9534SOL    HW240065   0.204   0.957   1.181  0.2940  1.5224  1.0948
 9535SOL     OW40066   2.533   2.848   5.652 -0.3962 -0.4885 -0.3287
 9535SOL    HW140067   2.626   2.859   5.629 -0.3296 -1.8540 -0.7119
 9535SOL    HW240068   2.536   2.887   5.740 -0.2429 -1.7511  0.2357
 9536SOL     OW40069   3.225   0.738   8.177 -0.5488  0.0924  0.3558
 9536SOL    HW140070   3.237   0.657   8.127 -1.0070 -0.6629  1.4779
 9536SOL    HW240071   3.300   0.740   8.236 -1.1427  0.3373  1.1072
 9537SOL     OW40072   2.385   2.575   8.128  0.5417  0.1675 -0.3415
 9537SOL    HW140073   2.367   2.613   8.041  0.7572  0.7840 -0.1187
 9537SOL    HW240074   2.472   2.615   8.134 -0.6548  2.4092  1.8761
 9538SOL     OW40075   4.401   1.225   8.362 -0.1234  0.4688 -0.4633
 9538SOL    HW140076   4.377   1.228   8.455 -0.1202  0.1353 -0.4505
 9538SOL    HW240077   4.347   1.150   8.336 -0.5403  1.5553 -2.6821
 9539SOL     OW40078   0.465   1.265   6.300  0.0654  0.4085 -0.4643
 9539SOL    HW140079   0.500   1.231   6.382  0.0392 -0.6456 -0.8827
 9539SOL    HW240080   0.373   1.280   6.324 -0.2734 -2.4586  0.0481
 9540SOL     OW40081   0.931   2.904  13.304 -0.5946 -0.2174 -0.3222
 9540SOL    HW140082   0.994   2.863  13.363  0.3579 -1.8609 -2.4529
 9540SOL    HW240083   0.855   2.910  13.362 -0.3489 -2.0606  0.1909
 9541SOL     OW40084   0.152   0.967   7.577  0.0774 -0.3206 -0.3455
 9541SOL    HW140085   0.183   0.884   7.612 -0.9925 -0.6220 -0.1294
 9541SOL    HW240086   0.084   0.939   7.516  1.3075  0.7530 -2.2238
 9542SOL     OW40087   0.676   0.772   6.933  0.2505 -0.1329 -0.3542
 9542SOL    HW140088   0.735   0.723   6.990  0.6403  1.9437  1.0362
 9542SOL    HW240089   0.701   0.857   6.970 -2.7692 -0.3612  2.1286
 9543SOL     OW40090   1.392   2.923   7.455  0.0473 -0.2065  0.3771
 9543SOL    HW140091   1.441   2.998   7.421 -1.0563  0.2005 -0.3243
 9543SOL    HW240092   1.453   2.890   7.520  0.5931  1.2491  0.5935
 9544SOL     OW40093   1.646   3.664   3.491 -0.2212  0.0729  0.5094
 9544SOL    HW140094   1.683   3.587   3.535  1.4104  0.1083 -0.8044
 9544SOL    HW240095   1.718   3.686   3.431  0.0147  1.5306  1.3320
 9545SOL     OW40096   1.106   4.304   7.609  0.0825 -0.1284 -0.0585
 9545SOL    HW140097   1.033   4.357   7.580  0.6553  1.2949  1.1092
 9545SOL    HW240098   1.174   4.368   7.630  0.0640  0.1037 -0.7007
 9546SOL     OW40099   1.560   1.620   8.446  0.0007  0.0074  0.3984
 9546SOL    HW140100   1.562   1.583   8.358  1.0547  1.7923 -0.3212
 9546SOL    HW240101   1.597   1.708   8.433  0.4875 -0.4744 -1.4186
 9547SOL     OW40102   4.150   0.244   6.993 -0.1100  0.1520 -0.5189
 9547SOL    HW140103   4.240   0.268   6.968  0.3689 -0.0195  0.9956
 9547SOL    HW240104   4.116   0.205   6.913 -0.7278 -0.5845  0.1074
 9548SOL     OW40105   1.660   2.961   9.532  0.0419 -0.0827  0.0773
 9548SOL    HW140106   1.678   2.867   9.536 -1.4724 -0.3573  0.5468
 9548SOL    HW240107   1.598   2.970   9.605 -0.0295 -0.7669  0.0999
 9549SOL     OW40108   1.843   1.512   2.414  0.3422 -0.4065  0.4618
 9549SOL    HW140109   1.879   1.431   2.377 -0.2632 -0.1328 -0.7084
 9549SOL    HW240110   1.799   1.563   2.346  1.0230  1.3613  1.3571
 9550SOL     OW40111   2.240   1.338  15.717  0.3213  0.2149  0.0903
 9550SOL    HW140112   2.171   1.355  15.781 -0.6077 -1.8122 -0.3641
 9550SOL    HW240113   2.212   1.254  15.681 -0.2896  0.9907 -1.2133
 9551SOL     OW40114   0.071   2.972   6.709 -0.4847 -0.3452 -0.0078
 9551SOL    HW140115   0.011   3.008   6.643 -0.2982 -0.5957 -0.3152
 9551SOL    HW240116   0.020   2.969   6.790 -1.6251  2.6992 -0.5800
 9552SOL     OW40117   3.919   1.437   8.510 -0.1211 -0.0729 -0.6781
 9552SOL    HW140118   3.980   1.424   8.437 -1.3931  0.1775 -1.7807
 9552SOL    HW240119   3.848   1.474   8.458 -1.5405 -2.2428 -0.2973
 9553SOL     OW40120   0.393   0.064   1.028  0.6513 -0.4354 -0.0024
 9553SOL    HW140121   0.355   4.698   1.048 -0.8153  0.8893  2.9025
 9553SOL    HW240122   0.332   0.099   0.963  0.6805 -0.5441 -0.0879
 9554SOL     OW40123   3.105   1.814   5.062  0.2615 -0.1795 -0.4276
 9554SOL    HW140124   3.141   1.825   4.974  0.8815  0.0120 -0.1554
 9554SOL    HW240125   3.181   1.800   5.119  0.3008  0.0742 -0.4194
 9555SOL     OW40126   4.060   1.940  11.278  0.0292  0.9072  0.0748
 9555SOL    HW140127   4.147   1.968  11.251  0.6241 -0.2001  0.8658
 9555SOL    HW240128   4.082   1.886  11.354 -0.4919  1.2259  0.4517
 9556SOL     OW40129   3.725   3.251   8.818 -0.6025 -0.0701  0.1538
 9556SOL    HW140130   3.792   3.317   8.800 -1.2607  0.4352 -0.3988
 9556SOL    HW240131   3.653   3.272   8.759 -0.5112 -0.5190 -0.1156
 9557SOL     OW40132   1.394   0.673   8.782 -0.3428  1.1087 -0.0155
 9557SOL    HW140133   1.312   0.712   8.813 -0.6611  0.4795 -0.0734
 9557SOL    HW240134   1.441   0.747   8.744  0.8940  0.8344  0.9549
 9558SOL     OW40135   2.242   0.182  16.713  0.0231  0.5166  0.0571
 9558SOL    HW140136   2.335   0.205  16.707 -0.2830  1.2487 -1.9336
 9558SOL    HW240137   2.243   0.091  16.684 -3.2998  0.1391  1.1110
 9559SOL     OW40138   1.250   0.852   6.646  0.0944  0.3114  0.1709
 9559SOL    HW140139   1.259   0.850   6.550 -1.6392  1.4464 -0.0179
 9559SOL    HW240140   1.301   0.780   6.683  1.0594  1.7389  1.6341
 9560SOL     OW40141   0.717   4.139   7.386  0.1445  0.9576  0.4280
 9560SOL    HW140142   0.722   4.105   7.475  2.0045  0.4376  0.1263
 9560SOL    HW240143   0.762   4.073   7.333  0.1338  0.1575  1.4301
 9561SOL     OW40144   0.253   0.506  17.266 -0.4750  0.2089  0.0372
 9561SOL    HW140145   0.307   0.547  17.334 -0.9310 -0.2931  0.7037
 9561SOL    HW240146   0.166   0.545  17.278 -0.0807  0.5367  1.9024
 9562SOL     OW40147   3.808   4.040   6.045 -0.7008  0.5448  0.0054
 9562SOL    HW140148   3.838   4.059   6.134  0.6404 -1.0177 -0.1187
 9562SOL    HW240149   3.791   4.128   6.011 -2.2425 -0.5409 -1.9847
 9563SOL     OW40150   1.379   2.873  11.463 -0.1593  0.0243 -0.0167
 9563SOL    HW140151   1.375   2.897  11.371 -0.3770 -0.5922 -0.1720
 9563SOL    HW240152   1.389   2.960  11.501  0.5157  0.8888 -2.1860
 9564SOL     OW40153   3.346   0.066  16.306 -0.6632 -0.0189 -0.0949
 9564SOL    HW140154   3.281   0.066  16.236 -0.3896 -0.1462 -0.3474
 9564SOL    HW240155   3.426   0.078  16.256 -0.3593  0.4284  0.5094
 9565SOL     OW40156   3.766   3.757  10.817  0.3695  0.5627  0.0870
 9565SOL    HW140157   3.673   3.772  10.832  0.3350  0.5497 -0.1277
 9565SOL    HW240158   3.760   3.681  10.760  1.5043 -0.1511  0.8979
 9566SOL     OW40159   2.253   4.586   7.237 -0.2377  0.7144  0.2020
 9566SOL    HW140160   2.172   4.619   7.277 -0.6558 -0.3600  0.2511
 9566SOL    HW240161   2.265   4.512   7.296 -0.5177 -0.6665 -1.4634
 9567SOL     OW40162   0.376   3.723   0.129 -0.6684  0.0969 -0.2618
 9567SOL    HW140163   0.334   3.674   0.200  0.2484  1.1541  1.0204
 9567SOL    HW240164   0.447   3.668   0.098 -0.7862 -1.0359  1.4636
 9568SOL     OW40165   0.536   3.834  11.077  0.1277 -0.4783  0.1253
 9568SOL    HW140166   0.611   3.875  11.122 -0.1789 -0.5999  0.7442
 9568SOL    HW240167   0.472   3.894  11.116  1.1976  0.0576  1.0522
   4.71959   4.71959  17.68115
